                         Program Version 4.2.0 -  RELEASE  -
|  1> # ORCA input file
|  2> # SCF done       -191.233327886610          0.000944720409
|  3> ! CAM-B3LYP def2-SVP def2/J RIJCOSX Grid4 TightSCF
|  4> %maxcore 5000
|  5> %tddft
|  6>     Mode sTDDFT
|  7>     Ethresh 5.0
|  8>     maxcore 5000
|  9> end
| 10>
| 11> %pal
| 12>   nprocs 6
| 13>   end
| 14> * xyz 0 1
| 15>    C        7.33586         5.02591        -5.61858
| 16>    C        6.52891         4.73178        -4.60309
| 17>    C        6.00829         3.41973        -4.32197
| 18>    S        6.12083         2.15725        -5.51155
| 19>    C        5.19333         1.08054        -4.51443
| 20>    C        4.94150        -0.24445        -5.07054
| 21>    C        3.76393        -0.56087        -5.75910
| 22>    N        2.70470         0.23586        -5.94441
| 23>    S        1.60323        -0.55789        -6.79441
| 24>    N        2.39209        -1.94455        -6.97594
| 25>    C        3.57906        -1.85224        -6.37419
| 26>    C        4.56377        -2.87195        -6.33130
| 27>    C        4.25527        -4.10555        -6.96113
| 28>    C        5.05668        -5.20645        -7.05096
| 29>    C        4.71474        -6.43766        -7.63714
| 30>    S        6.01949        -7.53610        -7.98378
| 31>    C        4.97940        -8.70590        -8.72083
| 32>    C        5.48735        -9.85131        -9.38283
| 33>    C        5.01848       -10.37545       -10.56289
| 34>    C        5.92090       -11.40140       -10.99370
| 35>    C        5.74387       -12.16998       -12.15136
| 36>    N        5.58297       -12.78977       -13.10456
| 37>    C        6.96304       -11.50324       -10.09553
| 38>    C        6.72380       -10.58784        -9.03309
| 39>    C        7.37230       -10.55749        -7.81673
| 40>    C        6.80725       -10.16289        -6.56760
| 41>    C        7.70071       -10.48898        -5.57383
| 42>    C        7.49969       -10.32433        -4.19823
| 43>    N        7.33617       -10.19730        -3.06838
| 44>    C        8.88994       -11.04774        -6.16607
| 45>    C        8.71774       -11.10388        -7.52068
| 46>    C        9.66719       -11.48624        -8.51116
| 47>    C       10.76172       -12.24719        -8.27763
| 48>    C       11.67547       -12.65345        -9.28678
| 49>    S       11.47586       -12.16448       -10.95287
| 50>    C       12.84730       -13.07540       -11.42180
| 51>    C       13.43667       -13.71848       -10.37216
| 52>    C       12.77561       -13.48006        -9.14642
| 53>    C       13.19756       -14.11569        -7.86102
| 54>    C       14.57821       -14.77353        -7.95913
| 55>    O       15.61904       -13.84035        -7.78436
| 56>    C       14.75966       -15.54056        -9.28769
| 57>    C       13.75901       -16.68161        -9.43160
| 58>    O       12.81717       -16.86830        -8.71934
| 59>    O       14.01651       -17.51645       -10.45286
| 60>    C       14.66118       -14.57391       -10.48012
| 61>    C        3.64000        -8.27789        -8.65489
| 62>    C        2.51252        -9.01425        -9.05182
| 63>    C        1.25872        -8.49426        -8.86303
| 64>    S       -0.20226        -9.37899        -9.34728
| 65>    C        1.08601        -7.23095        -8.23878
| 66>    O       -0.13719        -6.70862        -8.01586
| 67>    C        2.18413        -6.51539        -7.81488
| 68>    C        3.47965        -7.00641        -8.02605
| 69>    C        5.75588        -2.53034        -5.64537
| 70>    N        6.75994        -3.42912        -5.56047
| 71>    C        7.84933        -3.10908        -4.94270
| 72>    F        8.81851        -4.02475        -4.89265
| 73>    C        8.01343        -1.83563        -4.33456
| 74>    F        9.13620        -1.53399        -3.68503
| 75>    N        7.08388        -0.94454        -4.38436
| 76>    C        5.93049        -1.23564        -5.03905
| 77>    C        4.84923         1.65586        -3.32336
| 78>    C        5.33939         2.98516        -3.20174
| 79>    C        5.18330         3.82739        -1.96434
| 80>    C        6.55660         4.14335        -1.35781
| 81>    C        4.31141         3.14473        -0.89953
| 82>    C        3.30569         2.17516        -1.50132
| 83>    C        4.04530         1.03790        -2.21396
| 84>    C        3.06324        -0.03437        -2.67334
| 85>    H        7.67901         6.02975        -5.79616
| 86>    H        7.67994         4.26532        -6.29980
| 87>    H        6.20023         5.51456        -3.93180
| 88>    H        3.28085        -4.10982        -7.42568
| 89>    H        6.06612        -5.13036        -6.67212
| 90>    H        4.17955       -10.03143       -11.13745
| 91>    H        7.73960       -12.24168       -10.13087
| 92>    H        5.80765        -9.80555        -6.41251
| 93>    H        9.76175       -11.32948        -5.60716
| 94>    H        9.49030       -11.13905        -9.52036
| 95>    H       10.95501       -12.62345        -7.28345
| 96>    H       13.14524       -13.08906       -12.45162
| 97>    H       12.46573       -14.88046        -7.59043
| 98>    H       13.22799       -13.37749        -7.05523
| 99>    H       14.69313       -15.48283        -7.13243
|100>    H       15.44071       -13.07375        -8.34150
|101>    H       15.76524       -15.98120        -9.27593
|102>    H       14.82118       -17.28821       -10.93720
|103>    H       14.64597       -15.11508       -11.43071
|104>    H       15.55395       -13.93852       -10.49082
|105>    H        2.64241        -9.99774        -9.47572
|106>    H        0.43306       -10.44553        -9.81839
|107>    H       -0.83052        -7.29920        -8.33923
|108>    H        2.00192        -5.59295        -7.29322
|109>    H        4.70745         4.77117        -2.25983
|110>    H        7.06860         3.21869        -1.09951
|111>    H        6.43547         4.73716        -0.45394
|112>    H        7.18465         4.69241        -2.05347
|113>    H        3.79500         3.90802        -0.31417
|114>    H        4.95518         2.58709        -0.21477
|115>    H        2.66139         2.69078        -2.21698
|116>    H        2.67501         1.76462        -0.71015
|117>    H        4.74333         0.58029        -1.49946
|118>    H        2.42166         0.35277        -3.46125
|119>    H        2.43974        -0.34256        -1.83595
|120>    H        3.58702        -0.91182        -3.04534
|121> *
|122>
|123>                          ****END OF INPUT****

CARTESIAN COORDINATES (ANGSTROEM)
---------------------------------
  C      7.335860    5.025910   -5.618580
  C      6.528910    4.731780   -4.603090
  C      6.008290    3.419730   -4.321970
  S      6.120830    2.157250   -5.511550
  C      5.193330    1.080540   -4.514430
  C      4.941500   -0.244450   -5.070540
  C      3.763930   -0.560870   -5.759100
  N      2.704700    0.235860   -5.944410
  S      1.603230   -0.557890   -6.794410
  N      2.392090   -1.944550   -6.975940
  C      3.579060   -1.852240   -6.374190
  C      4.563770   -2.871950   -6.331300
  C      4.255270   -4.105550   -6.961130
  C      5.056680   -5.206450   -7.050960
  C      4.714740   -6.437660   -7.637140
  S      6.019490   -7.536100   -7.983780
  C      4.979400   -8.705900   -8.720830
  C      5.487350   -9.851310   -9.382830
  C      5.018480  -10.375450  -10.562890
  C      5.920900  -11.401400  -10.993700
  C      5.743870  -12.169980  -12.151360
  N      5.582970  -12.789770  -13.104560
  C      6.963040  -11.503240  -10.095530
  C      6.723800  -10.587840   -9.033090
  C      7.372300  -10.557490   -7.816730
  C      6.807250  -10.162890   -6.567600
  C      7.700710  -10.488980   -5.573830
  C      7.499690  -10.324330   -4.198230
  N      7.336170  -10.197300   -3.068380
  C      8.889940  -11.047740   -6.166070
  C      8.717740  -11.103880   -7.520680
  C      9.667190  -11.486240   -8.511160
  C     10.761720  -12.247190   -8.277630
  C     11.675470  -12.653450   -9.286780
  S     11.475860  -12.164480  -10.952870
  C     12.847300  -13.075400  -11.421800
  C     13.436670  -13.718480  -10.372160
  C     12.775610  -13.480060   -9.146420
  C     13.197560  -14.115690   -7.861020
  C     14.578210  -14.773530   -7.959130
  O     15.619040  -13.840350   -7.784360
  C     14.759660  -15.540560   -9.287690
  C     13.759010  -16.681610   -9.431600
  O     12.817170  -16.868300   -8.719340
  O     14.016510  -17.516450  -10.452860
  C     14.661180  -14.573910  -10.480120
  C      3.640000   -8.277890   -8.654890
  C      2.512520   -9.014250   -9.051820
  C      1.258720   -8.494260   -8.863030
  S     -0.202260   -9.378990   -9.347280
  C      1.086010   -7.230950   -8.238780
  O     -0.137190   -6.708620   -8.015860
  C      2.184130   -6.515390   -7.814880
  C      3.479650   -7.006410   -8.026050
  C      5.755880   -2.530340   -5.645370
  N      6.759940   -3.429120   -5.560470
  C      7.849330   -3.109080   -4.942700
  F      8.818510   -4.024750   -4.892650
  C      8.013430   -1.835630   -4.334560
  F      9.136200   -1.533990   -3.685030
  N      7.083880   -0.944540   -4.384360
  C      5.930490   -1.235640   -5.039050
  C      4.849230    1.655860   -3.323360
  C      5.339390    2.985160   -3.201740
  C      5.183300    3.827390   -1.964340
  C      6.556600    4.143350   -1.357810
  C      4.311410    3.144730   -0.899530
  C      3.305690    2.175160   -1.501320
  C      4.045300    1.037900   -2.213960
  C      3.063240   -0.034370   -2.673340
  H      7.679010    6.029750   -5.796160
  H      7.679940    4.265320   -6.299800
  H      6.200230    5.514560   -3.931800
  H      3.280850   -4.109820   -7.425680
  H      6.066120   -5.130360   -6.672120
  H      4.179550  -10.031430  -11.137450
  H      7.739600  -12.241680  -10.130870
  H      5.807650   -9.805550   -6.412510
  H      9.761750  -11.329480   -5.607160
  H      9.490300  -11.139050   -9.520360
  H     10.955010  -12.623450   -7.283450
  H     13.145240  -13.089060  -12.451620
  H     12.465730  -14.880460   -7.590430
  H     13.227990  -13.377490   -7.055230
  H     14.693130  -15.482830   -7.132430
  H     15.440710  -13.073750   -8.341500
  H     15.765240  -15.981200   -9.275930
  H     14.821180  -17.288210  -10.937200
  H     14.645970  -15.115080  -11.430710
  H     15.553950  -13.938520  -10.490820
  H      2.642410   -9.997740   -9.475720
  H      0.433060  -10.445530   -9.818390
  H     -0.830520   -7.299200   -8.339230
  H      2.001920   -5.592950   -7.293220
  H      4.707450    4.771170   -2.259830
  H      7.068600    3.218690   -1.099510
  H      6.435470    4.737160   -0.453940
  H      7.184650    4.692410   -2.053470
  H      3.795000    3.908020   -0.314170
  H      4.955180    2.587090   -0.214770
  H      2.661390    2.690780   -2.216980
  H      2.675010    1.764620   -0.710150
  H      4.743330    0.580290   -1.499460
  H      2.421660    0.352770   -3.461250
  H      2.439740   -0.342560   -1.835950
  H      3.587020   -0.911820   -3.045340

 Total Charge           Charge          ....    0
 Multiplicity           Mult            ....    1
 Number of Electrons    NEL             ....  526
 Basis Dimension        Dim             .... 1180

ORBITAL ENERGIES
----------------

  NO   OCC          E(Eh)            E(eV)
   0   2.0000     -89.030915     -2422.6544
   1   2.0000     -88.976814     -2421.1822
   2   2.0000     -88.957414     -2420.6543
   3   2.0000     -88.953033     -2420.5351
   4   2.0000     -88.931801     -2419.9573
   5   2.0000     -24.806480      -675.0187
   6   2.0000     -24.803772      -674.9450
   7   2.0000     -19.265303      -524.2355
   8   2.0000     -19.260483      -524.1044
   9   2.0000     -19.218236      -522.9548
  10   2.0000     -19.206069      -522.6237
  11   2.0000     -14.445909      -393.0932
  12   2.0000     -14.441121      -392.9629
  13   2.0000     -14.440586      -392.9483
  14   2.0000     -14.436717      -392.8430
  15   2.0000     -14.412084      -392.1727
  16   2.0000     -14.406802      -392.0290
  17   2.0000     -10.421101      -283.5726
  18   2.0000     -10.419546      -283.5303
  19   2.0000     -10.405129      -283.1379
  20   2.0000     -10.353322      -281.7282
  21   2.0000     -10.334176      -281.2072
  22   2.0000     -10.332936      -281.1735
  23   2.0000     -10.326558      -280.9999
  24   2.0000     -10.326467      -280.9975
  25   2.0000     -10.324479      -280.9434
  26   2.0000     -10.323558      -280.9183
  27   2.0000     -10.323502      -280.9168
  28   2.0000     -10.323031      -280.9040
  29   2.0000     -10.322242      -280.8825
  30   2.0000     -10.322216      -280.8818
  31   2.0000     -10.316651      -280.7304
  32   2.0000     -10.312788      -280.6252
  33   2.0000     -10.310337      -280.5585
  34   2.0000     -10.307343      -280.4771
  35   2.0000     -10.305357      -280.4230
  36   2.0000     -10.304627      -280.4032
  37   2.0000     -10.299738      -280.2701
  38   2.0000     -10.298370      -280.2329
  39   2.0000     -10.297451      -280.2079
  40   2.0000     -10.297134      -280.1993
  41   2.0000     -10.296859      -280.1918
  42   2.0000     -10.296332      -280.1774
  43   2.0000     -10.295627      -280.1583
  44   2.0000     -10.294813      -280.1361
  45   2.0000     -10.293395      -280.0975
  46   2.0000     -10.293308      -280.0952
  47   2.0000     -10.291699      -280.0514
  48   2.0000     -10.291370      -280.0424
  49   2.0000     -10.290725      -280.0249
  50   2.0000     -10.287760      -279.9442
  51   2.0000     -10.285902      -279.8936
  52   2.0000     -10.284143      -279.8458
  53   2.0000     -10.283967      -279.8410
  54   2.0000     -10.283583      -279.8305
  55   2.0000     -10.283074      -279.8167
  56   2.0000     -10.278199      -279.6840
  57   2.0000     -10.278060      -279.6802
  58   2.0000     -10.275270      -279.6043
  59   2.0000     -10.270345      -279.4703
  60   2.0000     -10.267948      -279.4051
  61   2.0000     -10.263142      -279.2743
  62   2.0000     -10.260956      -279.2148
  63   2.0000     -10.258161      -279.1388
  64   2.0000     -10.255733      -279.0727
  65   2.0000     -10.253376      -279.0086
  66   2.0000     -10.250103      -278.9195
  67   2.0000     -10.249086      -278.8918
  68   2.0000     -10.244478      -278.7664
  69   2.0000     -10.241888      -278.6959
  70   2.0000      -8.122310      -221.0193
  71   2.0000      -8.071393      -219.6338
  72   2.0000      -8.053111      -219.1363
  73   2.0000      -8.048759      -219.0179
  74   2.0000      -8.027388      -218.4363
  75   2.0000      -6.093307      -165.8073
  76   2.0000      -6.085583      -165.5971
  77   2.0000      -6.085209      -165.5870
  78   2.0000      -6.040347      -164.3662
  79   2.0000      -6.036207      -164.2535
  80   2.0000      -6.034292      -164.2014
  81   2.0000      -6.022258      -163.8740
  82   2.0000      -6.019111      -163.7883
  83   2.0000      -6.018191      -163.7633
  84   2.0000      -6.015458      -163.6889
  85   2.0000      -6.014999      -163.6764
  86   2.0000      -6.008791      -163.5075
  87   2.0000      -5.996640      -163.1769
  88   2.0000      -5.992619      -163.0674
  89   2.0000      -5.989492      -162.9824
  90   2.0000      -1.332646       -36.2632
  91   2.0000      -1.318454       -35.8769
  92   2.0000      -1.188986       -32.3540
  93   2.0000      -1.160138       -31.5690
  94   2.0000      -1.126955       -30.6660
  95   2.0000      -1.111159       -30.2362
  96   2.0000      -1.104201       -30.0468
  97   2.0000      -1.101791       -29.9813
  98   2.0000      -1.027181       -27.9510
  99   2.0000      -1.018350       -27.7107
 100   2.0000      -1.003641       -27.3105
 101   2.0000      -0.999100       -27.1869
 102   2.0000      -0.991653       -26.9842
 103   2.0000      -0.986405       -26.8414
 104   2.0000      -0.982653       -26.7393
 105   2.0000      -0.975231       -26.5374
 106   2.0000      -0.974280       -26.5115
 107   2.0000      -0.956815       -26.0362
 108   2.0000      -0.951981       -25.9047
 109   2.0000      -0.923425       -25.1277
 110   2.0000      -0.910053       -24.7638
 111   2.0000      -0.905995       -24.6534
 112   2.0000      -0.900472       -24.5031
 113   2.0000      -0.893900       -24.3243
 114   2.0000      -0.885400       -24.0930
 115   2.0000      -0.878055       -23.8931
 116   2.0000      -0.871388       -23.7117
 117   2.0000      -0.869542       -23.6614
 118   2.0000      -0.865930       -23.5632
 119   2.0000      -0.851407       -23.1680
 120   2.0000      -0.843721       -22.9588
 121   2.0000      -0.838978       -22.8298
 122   2.0000      -0.836980       -22.7754
 123   2.0000      -0.822565       -22.3831
 124   2.0000      -0.813946       -22.1486
 125   2.0000      -0.806856       -21.9557
 126   2.0000      -0.802263       -21.8307
 127   2.0000      -0.799008       -21.7421
 128   2.0000      -0.790246       -21.5037
 129   2.0000      -0.781523       -21.2663
 130   2.0000      -0.779516       -21.2117
 131   2.0000      -0.771556       -20.9951
 132   2.0000      -0.757380       -20.6094
 133   2.0000      -0.743924       -20.2432
 134   2.0000      -0.741595       -20.1798
 135   2.0000      -0.727937       -19.8082
 136   2.0000      -0.725015       -19.7287
 137   2.0000      -0.722816       -19.6688
 138   2.0000      -0.721928       -19.6447
 139   2.0000      -0.715710       -19.4755
 140   2.0000      -0.711474       -19.3602
 141   2.0000      -0.709069       -19.2947
 142   2.0000      -0.692664       -18.8483
 143   2.0000      -0.691543       -18.8178
 144   2.0000      -0.676119       -18.3981
 145   2.0000      -0.674845       -18.3635
 146   2.0000      -0.672364       -18.2960
 147   2.0000      -0.669237       -18.2109
 148   2.0000      -0.664813       -18.0905
 149   2.0000      -0.661081       -17.9889
 150   2.0000      -0.652982       -17.7685
 151   2.0000      -0.648097       -17.6356
 152   2.0000      -0.639578       -17.4038
 153   2.0000      -0.637752       -17.3541
 154   2.0000      -0.626834       -17.0570
 155   2.0000      -0.620356       -16.8807
 156   2.0000      -0.616769       -16.7832
 157   2.0000      -0.611079       -16.6283
 158   2.0000      -0.609842       -16.5946
 159   2.0000      -0.608075       -16.5466
 160   2.0000      -0.596559       -16.2332
 161   2.0000      -0.595205       -16.1963
 162   2.0000      -0.593237       -16.1428
 163   2.0000      -0.590862       -16.0782
 164   2.0000      -0.588534       -16.0148
 165   2.0000      -0.587203       -15.9786
 166   2.0000      -0.584929       -15.9167
 167   2.0000      -0.569563       -15.4986
 168   2.0000      -0.560995       -15.2654
 169   2.0000      -0.560398       -15.2492
 170   2.0000      -0.560330       -15.2473
 171   2.0000      -0.553820       -15.0702
 172   2.0000      -0.553029       -15.0487
 173   2.0000      -0.552199       -15.0261
 174   2.0000      -0.545628       -14.8473
 175   2.0000      -0.543119       -14.7790
 176   2.0000      -0.540010       -14.6944
 177   2.0000      -0.535690       -14.5769
 178   2.0000      -0.534337       -14.5401
 179   2.0000      -0.530081       -14.4242
 180   2.0000      -0.528208       -14.3733
 181   2.0000      -0.524311       -14.2672
 182   2.0000      -0.518636       -14.1128
 183   2.0000      -0.516589       -14.0571
 184   2.0000      -0.515399       -14.0247
 185   2.0000      -0.514685       -14.0053
 186   2.0000      -0.510424       -13.8893
 187   2.0000      -0.508402       -13.8343
 188   2.0000      -0.507568       -13.8116
 189   2.0000      -0.507376       -13.8064
 190   2.0000      -0.504166       -13.7191
 191   2.0000      -0.502283       -13.6678
 192   2.0000      -0.500563       -13.6210
 193   2.0000      -0.499063       -13.5802
 194   2.0000      -0.498051       -13.5527
 195   2.0000      -0.494137       -13.4462
 196   2.0000      -0.493695       -13.4341
 197   2.0000      -0.492517       -13.4021
 198   2.0000      -0.489930       -13.3317
 199   2.0000      -0.488783       -13.3005
 200   2.0000      -0.483696       -13.1620
 201   2.0000      -0.482824       -13.1383
 202   2.0000      -0.480097       -13.0641
 203   2.0000      -0.477976       -13.0064
 204   2.0000      -0.477368       -12.9898
 205   2.0000      -0.472185       -12.8488
 206   2.0000      -0.469970       -12.7885
 207   2.0000      -0.466275       -12.6880
 208   2.0000      -0.462464       -12.5843
 209   2.0000      -0.460389       -12.5278
 210   2.0000      -0.457760       -12.4563
 211   2.0000      -0.456863       -12.4319
 212   2.0000      -0.454352       -12.3636
 213   2.0000      -0.451650       -12.2900
 214   2.0000      -0.449006       -12.2181
 215   2.0000      -0.443810       -12.0767
 216   2.0000      -0.439876       -11.9696
 217   2.0000      -0.438626       -11.9356
 218   2.0000      -0.437413       -11.9026
 219   2.0000      -0.435781       -11.8582
 220   2.0000      -0.434803       -11.8316
 221   2.0000      -0.432484       -11.7685
 222   2.0000      -0.431927       -11.7533
 223   2.0000      -0.429795       -11.6953
 224   2.0000      -0.427496       -11.6328
 225   2.0000      -0.425871       -11.5885
 226   2.0000      -0.422875       -11.5070
 227   2.0000      -0.421884       -11.4800
 228   2.0000      -0.419409       -11.4127
 229   2.0000      -0.415456       -11.3051
 230   2.0000      -0.412410       -11.2223
 231   2.0000      -0.410764       -11.1775
 232   2.0000      -0.405509       -11.0345
 233   2.0000      -0.405141       -11.0244
 234   2.0000      -0.404288       -11.0012
 235   2.0000      -0.402615       -10.9557
 236   2.0000      -0.398201       -10.8356
 237   2.0000      -0.397872       -10.8266
 238   2.0000      -0.395122       -10.7518
 239   2.0000      -0.392232       -10.6732
 240   2.0000      -0.389203       -10.5907
 241   2.0000      -0.381587       -10.3835
 242   2.0000      -0.381242       -10.3741
 243   2.0000      -0.373832       -10.1725
 244   2.0000      -0.373504       -10.1636
 245   2.0000      -0.369928       -10.0663
 246   2.0000      -0.365844        -9.9551
 247   2.0000      -0.358917        -9.7666
 248   2.0000      -0.356637        -9.7046
 249   2.0000      -0.351040        -9.5523
 250   2.0000      -0.348694        -9.4884
 251   2.0000      -0.342377        -9.3166
 252   2.0000      -0.330814        -9.0019
 253   2.0000      -0.330623        -8.9967
 254   2.0000      -0.320224        -8.7137
 255   2.0000      -0.314867        -8.5680
 256   2.0000      -0.310831        -8.4581
 257   2.0000      -0.293597        -7.9892
 258   2.0000      -0.287982        -7.8364
 259   2.0000      -0.284965        -7.7543
 260   2.0000      -0.257837        -7.0161
 261   2.0000      -0.254857        -6.9350
 262   2.0000      -0.229294        -6.2394
 263   0.0000      -0.127152        -3.4600
 264   0.0000      -0.097901        -2.6640
 265   0.0000      -0.053947        -1.4680
 266   0.0000      -0.032069        -0.8726
 267   0.0000      -0.012880        -0.3505

MULLIKEN ATOMIC CHARGES
-----------------------
   0 C :   -0.029769
   1 C :   -0.001596
   2 C :   -0.132290
   3 S :    0.121389
   4 C :   -0.209678
   5 C :   -0.080636
   6 C :    0.023724
   7 N :   -0.250867
   8 S :    0.528447
   9 N :   -0.291669
  10 C :    0.014826
  11 C :    0.096707
  12 C :   -0.135067
  13 C :    0.080336
  14 C :   -0.122876
  15 S :    0.201405
  16 C :   -0.176118
  17 C :    0.070987
  18 C :   -0.046085
  19 C :   -0.092707
  20 C :   -0.135243
  21 N :    0.140911
  22 C :   -0.048445
  23 C :    0.048464
  24 C :    0.043873
  25 C :   -0.029337
  26 C :   -0.101479
  27 C :   -0.132783
  28 N :    0.135901
  29 C :   -0.030800
  30 C :    0.094546
  31 C :   -0.040301
  32 C :    0.003634
  33 C :   -0.122341
  34 S :    0.109297
  35 C :   -0.116096
  36 C :   -0.074635
  37 C :   -0.067248
  38 C :    0.138452
  39 C :    0.143671
  40 O :   -0.291980
  41 C :   -0.145994
  42 C :    0.157445
  43 O :   -0.170954
  44 O :   -0.152547
  45 C :    0.147616
  46 C :    0.143279
  47 C :   -0.075996
  48 C :   -0.074426
  49 S :   -0.001532
  50 C :    0.127771
  51 O :   -0.162564
  52 C :   -0.113566
  53 C :    0.133454
  54 C :   -0.060151
  55 N :    0.002152
  56 C :    0.133933
  57 F :   -0.146057
  58 C :    0.130915
  59 F :   -0.141692
  60 N :    0.051187
  61 C :   -0.030495
  62 C :    0.074350
  63 C :   -0.022131
  64 C :   -0.058118
  65 C :    0.069306
  66 C :    0.084975
  67 C :    0.042793
  68 C :   -0.052037
  69 C :    0.093289
  70 H :    0.018017
  71 H :    0.019315
  72 H :   -0.001754
  73 H :    0.004136
  74 H :    0.007021
  75 H :   -0.006688
  76 H :    0.005738
  77 H :    0.013388
  78 H :   -0.011668
  79 H :    0.003659
  80 H :   -0.006515
  81 H :    0.013923
  82 H :    0.056421
  83 H :    0.020034
  84 H :    0.008204
  85 H :    0.169164
  86 H :    0.025220
  87 H :    0.184559
  88 H :   -0.006253
  89 H :    0.027812
  90 H :   -0.032893
  91 H :    0.081405
  92 H :    0.184938
  93 H :   -0.015091
  94 H :    0.001405
  95 H :    0.011328
  96 H :    0.004778
  97 H :    0.006737
  98 H :   -0.005086
  99 H :   -0.014103
 100 H :    0.000107
 101 H :   -0.009071
 102 H :    0.000129
 103 H :    0.012284
 104 H :   -0.005025
 105 H :    0.013697
Sum of atomic charges:    0.0000000

LOEWDIN ATOMIC CHARGES
----------------------
   0 C :   -0.056655
   1 C :   -0.037511
   2 C :   -0.179298
   3 S :    0.434081
   4 C :   -0.165268
   5 C :   -0.057472
   6 C :   -0.044617
   7 N :   -0.281054
   8 S :    0.667130
   9 N :   -0.289974
  10 C :   -0.045125
  11 C :   -0.017038
  12 C :   -0.031783
  13 C :   -0.018882
  14 C :   -0.173097
  15 S :    0.515521
  16 C :   -0.169699
  17 C :   -0.038586
  18 C :   -0.021693
  19 C :   -0.047938
  20 C :   -0.029347
  21 N :   -0.043489
  22 C :   -0.017964
  23 C :    0.028745
  24 C :    0.039945
  25 C :   -0.022424
  26 C :   -0.052744
  27 C :   -0.030132
  28 N :   -0.046259
  29 C :   -0.000758
  30 C :   -0.027856
  31 C :   -0.040045
  32 C :   -0.015657
  33 C :   -0.178210
  34 S :    0.438437
  35 C :   -0.182450
  36 C :   -0.080599
  37 C :   -0.055424
  38 C :   -0.044637
  39 C :    0.075540
  40 O :   -0.120420
  41 C :   -0.087075
  42 C :    0.085836
  43 O :   -0.145622
  44 O :   -0.029194
  45 C :   -0.020614
  46 C :   -0.045864
  47 C :   -0.039551
  48 C :   -0.172651
  49 S :    0.219073
  50 C :    0.041910
  51 O :   -0.038271
  52 C :   -0.046620
  53 C :   -0.031730
  54 C :   -0.017441
  55 N :   -0.034710
  56 C :    0.055586
  57 F :   -0.035264
  58 C :    0.054104
  59 F :   -0.031693
  60 N :   -0.031424
  61 C :   -0.007813
  62 C :   -0.044970
  63 C :   -0.048158
  64 C :   -0.029690
  65 C :   -0.042368
  66 C :   -0.024655
  67 C :   -0.023909
  68 C :   -0.025605
  69 C :   -0.050589
  70 H :    0.023803
  71 H :    0.016393
  72 H :    0.031196
  73 H :    0.032052
  74 H :    0.028370
  75 H :    0.030602
  76 H :    0.035554
  77 H :    0.030528
  78 H :    0.030443
  79 H :    0.022119
  80 H :    0.034181
  81 H :    0.022740
  82 H :    0.046795
  83 H :    0.032982
  84 H :    0.028736
  85 H :    0.072176
  86 H :    0.037752
  87 H :    0.093678
  88 H :    0.025904
  89 H :    0.034126
  90 H :    0.027406
  91 H :   -0.010837
  92 H :    0.078637
  93 H :    0.038830
  94 H :    0.026462
  95 H :    0.024560
  96 H :    0.020454
  97 H :    0.021118
  98 H :    0.022921
  99 H :    0.019682
 100 H :    0.022391
 101 H :    0.019643
 102 H :    0.028406
 103 H :    0.021696
 104 H :    0.021378
 105 H :    0.020799

  Mayer bond orders larger than 0.100000
B(  0-C ,  1-C ) :   1.9330 B(  0-C , 70-H ) :   0.9485 B(  0-C , 71-H ) :   0.9559
B(  1-C ,  2-C ) :   1.1079 B(  1-C , 72-H ) :   0.9526 B(  2-C ,  3-S ) :   1.1057
B(  2-C ,  4-C ) :   0.1109 B(  2-C , 63-C ) :   1.5519 B(  3-S ,  4-C ) :   1.1240
B(  4-C ,  5-C ) :   0.9812 B(  4-C , 62-C ) :   1.6316 B(  5-C ,  6-C ) :   1.2886
B(  5-C , 11-C ) :   0.1421 B(  5-C , 61-C ) :   1.4034 B(  6-C ,  7-N ) :   1.5050
B(  6-C , 10-C ) :   1.1146 B(  7-N ,  8-S ) :   1.2801 B(  7-N ,  9-N ) :   0.1586
B(  8-S ,  9-N ) :   1.2826 B(  9-N , 10-C ) :   1.5178 B( 10-C , 11-C ) :   1.1616
B( 11-C , 12-C ) :   1.2300 B( 11-C , 54-C ) :   1.2538 B( 12-C , 13-C ) :   1.5642
B( 12-C , 73-H ) :   0.9625 B( 13-C , 14-C ) :   1.1725 B( 13-C , 74-H ) :   0.9292
B( 14-C , 15-S ) :   1.1529 B( 14-C , 16-C ) :   0.1114 B( 14-C , 53-C ) :   1.2817
B( 15-S , 16-C ) :   1.1685 B( 16-C , 17-C ) :   1.0927 B( 16-C , 46-C ) :   1.3099
B( 17-C , 18-C ) :   1.5668 B( 17-C , 23-C ) :   1.0516 B( 18-C , 19-C ) :   1.1353
B( 18-C , 75-H ) :   1.0160 B( 19-C , 20-C ) :   1.0570 B( 19-C , 22-C ) :   1.5696
B( 20-C , 21-N ) :   3.0400 B( 22-C , 23-C ) :   1.1289 B( 22-C , 76-H ) :   1.0168
B( 23-C , 24-C ) :   1.4419 B( 24-C , 25-C ) :   1.1048 B( 24-C , 30-C ) :   1.0466
B( 25-C , 26-C ) :   1.6123 B( 25-C , 77-H ) :   1.0081 B( 26-C , 27-C ) :   1.0581
B( 26-C , 29-C ) :   1.1055 B( 27-C , 28-N ) :   3.0372 B( 29-C , 30-C ) :   1.5958
B( 29-C , 78-H ) :   1.0142 B( 30-C , 31-C ) :   1.0858 B( 31-C , 32-C ) :   1.6737
B( 31-C , 79-H ) :   0.9591 B( 32-C , 33-C ) :   1.1534 B( 32-C , 80-H ) :   0.9737
B( 33-C , 34-S ) :   1.1214 B( 33-C , 37-C ) :   1.4905 B( 34-S , 35-C ) :   1.1655
B( 35-C , 36-C ) :   1.5618 B( 35-C , 81-H ) :   0.9723 B( 36-C , 37-C ) :   1.3024
B( 36-C , 45-C ) :   1.0160 B( 37-C , 38-C ) :   1.0396 B( 38-C , 39-C ) :   1.0401
B( 38-C , 82-H ) :   0.8887 B( 38-C , 83-H ) :   0.9068 B( 39-C , 40-O ) :   1.0599
B( 39-C , 41-C ) :   0.9834 B( 39-C , 84-H ) :   0.9230 B( 40-O , 85-H ) :   0.9796
B( 41-C , 42-C ) :   0.9056 B( 41-C , 45-C ) :   1.0301 B( 41-C , 86-H ) :   0.9001
B( 42-C , 43-O ) :   2.1609 B( 42-C , 44-O ) :   1.2223 B( 44-O , 87-H ) :   0.9539
B( 45-C , 88-H ) :   0.9166 B( 45-C , 89-H ) :   0.9170 B( 46-C , 47-C ) :   1.2388
B( 46-C , 53-C ) :   1.2130 B( 47-C , 48-C ) :   1.5078 B( 47-C , 90-H ) :   0.9774
B( 48-C , 49-S ) :   1.0118 B( 48-C , 50-C ) :   1.2070 B( 49-S , 91-H ) :   0.9521
B( 50-C , 51-O ) :   1.2815 B( 50-C , 52-C ) :   1.4835 B( 51-O , 92-H ) :   0.9482
B( 52-C , 53-C ) :   1.1992 B( 52-C , 93-H ) :   0.9988 B( 54-C , 55-N ) :   1.4155
B( 54-C , 61-C ) :   1.1143 B( 55-N , 56-C ) :   1.6771 B( 56-C , 57-F ) :   1.1687
B( 56-C , 58-C ) :   1.0909 B( 58-C , 59-F ) :   1.1770 B( 58-C , 60-N ) :   1.7118
B( 60-N , 61-C ) :   1.4334 B( 62-C , 63-C ) :   1.2719 B( 62-C , 68-C ) :   0.9944
B( 63-C , 64-C ) :   1.0182 B( 64-C , 65-C ) :   1.0836 B( 64-C , 66-C ) :   1.0564
B( 64-C , 94-H ) :   0.8849 B( 65-C , 95-H ) :   0.9582 B( 65-C , 96-H ) :   0.9632
B( 65-C , 97-H ) :   0.9634 B( 66-C , 67-C ) :   1.1026 B( 66-C , 98-H ) :   0.9268
B( 66-C , 99-H ) :   0.9238 B( 67-C , 68-C ) :   1.0625 B( 67-C ,100-H ) :   0.9351
B( 67-C ,101-H ) :   0.9354 B( 68-C , 69-C ) :   1.0941 B( 68-C ,102-H ) :   0.8909
B( 69-C ,103-H ) :   0.9535 B( 69-C ,104-H ) :   0.9505 B( 69-C ,105-H ) :   0.9482

-----------------------------------------------------------------------------
         ABSORPTION SPECTRUM VIA TRANSITION ELECTRIC DIPOLE MOMENTS
-----------------------------------------------------------------------------
State   Energy  Wavelength   fosc         T2         TX        TY        TZ
        (cm-1)    (nm)                  (au**2)     (au)      (au)      (au)
-----------------------------------------------------------------------------
   0    6361.0   1572.1   0.191275061   9.89942   1.62171  -2.65101  -0.49152
   1    9825.8   1017.7   0.020429025   0.68447  -0.81917   0.00060   0.11590
   2   13233.0    755.7   0.486886524  12.11281   0.65743   3.13284   1.36598
   3   16598.7    602.5   0.000170077   0.00337  -0.04496   0.03376  -0.01456
   4   19028.2    525.5   0.095591603   1.65385   0.35518   1.05238   0.64823
   5   20081.5    498.0   0.038521450   0.63151  -0.19203   0.52636   0.56355
   6   21518.6    464.7   0.008485854   0.12982   0.14190   0.09635  -0.31687
   7   21933.8    455.9   0.132971616   1.99582  -0.03688   1.38666   0.26763
   8   22444.9    445.5   0.011276861   0.16540   0.01355  -0.40284  -0.05426
   9   22698.3    440.6   0.015125439   0.21938   0.02250  -0.45276  -0.11780
  10   22885.0    437.0   0.064398635   0.92641   0.61624  -0.65749  -0.33818
  11   23936.0    417.8   0.089414945   1.22980  -0.51636   0.56545   0.80214
  12   25364.6    394.3   0.046289382   0.60080  -0.68319   0.25598  -0.26178
  13   25980.8    384.9   0.006206044   0.07864  -0.03068   0.05945  -0.27233
  14   27511.2    363.5   0.292774812   3.50348   1.76445  -0.34640   0.51982
  15   27825.1    359.4   0.009181307   0.10863   0.19615   0.10322   0.24393
  16   28006.0    357.1   0.314856498   3.70115  -1.29540  -0.29718  -1.39096
  17   29386.2    340.3   0.010524310   0.11790   0.21302  -0.26628  -0.04024
  18   29926.0    334.2   0.164466654   1.80928   0.74626  -0.82737  -0.75355
  19   30428.8    328.6   0.149661039   1.61920  -1.11393   0.49325  -0.36751
  20   30591.9    326.9   0.073079305   0.78644  -0.53244   0.15780  -0.69141
  21   31269.0    319.8   0.097853982   1.03024   0.80937  -0.57978  -0.19754
  22   31443.5    318.0   0.018584132   0.19457  -0.31238   0.30358   0.06953
  23   32373.3    308.9   0.089268685   0.90779   0.55840   0.54064   0.55108
  24   32631.8    306.5   0.077638026   0.78327  -0.76855  -0.02117   0.43835
  25   32879.5    304.1   0.083990028   0.84097   0.79392   0.39132  -0.23986
  26   33187.5    301.3   0.005812930   0.05766  -0.23100  -0.06002  -0.02645
  27   33609.9    297.5   0.744590214   7.29333   1.11271  -0.99103  -2.25234
  28   33910.9    294.9   0.199336664   1.93519   0.85323   0.85800   0.68631
  29   34250.2    292.0   0.127167197   1.22233   1.04751   0.29624   0.19313
  30   34989.6    285.8   0.003627837   0.03413  -0.12704  -0.11523  -0.06867
  31   35252.4    283.7   0.252047858   2.35380   0.75167   0.58997   1.20031
  32   35564.3    281.2   0.050535888   0.46780  -0.03153  -0.02758  -0.68268
  33   36240.3    275.9   0.014350723   0.13036  -0.13178  -0.21113  -0.26157
  34   36495.2    274.0   0.009569152   0.08632  -0.20687   0.15460   0.14008
  35   37282.9    268.2   0.025702509   0.22696  -0.14533  -0.37049   0.26187
  36   37285.3    268.2   0.036375947   0.32118  -0.05023   0.36897   0.42722
  37   37652.2    265.6   0.208376361   1.82194  -1.19313   0.38927   0.49683
  38   37740.1    265.0   0.021905883   0.19109   0.31334  -0.18880  -0.23929
  39   38046.2    262.8   0.036742633   0.31793  -0.53999  -0.16230  -0.00120
  40   38285.5    261.2   0.001662444   0.01430   0.00328   0.09399  -0.07383
  41   38398.8    260.4   0.136655906   1.17162  -0.93265   0.46434  -0.29354
  42   38529.1    259.5   0.315194457   2.69318  -1.44422   0.73099  -0.27033
  43   38533.6    259.5   0.041827240   0.35735   0.56749  -0.18315   0.04195
  44   38801.2    257.7   0.113170355   0.96020  -0.50287   0.57658  -0.61227
  45   39127.0    255.6   0.021739006   0.18291  -0.28151  -0.17381   0.27102
  46   39407.3    253.8   0.004790153   0.04002   0.11135  -0.14579  -0.07976
  47   40188.9    248.8   0.020442807   0.16746  -0.01912  -0.33845  -0.22923

FINAL SINGLE POINT ENERGY     -4857.063300131452

DIPOLE MOMENT
-------------
                                X             Y             Z
Electronic contribution:    -16.16207     -21.45465     -27.86107
Nuclear contribution   :     16.51219      21.83771      26.45425
                        -----------------------------------------
Total Dipole Moment    :      0.35012       0.38306      -1.40682
                        -----------------------------------------
Magnitude (a.u.)       :      1.49949
Magnitude (Debye)      :      3.81139

Rotational constants in cm-1:     0.001303     0.000318     0.000273
Rotational constants in MHz :    39.072916     9.541203     8.190541

                             ****ORCA TERMINATED NORMALLY****
TOTAL RUN TIME: 0 days 0 hours 13 minutes 37 seconds 390 msec
