                         Program Version 4.2.0 -  RELEASE  -
|  1> # ORCA input file
|  2> # SCF done       -125.509246367526          0.000645023576
|  3> ! CAM-B3LYP def2-SVP def2/J RIJCOSX Grid4 TightSCF
|  4> %maxcore 5000
|  5> %tddft
|  6>     Mode sTDDFT
|  7>     Ethresh 5.0
|  8>     maxcore 5000
|  9> end
| 10>
| 11> %pal
| 12>   nprocs 6
| 13>   end
| 14> * xyz 0 1
| 15>    C       -4.16192        -0.41807         3.30842
| 16>    S       -2.95532         0.81060         3.39102
| 17>    C       -3.76930         1.84737         2.24841
| 18>    C       -4.94068         1.23728         1.82867
| 19>    C       -5.14652        -0.04392         2.43833
| 20>    N       -6.31948        -0.51317         1.93326
| 21>    N       -6.85763         0.36335         1.06437
| 22>    C       -6.06977         1.40165         0.98261
| 23>    C       -3.22537         3.09968         1.87321
| 24>    S       -4.04790         4.14271         0.74164
| 25>    C       -2.80463         5.37166         0.82594
| 26>    C       -1.81013         4.94998         1.72242
| 27>    C       -2.05709         3.68034         2.28643
| 28>    N       -0.64786         5.63979         2.13531
| 29>    O       -0.52893         6.82982         1.89308
| 30>    O        0.18868         4.99593         2.74653
| 31>    C       -3.01573         6.46674        -0.04230
| 32>    C       -2.20267         7.52739        -0.31137
| 33>    C       -2.49861         8.54684        -1.24253
| 34>    C       -3.62296         8.71406        -2.02510
| 35>    C       -3.45422         9.88149        -2.79205
| 36>    N       -4.09669        10.62567        -3.72065
| 37>    C       -3.29488        11.69192        -4.06234
| 38>    C       -2.10766        11.61056        -3.31261
| 39>    C       -2.21119        10.48301        -2.51995
| 40>    C       -1.51013         9.66929        -1.49464
| 41>    C       -3.71607        12.64389        -5.02378
| 42>    C       -2.96853        13.68631        -5.46043
| 43>    C       -3.39983        14.63875        -6.42361
| 44>    S       -2.29382        15.86918        -6.98581
| 45>    C       -3.46858        16.58713        -8.05669
| 46>    C       -4.67436        15.87244        -7.95047
| 47>    C       -4.61074        14.79068        -7.04497
| 48>    N       -5.90107        16.10192        -8.60863
| 49>    O       -6.06934        17.12274        -9.25939
| 50>    O       -6.76602        15.25073        -8.48145
| 51>    C       -2.97238        17.67037        -8.81795
| 52>    C       -3.60991        18.43949        -9.74083
| 53>    C       -2.99777        19.48107       -10.46016
| 54>    S       -1.30388        19.93604       -10.31550
| 55>    C       -1.42346        21.19828       -11.46835
| 56>    C       -2.69987        21.29648       -11.96600
| 57>    C       -3.58225        20.32490       -11.39379
| 58>    N       -4.79202        20.53025       -11.96288
| 59>    N       -4.74802        21.54796       -12.84366
| 60>    C       -3.53236        22.02008       -12.86953
| 61>    H       -4.05922        -1.30749         3.89425
| 62>    H       -6.78942        -1.38059         2.12470
| 63>    H       -6.31311         2.22399         0.34128
| 64>    H       -1.38263         3.22439         2.98934
| 65>    H       -3.95722         6.40436        -0.57446
| 66>    H       -1.26323         7.62301         0.21049
| 67>    H       -4.48391         8.07166        -2.04718
| 68>    H       -5.00461        10.44628        -4.11691
| 69>    H       -1.29438        12.30635        -3.36097
| 70>    H       -1.31483        10.22609        -0.57640
| 71>    H       -0.55357         9.27858        -1.84598
| 72>    H       -4.70876        12.50142        -5.43013
| 73>    H       -1.96830        13.82200        -5.07644
| 74>    H       -5.46586        14.16508        -6.86684
| 75>    H       -1.92893        17.89423        -8.62172
| 76>    H       -4.65388        18.27438        -9.95885
| 77>    H       -0.55770        21.78353       -11.70463
| 78>    H       -5.65641        20.04027       -11.80136
| 79>    H       -3.27546        22.83998       -13.50844
| 80> *
| 81>
| 82>                          ****END OF INPUT****

CARTESIAN COORDINATES (ANGSTROEM)
---------------------------------
  C     -4.161920   -0.418070    3.308420
  S     -2.955320    0.810600    3.391020
  C     -3.769300    1.847370    2.248410
  C     -4.940680    1.237280    1.828670
  C     -5.146520   -0.043920    2.438330
  N     -6.319480   -0.513170    1.933260
  N     -6.857630    0.363350    1.064370
  C     -6.069770    1.401650    0.982610
  C     -3.225370    3.099680    1.873210
  S     -4.047900    4.142710    0.741640
  C     -2.804630    5.371660    0.825940
  C     -1.810130    4.949980    1.722420
  C     -2.057090    3.680340    2.286430
  N     -0.647860    5.639790    2.135310
  O     -0.528930    6.829820    1.893080
  O      0.188680    4.995930    2.746530
  C     -3.015730    6.466740   -0.042300
  C     -2.202670    7.527390   -0.311370
  C     -2.498610    8.546840   -1.242530
  C     -3.622960    8.714060   -2.025100
  C     -3.454220    9.881490   -2.792050
  N     -4.096690   10.625670   -3.720650
  C     -3.294880   11.691920   -4.062340
  C     -2.107660   11.610560   -3.312610
  C     -2.211190   10.483010   -2.519950
  C     -1.510130    9.669290   -1.494640
  C     -3.716070   12.643890   -5.023780
  C     -2.968530   13.686310   -5.460430
  C     -3.399830   14.638750   -6.423610
  S     -2.293820   15.869180   -6.985810
  C     -3.468580   16.587130   -8.056690
  C     -4.674360   15.872440   -7.950470
  C     -4.610740   14.790680   -7.044970
  N     -5.901070   16.101920   -8.608630
  O     -6.069340   17.122740   -9.259390
  O     -6.766020   15.250730   -8.481450
  C     -2.972380   17.670370   -8.817950
  C     -3.609910   18.439490   -9.740830
  C     -2.997770   19.481070  -10.460160
  S     -1.303880   19.936040  -10.315500
  C     -1.423460   21.198280  -11.468350
  C     -2.699870   21.296480  -11.966000
  C     -3.582250   20.324900  -11.393790
  N     -4.792020   20.530250  -11.962880
  N     -4.748020   21.547960  -12.843660
  C     -3.532360   22.020080  -12.869530
  H     -4.059220   -1.307490    3.894250
  H     -6.789420   -1.380590    2.124700
  H     -6.313110    2.223990    0.341280
  H     -1.382630    3.224390    2.989340
  H     -3.957220    6.404360   -0.574460
  H     -1.263230    7.623010    0.210490
  H     -4.483910    8.071660   -2.047180
  H     -5.004610   10.446280   -4.116910
  H     -1.294380   12.306350   -3.360970
  H     -1.314830   10.226090   -0.576400
  H     -0.553570    9.278580   -1.845980
  H     -4.708760   12.501420   -5.430130
  H     -1.968300   13.822000   -5.076440
  H     -5.465860   14.165080   -6.866840
  H     -1.928930   17.894230   -8.621720
  H     -4.653880   18.274380   -9.958850
  H     -0.557700   21.783530  -11.704630
  H     -5.656410   20.040270  -11.801360
  H     -3.275460   22.839980  -13.508440

 Total Charge           Charge          ....    0
 Multiplicity           Mult            ....    1
 Number of Electrons    NEL             ....  350
 Basis Dimension        Dim             ....  755

ORBITAL ENERGIES
----------------

  NO   OCC          E(Eh)            E(eV)
   0   2.0000     -88.967471     -2420.9280
   1   2.0000     -88.966936     -2420.9134
   2   2.0000     -88.964853     -2420.8567
   3   2.0000     -88.964075     -2420.8355
   4   2.0000     -19.231693      -523.3210
   5   2.0000     -19.228816      -523.2427
   6   2.0000     -19.227400      -523.2041
   7   2.0000     -19.225248      -523.1456
   8   2.0000     -14.639921      -398.3725
   9   2.0000     -14.635927      -398.2638
  10   2.0000     -14.480073      -394.0228
  11   2.0000     -14.473860      -393.8538
  12   2.0000     -14.469213      -393.7273
  13   2.0000     -14.438034      -392.8789
  14   2.0000     -14.435448      -392.8085
  15   2.0000     -10.330759      -281.1142
  16   2.0000     -10.328734      -281.0591
  17   2.0000     -10.320870      -280.8451
  18   2.0000     -10.318830      -280.7896
  19   2.0000     -10.317626      -280.7569
  20   2.0000     -10.313822      -280.6534
  21   2.0000     -10.312835      -280.6265
  22   2.0000     -10.312143      -280.6077
  23   2.0000     -10.311910      -280.6013
  24   2.0000     -10.307977      -280.4943
  25   2.0000     -10.307619      -280.4846
  26   2.0000     -10.302798      -280.3534
  27   2.0000     -10.298390      -280.2334
  28   2.0000     -10.296809      -280.1904
  29   2.0000     -10.294390      -280.1246
  30   2.0000     -10.292767      -280.0804
  31   2.0000     -10.289090      -279.9804
  32   2.0000     -10.287844      -279.9465
  33   2.0000     -10.285819      -279.8914
  34   2.0000     -10.284265      -279.8491
  35   2.0000     -10.284007      -279.8420
  36   2.0000     -10.282532      -279.8019
  37   2.0000     -10.281705      -279.7794
  38   2.0000     -10.281037      -279.7613
  39   2.0000     -10.280672      -279.7513
  40   2.0000     -10.276976      -279.6507
  41   2.0000     -10.276949      -279.6500
  42   2.0000     -10.276192      -279.6294
  43   2.0000     -10.276051      -279.6256
  44   2.0000     -10.264164      -279.3021
  45   2.0000     -10.262359      -279.2530
  46   2.0000      -8.062318      -219.3868
  47   2.0000      -8.062313      -219.3867
  48   2.0000      -8.060811      -219.3458
  49   2.0000      -8.058699      -219.2883
  50   2.0000      -6.031712      -164.1312
  51   2.0000      -6.031616      -164.1286
  52   2.0000      -6.030121      -164.0879
  53   2.0000      -6.028145      -164.0342
  54   2.0000      -6.027594      -164.0192
  55   2.0000      -6.027204      -164.0086
  56   2.0000      -6.025995      -163.9757
  57   2.0000      -6.024870      -163.9450
  58   2.0000      -6.024189      -163.9265
  59   2.0000      -6.023646      -163.9117
  60   2.0000      -6.022769      -163.8879
  61   2.0000      -6.021100      -163.8425
  62   2.0000      -1.309428       -35.6313
  63   2.0000      -1.305946       -35.5366
  64   2.0000      -1.142123       -31.0788
  65   2.0000      -1.136235       -30.9185
  66   2.0000      -1.125077       -30.6149
  67   2.0000      -1.122117       -30.5344
  68   2.0000      -1.083610       -29.4865
  69   2.0000      -1.003555       -27.3081
  70   2.0000      -1.000322       -27.2201
  71   2.0000      -0.984555       -26.7911
  72   2.0000      -0.976560       -26.5735
  73   2.0000      -0.955254       -25.9938
  74   2.0000      -0.921167       -25.0662
  75   2.0000      -0.915509       -24.9123
  76   2.0000      -0.914888       -24.8954
  77   2.0000      -0.899138       -24.4668
  78   2.0000      -0.895590       -24.3702
  79   2.0000      -0.894176       -24.3318
  80   2.0000      -0.885753       -24.1026
  81   2.0000      -0.866016       -23.5655
  82   2.0000      -0.851791       -23.1784
  83   2.0000      -0.847470       -23.0608
  84   2.0000      -0.843490       -22.9525
  85   2.0000      -0.833091       -22.6696
  86   2.0000      -0.809645       -22.0316
  87   2.0000      -0.797323       -21.6963
  88   2.0000      -0.794227       -21.6120
  89   2.0000      -0.783925       -21.3317
  90   2.0000      -0.765998       -20.8439
  91   2.0000      -0.749313       -20.3899
  92   2.0000      -0.729750       -19.8575
  93   2.0000      -0.716585       -19.4993
  94   2.0000      -0.701730       -19.0950
  95   2.0000      -0.701233       -19.0815
  96   2.0000      -0.695144       -18.9158
  97   2.0000      -0.694791       -18.9062
  98   2.0000      -0.682773       -18.5792
  99   2.0000      -0.682242       -18.5648
 100   2.0000      -0.677747       -18.4424
 101   2.0000      -0.663218       -18.0471
 102   2.0000      -0.654820       -17.8186
 103   2.0000      -0.642397       -17.4805
 104   2.0000      -0.639899       -17.4125
 105   2.0000      -0.636613       -17.3231
 106   2.0000      -0.627213       -17.0673
 107   2.0000      -0.622904       -16.9501
 108   2.0000      -0.617711       -16.8088
 109   2.0000      -0.616466       -16.7749
 110   2.0000      -0.614823       -16.7302
 111   2.0000      -0.602423       -16.3928
 112   2.0000      -0.592326       -16.1180
 113   2.0000      -0.590594       -16.0709
 114   2.0000      -0.584964       -15.9177
 115   2.0000      -0.573849       -15.6152
 116   2.0000      -0.571301       -15.5459
 117   2.0000      -0.556893       -15.1538
 118   2.0000      -0.548688       -14.9306
 119   2.0000      -0.543959       -14.8019
 120   2.0000      -0.543009       -14.7760
 121   2.0000      -0.541648       -14.7390
 122   2.0000      -0.541101       -14.7241
 123   2.0000      -0.539278       -14.6745
 124   2.0000      -0.535103       -14.5609
 125   2.0000      -0.530632       -14.4392
 126   2.0000      -0.526551       -14.3282
 127   2.0000      -0.521800       -14.1989
 128   2.0000      -0.520388       -14.1605
 129   2.0000      -0.508300       -13.8316
 130   2.0000      -0.499405       -13.5895
 131   2.0000      -0.498265       -13.5585
 132   2.0000      -0.491555       -13.3759
 133   2.0000      -0.490571       -13.3491
 134   2.0000      -0.487963       -13.2781
 135   2.0000      -0.480174       -13.0662
 136   2.0000      -0.469213       -12.7679
 137   2.0000      -0.468039       -12.7360
 138   2.0000      -0.466771       -12.7015
 139   2.0000      -0.462228       -12.5779
 140   2.0000      -0.459548       -12.5049
 141   2.0000      -0.457533       -12.4501
 142   2.0000      -0.449322       -12.2267
 143   2.0000      -0.448796       -12.2124
 144   2.0000      -0.443343       -12.0640
 145   2.0000      -0.439916       -11.9707
 146   2.0000      -0.433709       -11.8018
 147   2.0000      -0.431459       -11.7406
 148   2.0000      -0.428099       -11.6492
 149   2.0000      -0.425745       -11.5851
 150   2.0000      -0.422623       -11.5002
 151   2.0000      -0.420090       -11.4312
 152   2.0000      -0.409036       -11.1304
 153   2.0000      -0.394001       -10.7213
 154   2.0000      -0.379680       -10.3316
 155   2.0000      -0.378458       -10.2984
 156   2.0000      -0.374374       -10.1872
 157   2.0000      -0.372383       -10.1330
 158   2.0000      -0.367433        -9.9984
 159   2.0000      -0.363880        -9.9017
 160   2.0000      -0.362215        -9.8564
 161   2.0000      -0.361081        -9.8255
 162   2.0000      -0.353676        -9.6240
 163   2.0000      -0.351680        -9.5697
 164   2.0000      -0.347407        -9.4534
 165   2.0000      -0.334999        -9.1158
 166   2.0000      -0.333518        -9.0755
 167   2.0000      -0.327318        -8.9068
 168   2.0000      -0.321058        -8.7364
 169   2.0000      -0.316743        -8.6190
 170   2.0000      -0.312174        -8.4947
 171   2.0000      -0.296243        -8.0612
 172   2.0000      -0.259862        -7.0712
 173   2.0000      -0.242234        -6.5915
 174   2.0000      -0.212513        -5.7828
 175   0.0000      -0.074653        -2.0314
 176   0.0000      -0.062448        -1.6993
 177   0.0000      -0.033189        -0.9031
 178   0.0000      -0.027517        -0.7488
 179   0.0000      -0.011586        -0.3153

MULLIKEN ATOMIC CHARGES
-----------------------
   0 C :   -0.221992
   1 S :    0.144725
   2 C :   -0.081075
   3 C :   -0.028277
   4 C :    0.207532
   5 N :   -0.055620
   6 N :   -0.056221
   7 C :   -0.009839
   8 C :   -0.027893
   9 S :    0.130555
  10 C :   -0.125715
  11 C :    0.165081
  12 C :   -0.070020
  13 N :    0.265535
  14 O :   -0.255401
  15 O :   -0.253218
  16 C :    0.027004
  17 C :    0.034291
  18 C :   -0.134885
  19 C :   -0.066814
  20 C :    0.075452
  21 N :   -0.012132
  22 C :    0.095050
  23 C :   -0.112503
  24 C :   -0.103332
  25 C :    0.288085
  26 C :    0.009245
  27 C :    0.047788
  28 C :   -0.043550
  29 S :    0.136339
  30 C :   -0.142635
  31 C :    0.161422
  32 C :   -0.051930
  33 N :    0.272265
  34 O :   -0.266377
  35 O :   -0.254393
  36 C :    0.002361
  37 C :    0.010709
  38 C :   -0.167542
  39 S :    0.131181
  40 C :   -0.116644
  41 C :    0.035769
  42 C :    0.142176
  43 N :   -0.048690
  44 N :   -0.055843
  45 C :    0.016625
  46 H :    0.012504
  47 H :    0.134261
  48 H :   -0.002935
  49 H :    0.006349
  50 H :   -0.031122
  51 H :    0.000142
  52 H :   -0.027043
  53 H :    0.122646
  54 H :   -0.031068
  55 H :    0.039137
  56 H :    0.034505
  57 H :   -0.028483
  58 H :   -0.022846
  59 H :   -0.005426
  60 H :   -0.018978
  61 H :    0.006683
  62 H :    0.030676
  63 H :    0.145727
  64 H :   -0.001380
Sum of atomic charges:    0.0000000

LOEWDIN ATOMIC CHARGES
----------------------
   0 C :   -0.238843
   1 S :    0.468617
   2 C :   -0.194308
   3 C :   -0.098476
   4 C :   -0.024419
   5 N :    0.074222
   6 N :   -0.048349
   7 C :   -0.049576
   8 C :   -0.182106
   9 S :    0.453526
  10 C :   -0.124676
  11 C :   -0.085608
  12 C :   -0.048404
  13 N :    0.290053
  14 O :   -0.216888
  15 O :   -0.217466
  16 C :   -0.073874
  17 C :    0.009462
  18 C :   -0.035071
  19 C :   -0.014699
  20 C :   -0.020269
  21 N :    0.089498
  22 C :   -0.009067
  23 C :   -0.061473
  24 C :   -0.042473
  25 C :   -0.009071
  26 C :   -0.023391
  27 C :   -0.051514
  28 C :   -0.168686
  29 S :    0.450837
  30 C :   -0.126502
  31 C :   -0.087010
  32 C :   -0.048882
  33 N :    0.292781
  34 O :   -0.225294
  35 O :   -0.218801
  36 C :   -0.091568
  37 C :    0.001178
  38 C :   -0.223997
  39 S :    0.460338
  40 C :   -0.167450
  41 C :   -0.100873
  42 C :   -0.006773
  43 N :    0.086105
  44 N :   -0.048145
  45 C :   -0.034471
  46 H :    0.023434
  47 H :    0.085181
  48 H :    0.016848
  49 H :    0.035833
  50 H :    0.021271
  51 H :    0.029045
  52 H :    0.024770
  53 H :    0.091580
  54 H :    0.024093
  55 H :    0.054830
  56 H :    0.052481
  57 H :    0.027683
  58 H :    0.027172
  59 H :    0.033787
  60 H :    0.019021
  61 H :    0.030492
  62 H :    0.028815
  63 H :    0.091574
  64 H :    0.023945

  Mayer bond orders larger than 0.100000
B(  0-C ,  1-S ) :   1.1305 B(  0-C ,  2-C ) :   0.1208 B(  0-C ,  4-C ) :   1.4398
B(  0-C , 46-H ) :   0.9942 B(  1-S ,  2-C ) :   1.1757 B(  2-C ,  3-C ) :   1.3711
B(  2-C ,  8-C ) :   1.1722 B(  3-C ,  4-C ) :   1.2310 B(  3-C ,  7-C ) :   1.1425
B(  4-C ,  5-N ) :   1.1098 B(  5-N ,  6-N ) :   1.1319 B(  5-N , 47-H ) :   0.9539
B(  6-N ,  7-C ) :   1.7532 B(  7-C , 48-H ) :   0.9982 B(  8-C ,  9-S ) :   1.0859
B(  8-C , 12-C ) :   1.4818 B(  9-S , 10-C ) :   1.1523 B( 10-C , 11-C ) :   1.3864
B( 10-C , 16-C ) :   1.1718 B( 11-C , 12-C ) :   1.2490 B( 11-C , 13-N ) :   0.9548
B( 12-C , 49-H ) :   0.9956 B( 13-N , 14-O ) :   1.4848 B( 13-N , 15-O ) :   1.5368
B( 14-O , 15-O ) :   0.2462 B( 16-C , 17-C ) :   1.6134 B( 16-C , 50-H ) :   0.9358
B( 17-C , 18-C ) :   1.1677 B( 17-C , 51-H ) :   0.9569 B( 18-C , 19-C ) :   1.5525
B( 18-C , 25-C ) :   1.0288 B( 19-C , 20-C ) :   1.1154 B( 19-C , 52-H ) :   1.0179
B( 20-C , 21-N ) :   1.2024 B( 20-C , 24-C ) :   1.4168 B( 21-N , 22-C ) :   1.1825
B( 21-N , 53-H ) :   0.9332 B( 22-C , 23-C ) :   1.3754 B( 22-C , 26-C ) :   1.1149
B( 23-C , 24-C ) :   1.3674 B( 23-C , 54-H ) :   1.0167 B( 24-C , 25-C ) :   1.0178
B( 25-C , 55-H ) :   0.8753 B( 25-C , 56-H ) :   0.8774 B( 26-C , 27-C ) :   1.6939
B( 26-C , 57-H ) :   0.9598 B( 27-C , 28-C ) :   1.1108 B( 27-C , 58-H ) :   0.9658
B( 28-C , 29-S ) :   1.0778 B( 28-C , 32-C ) :   1.4933 B( 29-S , 30-C ) :   1.1662
B( 30-C , 31-C ) :   1.3881 B( 30-C , 36-C ) :   1.1702 B( 31-C , 32-C ) :   1.2437
B( 31-C , 33-N ) :   0.9630 B( 32-C , 59-H ) :   0.9915 B( 33-N , 34-O ) :   1.4724
B( 33-N , 35-O ) :   1.5366 B( 34-O , 35-O ) :   0.2423 B( 36-C , 37-C ) :   1.6265
B( 36-C , 60-H ) :   0.9399 B( 37-C , 38-C ) :   1.2072 B( 37-C , 61-H ) :   0.9517
B( 38-C , 39-S ) :   1.0761 B( 38-C , 40-C ) :   0.1072 B( 38-C , 42-C ) :   1.3695
B( 39-S , 40-C ) :   1.2147 B( 40-C , 41-C ) :   1.4080 B( 40-C , 62-H ) :   0.9758
B( 41-C , 42-C ) :   1.2407 B( 41-C , 45-C ) :   1.1108 B( 42-C , 43-N ) :   1.1691
B( 43-N , 44-N ) :   1.1221 B( 43-N , 63-H ) :   0.9489 B( 44-N , 45-C ) :   1.7660
B( 45-C , 64-H ) :   1.0020

-----------------------------------------------------------------------------
         ABSORPTION SPECTRUM VIA TRANSITION ELECTRIC DIPOLE MOMENTS
-----------------------------------------------------------------------------
State   Energy  Wavelength   fosc         T2         TX        TY        TZ
        (cm-1)    (nm)                  (au**2)     (au)      (au)      (au)
-----------------------------------------------------------------------------
   0   15676.8    637.9   2.473809136  51.94979   0.02226  -5.76385   4.32750
   1   19433.4    514.6   0.103970339   1.76131   0.90266   0.78898  -0.56923
   2   23889.3    418.6   0.135696098   1.86999   0.16187   1.00740  -0.91045
   3   24896.5    401.7   0.050244727   0.66440  -0.20957   0.71914  -0.32143
   4   25568.2    391.1   0.524736359   6.75642  -1.25879  -2.17330   0.66980
   5   26023.7    384.3   0.222347056   2.81279   0.84042  -0.69160   1.27600
   6   28653.4    349.0   0.038182005   0.43869  -0.08056   0.45391  -0.47557
   7   30773.1    325.0   0.012286381   0.13144  -0.22767  -0.22819   0.16593
   8   32252.3    310.1   0.180886799   1.84638   0.71498   1.13491  -0.21715
   9   32498.0    307.7   0.015961663   0.16170  -0.11833  -0.36713   0.11361
  10   32943.6    303.5   0.003295654   0.03293   0.08481  -0.16043  -0.00161
  11   34552.1    289.4   0.022639150   0.21571  -0.04199   0.34414  -0.30905
  12   35722.7    279.9   0.004686595   0.04319   0.17104  -0.05125   0.10634
  13   36999.0    270.3   0.007617500   0.06778   0.17072  -0.08202   0.17862
  14   37500.9    266.7   0.038951768   0.34195  -0.39936   0.26538  -0.33472
  15   37841.8    264.3   0.081839838   0.71198  -0.73558   0.13029  -0.39234
  16   38028.0    263.0   0.017033739   0.14746  -0.24709  -0.29365   0.01328
  17   38507.5    259.7   0.009332906   0.07979   0.12690  -0.14597   0.20586
  18   38966.5    256.6   0.017742898   0.14990   0.30768   0.23375  -0.02442
  19   39237.2    254.9   0.002293243   0.01924  -0.10692  -0.00794  -0.08801
  20   40309.7    248.1   0.198181336   1.61856   1.11927   0.30197   0.52402

FINAL SINGLE POINT ENERGY     -3466.540117228372

DIPOLE MOMENT
-------------
                                X             Y             Z
Electronic contribution:      0.56190      -5.74050       3.98884
Nuclear contribution   :     -0.55683       5.27021      -4.32228
                        -----------------------------------------
Total Dipole Moment    :      0.00507      -0.47029      -0.33344
                        -----------------------------------------
Magnitude (a.u.)       :      0.57653
Magnitude (Debye)      :      1.46542

Rotational constants in cm-1:     0.006896     0.000311     0.000299
Rotational constants in MHz :   206.749069     9.334215     8.962103

                             ****ORCA TERMINATED NORMALLY****
TOTAL RUN TIME: 0 days 0 hours 3 minutes 57 seconds 670 msec
