                         Program Version 4.2.0 -  RELEASE  -
|  1> # ORCA input file
|  2> # SCF done       -115.289622726611          0.000474709759
|  3> ! CAM-B3LYP def2-SVP def2/J RIJCOSX Grid4 TightSCF
|  4> %maxcore 5000
|  5> %tddft
|  6>     Mode sTDDFT
|  7>     Ethresh 5.0
|  8>     maxcore 5000
|  9> end
| 10>
| 11> %pal
| 12>   nprocs 6
| 13>   end
| 14> * xyz 0 1
| 15>    C        1.53628         2.02048        -1.88109
| 16>    S       -0.13118         1.63674        -2.10062
| 17>    C       -0.67521         2.93688        -1.07839
| 18>    C        0.42053         3.63785        -0.59072
| 19>    C        1.66482         3.10314        -1.05610
| 20>    N        2.63424         3.87975        -0.50079
| 21>    N        2.09875         4.84703         0.26778
| 22>    C        0.79767         4.72852         0.23296
| 23>    C       -2.04425         3.17934        -0.82092
| 24>    O       -2.39119         4.21202        -0.02565
| 25>    C       -3.74833         4.22915         0.07785
| 26>    C       -4.28378         3.19381        -0.66041
| 27>    C       -3.19501         2.51219        -1.24700
| 28>    C       -3.25899         1.39662        -2.08861
| 29>    N       -3.33502         0.48043        -2.77593
| 30>    C       -4.40123         5.22504         0.85406
| 31>    C       -3.75023         6.23479         1.48309
| 32>    C       -4.36699         7.25321         2.24927
| 33>    C       -3.71320         8.31210         2.83286
| 34>    C       -4.67070         9.11705         3.48695
| 35>    N       -4.76659        10.25460         4.20912
| 36>    C       -6.09112        10.46006         4.53394
| 37>    C       -6.84631         9.40521         3.99140
| 38>    C       -5.95697         8.57315         3.33677
| 39>    C       -5.85647         7.32930         2.52539
| 40>    C       -6.49545        11.59553         5.27261
| 41>    C       -7.76778        11.86636         5.66287
| 42>    C       -8.13111        13.03420         6.37545
| 43>    O       -7.22468        13.98725         6.68284
| 44>    C       -7.86631        14.98412         7.35014
| 45>    C       -9.20355        14.67401         7.48229
| 46>    C       -9.38542        13.42123         6.85718
| 47>    C      -10.57375        12.69488         6.73410
| 48>    N      -11.55027        12.09978         6.63270
| 49>    C       -7.14960        16.13414         7.78510
| 50>    C       -5.82602        16.31020         7.56142
| 51>    C       -5.05704        17.43152         7.95577
| 52>    S       -3.34645        17.49069         7.57091
| 53>    C       -3.10580        19.02273         8.29930
| 54>    C       -4.28052        19.49581         8.82763
| 55>    C       -5.37971        18.59575         8.63232
| 56>    N       -6.45519        19.19805         9.20240
| 57>    N       -6.12491        20.39053         9.73468
| 58>    C       -4.85355        20.59451         9.53084
| 59>    H        2.28627         1.43138        -2.36625
| 60>    H        3.63243         3.81044        -0.59471
| 61>    H        0.17063         5.40188         0.78003
| 62>    H       -5.32073         2.95194        -0.77341
| 63>    H       -5.47586         5.13654         0.90596
| 64>    H       -2.67338         6.28649         1.38989
| 65>    H       -2.65450         8.49436         2.78898
| 66>    H       -4.01345        10.86608         4.47788
| 67>    H       -7.90869         9.29624         4.07891
| 68>    H       -6.42908         7.39465         1.59890
| 69>    H       -6.20194         6.44891         3.06985
| 70>    H       -5.71875        12.30218         5.53814
| 71>    H       -8.57573        11.18696         5.43882
| 72>    H       -9.95744        15.26486         7.96135
| 73>    H       -7.73666        16.87339         8.30752
| 74>    H       -5.28837        15.53605         7.03144
| 75>    H       -2.13374        19.47146         8.29330
| 76>    H       -7.40498        18.87651         9.26857
| 77>    H       -4.37914        21.49034         9.87571
| 78> *
| 79>
| 80>                          ****END OF INPUT****

CARTESIAN COORDINATES (ANGSTROEM)
---------------------------------
  C      1.536280    2.020480   -1.881090
  S     -0.131180    1.636740   -2.100620
  C     -0.675210    2.936880   -1.078390
  C      0.420530    3.637850   -0.590720
  C      1.664820    3.103140   -1.056100
  N      2.634240    3.879750   -0.500790
  N      2.098750    4.847030    0.267780
  C      0.797670    4.728520    0.232960
  C     -2.044250    3.179340   -0.820920
  O     -2.391190    4.212020   -0.025650
  C     -3.748330    4.229150    0.077850
  C     -4.283780    3.193810   -0.660410
  C     -3.195010    2.512190   -1.247000
  C     -3.258990    1.396620   -2.088610
  N     -3.335020    0.480430   -2.775930
  C     -4.401230    5.225040    0.854060
  C     -3.750230    6.234790    1.483090
  C     -4.366990    7.253210    2.249270
  C     -3.713200    8.312100    2.832860
  C     -4.670700    9.117050    3.486950
  N     -4.766590   10.254600    4.209120
  C     -6.091120   10.460060    4.533940
  C     -6.846310    9.405210    3.991400
  C     -5.956970    8.573150    3.336770
  C     -5.856470    7.329300    2.525390
  C     -6.495450   11.595530    5.272610
  C     -7.767780   11.866360    5.662870
  C     -8.131110   13.034200    6.375450
  O     -7.224680   13.987250    6.682840
  C     -7.866310   14.984120    7.350140
  C     -9.203550   14.674010    7.482290
  C     -9.385420   13.421230    6.857180
  C    -10.573750   12.694880    6.734100
  N    -11.550270   12.099780    6.632700
  C     -7.149600   16.134140    7.785100
  C     -5.826020   16.310200    7.561420
  C     -5.057040   17.431520    7.955770
  S     -3.346450   17.490690    7.570910
  C     -3.105800   19.022730    8.299300
  C     -4.280520   19.495810    8.827630
  C     -5.379710   18.595750    8.632320
  N     -6.455190   19.198050    9.202400
  N     -6.124910   20.390530    9.734680
  C     -4.853550   20.594510    9.530840
  H      2.286270    1.431380   -2.366250
  H      3.632430    3.810440   -0.594710
  H      0.170630    5.401880    0.780030
  H     -5.320730    2.951940   -0.773410
  H     -5.475860    5.136540    0.905960
  H     -2.673380    6.286490    1.389890
  H     -2.654500    8.494360    2.788980
  H     -4.013450   10.866080    4.477880
  H     -7.908690    9.296240    4.078910
  H     -6.429080    7.394650    1.598900
  H     -6.201940    6.448910    3.069850
  H     -5.718750   12.302180    5.538140
  H     -8.575730   11.186960    5.438820
  H     -9.957440   15.264860    7.961350
  H     -7.736660   16.873390    8.307520
  H     -5.288370   15.536050    7.031440
  H     -2.133740   19.471460    8.293300
  H     -7.404980   18.876510    9.268570
  H     -4.379140   21.490340    9.875710

 Total Charge           Charge          ....    0
 Multiplicity           Mult            ....    1
 Number of Electrons    NEL             ....  314
 Basis Dimension        Dim             ....  719

ORBITAL ENERGIES
----------------

  NO   OCC          E(Eh)            E(eV)
   0   2.0000     -88.969618     -2420.9864
   1   2.0000     -88.966058     -2420.8895
   2   2.0000     -19.303537      -525.2760
   3   2.0000     -19.297566      -525.1135
   4   2.0000     -14.480300      -394.0290
   5   2.0000     -14.477271      -393.9466
   6   2.0000     -14.469214      -393.7273
   7   2.0000     -14.437804      -392.8726
   8   2.0000     -14.437438      -392.8627
   9   2.0000     -14.401276      -391.8786
  10   2.0000     -14.394827      -391.7032
  11   2.0000     -10.358926      -281.8807
  12   2.0000     -10.346619      -281.5458
  13   2.0000     -10.338270      -281.3186
  14   2.0000     -10.336207      -281.2625
  15   2.0000     -10.315576      -280.7011
  16   2.0000     -10.315181      -280.6903
  17   2.0000     -10.314678      -280.6767
  18   2.0000     -10.305636      -280.4306
  19   2.0000     -10.305398      -280.4241
  20   2.0000     -10.304312      -280.3946
  21   2.0000     -10.303797      -280.3806
  22   2.0000     -10.303136      -280.3626
  23   2.0000     -10.300173      -280.2820
  24   2.0000     -10.298726      -280.2426
  25   2.0000     -10.298524      -280.2371
  26   2.0000     -10.297580      -280.2114
  27   2.0000     -10.295448      -280.1534
  28   2.0000     -10.293983      -280.1135
  29   2.0000     -10.291217      -280.0382
  30   2.0000     -10.289588      -279.9939
  31   2.0000     -10.285121      -279.8724
  32   2.0000     -10.284925      -279.8670
  33   2.0000     -10.283798      -279.8364
  34   2.0000     -10.282041      -279.7886
  35   2.0000     -10.281875      -279.7840
  36   2.0000     -10.281166      -279.7647
  37   2.0000     -10.281026      -279.7609
  38   2.0000     -10.279950      -279.7317
  39   2.0000     -10.279849      -279.7289
  40   2.0000     -10.279778      -279.7270
  41   2.0000     -10.279557      -279.7210
  42   2.0000     -10.264615      -279.3144
  43   2.0000     -10.261181      -279.2209
  44   2.0000      -8.063756      -219.4260
  45   2.0000      -8.061131      -219.3545
  46   2.0000      -6.033294      -164.1743
  47   2.0000      -6.030449      -164.0969
  48   2.0000      -6.028541      -164.0449
  49   2.0000      -6.026190      -163.9810
  50   2.0000      -6.026013      -163.9762
  51   2.0000      -6.023666      -163.9123
  52   2.0000      -1.221323       -33.2339
  53   2.0000      -1.215216       -33.0677
  54   2.0000      -1.140498       -31.0345
  55   2.0000      -1.138968       -30.9929
  56   2.0000      -1.082901       -29.4672
  57   2.0000      -0.989937       -26.9375
  58   2.0000      -0.983375       -26.7590
  59   2.0000      -0.982729       -26.7414
  60   2.0000      -0.980656       -26.6850
  61   2.0000      -0.956979       -26.0407
  62   2.0000      -0.925233       -25.1769
  63   2.0000      -0.919841       -25.0301
  64   2.0000      -0.917510       -24.9667
  65   2.0000      -0.916895       -24.9500
  66   2.0000      -0.911492       -24.8030
  67   2.0000      -0.906961       -24.6797
  68   2.0000      -0.893688       -24.3185
  69   2.0000      -0.872117       -23.7315
  70   2.0000      -0.860748       -23.4221
  71   2.0000      -0.849358       -23.1122
  72   2.0000      -0.847656       -23.0659
  73   2.0000      -0.840400       -22.8685
  74   2.0000      -0.814148       -22.1541
  75   2.0000      -0.798576       -21.7304
  76   2.0000      -0.795039       -21.6341
  77   2.0000      -0.773189       -21.0395
  78   2.0000      -0.747325       -20.3358
  79   2.0000      -0.743156       -20.2223
  80   2.0000      -0.734443       -19.9852
  81   2.0000      -0.714054       -19.4304
  82   2.0000      -0.704417       -19.1682
  83   2.0000      -0.701307       -19.0835
  84   2.0000      -0.697896       -18.9907
  85   2.0000      -0.695048       -18.9132
  86   2.0000      -0.688276       -18.7289
  87   2.0000      -0.683182       -18.5903
  88   2.0000      -0.681043       -18.5321
  89   2.0000      -0.668751       -18.1976
  90   2.0000      -0.661020       -17.9873
  91   2.0000      -0.657021       -17.8784
  92   2.0000      -0.648840       -17.6558
  93   2.0000      -0.631877       -17.1943
  94   2.0000      -0.619613       -16.8605
  95   2.0000      -0.611145       -16.6301
  96   2.0000      -0.606596       -16.5063
  97   2.0000      -0.593371       -16.1465
  98   2.0000      -0.579795       -15.7770
  99   2.0000      -0.571398       -15.5485
 100   2.0000      -0.564485       -15.3604
 101   2.0000      -0.564057       -15.3488
 102   2.0000      -0.560771       -15.2594
 103   2.0000      -0.554790       -15.0966
 104   2.0000      -0.546086       -14.8598
 105   2.0000      -0.542591       -14.7646
 106   2.0000      -0.542371       -14.7587
 107   2.0000      -0.539680       -14.6854
 108   2.0000      -0.537586       -14.6284
 109   2.0000      -0.535517       -14.5722
 110   2.0000      -0.533717       -14.5232
 111   2.0000      -0.530600       -14.4384
 112   2.0000      -0.517988       -14.0952
 113   2.0000      -0.511478       -13.9180
 114   2.0000      -0.502200       -13.6656
 115   2.0000      -0.500923       -13.6308
 116   2.0000      -0.499204       -13.5840
 117   2.0000      -0.493045       -13.4164
 118   2.0000      -0.489822       -13.3287
 119   2.0000      -0.485140       -13.2013
 120   2.0000      -0.478562       -13.0223
 121   2.0000      -0.476275       -12.9601
 122   2.0000      -0.472174       -12.8485
 123   2.0000      -0.464807       -12.6480
 124   2.0000      -0.462406       -12.5827
 125   2.0000      -0.459168       -12.4946
 126   2.0000      -0.457903       -12.4602
 127   2.0000      -0.454838       -12.3768
 128   2.0000      -0.446177       -12.1411
 129   2.0000      -0.445757       -12.1297
 130   2.0000      -0.444600       -12.0982
 131   2.0000      -0.442530       -12.0418
 132   2.0000      -0.438043       -11.9197
 133   2.0000      -0.431242       -11.7347
 134   2.0000      -0.429634       -11.6909
 135   2.0000      -0.425927       -11.5901
 136   2.0000      -0.425544       -11.5796
 137   2.0000      -0.417916       -11.3721
 138   2.0000      -0.412647       -11.2287
 139   2.0000      -0.398966       -10.8564
 140   2.0000      -0.397337       -10.8121
 141   2.0000      -0.397101       -10.8057
 142   2.0000      -0.380985       -10.3671
 143   2.0000      -0.369158       -10.0453
 144   2.0000      -0.363660        -9.8957
 145   2.0000      -0.363186        -9.8828
 146   2.0000      -0.361725        -9.8430
 147   2.0000      -0.350554        -9.5391
 148   2.0000      -0.343040        -9.3346
 149   2.0000      -0.327151        -8.9022
 150   2.0000      -0.319050        -8.6818
 151   2.0000      -0.315424        -8.5831
 152   2.0000      -0.315070        -8.5735
 153   2.0000      -0.295243        -8.0340
 154   2.0000      -0.262236        -7.1358
 155   2.0000      -0.241097        -6.5606
 156   2.0000      -0.211309        -5.7500
 157   0.0000      -0.064646        -1.7591
 158   0.0000      -0.045704        -1.2437
 159   0.0000      -0.028227        -0.7681
 160   0.0000      -0.005689        -0.1548
 161   0.0000       0.027888         0.7589

MULLIKEN ATOMIC CHARGES
-----------------------
   0 C :   -0.209253
   1 S :    0.179879
   2 C :   -0.227255
   3 C :    0.044734
   4 C :    0.202943
   5 N :   -0.052208
   6 N :   -0.058003
   7 C :   -0.010587
   8 C :    0.209655
   9 O :   -0.206398
  10 C :    0.205443
  11 C :   -0.048747
  12 C :   -0.106668
  13 C :   -0.230048
  14 N :    0.159346
  15 C :   -0.047908
  16 C :    0.027641
  17 C :   -0.119732
  18 C :   -0.080899
  19 C :    0.083694
  20 N :   -0.009114
  21 C :    0.090641
  22 C :   -0.101485
  23 C :   -0.112865
  24 C :    0.307439
  25 C :    0.011596
  26 C :   -0.081632
  27 C :    0.175052
  28 O :   -0.212946
  29 C :    0.190076
  30 C :   -0.046811
  31 C :   -0.096342
  32 C :   -0.192438
  33 N :    0.135209
  34 C :   -0.035605
  35 C :    0.069139
  36 C :   -0.202393
  37 S :    0.135809
  38 C :   -0.132057
  39 C :    0.034347
  40 C :    0.153041
  41 N :   -0.058183
  42 N :   -0.058567
  43 C :    0.013027
  44 H :    0.017354
  45 H :    0.134904
  46 H :   -0.008720
  47 H :   -0.010221
  48 H :   -0.005589
  49 H :   -0.018428
  50 H :   -0.030062
  51 H :    0.121398
  52 H :   -0.025596
  53 H :    0.032134
  54 H :    0.032624
  55 H :   -0.021109
  56 H :    0.009034
  57 H :   -0.015884
  58 H :   -0.045902
  59 H :   -0.017028
  60 H :    0.026338
  61 H :    0.137354
  62 H :   -0.003169
Sum of atomic charges:   -0.0000000

LOEWDIN ATOMIC CHARGES
----------------------
   0 C :   -0.228396
   1 S :    0.499289
   2 C :   -0.203984
   3 C :   -0.081658
   4 C :   -0.026468
   5 N :    0.075718
   6 N :   -0.049360
   7 C :   -0.040946
   8 C :    0.054203
   9 O :    0.017862
  10 C :    0.037377
  11 C :   -0.037395
  12 C :   -0.121264
  13 C :   -0.045900
  14 N :   -0.055481
  15 C :   -0.055122
  16 C :   -0.016870
  17 C :   -0.023722
  18 C :   -0.027439
  19 C :   -0.018009
  20 N :    0.091218
  21 C :   -0.019651
  22 C :   -0.052437
  23 C :   -0.048252
  24 C :   -0.012466
  25 C :   -0.013625
  26 C :   -0.058893
  27 C :    0.067833
  28 O :    0.009593
  29 C :    0.037024
  30 C :   -0.043280
  31 C :   -0.121085
  32 C :   -0.034934
  33 N :   -0.066643
  34 C :   -0.065620
  35 C :   -0.028784
  36 C :   -0.222337
  37 S :    0.462230
  38 C :   -0.185250
  39 C :   -0.097769
  40 C :   -0.017001
  41 N :    0.080099
  42 N :   -0.051036
  43 C :   -0.035796
  44 H :    0.025539
  45 H :    0.085427
  46 H :    0.021149
  47 H :    0.038024
  48 H :    0.035082
  49 H :    0.030773
  50 H :    0.026207
  51 H :    0.091203
  52 H :    0.026836
  53 H :    0.050295
  54 H :    0.050757
  55 H :    0.028690
  56 H :    0.041181
  57 H :    0.035372
  58 H :    0.025854
  59 H :    0.029904
  60 H :    0.026870
  61 H :    0.081765
  62 H :    0.023498

  Mayer bond orders larger than 0.100000
B(  0-C ,  1-S ) :   1.1414 B(  0-C ,  2-C ) :   0.1321 B(  0-C ,  4-C ) :   1.4246
B(  0-C , 44-H ) :   0.9946 B(  1-S ,  2-C ) :   1.1848 B(  2-C ,  3-C ) :   1.3248
B(  2-C ,  8-C ) :   1.2008 B(  3-C ,  4-C ) :   1.2183 B(  3-C ,  7-C ) :   1.1604
B(  4-C ,  5-N ) :   1.1127 B(  5-N ,  6-N ) :   1.1339 B(  5-N , 45-H ) :   0.9533
B(  6-N ,  7-C ) :   1.7390 B(  7-C , 46-H ) :   1.0044 B(  8-C ,  9-O ) :   1.1941
B(  8-C , 12-C ) :   1.4277 B(  9-O , 10-C ) :   1.1042 B( 10-C , 11-C ) :   1.4421
B( 10-C , 15-C ) :   1.1393 B( 11-C , 12-C ) :   1.2211 B( 11-C , 47-H ) :   1.0248
B( 12-C , 13-C ) :   1.1172 B( 13-C , 14-N ) :   3.0207 B( 15-C , 16-C ) :   1.6120
B( 15-C , 48-H ) :   0.9628 B( 16-C , 17-C ) :   1.1428 B( 16-C , 49-H ) :   0.9841
B( 17-C , 18-C ) :   1.5542 B( 17-C , 24-C ) :   1.0378 B( 18-C , 19-C ) :   1.0746
B( 18-C , 50-H ) :   1.0342 B( 19-C , 20-N ) :   1.2135 B( 19-C , 23-C ) :   1.4286
B( 20-N , 21-C ) :   1.1751 B( 20-N , 51-H ) :   0.9340 B( 21-C , 22-C ) :   1.3703
B( 21-C , 25-C ) :   1.1064 B( 22-C , 23-C ) :   1.3728 B( 22-C , 52-H ) :   1.0172
B( 23-C , 24-C ) :   1.0067 B( 24-C , 53-H ) :   0.8697 B( 24-C , 54-H ) :   0.8697
B( 25-C , 26-C ) :   1.6116 B( 25-C , 55-H ) :   0.9733 B( 26-C , 27-C ) :   1.2137
B( 26-C , 56-H ) :   0.9562 B( 27-C , 28-O ) :   1.1610 B( 27-C , 31-C ) :   1.3940
B( 28-O , 29-C ) :   1.1096 B( 29-C , 30-C ) :   1.4474 B( 29-C , 34-C ) :   1.1718
B( 30-C , 31-C ) :   1.2157 B( 30-C , 57-H ) :   1.0229 B( 31-C , 32-C ) :   1.1133
B( 32-C , 33-N ) :   3.0276 B( 34-C , 35-C ) :   1.6444 B( 34-C , 58-H ) :   0.9535
B( 35-C , 36-C ) :   1.1492 B( 35-C , 59-H ) :   0.9534 B( 36-C , 37-S ) :   1.1094
B( 36-C , 38-C ) :   0.1158 B( 36-C , 40-C ) :   1.3885 B( 37-S , 38-C ) :   1.2075
B( 38-C , 39-C ) :   1.4026 B( 38-C , 60-H ) :   0.9776 B( 39-C , 40-C ) :   1.2524
B( 39-C , 43-C ) :   1.1139 B( 40-C , 41-N ) :   1.1479 B( 41-N , 42-N ) :   1.1190
B( 41-N , 61-H ) :   0.9515 B( 42-N , 43-C ) :   1.7628 B( 43-C , 62-H ) :   1.0011

-----------------------------------------------------------------------------
         ABSORPTION SPECTRUM VIA TRANSITION ELECTRIC DIPOLE MOMENTS
-----------------------------------------------------------------------------
State   Energy  Wavelength   fosc         T2         TX        TY        TZ
        (cm-1)    (nm)                  (au**2)     (au)      (au)      (au)
-----------------------------------------------------------------------------
   0   17640.2    566.9   2.169688172  40.49199   2.22373  -4.99233  -3.25939
   1   22963.0    435.5   0.455291440   6.52736  -2.20998  -1.25284  -0.27151
   2   25667.0    389.6   0.143489810   1.84044   1.33518   0.17651  -0.16300
   3   27030.3    370.0   0.168813112   2.05604  -1.21467   0.34269   0.68056
   4   28841.1    346.7   0.017635264   0.20130   0.27677   0.18972  -0.29783
   5   30241.9    330.7   0.141209882   1.53721  -1.12743  -0.49921  -0.12996
   6   32464.4    308.0   0.058589209   0.59414  -0.52888   0.46673   0.31078
   7   33471.2    298.8   0.496767417   4.88605  -1.85198  -1.13770  -0.40233
   8   35670.2    280.3   0.032691955   0.30172  -0.53912  -0.09904  -0.03551
   9   37508.5    266.6   0.014922512   0.13097   0.35176   0.08451   0.00999
  10   37773.6    264.7   0.040942795   0.35683   0.49146   0.33635   0.04658
  11   38265.1    261.3   0.003987242   0.03430   0.07603   0.11898   0.11986
  12   39119.0    255.6   0.007205274   0.06064  -0.22606  -0.05906   0.07776

FINAL SINGLE POINT ENERGY     -2596.391008773153

DIPOLE MOMENT
-------------
                                X             Y             Z
Electronic contribution:      7.98332     -10.11785      -8.15666
Nuclear contribution   :     -5.17258      11.50144       8.56258
                        -----------------------------------------
Total Dipole Moment    :      2.81074       1.38359       0.40592
                        -----------------------------------------
Magnitude (a.u.)       :      3.15901
Magnitude (Debye)      :      8.02957

Rotational constants in cm-1:     0.004171     0.000466     0.000420
Rotational constants in MHz :   125.053591    13.964569    12.590756

                             ****ORCA TERMINATED NORMALLY****
TOTAL RUN TIME: 0 days 0 hours 3 minutes 27 seconds 968 msec
