                         Program Version 4.2.0 -  RELEASE  -
|  1> # ORCA input file
|  2> # SCF done       -194.593337185637          0.000319246231
|  3> ! CAM-B3LYP def2-SVP def2/J RIJCOSX Grid4 TightSCF
|  4> %maxcore 5000
|  5> %tddft
|  6>     Mode sTDDFT
|  7>     Ethresh 5.0
|  8>     maxcore 5000
|  9> end
| 10>
| 11> %pal
| 12>   nprocs 6
| 13>   end
| 14> * xyz 0 1
| 15>    C       -2.11257         7.22070       -15.78016
| 16>    C       -1.23301         7.26769       -14.78181
| 17>    C        0.19114         7.36127       -14.94156
| 18>    C        0.99348         7.43129       -16.07156
| 19>    C        2.31081         7.50478       -15.59826
| 20>    C        2.21609         7.47448       -14.19900
| 21>    O        0.95172         7.38900       -13.80338
| 22>    C        3.53102         7.54199       -13.66318
| 23>    O        4.15828         7.55375       -12.49349
| 24>    C        5.49868         7.63085       -12.77744
| 25>    C        6.44874         7.64950       -11.72464
| 26>    C        6.12347         7.61984       -10.40931
| 27>    C        7.07342         7.61090        -9.35526
| 28>    C        6.85071         7.58700        -7.97680
| 29>    C        8.11678         7.56355        -7.39037
| 30>    C        9.03456         7.57650        -8.45446
| 31>    O        8.41181         7.60522        -9.63039
| 32>    C       10.34225         7.53523        -7.91020
| 33>    O       11.60330         7.50105        -8.29603
| 34>    C       12.35701         7.41435        -7.15042
| 35>    C       13.78136         7.37232        -7.30448
| 36>    C       14.44016         8.04748        -8.35105
| 37>    C       13.86844         9.07120        -9.25562
| 38>    O       12.79228         9.58252        -9.27788
| 39>    O       14.87339         9.45288       -10.10930
| 40>    C       16.05061         8.82577        -9.80084
| 41>    O       17.04290         9.05617       -10.42598
| 42>    C       15.80089         7.93088        -8.64309
| 43>    C       16.66704         7.08825        -7.89600
| 44>    C       18.02899         6.75116        -8.13557
| 45>    C       18.89583         7.28707        -9.03559
| 46>    C       20.20991         6.79613        -9.20876
| 47>    C       21.22257         7.27806       -10.04254
| 48>    C       22.30477         6.41765        -9.86659
| 49>    C       21.87584         5.45139        -8.93009
| 50>    O       20.63535         5.67689        -8.53293
| 51>    C       22.92723         4.52355        -8.73984
| 52>    O       23.20411         3.40690        -8.07292
| 53>    C       24.47242         3.04483        -8.43133
| 54>    C       24.99968         1.85137        -7.87411
| 55>    C       26.23293         1.35428        -8.13293
| 56>    C       26.72079         0.13678        -7.59051
| 57>    C       27.95717        -0.47964        -7.77879
| 58>    C       27.90887        -1.66199        -7.03537
| 59>    C       26.63988        -1.68770        -6.44040
| 60>    O       25.92652        -0.61727        -6.76643
| 61>    C       26.53630        -2.88529        -5.67308
| 62>    O       25.67622        -3.53397        -4.89513
| 63>    C       26.30969        -4.66801        -4.50594
| 64>    C       27.57328        -4.75902        -5.02500
| 65>    C       27.73874        -3.59014        -5.79815
| 66>    C       28.66127        -2.86039        -6.65661
| 67>    S       30.17169        -3.27203        -7.09861
| 68>    C       25.00668         3.95928        -9.34324
| 69>    C       24.01079         4.91429        -9.54735
| 70>    C       23.66928         6.12830       -10.28894
| 71>    S       24.59649         6.95099       -11.34201
| 72>    C       16.01039         6.48957        -6.79013
| 73>    C       16.58751         5.59591        -5.75911
| 74>    O       17.70479         5.20870        -5.59577
| 75>    O       15.56640         5.22421        -4.91842
| 76>    C       14.38043         5.79663        -5.29873
| 77>    O       13.36368         5.59412        -4.70984
| 78>    C       14.65736         6.62509        -6.49616
| 79>    C       11.54080         7.39250        -6.02424
| 80>    C       10.23289         7.48257        -6.50529
| 81>    C        8.83074         7.51399        -6.11313
| 82>    S        8.19677         7.49664        -4.61598
| 83>    C        5.70717         7.66937       -14.15527
| 84>    C        4.43662         7.61271       -14.73420
| 85>    C        3.70980         7.59496       -16.00241
| 86>    S        4.32008         7.65848       -17.50916
| 87>    H       -3.16818         7.14962       -15.58960
| 88>    H       -1.80771         7.25079       -16.81132
| 89>    H       -1.56327         7.23442       -13.75250
| 90>    H        0.66093         7.42834       -17.08844
| 91>    H        7.48513         7.68602       -12.02522
| 92>    H        5.08692         7.59401       -10.10853
| 93>    H        5.89496         7.58531        -7.49476
| 94>    H       18.41028         5.96210        -7.50242
| 95>    H       18.62689         8.11501        -9.67045
| 96>    H       21.14934         8.13647       -10.67821
| 97>    H       24.33851         1.31701        -7.20692
| 98>    H       26.91373         1.87427        -8.78889
| 99>    H       28.76218        -0.10421        -8.37616
|100>    H       25.76150        -5.32779        -3.86359
|101>    H       28.27479        -5.55208        -4.87039
|102>    H       25.97888         3.91668        -9.78785
|103>    H       11.86459         7.32770        -5.00704
|104>    H        6.65721         7.73034       -14.64488
|105> *
|106>
|107>                          ****END OF INPUT****

CARTESIAN COORDINATES (ANGSTROEM)
---------------------------------
  C     -2.112570    7.220700  -15.780160
  C     -1.233010    7.267690  -14.781810
  C      0.191140    7.361270  -14.941560
  C      0.993480    7.431290  -16.071560
  C      2.310810    7.504780  -15.598260
  C      2.216090    7.474480  -14.199000
  O      0.951720    7.389000  -13.803380
  C      3.531020    7.541990  -13.663180
  O      4.158280    7.553750  -12.493490
  C      5.498680    7.630850  -12.777440
  C      6.448740    7.649500  -11.724640
  C      6.123470    7.619840  -10.409310
  C      7.073420    7.610900   -9.355260
  C      6.850710    7.587000   -7.976800
  C      8.116780    7.563550   -7.390370
  C      9.034560    7.576500   -8.454460
  O      8.411810    7.605220   -9.630390
  C     10.342250    7.535230   -7.910200
  O     11.603300    7.501050   -8.296030
  C     12.357010    7.414350   -7.150420
  C     13.781360    7.372320   -7.304480
  C     14.440160    8.047480   -8.351050
  C     13.868440    9.071200   -9.255620
  O     12.792280    9.582520   -9.277880
  O     14.873390    9.452880  -10.109300
  C     16.050610    8.825770   -9.800840
  O     17.042900    9.056170  -10.425980
  C     15.800890    7.930880   -8.643090
  C     16.667040    7.088250   -7.896000
  C     18.028990    6.751160   -8.135570
  C     18.895830    7.287070   -9.035590
  C     20.209910    6.796130   -9.208760
  C     21.222570    7.278060  -10.042540
  C     22.304770    6.417650   -9.866590
  C     21.875840    5.451390   -8.930090
  O     20.635350    5.676890   -8.532930
  C     22.927230    4.523550   -8.739840
  O     23.204110    3.406900   -8.072920
  C     24.472420    3.044830   -8.431330
  C     24.999680    1.851370   -7.874110
  C     26.232930    1.354280   -8.132930
  C     26.720790    0.136780   -7.590510
  C     27.957170   -0.479640   -7.778790
  C     27.908870   -1.661990   -7.035370
  C     26.639880   -1.687700   -6.440400
  O     25.926520   -0.617270   -6.766430
  C     26.536300   -2.885290   -5.673080
  O     25.676220   -3.533970   -4.895130
  C     26.309690   -4.668010   -4.505940
  C     27.573280   -4.759020   -5.025000
  C     27.738740   -3.590140   -5.798150
  C     28.661270   -2.860390   -6.656610
  S     30.171690   -3.272030   -7.098610
  C     25.006680    3.959280   -9.343240
  C     24.010790    4.914290   -9.547350
  C     23.669280    6.128300  -10.288940
  S     24.596490    6.950990  -11.342010
  C     16.010390    6.489570   -6.790130
  C     16.587510    5.595910   -5.759110
  O     17.704790    5.208700   -5.595770
  O     15.566400    5.224210   -4.918420
  C     14.380430    5.796630   -5.298730
  O     13.363680    5.594120   -4.709840
  C     14.657360    6.625090   -6.496160
  C     11.540800    7.392500   -6.024240
  C     10.232890    7.482570   -6.505290
  C      8.830740    7.513990   -6.113130
  S      8.196770    7.496640   -4.615980
  C      5.707170    7.669370  -14.155270
  C      4.436620    7.612710  -14.734200
  C      3.709800    7.594960  -16.002410
  S      4.320080    7.658480  -17.509160
  H     -3.168180    7.149620  -15.589600
  H     -1.807710    7.250790  -16.811320
  H     -1.563270    7.234420  -13.752500
  H      0.660930    7.428340  -17.088440
  H      7.485130    7.686020  -12.025220
  H      5.086920    7.594010  -10.108530
  H      5.894960    7.585310   -7.494760
  H     18.410280    5.962100   -7.502420
  H     18.626890    8.115010   -9.670450
  H     21.149340    8.136470  -10.678210
  H     24.338510    1.317010   -7.206920
  H     26.913730    1.874270   -8.788890
  H     28.762180   -0.104210   -8.376160
  H     25.761500   -5.327790   -3.863590
  H     28.274790   -5.552080   -4.870390
  H     25.978880    3.916680   -9.787850
  H     11.864590    7.327700   -5.007040
  H      6.657210    7.730340  -14.644880

 Total Charge           Charge          ....    0
 Multiplicity           Mult            ....    1
 Number of Electrons    NEL             ....  518
 Basis Dimension        Dim             .... 1114

ORBITAL ENERGIES
----------------

  NO   OCC          E(Eh)            E(eV)
   0   2.0000     -88.919839     -2419.6318
   1   2.0000     -88.914993     -2419.5000
   2   2.0000     -88.914624     -2419.4899
   3   2.0000     -88.913177     -2419.4506
   4   2.0000     -19.318660      -525.6875
   5   2.0000     -19.317270      -525.6496
   6   2.0000     -19.316249      -525.6219
   7   2.0000     -19.315575      -525.6035
   8   2.0000     -19.315012      -525.5882
   9   2.0000     -19.313946      -525.5592
  10   2.0000     -19.312690      -525.5250
  11   2.0000     -19.311924      -525.5042
  12   2.0000     -19.292287      -524.9698
  13   2.0000     -19.290784      -524.9289
  14   2.0000     -19.241492      -523.5876
  15   2.0000     -19.240717      -523.5665
  16   2.0000     -19.239367      -523.5298
  17   2.0000     -19.234568      -523.3992
  18   2.0000     -10.436374      -283.9882
  19   2.0000     -10.435092      -283.9533
  20   2.0000     -10.432894      -283.8935
  21   2.0000     -10.429231      -283.7938
  22   2.0000     -10.364998      -282.0459
  23   2.0000     -10.360959      -281.9360
  24   2.0000     -10.354954      -281.7726
  25   2.0000     -10.353508      -281.7333
  26   2.0000     -10.353017      -281.7199
  27   2.0000     -10.351263      -281.6722
  28   2.0000     -10.351255      -281.6720
  29   2.0000     -10.350782      -281.6591
  30   2.0000     -10.349351      -281.6202
  31   2.0000     -10.347322      -281.5649
  32   2.0000     -10.346292      -281.5369
  33   2.0000     -10.345974      -281.5283
  34   2.0000     -10.345309      -281.5102
  35   2.0000     -10.344612      -281.4912
  36   2.0000     -10.342987      -281.4470
  37   2.0000     -10.341139      -281.3967
  38   2.0000     -10.340567      -281.3811
  39   2.0000     -10.339044      -281.3397
  40   2.0000     -10.337656      -281.3019
  41   2.0000     -10.336491      -281.2702
  42   2.0000     -10.335999      -281.2568
  43   2.0000     -10.333462      -281.1878
  44   2.0000     -10.330706      -281.1128
  45   2.0000     -10.329824      -281.0888
  46   2.0000     -10.329042      -281.0675
  47   2.0000     -10.325895      -280.9819
  48   2.0000     -10.298292      -280.2308
  49   2.0000     -10.295674      -280.1595
  50   2.0000     -10.294676      -280.1324
  51   2.0000     -10.294661      -280.1320
  52   2.0000     -10.292193      -280.0648
  53   2.0000     -10.291111      -280.0354
  54   2.0000     -10.291074      -280.0344
  55   2.0000     -10.289449      -279.9901
  56   2.0000     -10.289031      -279.9788
  57   2.0000     -10.288095      -279.9533
  58   2.0000     -10.287951      -279.9494
  59   2.0000     -10.287188      -279.9286
  60   2.0000     -10.287100      -279.9262
  61   2.0000     -10.286325      -279.9051
  62   2.0000     -10.286085      -279.8986
  63   2.0000     -10.285041      -279.8702
  64   2.0000     -10.284403      -279.8528
  65   2.0000     -10.282559      -279.8027
  66   2.0000     -10.282272      -279.7948
  67   2.0000     -10.281079      -279.7624
  68   2.0000     -10.280755      -279.7536
  69   2.0000     -10.280365      -279.7430
  70   2.0000     -10.280030      -279.7338
  71   2.0000     -10.270991      -279.4879
  72   2.0000      -8.015580      -218.1150
  73   2.0000      -8.010777      -217.9843
  74   2.0000      -8.010601      -217.9795
  75   2.0000      -8.009160      -217.9403
  76   2.0000      -5.985444      -162.8722
  77   2.0000      -5.983691      -162.8245
  78   2.0000      -5.980601      -162.7404
  79   2.0000      -5.980411      -162.7353
  80   2.0000      -5.978915      -162.6945
  81   2.0000      -5.978895      -162.6940
  82   2.0000      -5.978746      -162.6899
  83   2.0000      -5.977311      -162.6509
  84   2.0000      -5.974233      -162.5671
  85   2.0000      -5.969476      -162.4377
  86   2.0000      -5.969169      -162.4294
  87   2.0000      -5.967794      -162.3919
  88   2.0000      -1.243617       -33.8405
  89   2.0000      -1.243165       -33.8282
  90   2.0000      -1.236123       -33.6366
  91   2.0000      -1.234811       -33.6009
  92   2.0000      -1.232806       -33.5463
  93   2.0000      -1.229679       -33.4613
  94   2.0000      -1.229235       -33.4492
  95   2.0000      -1.227083       -33.3906
  96   2.0000      -1.227026       -33.3891
  97   2.0000      -1.223325       -33.2884
  98   2.0000      -1.168301       -31.7911
  99   2.0000      -1.166510       -31.7423
 100   2.0000      -1.129744       -30.7419
 101   2.0000      -1.127382       -30.6776
 102   2.0000      -1.011611       -27.5273
 103   2.0000      -0.993585       -27.0368
 104   2.0000      -0.989481       -26.9251
 105   2.0000      -0.987768       -26.8785
 106   2.0000      -0.986286       -26.8382
 107   2.0000      -0.937296       -25.5051
 108   2.0000      -0.929164       -25.2838
 109   2.0000      -0.925265       -25.1777
 110   2.0000      -0.923905       -25.1407
 111   2.0000      -0.915093       -24.9010
 112   2.0000      -0.908849       -24.7310
 113   2.0000      -0.904322       -24.6078
 114   2.0000      -0.902324       -24.5535
 115   2.0000      -0.898683       -24.4544
 116   2.0000      -0.895629       -24.3713
 117   2.0000      -0.886953       -24.1352
 118   2.0000      -0.878762       -23.9123
 119   2.0000      -0.872463       -23.7409
 120   2.0000      -0.868100       -23.6222
 121   2.0000      -0.867334       -23.6014
 122   2.0000      -0.866239       -23.5716
 123   2.0000      -0.864895       -23.5350
 124   2.0000      -0.855449       -23.2779
 125   2.0000      -0.837699       -22.7950
 126   2.0000      -0.822999       -22.3949
 127   2.0000      -0.810844       -22.0642
 128   2.0000      -0.800747       -21.7894
 129   2.0000      -0.790969       -21.5234
 130   2.0000      -0.786403       -21.3991
 131   2.0000      -0.776978       -21.1426
 132   2.0000      -0.769912       -20.9504
 133   2.0000      -0.764547       -20.8044
 134   2.0000      -0.760527       -20.6950
 135   2.0000      -0.756679       -20.5903
 136   2.0000      -0.745013       -20.2728
 137   2.0000      -0.740614       -20.1531
 138   2.0000      -0.737105       -20.0577
 139   2.0000      -0.718845       -19.5608
 140   2.0000      -0.706518       -19.2253
 141   2.0000      -0.695278       -18.9195
 142   2.0000      -0.693014       -18.8579
 143   2.0000      -0.689275       -18.7561
 144   2.0000      -0.687037       -18.6952
 145   2.0000      -0.684874       -18.6364
 146   2.0000      -0.677606       -18.4386
 147   2.0000      -0.672821       -18.3084
 148   2.0000      -0.670097       -18.2343
 149   2.0000      -0.665108       -18.0985
 150   2.0000      -0.659069       -17.9342
 151   2.0000      -0.657120       -17.8811
 152   2.0000      -0.654540       -17.8109
 153   2.0000      -0.652723       -17.7615
 154   2.0000      -0.650631       -17.7046
 155   2.0000      -0.648718       -17.6525
 156   2.0000      -0.646453       -17.5909
 157   2.0000      -0.641825       -17.4650
 158   2.0000      -0.633932       -17.2502
 159   2.0000      -0.629123       -17.1193
 160   2.0000      -0.615655       -16.7528
 161   2.0000      -0.609150       -16.5758
 162   2.0000      -0.606512       -16.5040
 163   2.0000      -0.602657       -16.3991
 164   2.0000      -0.598679       -16.2909
 165   2.0000      -0.597184       -16.2502
 166   2.0000      -0.592360       -16.1189
 167   2.0000      -0.591946       -16.1077
 168   2.0000      -0.589689       -16.0463
 169   2.0000      -0.587029       -15.9739
 170   2.0000      -0.585367       -15.9286
 171   2.0000      -0.583080       -15.8664
 172   2.0000      -0.580505       -15.7964
 173   2.0000      -0.575314       -15.6551
 174   2.0000      -0.572141       -15.5688
 175   2.0000      -0.566462       -15.4142
 176   2.0000      -0.564103       -15.3500
 177   2.0000      -0.562380       -15.3031
 178   2.0000      -0.557164       -15.1612
 179   2.0000      -0.556909       -15.1543
 180   2.0000      -0.556082       -15.1318
 181   2.0000      -0.551412       -15.0047
 182   2.0000      -0.548347       -14.9213
 183   2.0000      -0.541795       -14.7430
 184   2.0000      -0.535101       -14.5608
 185   2.0000      -0.531379       -14.4596
 186   2.0000      -0.528765       -14.3884
 187   2.0000      -0.526527       -14.3275
 188   2.0000      -0.519171       -14.1274
 189   2.0000      -0.515810       -14.0359
 190   2.0000      -0.515637       -14.0312
 191   2.0000      -0.513240       -13.9660
 192   2.0000      -0.510813       -13.8999
 193   2.0000      -0.509519       -13.8647
 194   2.0000      -0.508327       -13.8323
 195   2.0000      -0.507869       -13.8198
 196   2.0000      -0.506198       -13.7743
 197   2.0000      -0.504501       -13.7282
 198   2.0000      -0.503059       -13.6889
 199   2.0000      -0.501688       -13.6516
 200   2.0000      -0.501580       -13.6487
 201   2.0000      -0.500873       -13.6294
 202   2.0000      -0.499182       -13.5834
 203   2.0000      -0.497267       -13.5313
 204   2.0000      -0.496324       -13.5057
 205   2.0000      -0.492579       -13.4037
 206   2.0000      -0.490234       -13.3400
 207   2.0000      -0.486633       -13.2420
 208   2.0000      -0.484262       -13.1774
 209   2.0000      -0.483277       -13.1506
 210   2.0000      -0.479761       -13.0549
 211   2.0000      -0.471751       -12.8370
 212   2.0000      -0.469411       -12.7733
 213   2.0000      -0.465324       -12.6621
 214   2.0000      -0.461473       -12.5573
 215   2.0000      -0.461159       -12.5488
 216   2.0000      -0.457130       -12.4392
 217   2.0000      -0.456698       -12.4274
 218   2.0000      -0.456030       -12.4092
 219   2.0000      -0.455544       -12.3960
 220   2.0000      -0.455116       -12.3843
 221   2.0000      -0.454062       -12.3557
 222   2.0000      -0.439344       -11.9551
 223   2.0000      -0.437142       -11.8952
 224   2.0000      -0.434242       -11.8163
 225   2.0000      -0.432954       -11.7813
 226   2.0000      -0.430555       -11.7160
 227   2.0000      -0.425567       -11.5803
 228   2.0000      -0.419413       -11.4128
 229   2.0000      -0.416380       -11.3303
 230   2.0000      -0.415873       -11.3165
 231   2.0000      -0.412323       -11.2199
 232   2.0000      -0.398257       -10.8371
 233   2.0000      -0.396892       -10.8000
 234   2.0000      -0.395429       -10.7602
 235   2.0000      -0.387397       -10.5416
 236   2.0000      -0.377116       -10.2618
 237   2.0000      -0.376327       -10.2404
 238   2.0000      -0.374400       -10.1880
 239   2.0000      -0.372213       -10.1284
 240   2.0000      -0.369367       -10.0510
 241   2.0000      -0.368084       -10.0161
 242   2.0000      -0.362539        -9.8652
 243   2.0000      -0.351779        -9.5724
 244   2.0000      -0.342157        -9.3106
 245   2.0000      -0.341312        -9.2876
 246   2.0000      -0.336613        -9.1597
 247   2.0000      -0.336159        -9.1473
 248   2.0000      -0.335117        -9.1190
 249   2.0000      -0.319088        -8.6828
 250   2.0000      -0.306346        -8.3361
 251   2.0000      -0.302037        -8.2188
 252   2.0000      -0.297689        -8.1005
 253   2.0000      -0.297143        -8.0857
 254   2.0000      -0.296169        -8.0592
 255   2.0000      -0.272184        -7.4065
 256   2.0000      -0.259424        -7.0593
 257   2.0000      -0.230092        -6.2611
 258   2.0000      -0.221374        -6.0239
 259   0.0000      -0.096371        -2.6224
 260   0.0000      -0.091964        -2.5025
 261   0.0000      -0.090128        -2.4525
 262   0.0000      -0.085966        -2.3393
 263   0.0000      -0.084070        -2.2876

MULLIKEN ATOMIC CHARGES
-----------------------
   0 C :   -0.026025
   1 C :   -0.004577
   2 C :    0.160516
   3 C :   -0.078821
   4 C :    0.016952
   5 C :    0.106631
   6 O :   -0.168080
   7 C :    0.121338
   8 O :   -0.178582
   9 C :    0.180863
  10 C :   -0.019065
  11 C :   -0.032882
  12 C :    0.193212
  13 C :   -0.076048
  14 C :    0.025643
  15 C :    0.109356
  16 O :   -0.175888
  17 C :    0.143422
  18 O :   -0.158248
  19 C :    0.058688
  20 C :    0.056006
  21 C :   -0.082006
  22 C :    0.223610
  23 O :   -0.096426
  24 O :   -0.224432
  25 C :    0.247180
  26 O :   -0.116798
  27 C :   -0.090500
  28 C :    0.086060
  29 C :   -0.079458
  30 C :   -0.001705
  31 C :    0.159309
  32 C :   -0.057265
  33 C :    0.017424
  34 C :    0.136257
  35 O :   -0.164502
  36 C :    0.103350
  37 O :   -0.162999
  38 C :    0.191356
  39 C :   -0.010243
  40 C :   -0.024798
  41 C :    0.175741
  42 C :   -0.074010
  43 C :    0.021286
  44 C :    0.125678
  45 O :   -0.172637
  46 C :    0.092207
  47 O :   -0.154182
  48 C :    0.141222
  49 C :   -0.035454
  50 C :    0.000201
  51 C :    0.000970
  52 S :   -0.079691
  53 C :   -0.088459
  54 C :    0.034945
  55 C :    0.000420
  56 S :   -0.067964
  57 C :   -0.088513
  58 C :    0.235848
  59 O :   -0.104937
  60 O :   -0.226344
  61 C :    0.231917
  62 O :   -0.102323
  63 C :   -0.075350
  64 C :   -0.019904
  65 C :    0.002623
  66 C :    0.002844
  67 S :   -0.067102
  68 C :   -0.068805
  69 C :    0.016223
  70 C :    0.002850
  71 S :   -0.078577
  72 H :    0.032123
  73 H :    0.020210
  74 H :    0.005017
  75 H :   -0.008519
  76 H :    0.009376
  77 H :    0.006521
  78 H :   -0.006555
  79 H :    0.018174
  80 H :    0.018573
  81 H :    0.005613
  82 H :    0.011381
  83 H :   -0.003342
  84 H :   -0.007171
  85 H :    0.013664
  86 H :    0.000153
  87 H :   -0.006043
  88 H :    0.008493
  89 H :   -0.006216
Sum of atomic charges:    0.0000000

LOEWDIN ATOMIC CHARGES
----------------------
   0 C :   -0.037401
   1 C :   -0.036950
   2 C :    0.026891
   3 C :   -0.029171
   4 C :   -0.085458
   5 C :    0.020291
   6 O :    0.036415
   7 C :    0.031779
   8 O :    0.031163
   9 C :    0.027040
  10 C :   -0.029669
  11 C :   -0.045487
  12 C :    0.041309
  13 C :   -0.033478
  14 C :   -0.073610
  15 C :    0.017524
  16 O :    0.034153
  17 C :    0.050889
  18 O :    0.049945
  19 C :    0.005157
  20 C :   -0.001709
  21 C :   -0.042427
  22 C :    0.099699
  23 O :   -0.097090
  24 O :   -0.051618
  25 C :    0.113712
  26 O :   -0.105441
  27 C :   -0.052029
  28 C :    0.025857
  29 C :   -0.062176
  30 C :    0.008678
  31 C :    0.018035
  32 C :   -0.003389
  33 C :   -0.096478
  34 C :    0.050392
  35 O :    0.041537
  36 C :    0.011777
  37 O :    0.039662
  38 C :    0.040162
  39 C :   -0.042741
  40 C :   -0.027661
  41 C :    0.025951
  42 C :   -0.026617
  43 C :   -0.090741
  44 C :    0.031933
  45 O :    0.034588
  46 C :    0.019564
  47 O :    0.041074
  48 C :    0.037066
  49 C :   -0.040893
  50 C :   -0.092602
  51 C :   -0.127029
  52 S :    0.114673
  53 C :   -0.034299
  54 C :   -0.071144
  55 C :   -0.130019
  56 S :    0.123827
  57 C :   -0.049192
  58 C :    0.108935
  59 O :   -0.098980
  60 O :   -0.052930
  61 C :    0.107231
  62 O :   -0.096259
  63 C :   -0.043690
  64 C :    0.008473
  65 C :   -0.095912
  66 C :   -0.129316
  67 S :    0.125093
  68 C :   -0.025438
  69 C :   -0.091551
  70 C :   -0.126970
  71 S :    0.115404
  72 H :    0.029213
  73 H :    0.023200
  74 H :    0.038425
  75 H :    0.036805
  76 H :    0.042145
  77 H :    0.040508
  78 H :    0.038405
  79 H :    0.034249
  80 H :    0.037359
  81 H :    0.043602
  82 H :    0.041363
  83 H :    0.038537
  84 H :    0.037864
  85 H :    0.025397
  86 H :    0.039101
  87 H :    0.036273
  88 H :    0.040535
  89 H :    0.038708

  Mayer bond orders larger than 0.100000
B(  0-C ,  1-C ) :   1.9238 B(  0-C , 72-H ) :   0.9515 B(  0-C , 73-H ) :   0.9560
B(  1-C ,  2-C ) :   1.1076 B(  1-C , 74-H ) :   0.9572 B(  2-C ,  3-C ) :   1.4597
B(  2-C ,  5-C ) :   0.1034 B(  2-C ,  6-O ) :   1.0812 B(  3-C ,  4-C ) :   1.2563
B(  3-C , 75-H ) :   1.0143 B(  4-C ,  5-C ) :   1.4342 B(  4-C , 70-C ) :   0.9959
B(  5-C ,  6-O ) :   1.2158 B(  5-C ,  7-C ) :   1.0909 B(  7-C ,  8-O ) :   1.2148
B(  7-C , 69-C ) :   1.4294 B(  8-O ,  9-C ) :   1.0836 B(  9-C , 10-C ) :   1.1538
B(  9-C , 68-C ) :   1.4072 B( 10-C , 11-C ) :   1.6281 B( 10-C , 76-H ) :   0.9643
B( 11-C , 12-C ) :   1.1493 B( 11-C , 77-H ) :   0.9641 B( 12-C , 13-C ) :   1.3954
B( 12-C , 15-C ) :   0.1029 B( 12-C , 16-O ) :   1.1050 B( 13-C , 14-C ) :   1.2588
B( 13-C , 78-H ) :   1.0227 B( 14-C , 15-C ) :   1.4242 B( 14-C , 66-C ) :   0.9849
B( 15-C , 16-O ) :   1.1974 B( 15-C , 17-C ) :   1.0962 B( 17-C , 18-O ) :   1.2417
B( 17-C , 19-C ) :   0.1121 B( 17-C , 65-C ) :   1.3933 B( 18-O , 19-C ) :   1.0775
B( 19-C , 20-C ) :   1.0414 B( 19-C , 64-C ) :   1.4424 B( 20-C , 21-C ) :   1.3209
B( 20-C , 63-C ) :   1.3590 B( 21-C , 22-C ) :   0.9074 B( 21-C , 27-C ) :   1.3784
B( 22-C , 23-O ) :   2.2694 B( 22-C , 24-O ) :   1.0412 B( 24-O , 25-C ) :   1.0764
B( 25-C , 26-O ) :   2.1652 B( 25-C , 27-C ) :   0.9139 B( 27-C , 28-C ) :   1.2456
B( 28-C , 29-C ) :   1.1904 B( 28-C , 57-C ) :   1.2881 B( 29-C , 30-C ) :   1.5653
B( 29-C , 79-H ) :   0.9551 B( 30-C , 31-C ) :   1.1930 B( 30-C , 80-H ) :   0.9353
B( 31-C , 32-C ) :   1.3740 B( 31-C , 35-O ) :   1.0632 B( 32-C , 33-C ) :   1.2644
B( 32-C , 81-H ) :   1.0220 B( 33-C , 34-C ) :   1.3889 B( 33-C , 55-C ) :   0.9961
B( 34-C , 35-O ) :   1.2377 B( 34-C , 36-C ) :   1.1085 B( 36-C , 37-O ) :   1.2057
B( 36-C , 38-C ) :   0.1053 B( 36-C , 54-C ) :   1.4116 B( 37-O , 38-C ) :   1.0935
B( 38-C , 39-C ) :   1.1227 B( 38-C , 53-C ) :   1.4164 B( 39-C , 40-C ) :   1.6297
B( 39-C , 82-H ) :   0.9730 B( 40-C , 41-C ) :   1.1742 B( 40-C , 83-H ) :   0.9572
B( 41-C , 42-C ) :   1.4031 B( 41-C , 44-C ) :   0.1015 B( 41-C , 45-O ) :   1.0896
B( 42-C , 43-C ) :   1.2492 B( 42-C , 84-H ) :   1.0212 B( 43-C , 44-C ) :   1.4429
B( 43-C , 51-C ) :   0.9880 B( 44-C , 45-O ) :   1.2143 B( 44-C , 46-C ) :   1.0900
B( 46-C , 47-O ) :   1.2247 B( 46-C , 50-C ) :   1.4551 B( 47-O , 48-C ) :   1.0973
B( 48-C , 49-C ) :   1.5320 B( 48-C , 85-H ) :   1.0067 B( 49-C , 50-C ) :   1.2452
B( 49-C , 86-H ) :   1.0093 B( 50-C , 51-C ) :   1.0136 B( 51-C , 52-S ) :   1.7732
B( 53-C , 54-C ) :   1.2793 B( 53-C , 87-H ) :   1.0103 B( 54-C , 55-C ) :   0.9859
B( 55-C , 56-S ) :   1.7828 B( 57-C , 58-C ) :   0.9234 B( 57-C , 63-C ) :   1.3662
B( 58-C , 59-O ) :   2.2114 B( 58-C , 60-O ) :   1.0531 B( 60-O , 61-C ) :   1.0638
B( 61-C , 62-O ) :   2.2402 B( 61-C , 63-C ) :   0.8963 B( 64-C , 65-C ) :   1.2744
B( 64-C , 88-H ) :   1.0051 B( 65-C , 66-C ) :   0.9933 B( 66-C , 67-S ) :   1.7856
B( 68-C , 69-C ) :   1.2489 B( 68-C , 89-H ) :   1.0222 B( 69-C , 70-C ) :   0.9918
B( 70-C , 71-S ) :   1.7776

-----------------------------------------------------------------------------
         ABSORPTION SPECTRUM VIA TRANSITION ELECTRIC DIPOLE MOMENTS
-----------------------------------------------------------------------------
State   Energy  Wavelength   fosc         T2         TX        TY        TZ
        (cm-1)    (nm)                  (au**2)     (au)      (au)      (au)
-----------------------------------------------------------------------------
   0   10815.2    924.6   0.374428397  11.39748  -2.87924   1.60966  -0.71864
   1   11389.7    878.0   0.180906459   5.22900   1.96443   0.22704   1.14824
   2   11994.6    833.7   0.043294743   1.18830  -1.00556   0.06099  -0.41645
   3   12841.8    778.7   0.061279798   1.57096  -0.45940   1.06971  -0.46437
   4   14200.0    704.2   0.054762825   1.26962   0.60122  -0.68241   0.66519
   5   17058.8    586.2   1.930819339  37.26228  -5.85967   1.66404  -0.39680
   6   17564.1    569.3   0.035082255   0.65756  -0.81023   0.02641   0.01975
   7   18402.4    543.4   0.000045684   0.00082  -0.01936  -0.00755  -0.01964
   8   18463.0    541.6   0.000007561   0.00013   0.00815  -0.00827  -0.00023
   9   18601.6    537.6   0.000000064   0.00000  -0.00014  -0.00102  -0.00025
  10   18608.2    537.4   0.000000115   0.00000  -0.00063  -0.00103   0.00076
  11   19608.2    510.0   0.154951976   2.60156  -0.01465   1.34463   0.89069
  12   21351.3    468.4   0.069120557   1.06576  -0.46364   0.15550  -0.90919
  13   22348.5    447.5   0.159762946   2.35344   0.25838   1.21846   0.89557
  14   23064.3    433.6   0.058154032   0.83007  -0.86234  -0.07146  -0.28518
  15   23348.2    428.3   0.034420776   0.48534   0.18414   0.67180   0.01062
  16   23655.0    422.7   0.020206395   0.28122   0.18576   0.40894   0.28193
  17   23888.8    418.6   0.068903133   0.94955   0.12419   0.21264  -0.94282
  18   24770.1    403.7   0.024805801   0.32969   0.15429  -0.37892   0.40287
  19   25988.4    384.8   0.388025362   4.91537  -1.34778   0.41444  -1.71087
  20   26266.2    380.7   0.239908038   3.00693   1.08975   0.56113   1.22658
  21   26400.0    378.8   0.058902681   0.73452  -0.22504  -0.81837  -0.11899
  22   26859.9    372.3   1.133882532  13.89757   1.32029  -2.42170   2.50794
  23   27235.2    367.2   0.019221088   0.23234  -0.32343   0.06138  -0.35209
  24   27938.6    357.9   0.097454948   1.14835   0.60203  -0.35737  -0.81130
  25   28378.8    352.4   0.191946436   2.22670   1.28448   0.75891   0.02918
  26   29171.4    342.8   0.062753583   0.70820   0.11847  -0.59014  -0.58813
  27   30507.8    327.8   0.035814712   0.38648   0.45325  -0.16546   0.39200
  28   31019.2    322.4   0.000097240   0.00103  -0.02556   0.01460  -0.01287
  29   31167.7    320.8   0.019996755   0.21122   0.05490   0.25015  -0.38161
  30   31502.7    317.4   0.016963063   0.17727  -0.31820  -0.21812   0.16864
  31   32332.6    309.3   0.003220163   0.03279  -0.11094   0.09582  -0.10629
  32   32657.2    306.2   0.000804889   0.00811   0.04658   0.05973  -0.04875
  33   32702.0    305.8   0.017316552   0.17433   0.10121   0.30665  -0.26467
  34   33021.8    302.8   0.000007277   0.00007  -0.00009  -0.00819   0.00234
  35   33072.9    302.4   0.008743613   0.08704  -0.07346   0.24607  -0.14523
  36   33558.5    298.0   0.033747758   0.33107   0.17848  -0.33045   0.43591
  37   33717.9    296.6   0.019396302   0.18938   0.10219  -0.07980   0.41541
  38   34350.1    291.1   0.000002013   0.00002  -0.00121  -0.00380  -0.00184
  39   34467.6    290.1   0.039323607   0.37559   0.11229   0.56368  -0.21271
  40   34624.9    288.8   0.000124230   0.00118  -0.03096   0.00540   0.01390
  41   34649.6    288.6   0.011951813   0.11356   0.30607  -0.11116  -0.08672
  42   34708.0    288.1   0.016063313   0.15236  -0.26585  -0.16492   0.23344
  43   34943.1    286.2   0.045531950   0.42897  -0.30095  -0.06206   0.57841
  44   35156.6    284.4   0.000967138   0.00906   0.08612   0.03313  -0.02327
  45   35229.9    283.8   0.000015823   0.00015   0.00879  -0.00473   0.00694
  46   35786.2    279.4   0.028019274   0.25776  -0.32802  -0.27160   0.27640
  47   35912.9    278.5   0.109901920   1.00747   0.94771  -0.21129  -0.25429
  48   36151.2    276.6   0.043441214   0.39560  -0.47280  -0.18677   0.37038
  49   36627.2    273.0   0.000010043   0.00009   0.00647  -0.00198   0.00667
  50   36853.1    271.3   0.122874109   1.09764  -0.71389   0.00067   0.76681
  51   37081.4    269.7   0.000000096   0.00000  -0.00058  -0.00033  -0.00064
  52   37291.2    268.2   0.000005513   0.00005   0.00454  -0.00301   0.00436
  53   37544.9    266.3   0.033595872   0.29458   0.52655  -0.06785  -0.11281
  54   37606.7    265.9   0.005740487   0.05025  -0.20505  -0.08734   0.02402
  55   37787.0    264.6   0.001680010   0.01464  -0.05737   0.10651   0.00134
  56   37830.4    264.3   0.022182124   0.19304  -0.24302   0.31123  -0.19266
  57   38071.6    262.7   0.000661742   0.00572   0.05793  -0.04793   0.00836
  58   38279.7    261.2   0.036783616   0.31635  -0.11515   0.10513  -0.54040
  59   38478.5    259.9   0.000003844   0.00003  -0.00070   0.00045  -0.00567
  60   38768.3    257.9   0.015472895   0.13139   0.27261  -0.23881   0.00667
  61   38769.2    257.9   0.017931297   0.15227  -0.29431   0.25610  -0.00752
  62   39029.8    256.2   0.127927323   1.07905   1.02524   0.15975  -0.04916
  63   39118.7    255.6   0.000002573   0.00002  -0.00452  -0.00072  -0.00084
  64   39420.8    253.7   0.013129661   0.10965  -0.26647   0.10622  -0.16542
  65   39845.3    251.0   0.016075553   0.13282   0.34361   0.05104  -0.11023
  66   39871.5    250.8   0.003704538   0.03059  -0.14576  -0.02905   0.09218
  67   39891.7    250.7   0.000000682   0.00001  -0.00031   0.00182  -0.00149
  68   40033.9    249.8   0.195073379   1.60415  -0.58827  -0.52257   0.99248
  69   40111.0    249.3   0.025890924   0.21250  -0.06435  -0.22858  -0.39511

FINAL SINGLE POINT ENERGY     -4709.954887162203

DIPOLE MOMENT
-------------
                                X             Y             Z
Electronic contribution:     24.40072       7.01200      15.75620
Nuclear contribution   :    -24.50177      -8.22487     -16.07616
                        -----------------------------------------
Total Dipole Moment    :     -0.10105      -1.21287      -0.31996
                        -----------------------------------------
Magnitude (a.u.)       :      1.25842
Magnitude (Debye)      :      3.19866

Rotational constants in cm-1:     0.001239     0.000163     0.000161
Rotational constants in MHz :    37.147729     4.874734     4.841628

                             ****ORCA TERMINATED NORMALLY****
TOTAL RUN TIME: 0 days 0 hours 7 minutes 31 seconds 739 msec
