                         Program Version 4.2.0 -  RELEASE  -
|  1> # ORCA input file
|  2> # SCF done       -188.413183305865          0.000991006981
|  3> ! CAM-B3LYP def2-SVP def2/J RIJCOSX Grid4 TightSCF
|  4> %maxcore 5000
|  5> %tddft
|  6>     Mode sTDDFT
|  7>     Ethresh 5.0
|  8>     maxcore 5000
|  9> end
| 10>
| 11> %pal
| 12>   nprocs 6
| 13>   end
| 14> * xyz 0 1
| 15>    C       -0.84942        -1.94657         1.55690
| 16>    N       -1.80273        -1.49757         2.41528
| 17>    C       -2.50528        -2.29401         3.38805
| 18>    C       -1.63215        -2.60241         4.60197
| 19>    C       -2.00061        -0.09712         2.28519
| 20>    O       -2.80499         0.52152         2.95311
| 21>    C       -1.07527         0.28110         1.24900
| 22>    C       -0.38065        -0.89292         0.82270
| 23>    C        0.53519        -0.49846        -0.22544
| 24>    O        1.33669        -1.12490        -0.88441
| 25>    N        0.31914         0.88887        -0.38037
| 26>    C        1.15709         1.63101        -1.29156
| 27>    C        2.17155         2.50379        -0.55740
| 28>    C       -0.63741         1.36379         0.49577
| 29>    C       -1.15837         2.67414         0.66468
| 30>    C       -0.96990         3.77220        -0.10871
| 31>    C       -1.53497         5.06665         0.11203
| 32>    C       -1.38232         6.03415        -0.91518
| 33>    C       -1.91693         7.35319        -0.78914
| 34>    N       -1.65690         8.28637        -1.73188
| 35>    C       -0.99537         7.92005        -2.79024
| 36>    C       -0.54600         6.59277        -2.96157
| 37>    N       -0.71055         5.68933        -2.03800
| 38>    C       -2.68011         7.71300         0.33860
| 39>    C       -2.84539         6.75897         1.36161
| 40>    C       -2.23159         5.46788         1.27858
| 41>    N       -2.30253         4.63933         2.34201
| 42>    C       -3.01982         4.99029         3.36875
| 43>    C       -3.75984         6.19376         3.37181
| 44>    N       -3.64938         7.05755         2.40675
| 45>    C       -3.28380         9.02350         0.43709
| 46>    C       -4.02554         9.56446        -0.63167
| 47>    C       -4.59081        10.87801        -0.56026
| 48>    N       -5.37481        11.32083        -1.56168
| 49>    C       -5.56840        10.54907        -2.59543
| 50>    C       -4.99709         9.26379        -2.67264
| 51>    N       -4.26379         8.78420        -1.71023
| 52>    C       -4.41750        11.68762         0.59609
| 53>    C       -3.77740        11.07312         1.70823
| 54>    C       -3.17823         9.78045         1.61882
| 55>    N       -2.46398         9.30196         2.66031
| 56>    C       -2.42927         9.99586         3.76155
| 57>    C       -3.10355        11.22659         3.88531
| 58>    N       -3.72608        11.75124         2.86574
| 59>    C       -4.90860        13.01109         0.73207
| 60>    S       -5.30486        13.58461         2.31827
| 61>    C       -5.97780        15.06756         1.72067
| 62>    C       -5.74815        15.19246         0.33897
| 63>    C       -5.14666        14.02496        -0.22288
| 64>    C       -4.76351        14.04680        -1.56942
| 65>    C       -5.00689        15.14542        -2.36534
| 66>    C       -4.61867        15.12883        -3.77416
| 67>    C       -3.58544        14.46250        -4.27274
| 68>    C       -5.62753        16.29913        -1.80996
| 69>    C       -5.86217        17.51592        -2.65304
| 70>    C       -5.96198        16.31458        -0.48103
| 71>    C       -6.60808        15.91571         2.66312
| 72>    C       -7.50313        16.89880         2.39192
| 73>    C       -8.14436        17.74391         3.34044
| 74>    S       -9.52511        18.66124         2.77929
| 75>    C       -9.74916        19.35519         4.32821
| 76>    C       -8.81685        18.93052         5.22878
| 77>    C       -7.89243        18.01420         4.67383
| 78>    C       -6.77382        17.45041         5.48524
| 79>    C       -6.53436        18.23429         6.78002
| 80>    C       -7.86523        18.48555         7.50264
| 81>    O       -7.56154        19.08262         8.75134
| 82>    C       -8.58988        19.00837         9.70423
| 83>    C       -8.75509        19.39595         6.64826
| 84>    N       -5.67836        17.43203         7.63953
| 85>    H       -0.58003        -2.98626         1.52300
| 86>    H       -2.84372        -3.22218         2.91721
| 87>    H       -3.37612        -1.70826         3.69520
| 88>    H       -0.74677        -3.16109         4.30613
| 89>    H       -2.19343        -3.19195         5.32164
| 90>    H       -1.31685        -1.67727         5.07797
| 91>    H        0.54182         2.22527        -1.97162
| 92>    H        1.68578         0.87287        -1.87861
| 93>    H        1.67401         3.23011         0.08044
| 94>    H        2.78725         3.03498        -1.27814
| 95>    H        2.81616         1.88269         0.06028
| 96>    H       -1.80937         2.75708         1.52453
| 97>    H       -0.38769         3.72546        -1.01607
| 98>    H       -0.78583         8.68527        -3.52617
| 99>    H       -0.01934         6.28440        -3.85531
|100>    H       -3.02722         4.31015         4.20951
|101>    H       -4.43297         6.44581         4.18059
|102>    H       -6.20779        10.93908        -3.37601
|103>    H       -5.17150         8.61643        -3.52224
|104>    H       -1.84339         9.58977         4.57544
|105>    H       -3.10762        11.79267         4.80618
|106>    H       -4.27795        13.18593        -1.99335
|107>    H       -5.23619        15.71594        -4.44078
|108>    H       -2.91914        13.88628        -3.65286
|109>    H       -3.35795        14.47993        -5.32509
|110>    H       -6.59860        17.30805        -3.42951
|111>    H       -4.94049        17.83313        -3.13882
|112>    H       -6.23437        18.33586        -2.04370
|113>    H       -6.35773        17.21882        -0.04655
|114>    H       -6.39585        15.66629         3.69159
|115>    H       -7.83206        17.04267         1.37271
|116>    H      -10.55621        20.04204         4.48996
|117>    H       -5.85279        17.43915         4.89750
|118>    H       -7.00027        16.41808         5.77027
|119>    H       -6.09996        19.22175         6.54072
|120>    H       -8.36065        17.51666         7.67015
|121>    H       -8.17431        19.39601        10.63284
|122>    H       -8.91480        17.97184         9.85537
|123>    H       -9.45775        19.61436         9.42133
|124>    H       -8.33358        20.40611         6.68563
|125>    H       -9.76397        19.44469         7.06405
|126>    H       -5.66370        17.84307         8.56679
|127>    H       -4.72896        17.42225         7.28313
|128> *
|129>
|130>                          ****END OF INPUT****

CARTESIAN COORDINATES (ANGSTROEM)
---------------------------------
  C     -0.849420   -1.946570    1.556900
  N     -1.802730   -1.497570    2.415280
  C     -2.505280   -2.294010    3.388050
  C     -1.632150   -2.602410    4.601970
  C     -2.000610   -0.097120    2.285190
  O     -2.804990    0.521520    2.953110
  C     -1.075270    0.281100    1.249000
  C     -0.380650   -0.892920    0.822700
  C      0.535190   -0.498460   -0.225440
  O      1.336690   -1.124900   -0.884410
  N      0.319140    0.888870   -0.380370
  C      1.157090    1.631010   -1.291560
  C      2.171550    2.503790   -0.557400
  C     -0.637410    1.363790    0.495770
  C     -1.158370    2.674140    0.664680
  C     -0.969900    3.772200   -0.108710
  C     -1.534970    5.066650    0.112030
  C     -1.382320    6.034150   -0.915180
  C     -1.916930    7.353190   -0.789140
  N     -1.656900    8.286370   -1.731880
  C     -0.995370    7.920050   -2.790240
  C     -0.546000    6.592770   -2.961570
  N     -0.710550    5.689330   -2.038000
  C     -2.680110    7.713000    0.338600
  C     -2.845390    6.758970    1.361610
  C     -2.231590    5.467880    1.278580
  N     -2.302530    4.639330    2.342010
  C     -3.019820    4.990290    3.368750
  C     -3.759840    6.193760    3.371810
  N     -3.649380    7.057550    2.406750
  C     -3.283800    9.023500    0.437090
  C     -4.025540    9.564460   -0.631670
  C     -4.590810   10.878010   -0.560260
  N     -5.374810   11.320830   -1.561680
  C     -5.568400   10.549070   -2.595430
  C     -4.997090    9.263790   -2.672640
  N     -4.263790    8.784200   -1.710230
  C     -4.417500   11.687620    0.596090
  C     -3.777400   11.073120    1.708230
  C     -3.178230    9.780450    1.618820
  N     -2.463980    9.301960    2.660310
  C     -2.429270    9.995860    3.761550
  C     -3.103550   11.226590    3.885310
  N     -3.726080   11.751240    2.865740
  C     -4.908600   13.011090    0.732070
  S     -5.304860   13.584610    2.318270
  C     -5.977800   15.067560    1.720670
  C     -5.748150   15.192460    0.338970
  C     -5.146660   14.024960   -0.222880
  C     -4.763510   14.046800   -1.569420
  C     -5.006890   15.145420   -2.365340
  C     -4.618670   15.128830   -3.774160
  C     -3.585440   14.462500   -4.272740
  C     -5.627530   16.299130   -1.809960
  C     -5.862170   17.515920   -2.653040
  C     -5.961980   16.314580   -0.481030
  C     -6.608080   15.915710    2.663120
  C     -7.503130   16.898800    2.391920
  C     -8.144360   17.743910    3.340440
  S     -9.525110   18.661240    2.779290
  C     -9.749160   19.355190    4.328210
  C     -8.816850   18.930520    5.228780
  C     -7.892430   18.014200    4.673830
  C     -6.773820   17.450410    5.485240
  C     -6.534360   18.234290    6.780020
  C     -7.865230   18.485550    7.502640
  O     -7.561540   19.082620    8.751340
  C     -8.589880   19.008370    9.704230
  C     -8.755090   19.395950    6.648260
  N     -5.678360   17.432030    7.639530
  H     -0.580030   -2.986260    1.523000
  H     -2.843720   -3.222180    2.917210
  H     -3.376120   -1.708260    3.695200
  H     -0.746770   -3.161090    4.306130
  H     -2.193430   -3.191950    5.321640
  H     -1.316850   -1.677270    5.077970
  H      0.541820    2.225270   -1.971620
  H      1.685780    0.872870   -1.878610
  H      1.674010    3.230110    0.080440
  H      2.787250    3.034980   -1.278140
  H      2.816160    1.882690    0.060280
  H     -1.809370    2.757080    1.524530
  H     -0.387690    3.725460   -1.016070
  H     -0.785830    8.685270   -3.526170
  H     -0.019340    6.284400   -3.855310
  H     -3.027220    4.310150    4.209510
  H     -4.432970    6.445810    4.180590
  H     -6.207790   10.939080   -3.376010
  H     -5.171500    8.616430   -3.522240
  H     -1.843390    9.589770    4.575440
  H     -3.107620   11.792670    4.806180
  H     -4.277950   13.185930   -1.993350
  H     -5.236190   15.715940   -4.440780
  H     -2.919140   13.886280   -3.652860
  H     -3.357950   14.479930   -5.325090
  H     -6.598600   17.308050   -3.429510
  H     -4.940490   17.833130   -3.138820
  H     -6.234370   18.335860   -2.043700
  H     -6.357730   17.218820   -0.046550
  H     -6.395850   15.666290    3.691590
  H     -7.832060   17.042670    1.372710
  H    -10.556210   20.042040    4.489960
  H     -5.852790   17.439150    4.897500
  H     -7.000270   16.418080    5.770270
  H     -6.099960   19.221750    6.540720
  H     -8.360650   17.516660    7.670150
  H     -8.174310   19.396010   10.632840
  H     -8.914800   17.971840    9.855370
  H     -9.457750   19.614360    9.421330
  H     -8.333580   20.406110    6.685630
  H     -9.763970   19.444690    7.064050
  H     -5.663700   17.843070    8.566790
  H     -4.728960   17.422250    7.283130

 Total Charge           Charge          ....    0
 Multiplicity           Mult            ....    1
 Number of Electrons    NEL             ....  500
 Basis Dimension        Dim             .... 1203

ORBITAL ENERGIES
----------------

  NO   OCC          E(Eh)            E(eV)
   0   2.0000     -88.947688     -2420.3896
   1   2.0000     -88.940654     -2420.1982
   2   2.0000     -19.212079      -522.7873
   3   2.0000     -19.172967      -521.7230
   4   2.0000     -19.171158      -521.6737
   5   2.0000     -14.438551      -392.8929
   6   2.0000     -14.434115      -392.7722
   7   2.0000     -14.423695      -392.4887
   8   2.0000     -14.421067      -392.4172
   9   2.0000     -14.417729      -392.3263
  10   2.0000     -14.417686      -392.3252
  11   2.0000     -14.415774      -392.2731
  12   2.0000     -14.415383      -392.2625
  13   2.0000     -14.414547      -392.2398
  14   2.0000     -14.414074      -392.2269
  15   2.0000     -14.369891      -391.0246
  16   2.0000     -10.356872      -281.8248
  17   2.0000     -10.356170      -281.8057
  18   2.0000     -10.321589      -280.8647
  19   2.0000     -10.318006      -280.7672
  20   2.0000     -10.317140      -280.7436
  21   2.0000     -10.316731      -280.7325
  22   2.0000     -10.315039      -280.6865
  23   2.0000     -10.313766      -280.6518
  24   2.0000     -10.313498      -280.6446
  25   2.0000     -10.313095      -280.6336
  26   2.0000     -10.312810      -280.6258
  27   2.0000     -10.312769      -280.6247
  28   2.0000     -10.312422      -280.6153
  29   2.0000     -10.312391      -280.6144
  30   2.0000     -10.312101      -280.6065
  31   2.0000     -10.312032      -280.6047
  32   2.0000     -10.311313      -280.5851
  33   2.0000     -10.311054      -280.5780
  34   2.0000     -10.310441      -280.5614
  35   2.0000     -10.310359      -280.5591
  36   2.0000     -10.309597      -280.5384
  37   2.0000     -10.307198      -280.4731
  38   2.0000     -10.298383      -280.2333
  39   2.0000     -10.295864      -280.1647
  40   2.0000     -10.288628      -279.9678
  41   2.0000     -10.288373      -279.9609
  42   2.0000     -10.286771      -279.9173
  43   2.0000     -10.285838      -279.8919
  44   2.0000     -10.285686      -279.8877
  45   2.0000     -10.284735      -279.8619
  46   2.0000     -10.284200      -279.8473
  47   2.0000     -10.278509      -279.6924
  48   2.0000     -10.277157      -279.6557
  49   2.0000     -10.275013      -279.5973
  50   2.0000     -10.271679      -279.5066
  51   2.0000     -10.270499      -279.4745
  52   2.0000     -10.267946      -279.4050
  53   2.0000     -10.266195      -279.3574
  54   2.0000     -10.265694      -279.3437
  55   2.0000     -10.264625      -279.3146
  56   2.0000     -10.263830      -279.2930
  57   2.0000     -10.263743      -279.2906
  58   2.0000     -10.263555      -279.2855
  59   2.0000     -10.263105      -279.2733
  60   2.0000     -10.262900      -279.2677
  61   2.0000     -10.260114      -279.1919
  62   2.0000     -10.256385      -279.0904
  63   2.0000     -10.255433      -279.0645
  64   2.0000     -10.255412      -279.0639
  65   2.0000     -10.255212      -279.0585
  66   2.0000     -10.254520      -279.0397
  67   2.0000     -10.246995      -278.8349
  68   2.0000     -10.243753      -278.7467
  69   2.0000     -10.242417      -278.7103
  70   2.0000      -8.040847      -218.8026
  71   2.0000      -8.036752      -218.6911
  72   2.0000      -6.010059      -163.5420
  73   2.0000      -6.005942      -163.4300
  74   2.0000      -6.005478      -163.4174
  75   2.0000      -6.003816      -163.3721
  76   2.0000      -6.001833      -163.3182
  77   2.0000      -5.999023      -163.2417
  78   2.0000      -1.114559       -30.3287
  79   2.0000      -1.113746       -30.3066
  80   2.0000      -1.107973       -30.1495
  81   2.0000      -1.082500       -29.4563
  82   2.0000      -1.076879       -29.3034
  83   2.0000      -1.071938       -29.1689
  84   2.0000      -1.069263       -29.0961
  85   2.0000      -1.045122       -28.4392
  86   2.0000      -1.035173       -28.1685
  87   2.0000      -1.008945       -27.4548
  88   2.0000      -0.999952       -27.2101
  89   2.0000      -0.995229       -27.0816
  90   2.0000      -0.991480       -26.9796
  91   2.0000      -0.978683       -26.6313
  92   2.0000      -0.975894       -26.5554
  93   2.0000      -0.957280       -26.0489
  94   2.0000      -0.949592       -25.8397
  95   2.0000      -0.935757       -25.4632
  96   2.0000      -0.926164       -25.2022
  97   2.0000      -0.911325       -24.7984
  98   2.0000      -0.896250       -24.3882
  99   2.0000      -0.888622       -24.1806
 100   2.0000      -0.879222       -23.9249
 101   2.0000      -0.868175       -23.6242
 102   2.0000      -0.862487       -23.4695
 103   2.0000      -0.860556       -23.4169
 104   2.0000      -0.856236       -23.2994
 105   2.0000      -0.855827       -23.2882
 106   2.0000      -0.847449       -23.0603
 107   2.0000      -0.838193       -22.8084
 108   2.0000      -0.829448       -22.5704
 109   2.0000      -0.813260       -22.1299
 110   2.0000      -0.805985       -21.9320
 111   2.0000      -0.803817       -21.8730
 112   2.0000      -0.794453       -21.6182
 113   2.0000      -0.786174       -21.3929
 114   2.0000      -0.783188       -21.3116
 115   2.0000      -0.781434       -21.2639
 116   2.0000      -0.766984       -20.8707
 117   2.0000      -0.762220       -20.7411
 118   2.0000      -0.759908       -20.6781
 119   2.0000      -0.757041       -20.6001
 120   2.0000      -0.749214       -20.3871
 121   2.0000      -0.746687       -20.3184
 122   2.0000      -0.743860       -20.2415
 123   2.0000      -0.718762       -19.5585
 124   2.0000      -0.716837       -19.5061
 125   2.0000      -0.715599       -19.4724
 126   2.0000      -0.705966       -19.2103
 127   2.0000      -0.699031       -19.0216
 128   2.0000      -0.696254       -18.9460
 129   2.0000      -0.694592       -18.9008
 130   2.0000      -0.687272       -18.7016
 131   2.0000      -0.675232       -18.3740
 132   2.0000      -0.664377       -18.0786
 133   2.0000      -0.658535       -17.9196
 134   2.0000      -0.654603       -17.8126
 135   2.0000      -0.647337       -17.6149
 136   2.0000      -0.644778       -17.5453
 137   2.0000      -0.639928       -17.4133
 138   2.0000      -0.635205       -17.2848
 139   2.0000      -0.630572       -17.1587
 140   2.0000      -0.629142       -17.1198
 141   2.0000      -0.623760       -16.9734
 142   2.0000      -0.618812       -16.8387
 143   2.0000      -0.608118       -16.5477
 144   2.0000      -0.607925       -16.5425
 145   2.0000      -0.593490       -16.1497
 146   2.0000      -0.585694       -15.9375
 147   2.0000      -0.585469       -15.9314
 148   2.0000      -0.584135       -15.8951
 149   2.0000      -0.581098       -15.8125
 150   2.0000      -0.579242       -15.7620
 151   2.0000      -0.577631       -15.7181
 152   2.0000      -0.571966       -15.5640
 153   2.0000      -0.569618       -15.5001
 154   2.0000      -0.566903       -15.4262
 155   2.0000      -0.566151       -15.4058
 156   2.0000      -0.563605       -15.3365
 157   2.0000      -0.557389       -15.1673
 158   2.0000      -0.552331       -15.0297
 159   2.0000      -0.542805       -14.7705
 160   2.0000      -0.541796       -14.7430
 161   2.0000      -0.538994       -14.6668
 162   2.0000      -0.535265       -14.5653
 163   2.0000      -0.533043       -14.5048
 164   2.0000      -0.532589       -14.4925
 165   2.0000      -0.531846       -14.4723
 166   2.0000      -0.530908       -14.4467
 167   2.0000      -0.521548       -14.1921
 168   2.0000      -0.519471       -14.1355
 169   2.0000      -0.517389       -14.0789
 170   2.0000      -0.515908       -14.0386
 171   2.0000      -0.512817       -13.9545
 172   2.0000      -0.511383       -13.9154
 173   2.0000      -0.510063       -13.8795
 174   2.0000      -0.507776       -13.8173
 175   2.0000      -0.506686       -13.7876
 176   2.0000      -0.503365       -13.6973
 177   2.0000      -0.501987       -13.6597
 178   2.0000      -0.501023       -13.6335
 179   2.0000      -0.498320       -13.5600
 180   2.0000      -0.496347       -13.5063
 181   2.0000      -0.492438       -13.3999
 182   2.0000      -0.490046       -13.3348
 183   2.0000      -0.488292       -13.2871
 184   2.0000      -0.486094       -13.2273
 185   2.0000      -0.484865       -13.1938
 186   2.0000      -0.484256       -13.1773
 187   2.0000      -0.481023       -13.0893
 188   2.0000      -0.478571       -13.0226
 189   2.0000      -0.474631       -12.9154
 190   2.0000      -0.472143       -12.8477
 191   2.0000      -0.464421       -12.6375
 192   2.0000      -0.462908       -12.5964
 193   2.0000      -0.461040       -12.5455
 194   2.0000      -0.459078       -12.4921
 195   2.0000      -0.455485       -12.3944
 196   2.0000      -0.453626       -12.3438
 197   2.0000      -0.448909       -12.2154
 198   2.0000      -0.448512       -12.2046
 199   2.0000      -0.446129       -12.1398
 200   2.0000      -0.443532       -12.0691
 201   2.0000      -0.442551       -12.0424
 202   2.0000      -0.439611       -11.9624
 203   2.0000      -0.435460       -11.8495
 204   2.0000      -0.435236       -11.8434
 205   2.0000      -0.432997       -11.7824
 206   2.0000      -0.431163       -11.7325
 207   2.0000      -0.427591       -11.6353
 208   2.0000      -0.426756       -11.6126
 209   2.0000      -0.421849       -11.4791
 210   2.0000      -0.421068       -11.4579
 211   2.0000      -0.419533       -11.4161
 212   2.0000      -0.416015       -11.3204
 213   2.0000      -0.410200       -11.1621
 214   2.0000      -0.407136       -11.0787
 215   2.0000      -0.406363       -11.0577
 216   2.0000      -0.401486       -10.9250
 217   2.0000      -0.400450       -10.8968
 218   2.0000      -0.398857       -10.8535
 219   2.0000      -0.398695       -10.8490
 220   2.0000      -0.396884       -10.7998
 221   2.0000      -0.391011       -10.6400
 222   2.0000      -0.389933       -10.6106
 223   2.0000      -0.380661       -10.3583
 224   2.0000      -0.379577       -10.3288
 225   2.0000      -0.374903       -10.2016
 226   2.0000      -0.369409       -10.0521
 227   2.0000      -0.365644        -9.9497
 228   2.0000      -0.354867        -9.6564
 229   2.0000      -0.351981        -9.5779
 230   2.0000      -0.342630        -9.3234
 231   2.0000      -0.332575        -9.0498
 232   2.0000      -0.329512        -8.9665
 233   2.0000      -0.327932        -8.9235
 234   2.0000      -0.325375        -8.8539
 235   2.0000      -0.322355        -8.7717
 236   2.0000      -0.319901        -8.7049
 237   2.0000      -0.313932        -8.5425
 238   2.0000      -0.310265        -8.4427
 239   2.0000      -0.307923        -8.3790
 240   2.0000      -0.303799        -8.2668
 241   2.0000      -0.299441        -8.1482
 242   2.0000      -0.298060        -8.1106
 243   2.0000      -0.296642        -8.0720
 244   2.0000      -0.294896        -8.0245
 245   2.0000      -0.281007        -7.6466
 246   2.0000      -0.275906        -7.5078
 247   2.0000      -0.266443        -7.2503
 248   2.0000      -0.230046        -6.2599
 249   2.0000      -0.208948        -5.6858
 250   0.0000      -0.088973        -2.4211
 251   0.0000      -0.074248        -2.0204
 252   0.0000      -0.037239        -1.0133
 253   0.0000      -0.029674        -0.8075
 254   0.0000      -0.002760        -0.0751

MULLIKEN ATOMIC CHARGES
-----------------------
   0 C :    0.040509
   1 N :   -0.267024
   2 C :    0.116549
   3 C :   -0.003597
   4 C :    0.157607
   5 O :   -0.201880
   6 C :   -0.075702
   7 C :    0.006667
   8 C :    0.160798
   9 O :   -0.194712
  10 N :   -0.276573
  11 C :    0.100718
  12 C :   -0.000405
  13 C :    0.147526
  14 C :   -0.016668
  15 C :   -0.080782
  16 C :    0.096925
  17 C :   -0.044930
  18 C :   -0.039392
  19 N :    0.010428
  20 C :    0.017983
  21 C :    0.028193
  22 N :   -0.028079
  23 C :    0.035566
  24 C :   -0.024887
  25 C :   -0.062243
  26 N :   -0.025868
  27 C :    0.040885
  28 C :    0.021520
  29 N :    0.002969
  30 C :    0.018715
  31 C :   -0.022339
  32 C :   -0.108603
  33 N :   -0.024202
  34 C :    0.031589
  35 C :    0.022928
  36 N :   -0.001427
  37 C :    0.175228
  38 C :   -0.063658
  39 C :   -0.027226
  40 N :    0.007878
  41 C :    0.023196
  42 C :    0.038631
  43 N :   -0.066231
  44 C :   -0.246542
  45 S :    0.190632
  46 C :   -0.099438
  47 C :    0.101736
  48 C :    0.178723
  49 C :   -0.081382
  50 C :    0.080255
  51 C :   -0.037809
  52 C :   -0.017221
  53 C :   -0.077983
  54 C :    0.099930
  55 C :   -0.109850
  56 C :    0.021030
  57 C :    0.027611
  58 C :   -0.157793
  59 S :    0.106030
  60 C :   -0.136121
  61 C :   -0.076417
  62 C :   -0.048509
  63 C :    0.163293
  64 C :   -0.011615
  65 C :    0.094001
  66 O :   -0.386926
  67 C :    0.197888
  68 C :    0.207328
  69 N :   -0.175397
  70 H :    0.011091
  71 H :    0.013726
  72 H :    0.038919
  73 H :    0.013909
  74 H :    0.019950
  75 H :    0.029292
  76 H :    0.030762
  77 H :    0.038955
  78 H :    0.025767
  79 H :    0.016370
  80 H :    0.020081
  81 H :    0.020582
  82 H :   -0.012437
  83 H :    0.008114
  84 H :    0.009292
  85 H :    0.021705
  86 H :    0.008392
  87 H :    0.010462
  88 H :    0.007323
  89 H :    0.008542
  90 H :    0.009107
  91 H :   -0.045480
  92 H :   -0.007907
  93 H :    0.019326
  94 H :    0.016979
  95 H :    0.027293
  96 H :    0.026902
  97 H :    0.005721
  98 H :   -0.047110
  99 H :   -0.022876
 100 H :   -0.014111
 101 H :    0.006429
 102 H :    0.009968
 103 H :    0.026427
 104 H :   -0.014596
 105 H :   -0.014173
 106 H :    0.025613
 107 H :    0.003405
 108 H :    0.002518
 109 H :    0.014120
 110 H :    0.000176
 111 H :    0.092707
 112 H :    0.086728
Sum of atomic charges:   -0.0000000

LOEWDIN ATOMIC CHARGES
----------------------
   0 C :    0.089455
   1 N :   -0.005873
   2 C :    0.037362
   3 C :   -0.061579
   4 C :    0.076534
   5 O :   -0.205072
   6 C :   -0.122351
   7 C :   -0.132142
   8 C :    0.082821
   9 O :   -0.195813
  10 N :   -0.012399
  11 C :    0.033797
  12 C :   -0.063040
  13 C :    0.082172
  14 C :   -0.022646
  15 C :    0.000111
  16 C :   -0.022772
  17 C :   -0.002276
  18 C :   -0.001219
  19 N :   -0.020935
  20 C :    0.000217
  21 C :    0.006900
  22 N :   -0.038824
  23 C :    0.005556
  24 C :    0.001302
  25 C :   -0.001928
  26 N :   -0.024373
  27 C :    0.018547
  28 C :    0.002286
  29 N :   -0.019782
  30 C :   -0.029010
  31 C :    0.010521
  32 C :   -0.020047
  33 N :   -0.022856
  34 C :   -0.000579
  35 C :    0.006626
  36 N :   -0.030910
  37 C :   -0.020043
  38 C :   -0.020348
  39 C :    0.008767
  40 N :   -0.021879
  41 C :    0.004804
  42 C :    0.008507
  43 N :   -0.051487
  44 C :   -0.182998
  45 S :    0.523850
  46 C :   -0.168193
  47 C :   -0.050771
  48 C :   -0.025792
  49 C :    0.007072
  50 C :   -0.032581
  51 C :   -0.018857
  52 C :   -0.045145
  53 C :   -0.021645
  54 C :   -0.046062
  55 C :   -0.031629
  56 C :   -0.052931
  57 C :   -0.039660
  58 C :   -0.176889
  59 S :    0.426755
  60 C :   -0.196157
  61 C :   -0.065484
  62 C :   -0.056318
  63 C :   -0.029974
  64 C :    0.014858
  65 C :    0.065730
  66 O :   -0.168789
  67 C :    0.068599
  68 C :   -0.033034
  69 N :   -0.112578
  70 H :    0.030745
  71 H :    0.022780
  72 H :    0.034977
  73 H :    0.021771
  74 H :    0.028458
  75 H :    0.031085
  76 H :    0.022307
  77 H :    0.034896
  78 H :    0.023559
  79 H :    0.028609
  80 H :    0.028693
  81 H :    0.039953
  82 H :    0.026623
  83 H :    0.024524
  84 H :    0.025318
  85 H :    0.030057
  86 H :    0.024334
  87 H :    0.025581
  88 H :    0.024585
  89 H :    0.024731
  90 H :    0.025631
  91 H :    0.022009
  92 H :    0.027080
  93 H :    0.020913
  94 H :    0.022501
  95 H :    0.032927
  96 H :    0.033276
  97 H :    0.028798
  98 H :    0.022347
  99 H :    0.026911
 100 H :    0.026153
 101 H :    0.019114
 102 H :    0.031223
 103 H :    0.033516
 104 H :    0.005624
 105 H :    0.008961
 106 H :    0.022435
 107 H :    0.008349
 108 H :    0.004630
 109 H :    0.035388
 110 H :    0.028505
 111 H :    0.049764
 112 H :    0.052882

  Mayer bond orders larger than 0.100000
B(  0-C ,  1-N ) :   1.1941 B(  0-C ,  7-C ) :   1.4528 B(  0-C , 70-H ) :   0.9896
B(  1-N ,  2-C ) :   0.9473 B(  1-N ,  4-C ) :   1.0260 B(  2-C ,  3-C ) :   1.1179
B(  2-C , 71-H ) :   0.9537 B(  2-C , 72-H ) :   0.9341 B(  3-C , 73-H ) :   0.9692
B(  3-C , 74-H ) :   0.9689 B(  3-C , 75-H ) :   0.9676 B(  4-C ,  5-O ) :   2.1131
B(  4-C ,  6-C ) :   1.0004 B(  6-C ,  7-C ) :   1.1915 B(  6-C , 13-C ) :   1.3779
B(  7-C ,  8-C ) :   0.9524 B(  8-C ,  9-O ) :   2.1598 B(  8-C , 10-N ) :   1.0257
B( 10-N , 11-C ) :   0.9474 B( 10-N , 13-C ) :   1.1549 B( 11-C , 12-C ) :   1.1156
B( 11-C , 76-H ) :   0.9511 B( 11-C , 77-H ) :   0.9220 B( 12-C , 78-H ) :   0.9668
B( 12-C , 79-H ) :   0.9676 B( 12-C , 80-H ) :   0.9630 B( 13-C , 14-C ) :   1.1595
B( 14-C , 15-C ) :   1.5474 B( 14-C , 81-H ) :   0.9310 B( 15-C , 16-C ) :   1.1800
B( 15-C , 82-H ) :   0.9544 B( 16-C , 17-C ) :   1.2271 B( 16-C , 23-C ) :   0.1459
B( 16-C , 25-C ) :   1.2188 B( 17-C , 18-C ) :   1.1542 B( 17-C , 22-N ) :   1.4400
B( 18-C , 19-N ) :   1.4324 B( 18-C , 23-C ) :   1.3333 B( 19-N , 20-C ) :   1.6964
B( 20-C , 21-C ) :   1.1797 B( 20-C , 83-H ) :   0.9735 B( 21-C , 22-N ) :   1.7017
B( 21-C , 84-H ) :   0.9740 B( 23-C , 24-C ) :   1.3385 B( 23-C , 30-C ) :   0.9496
B( 24-C , 25-C ) :   1.1505 B( 24-C , 29-N ) :   1.4197 B( 25-C , 26-N ) :   1.4400
B( 26-N , 27-C ) :   1.6833 B( 27-C , 28-C ) :   1.1713 B( 27-C , 85-H ) :   0.9740
B( 28-C , 29-N ) :   1.6947 B( 28-C , 86-H ) :   0.9743 B( 30-C , 31-C ) :   1.3342
B( 30-C , 37-C ) :   0.1350 B( 30-C , 39-C ) :   1.3310 B( 31-C , 32-C ) :   1.1334
B( 31-C , 36-N ) :   1.4332 B( 32-C , 33-N ) :   1.4673 B( 32-C , 37-C ) :   1.2261
B( 33-N , 34-C ) :   1.6687 B( 34-C , 35-C ) :   1.1869 B( 34-C , 87-H ) :   0.9741
B( 35-C , 36-N ) :   1.6925 B( 35-C , 88-H ) :   0.9742 B( 37-C , 38-C ) :   1.2195
B( 37-C , 44-C ) :   1.1836 B( 38-C , 39-C ) :   1.1652 B( 38-C , 43-N ) :   1.4110
B( 39-C , 40-N ) :   1.4313 B( 40-N , 41-C ) :   1.6822 B( 41-C , 42-C ) :   1.1976
B( 41-C , 89-H ) :   0.9747 B( 42-C , 43-N ) :   1.6525 B( 42-C , 90-H ) :   0.9733
B( 44-C , 45-S ) :   1.1527 B( 44-C , 46-C ) :   0.1049 B( 44-C , 48-C ) :   1.2801
B( 45-S , 46-C ) :   1.1469 B( 46-C , 47-C ) :   1.2916 B( 46-C , 56-C ) :   1.1573
B( 47-C , 48-C ) :   1.2221 B( 47-C , 55-C ) :   1.1947 B( 48-C , 49-C ) :   1.2257
B( 49-C , 50-C ) :   1.4960 B( 49-C , 91-H ) :   0.9805 B( 50-C , 51-C ) :   1.0344
B( 50-C , 53-C ) :   1.2141 B( 51-C , 52-C ) :   1.9770 B( 51-C , 92-H ) :   0.9515
B( 52-C , 93-H ) :   0.9556 B( 52-C , 94-H ) :   0.9493 B( 53-C , 54-C ) :   1.0867
B( 53-C , 55-C ) :   1.5375 B( 54-C , 95-H ) :   0.9403 B( 54-C , 96-H ) :   0.9442
B( 54-C , 97-H ) :   0.9539 B( 55-C , 98-H ) :   0.9880 B( 56-C , 57-C ) :   1.6653
B( 56-C , 99-H ) :   0.9398 B( 57-C , 58-C ) :   1.1400 B( 57-C ,100-H ) :   0.9495
B( 58-C , 59-S ) :   1.1287 B( 58-C , 62-C ) :   1.4996 B( 59-S , 60-C ) :   1.1569
B( 60-C , 61-C ) :   1.5563 B( 60-C ,101-H ) :   0.9727 B( 61-C , 62-C ) :   1.3102
B( 61-C , 68-C ) :   1.0127 B( 62-C , 63-C ) :   1.0491 B( 63-C , 64-C ) :   1.0185
B( 63-C ,102-H ) :   0.9074 B( 63-C ,103-H ) :   0.8883 B( 64-C , 65-C ) :   1.0016
B( 64-C , 69-N ) :   1.0953 B( 64-C ,104-H ) :   0.9190 B( 65-C , 66-O ) :   1.0132
B( 65-C , 68-C ) :   1.0548 B( 65-C ,105-H ) :   0.9198 B( 66-O , 67-C ) :   0.9891
B( 67-C ,106-H ) :   0.9828 B( 67-C ,107-H ) :   0.9651 B( 67-C ,108-H ) :   0.9672
B( 68-C ,109-H ) :   0.8914 B( 68-C ,110-H ) :   0.9140 B( 69-N ,111-H ) :   0.9501
B( 69-N ,112-H ) :   0.9633

-----------------------------------------------------------------------------
         ABSORPTION SPECTRUM VIA TRANSITION ELECTRIC DIPOLE MOMENTS
-----------------------------------------------------------------------------
State   Energy  Wavelength   fosc         T2         TX        TY        TZ
        (cm-1)    (nm)                  (au**2)     (au)      (au)      (au)
-----------------------------------------------------------------------------
   0   11511.0    868.7   0.949640597  27.15945   1.90625  -4.84282  -0.26982
   1   14637.2    683.2   0.073004486   1.64198   0.11920  -1.23756   0.31020
   2   17011.4    587.8   0.130330633   2.52221  -0.17447  -1.45433   0.61376
   3   20430.1    489.5   0.003733548   0.06016  -0.19602   0.10259   0.10590
   4   23180.2    431.4   0.436180506   6.19476   1.32033  -1.72454  -1.21551
   5   23570.9    424.3   0.016850073   0.23534  -0.00359   0.44976  -0.18179
   6   24125.0    414.5   0.006615082   0.09027  -0.05196  -0.23898  -0.17453
   7   24534.0    407.6   0.012859447   0.17256  -0.40460  -0.07356   0.05869
   8   24698.8    404.9   0.274735470   3.66196   0.17840   1.76740  -0.71165
   9   24871.6    402.1   0.058975511   0.78063   0.29083   0.45377  -0.70010
  10   25949.7    385.4   0.074679449   0.94742  -0.48453   0.51052   0.67233
  11   26541.1    376.8   0.029198758   0.36218  -0.38063   0.45959   0.07795
  12   27374.7    365.3   0.016399531   0.19722   0.08006   0.22949   0.37168
  13   27538.7    363.1   0.035942863   0.42968  -0.22842   0.44518   0.42346
  14   27739.4    360.5   0.054647666   0.64856   0.45575  -0.33937  -0.57069
  15   27863.9    358.9   0.004471956   0.05284  -0.04691   0.00570   0.22495
  16   28068.4    356.3   0.043704680   0.51261   0.49827  -0.32205  -0.40078
  17   28356.5    352.7   0.018196230   0.21125  -0.41676  -0.00015   0.19382
  18   29011.0    344.7   0.023766350   0.26970  -0.24501  -0.06729   0.45292
  19   29433.5    339.7   0.007209152   0.08063   0.09689   0.19265  -0.18475
  20   29615.9    337.7   0.292324010   3.24949   0.97487  -0.56798  -1.40589
  21   29664.9    337.1   0.006124420   0.06797   0.12350  -0.02811  -0.22787
  22   30886.6    323.8   0.024764953   0.26396  -0.09247  -0.09860   0.49567
  23   31028.0    322.3   0.053769257   0.57050  -0.30059   0.20159  -0.66295
  24   31516.9    317.3   0.018202315   0.19013  -0.28073  -0.25815  -0.21138
  25   31635.5    316.1   0.005605034   0.05833  -0.08185  -0.09849   0.20477
  26   31882.4    313.7   0.007193580   0.07428   0.05506   0.18729  -0.19019
  27   33016.2    302.9   0.111975128   1.11653   0.17882  -0.39689  -0.96282
  28   33246.5    300.8   0.072555365   0.71845  -0.43069   0.18757   0.70553
  29   33436.3    299.1   0.131864813   1.29833  -0.00595  -0.67518   0.91784
  30   33506.4    298.5   0.033460215   0.32876   0.25422   0.42285   0.29212
  31   33918.2    294.8   0.015838343   0.15373   0.24883  -0.11897   0.27868
  32   34054.8    293.6   0.015434057   0.14920  -0.29585   0.21726   0.12031
  33   34227.4    292.2   0.102460762   0.98551  -0.33592  -0.67993  -0.64060
  34   34395.9    290.7   0.126679268   1.21248   0.84268  -0.69587  -0.13470
  35   34514.7    289.7   0.005825113   0.05556   0.16561  -0.04752   0.16087
  36   34678.3    288.4   0.009719149   0.09227  -0.16973  -0.01018  -0.25171
  37   35161.5    284.4   0.019729959   0.18473  -0.20931  -0.36942   0.06665
  38   35173.5    284.3   0.001308320   0.01225  -0.00164  -0.10825  -0.02290
  39   36015.4    277.7   0.146892977   1.34273   0.70469   0.26291  -0.88149
  40   36206.1    276.2   0.109404690   0.99479   0.29516   0.07159   0.95002
  41   36240.3    275.9   0.064480786   0.58575   0.22915   0.36121  -0.63464
  42   36490.4    274.0   0.094443611   0.85206   0.26815  -0.16250  -0.86819
  43   36681.0    272.6   0.308049104   2.76474  -0.47669   0.08228   1.59083
  44   37042.9    270.0   0.048401085   0.43016  -0.26373   0.22919   0.55505
  45   37224.0    268.6   0.004085408   0.03613  -0.18189   0.02225   0.05052
  46   37491.3    266.7   0.021212383   0.18627   0.35423   0.12864   0.21033
  47   37674.2    265.4   0.012198875   0.10660  -0.26116  -0.02743  -0.19402
  48   37888.4    263.9   0.014442483   0.12549   0.00326   0.26196   0.23845
  49   38240.1    261.5   0.298564939   2.57037   0.50960  -1.43262   0.50822
  50   38483.0    259.9   0.021904819   0.18739  -0.40143  -0.06280  -0.14932
  51   38690.1    258.5   0.025785406   0.21941   0.26253  -0.31710   0.22345
  52   38870.2    257.3   0.071918881   0.60912  -0.27813   0.53024  -0.50061
  53   39091.1    255.8   0.074515817   0.62755  -0.00321   0.56112  -0.55918
  54   39689.9    252.0   0.012217457   0.10134  -0.03241  -0.04755  -0.31309
  55   39806.1    251.2   0.062007741   0.51283   0.21910  -0.68176  -0.00525
  56   39948.3    250.3   0.000658903   0.00543  -0.05740   0.03577  -0.02925
  57   40077.3    249.5   0.016333525   0.13417  -0.10085  -0.14284  -0.32187
  58   40309.1    248.1   0.022017144   0.17982  -0.13790   0.38163  -0.12314

FINAL SINGLE POINT ENERGY     -3704.011947737840

DIPOLE MOMENT
-------------
                                X             Y             Z
Electronic contribution:      4.24539     -25.40325     -26.65147
Nuclear contribution   :     -4.99139      27.36633      27.42546
                        -----------------------------------------
Total Dipole Moment    :     -0.74599       1.96307       0.77398
                        -----------------------------------------
Magnitude (a.u.)       :      2.23813
Magnitude (Debye)      :      5.68887

Rotational constants in cm-1:     0.001820     0.000324     0.000286
Rotational constants in MHz :    54.574663     9.705978     8.562714

                             ****ORCA TERMINATED NORMALLY****
TOTAL RUN TIME: 0 days 0 hours 10 minutes 39 seconds 974 msec
