                         Program Version 4.2.0 -  RELEASE  -
|  1> # ORCA input file
|  2> # SCF done       -167.863736720803          0.000685968991
|  3> ! CAM-B3LYP def2-SVP def2/J RIJCOSX Grid4 TightSCF
|  4> %maxcore 5000
|  5> %tddft
|  6>     Mode sTDDFT
|  7>     Ethresh 5.0
|  8>     maxcore 5000
|  9> end
| 10>
| 11> %pal
| 12>   nprocs 6
| 13>   end
| 14> * xyz 0 1
| 15>    C        3.89015        -0.16204         2.66950
| 16>    S        3.66381        -1.81713         3.02918
| 17>    C        2.90483        -2.15261         1.50343
| 18>    C        2.83098        -0.97921         0.75116
| 19>    C        3.40285         0.15142         1.42372
| 20>    N        3.43280         1.37918         0.83931
| 21>    C        2.90085         1.45899        -0.34680
| 22>    O        2.88611         2.61792        -1.00274
| 23>    C        3.47731         3.73061        -0.33736
| 24>    C        3.32964         4.94696        -1.23278
| 25>    C        2.28776         0.33053        -1.01860
| 26>    C        1.62974         0.53405        -2.35765
| 27>    N        0.88613        -0.58617        -2.88039
| 28>    N        2.26514        -0.84817        -0.47247
| 29>    C        2.48419        -3.46334         1.17482
| 30>    C        1.99329        -3.79639        -0.04488
| 31>    C        1.57232        -5.09548        -0.41447
| 32>    O        1.55090        -6.13023         0.44899
| 33>    C        1.10131        -7.22738        -0.21615
| 34>    C        0.83196        -6.90165        -1.53126
| 35>    C        1.13071        -5.53139        -1.66896
| 36>    C        1.03824        -4.73066        -2.81237
| 37>    N        0.97691        -4.06128        -3.74263
| 38>    C        0.94956        -8.47414         0.45106
| 39>    C        1.21452        -8.65475         1.76571
| 40>    C        1.04989        -9.87684         2.46915
| 41>    S        1.24501        -9.89832         4.19876
| 42>    C        0.84716       -11.58509         4.28594
| 43>    C        0.60896       -12.10653         3.02366
| 44>    C        0.73197       -11.14388         1.99501
| 45>    O        0.60053       -11.40324         0.66108
| 46>    C        1.03683       -12.69129         0.25392
| 47>    C       -0.01579       -13.78640         0.45052
| 48>    C       -0.65142       -13.68921         1.84043
| 49>    O        0.29636       -13.41822         2.86104
| 50>    C        0.75428       -12.23485         5.54398
| 51>    O        1.24635       -11.59707         6.62437
| 52>    C        0.99874       -12.35922         7.72146
| 53>    C        0.33367       -13.50601         7.34385
| 54>    C        0.17163       -13.44009         5.93993
| 55>    C       -0.51585       -14.39847         5.18472
| 56>    N       -1.12927       -15.21950         4.66680
| 57>    C        1.41464       -11.93772         9.01301
| 58>    C        2.14263       -10.81916         9.24375
| 59>    C        2.56033       -10.40388        10.53118
| 60>    S        3.60048        -9.02769        10.72206
| 61>    C        3.67342        -9.16255        12.44489
| 62>    C        2.90017       -10.24412        12.86387
| 63>    C        2.27235       -10.94397        11.78613
| 64>    N        1.47369       -12.01225        12.01849
| 65>    C        1.31021       -12.36099        13.26492
| 66>    O        0.51288       -13.38173        13.59040
| 67>    C       -0.14374       -14.05965        12.52372
| 68>    C        0.77932       -15.03922        11.81137
| 69>    C        1.95141       -11.66834        14.35717
| 70>    C        1.72945       -12.12812        15.77358
| 71>    N        2.40577       -11.34753        16.78546
| 72>    N        2.72019       -10.64223        14.14721
| 73>    C        4.45502        -8.23324        13.20280
| 74>    C        4.58410        -8.26062        14.53006
| 75>    H        4.36510         0.48858         3.37478
| 76>    H        4.53095         3.50582        -0.13624
| 77>    H        2.97533         3.87685         0.62578
| 78>    H        3.81881         4.77003        -2.18667
| 79>    H        3.78243         5.81041        -0.75481
| 80>    H        2.27841         5.15150        -1.41600
| 81>    H        2.40018         0.81763        -3.08286
| 82>    H        0.95222         1.39173        -2.26752
| 83>    H        1.49917        -1.36455        -3.09681
| 84>    H        0.22026        -0.91638        -2.19010
| 85>    H        2.58638        -4.21877         1.94221
| 86>    H        1.91617        -3.03828        -0.80985
| 87>    H        0.46680        -7.55998        -2.29271
| 88>    H        0.58903        -9.29154        -0.15199
| 89>    H        1.55759        -7.81573         2.35575
| 90>    H        1.95141       -12.95536         0.79883
| 91>    H        1.27998       -12.58953        -0.80683
| 92>    H        0.47560       -14.75094         0.32360
| 93>    H       -0.80550       -13.69378        -0.29504
| 94>    H       -1.11039       -14.63722         2.12954
| 95>    H       -1.42194       -12.90861         1.84559
| 96>    H        0.00085       -14.29790         7.98309
| 97>    H        1.12478       -12.56803         9.83786
| 98>    H        2.44617       -10.19823         8.41141
| 99>    H       -0.53350       -13.32011        11.81610
|100>    H       -0.97220       -14.58692        13.00224
|101>    H        1.60626       -14.50702        11.34815
|102>    H        0.22321       -15.56848        11.04291
|103>    H        1.17820       -15.76109        12.51969
|104>    H        2.05547       -13.17086        15.85521
|105>    H        0.65303       -12.11490        15.97671
|106>    H        3.40537       -11.35762        16.60849
|107>    H        2.10737       -10.37925        16.72128
|108>    H        4.96025        -7.47638        12.61606
|109>    H        4.08662        -9.01051        15.11797
|110>    H        5.18843        -7.53658        15.04744
|111> *
|112>
|113>                          ****END OF INPUT****

CARTESIAN COORDINATES (ANGSTROEM)
---------------------------------
  C      3.890150   -0.162040    2.669500
  S      3.663810   -1.817130    3.029180
  C      2.904830   -2.152610    1.503430
  C      2.830980   -0.979210    0.751160
  C      3.402850    0.151420    1.423720
  N      3.432800    1.379180    0.839310
  C      2.900850    1.458990   -0.346800
  O      2.886110    2.617920   -1.002740
  C      3.477310    3.730610   -0.337360
  C      3.329640    4.946960   -1.232780
  C      2.287760    0.330530   -1.018600
  C      1.629740    0.534050   -2.357650
  N      0.886130   -0.586170   -2.880390
  N      2.265140   -0.848170   -0.472470
  C      2.484190   -3.463340    1.174820
  C      1.993290   -3.796390   -0.044880
  C      1.572320   -5.095480   -0.414470
  O      1.550900   -6.130230    0.448990
  C      1.101310   -7.227380   -0.216150
  C      0.831960   -6.901650   -1.531260
  C      1.130710   -5.531390   -1.668960
  C      1.038240   -4.730660   -2.812370
  N      0.976910   -4.061280   -3.742630
  C      0.949560   -8.474140    0.451060
  C      1.214520   -8.654750    1.765710
  C      1.049890   -9.876840    2.469150
  S      1.245010   -9.898320    4.198760
  C      0.847160  -11.585090    4.285940
  C      0.608960  -12.106530    3.023660
  C      0.731970  -11.143880    1.995010
  O      0.600530  -11.403240    0.661080
  C      1.036830  -12.691290    0.253920
  C     -0.015790  -13.786400    0.450520
  C     -0.651420  -13.689210    1.840430
  O      0.296360  -13.418220    2.861040
  C      0.754280  -12.234850    5.543980
  O      1.246350  -11.597070    6.624370
  C      0.998740  -12.359220    7.721460
  C      0.333670  -13.506010    7.343850
  C      0.171630  -13.440090    5.939930
  C     -0.515850  -14.398470    5.184720
  N     -1.129270  -15.219500    4.666800
  C      1.414640  -11.937720    9.013010
  C      2.142630  -10.819160    9.243750
  C      2.560330  -10.403880   10.531180
  S      3.600480   -9.027690   10.722060
  C      3.673420   -9.162550   12.444890
  C      2.900170  -10.244120   12.863870
  C      2.272350  -10.943970   11.786130
  N      1.473690  -12.012250   12.018490
  C      1.310210  -12.360990   13.264920
  O      0.512880  -13.381730   13.590400
  C     -0.143740  -14.059650   12.523720
  C      0.779320  -15.039220   11.811370
  C      1.951410  -11.668340   14.357170
  C      1.729450  -12.128120   15.773580
  N      2.405770  -11.347530   16.785460
  N      2.720190  -10.642230   14.147210
  C      4.455020   -8.233240   13.202800
  C      4.584100   -8.260620   14.530060
  H      4.365100    0.488580    3.374780
  H      4.530950    3.505820   -0.136240
  H      2.975330    3.876850    0.625780
  H      3.818810    4.770030   -2.186670
  H      3.782430    5.810410   -0.754810
  H      2.278410    5.151500   -1.416000
  H      2.400180    0.817630   -3.082860
  H      0.952220    1.391730   -2.267520
  H      1.499170   -1.364550   -3.096810
  H      0.220260   -0.916380   -2.190100
  H      2.586380   -4.218770    1.942210
  H      1.916170   -3.038280   -0.809850
  H      0.466800   -7.559980   -2.292710
  H      0.589030   -9.291540   -0.151990
  H      1.557590   -7.815730    2.355750
  H      1.951410  -12.955360    0.798830
  H      1.279980  -12.589530   -0.806830
  H      0.475600  -14.750940    0.323600
  H     -0.805500  -13.693780   -0.295040
  H     -1.110390  -14.637220    2.129540
  H     -1.421940  -12.908610    1.845590
  H      0.000850  -14.297900    7.983090
  H      1.124780  -12.568030    9.837860
  H      2.446170  -10.198230    8.411410
  H     -0.533500  -13.320110   11.816100
  H     -0.972200  -14.586920   13.002240
  H      1.606260  -14.507020   11.348150
  H      0.223210  -15.568480   11.042910
  H      1.178200  -15.761090   12.519690
  H      2.055470  -13.170860   15.855210
  H      0.653030  -12.114900   15.976710
  H      3.405370  -11.357620   16.608490
  H      2.107370  -10.379250   16.721280
  H      4.960250   -7.476380   12.616060
  H      4.086620   -9.010510   15.117970
  H      5.188430   -7.536580   15.047440

 Total Charge           Charge          ....    0
 Multiplicity           Mult            ....    1
 Number of Electrons    NEL             ....  446
 Basis Dimension        Dim             .... 1032

ORBITAL ENERGIES
----------------

  NO   OCC          E(Eh)            E(eV)
   0   2.0000     -88.966877     -2420.9118
   1   2.0000     -88.965466     -2420.8734
   2   2.0000     -88.961089     -2420.7543
   3   2.0000     -19.300179      -525.1846
   4   2.0000     -19.298591      -525.1414
   5   2.0000     -19.264925      -524.2253
   6   2.0000     -19.258075      -524.0388
   7   2.0000     -19.255500      -523.9688
   8   2.0000     -19.251388      -523.8569
   9   2.0000     -14.423602      -392.4862
  10   2.0000     -14.419301      -392.3691
  11   2.0000     -14.417758      -392.3271
  12   2.0000     -14.409605      -392.1053
  13   2.0000     -14.398722      -391.8091
  14   2.0000     -14.390600      -391.5881
  15   2.0000     -14.377371      -391.2282
  16   2.0000     -14.363596      -390.8533
  17   2.0000     -10.378563      -282.4151
  18   2.0000     -10.371204      -282.2148
  19   2.0000     -10.356654      -281.8189
  20   2.0000     -10.346619      -281.5458
  21   2.0000     -10.343151      -281.4515
  22   2.0000     -10.338408      -281.3224
  23   2.0000     -10.335633      -281.2469
  24   2.0000     -10.333459      -281.1877
  25   2.0000     -10.331235      -281.1272
  26   2.0000     -10.328075      -281.0412
  27   2.0000     -10.323142      -280.9070
  28   2.0000     -10.322428      -280.8875
  29   2.0000     -10.320687      -280.8402
  30   2.0000     -10.318887      -280.7912
  31   2.0000     -10.309225      -280.5283
  32   2.0000     -10.308453      -280.5073
  33   2.0000     -10.306114      -280.4436
  34   2.0000     -10.305171      -280.4180
  35   2.0000     -10.304407      -280.3972
  36   2.0000     -10.302967      -280.3580
  37   2.0000     -10.302966      -280.3580
  38   2.0000     -10.302353      -280.3413
  39   2.0000     -10.301891      -280.3287
  40   2.0000     -10.301672      -280.3227
  41   2.0000     -10.300916      -280.3022
  42   2.0000     -10.299390      -280.2606
  43   2.0000     -10.297946      -280.2214
  44   2.0000     -10.292424      -280.0711
  45   2.0000     -10.291671      -280.0506
  46   2.0000     -10.288522      -279.9649
  47   2.0000     -10.285809      -279.8911
  48   2.0000     -10.284033      -279.8428
  49   2.0000     -10.283024      -279.8153
  50   2.0000     -10.282570      -279.8030
  51   2.0000     -10.280787      -279.7544
  52   2.0000     -10.279530      -279.7202
  53   2.0000     -10.278061      -279.6803
  54   2.0000     -10.276612      -279.6408
  55   2.0000     -10.275196      -279.6023
  56   2.0000     -10.273586      -279.5585
  57   2.0000     -10.264788      -279.3191
  58   2.0000     -10.261041      -279.2171
  59   2.0000     -10.259190      -279.1668
  60   2.0000      -8.062152      -219.3823
  61   2.0000      -8.060709      -219.3430
  62   2.0000      -8.056241      -219.2215
  63   2.0000      -6.031105      -164.1147
  64   2.0000      -6.029534      -164.0720
  65   2.0000      -6.026969      -164.0022
  66   2.0000      -6.025731      -163.9685
  67   2.0000      -6.025681      -163.9671
  68   2.0000      -6.025081      -163.9508
  69   2.0000      -6.023542      -163.9089
  70   2.0000      -6.021822      -163.8621
  71   2.0000      -6.017781      -163.7521
  72   2.0000      -1.219716       -33.1902
  73   2.0000      -1.216468       -33.1018
  74   2.0000      -1.180568       -32.1249
  75   2.0000      -1.175213       -31.9792
  76   2.0000      -1.171300       -31.8727
  77   2.0000      -1.145574       -31.1726
  78   2.0000      -1.072979       -29.1972
  79   2.0000      -1.067569       -29.0500
  80   2.0000      -1.005643       -27.3649
  81   2.0000      -0.998340       -27.1662
  82   2.0000      -0.988796       -26.9065
  83   2.0000      -0.984494       -26.7895
  84   2.0000      -0.978313       -26.6212
  85   2.0000      -0.978020       -26.6133
  86   2.0000      -0.975881       -26.5551
  87   2.0000      -0.954749       -25.9800
  88   2.0000      -0.943260       -25.6674
  89   2.0000      -0.921995       -25.0888
  90   2.0000      -0.915423       -24.9099
  91   2.0000      -0.912825       -24.8392
  92   2.0000      -0.910716       -24.7818
  93   2.0000      -0.893800       -24.3215
  94   2.0000      -0.885707       -24.1013
  95   2.0000      -0.879641       -23.9363
  96   2.0000      -0.874664       -23.8008
  97   2.0000      -0.871159       -23.7054
  98   2.0000      -0.861549       -23.4439
  99   2.0000      -0.843359       -22.9490
 100   2.0000      -0.833433       -22.6789
 101   2.0000      -0.828904       -22.5556
 102   2.0000      -0.821293       -22.3485
 103   2.0000      -0.816558       -22.2197
 104   2.0000      -0.797251       -21.6943
 105   2.0000      -0.794147       -21.6098
 106   2.0000      -0.782927       -21.3045
 107   2.0000      -0.777664       -21.1613
 108   2.0000      -0.768339       -20.9076
 109   2.0000      -0.750868       -20.4322
 110   2.0000      -0.745211       -20.2782
 111   2.0000      -0.742470       -20.2036
 112   2.0000      -0.731488       -19.9048
 113   2.0000      -0.727074       -19.7847
 114   2.0000      -0.710921       -19.3451
 115   2.0000      -0.702465       -19.1150
 116   2.0000      -0.698345       -19.0029
 117   2.0000      -0.695416       -18.9232
 118   2.0000      -0.690319       -18.7845
 119   2.0000      -0.683687       -18.6041
 120   2.0000      -0.682479       -18.5712
 121   2.0000      -0.678763       -18.4701
 122   2.0000      -0.672126       -18.2895
 123   2.0000      -0.671309       -18.2672
 124   2.0000      -0.659255       -17.9392
 125   2.0000      -0.645210       -17.5570
 126   2.0000      -0.643001       -17.4970
 127   2.0000      -0.637031       -17.3345
 128   2.0000      -0.624291       -16.9878
 129   2.0000      -0.622130       -16.9290
 130   2.0000      -0.618862       -16.8401
 131   2.0000      -0.614539       -16.7225
 132   2.0000      -0.606336       -16.4992
 133   2.0000      -0.600563       -16.3421
 134   2.0000      -0.591239       -16.0884
 135   2.0000      -0.581420       -15.8212
 136   2.0000      -0.580867       -15.8062
 137   2.0000      -0.580145       -15.7865
 138   2.0000      -0.576812       -15.6959
 139   2.0000      -0.568430       -15.4678
 140   2.0000      -0.564914       -15.3721
 141   2.0000      -0.564354       -15.3568
 142   2.0000      -0.561172       -15.2703
 143   2.0000      -0.558654       -15.2017
 144   2.0000      -0.554472       -15.0880
 145   2.0000      -0.553910       -15.0727
 146   2.0000      -0.548861       -14.9353
 147   2.0000      -0.545941       -14.8558
 148   2.0000      -0.544628       -14.8201
 149   2.0000      -0.541405       -14.7324
 150   2.0000      -0.535756       -14.5787
 151   2.0000      -0.530085       -14.4243
 152   2.0000      -0.528394       -14.3783
 153   2.0000      -0.523071       -14.2335
 154   2.0000      -0.522690       -14.2231
 155   2.0000      -0.519443       -14.1348
 156   2.0000      -0.516795       -14.0627
 157   2.0000      -0.515911       -14.0386
 158   2.0000      -0.512558       -13.9474
 159   2.0000      -0.506229       -13.7752
 160   2.0000      -0.502957       -13.6862
 161   2.0000      -0.499664       -13.5966
 162   2.0000      -0.497852       -13.5472
 163   2.0000      -0.490523       -13.3478
 164   2.0000      -0.487005       -13.2521
 165   2.0000      -0.482748       -13.1362
 166   2.0000      -0.482147       -13.1199
 167   2.0000      -0.480945       -13.0872
 168   2.0000      -0.475896       -12.9498
 169   2.0000      -0.473883       -12.8950
 170   2.0000      -0.472833       -12.8664
 171   2.0000      -0.469183       -12.7671
 172   2.0000      -0.468465       -12.7476
 173   2.0000      -0.466844       -12.7035
 174   2.0000      -0.466274       -12.6880
 175   2.0000      -0.464413       -12.6373
 176   2.0000      -0.458429       -12.4745
 177   2.0000      -0.456537       -12.4230
 178   2.0000      -0.454480       -12.3670
 179   2.0000      -0.452307       -12.3079
 180   2.0000      -0.451392       -12.2830
 181   2.0000      -0.448793       -12.2123
 182   2.0000      -0.445139       -12.1129
 183   2.0000      -0.444152       -12.0860
 184   2.0000      -0.439245       -11.9525
 185   2.0000      -0.437446       -11.9035
 186   2.0000      -0.431247       -11.7348
 187   2.0000      -0.429475       -11.6866
 188   2.0000      -0.428548       -11.6614
 189   2.0000      -0.427712       -11.6386
 190   2.0000      -0.426770       -11.6130
 191   2.0000      -0.425836       -11.5876
 192   2.0000      -0.421768       -11.4769
 193   2.0000      -0.421353       -11.4656
 194   2.0000      -0.415438       -11.3046
 195   2.0000      -0.413769       -11.2592
 196   2.0000      -0.411077       -11.1860
 197   2.0000      -0.406643       -11.0653
 198   2.0000      -0.403889       -10.9904
 199   2.0000      -0.400606       -10.9011
 200   2.0000      -0.399506       -10.8711
 201   2.0000      -0.396391       -10.7863
 202   2.0000      -0.393135       -10.6977
 203   2.0000      -0.387516       -10.5449
 204   2.0000      -0.384022       -10.4498
 205   2.0000      -0.383361       -10.4318
 206   2.0000      -0.374980       -10.2037
 207   2.0000      -0.366683        -9.9779
 208   2.0000      -0.360269        -9.8034
 209   2.0000      -0.354331        -9.6418
 210   2.0000      -0.345518        -9.4020
 211   2.0000      -0.328090        -8.9278
 212   2.0000      -0.327427        -8.9098
 213   2.0000      -0.323841        -8.8122
 214   2.0000      -0.306323        -8.3355
 215   2.0000      -0.305043        -8.3007
 216   2.0000      -0.302491        -8.2312
 217   2.0000      -0.297897        -8.1062
 218   2.0000      -0.291991        -7.9455
 219   2.0000      -0.291682        -7.9371
 220   2.0000      -0.269698        -7.3389
 221   2.0000      -0.240008        -6.5309
 222   2.0000      -0.219736        -5.9793
 223   0.0000      -0.069206        -1.8832
 224   0.0000      -0.059314        -1.6140
 225   0.0000      -0.039057        -1.0628
 226   0.0000      -0.008782        -0.2390
 227   0.0000       0.002103         0.0572

MULLIKEN ATOMIC CHARGES
-----------------------
   0 C :   -0.165220
   1 S :    0.157577
   2 C :   -0.167113
   3 C :    0.040407
   4 C :    0.079120
   5 N :   -0.051698
   6 C :    0.109182
   7 O :   -0.288492
   8 C :    0.168907
   9 C :    0.013751
  10 C :   -0.188740
  11 C :    0.173314
  12 N :   -0.198933
  13 N :   -0.002442
  14 C :    0.034202
  15 C :   -0.071342
  16 C :    0.180228
  17 O :   -0.199772
  18 C :    0.199359
  19 C :   -0.042966
  20 C :   -0.091225
  21 C :   -0.174311
  22 N :    0.128781
  23 C :   -0.031180
  24 C :    0.039582
  25 C :   -0.121279
  26 S :    0.175320
  27 C :   -0.236457
  28 C :    0.165801
  29 C :    0.129193
  30 O :   -0.327423
  31 C :    0.185791
  32 C :   -0.002849
  33 C :    0.184313
  34 O :   -0.314329
  35 C :    0.228146
  36 O :   -0.204825
  37 C :    0.207684
  38 C :   -0.053387
  39 C :   -0.119881
  40 C :   -0.181523
  41 N :    0.120922
  42 C :   -0.035248
  43 C :    0.035273
  44 C :   -0.174446
  45 S :    0.164941
  46 C :   -0.179046
  47 C :    0.042439
  48 C :    0.054803
  49 N :   -0.055110
  50 C :    0.120413
  51 O :   -0.284919
  52 C :    0.182576
  53 C :   -0.031367
  54 C :   -0.204392
  55 C :    0.167739
  56 N :   -0.197127
  57 N :    0.003316
  58 C :    0.017981
  59 C :   -0.003196
  60 H :    0.011651
  61 H :    0.019038
  62 H :    0.018957
  63 H :    0.025525
  64 H :    0.019320
  65 H :    0.026118
  66 H :    0.026481
  67 H :    0.024272
  68 H :    0.108741
  69 H :    0.092043
  70 H :   -0.016177
  71 H :    0.010775
  72 H :   -0.011944
  73 H :    0.008320
  74 H :   -0.013241
  75 H :    0.028942
  76 H :    0.026723
  77 H :    0.023608
  78 H :    0.021476
  79 H :    0.046289
  80 H :    0.024539
  81 H :   -0.017692
  82 H :   -0.003489
  83 H :   -0.017830
  84 H :    0.025953
  85 H :    0.023960
  86 H :    0.041898
  87 H :    0.023992
  88 H :    0.025000
  89 H :    0.027275
  90 H :    0.028770
  91 H :    0.099004
  92 H :    0.098278
  93 H :   -0.021166
  94 H :    0.014742
  95 H :    0.019027
Sum of atomic charges:   -0.0000000

LOEWDIN ATOMIC CHARGES
----------------------
   0 C :   -0.205387
   1 S :    0.482037
   2 C :   -0.189153
   3 C :   -0.055227
   4 C :   -0.049745
   5 N :   -0.098100
   6 C :    0.049713
   7 O :   -0.079751
   8 C :    0.088460
   9 C :   -0.062497
  10 C :   -0.018774
  11 C :    0.007142
  12 N :   -0.094930
  13 N :   -0.046198
  14 C :   -0.021275
  15 C :   -0.043787
  16 C :    0.066654
  17 O :    0.016922
  18 C :    0.036657
  19 C :   -0.035392
  20 C :   -0.115861
  21 C :   -0.028025
  22 N :   -0.063859
  23 C :   -0.036913
  24 C :   -0.037094
  25 C :   -0.188206
  26 S :    0.452958
  27 C :   -0.224261
  28 C :    0.000198
  29 C :   -0.010043
  30 O :   -0.106155
  31 C :    0.083847
  32 C :   -0.059737
  33 C :    0.086994
  34 O :   -0.089006
  35 C :    0.052219
  36 O :    0.012899
  37 C :    0.034338
  38 C :   -0.037502
  39 C :   -0.113971
  40 C :   -0.023120
  41 N :   -0.081773
  42 C :   -0.043925
  43 C :   -0.034280
  44 C :   -0.197831
  45 S :    0.482358
  46 C :   -0.180723
  47 C :   -0.058703
  48 C :   -0.040031
  49 N :   -0.093074
  50 C :    0.056312
  51 O :   -0.076115
  52 C :    0.085516
  53 C :   -0.070026
  54 C :   -0.026197
  55 C :    0.007960
  56 N :   -0.098304
  57 N :   -0.041483
  58 C :   -0.049356
  59 C :   -0.032118
  60 H :    0.026462
  61 H :    0.018829
  62 H :    0.018635
  63 H :    0.029507
  64 H :    0.032514
  65 H :    0.029439
  66 H :    0.037826
  67 H :    0.033082
  68 H :    0.054724
  69 H :    0.052751
  70 H :    0.029538
  71 H :    0.036549
  72 H :    0.037523
  73 H :    0.037924
  74 H :    0.029414
  75 H :    0.021112
  76 H :    0.027859
  77 H :    0.034701
  78 H :    0.033082
  79 H :    0.032562
  80 H :    0.019565
  81 H :    0.036038
  82 H :    0.035892
  83 H :    0.028759
  84 H :    0.018766
  85 H :    0.025058
  86 H :    0.028101
  87 H :    0.032686
  88 H :    0.029290
  89 H :    0.035538
  90 H :    0.035820
  91 H :    0.053671
  92 H :    0.053923
  93 H :    0.026490
  94 H :    0.017649
  95 H :    0.023448

  Mayer bond orders larger than 0.100000
B(  0-C ,  1-S ) :   1.1769 B(  0-C ,  2-C ) :   0.1135 B(  0-C ,  4-C ) :   1.4225
B(  0-C , 60-H ) :   0.9761 B(  1-S ,  2-C ) :   1.1715 B(  2-C ,  3-C ) :   1.3431
B(  2-C , 14-C ) :   1.1378 B(  3-C ,  4-C ) :   1.2139 B(  3-C , 13-N ) :   1.3287
B(  4-C ,  5-N ) :   1.3240 B(  5-N ,  6-C ) :   1.6460 B(  6-C ,  7-O ) :   1.2646
B(  6-C , 10-C ) :   1.0693 B(  7-O ,  8-C ) :   0.9020 B(  8-C ,  9-C ) :   1.0935
B(  8-C , 61-H ) :   0.9575 B(  8-C , 62-H ) :   0.9564 B(  9-C , 63-H ) :   0.9685
B(  9-C , 64-H ) :   0.9616 B(  9-C , 65-H ) :   0.9690 B( 10-C , 11-C ) :   0.9570
B( 10-C , 13-N ) :   1.7934 B( 11-C , 12-N ) :   1.1682 B( 11-C , 66-H ) :   0.9265
B( 11-C , 67-H ) :   0.9355 B( 12-N , 68-H ) :   0.9698 B( 12-N , 69-H ) :   0.9805
B( 14-C , 15-C ) :   1.6345 B( 14-C , 70-H ) :   0.9711 B( 15-C , 16-C ) :   1.1893
B( 15-C , 71-H ) :   0.9319 B( 16-C , 17-O ) :   1.1760 B( 16-C , 20-C ) :   1.3958
B( 17-O , 18-C ) :   1.1133 B( 18-C , 19-C ) :   1.4388 B( 18-C , 23-C ) :   1.1369
B( 19-C , 20-C ) :   1.2215 B( 19-C , 72-H ) :   1.0241 B( 20-C , 21-C ) :   1.1159
B( 21-C , 22-N ) :   2.9887 B( 23-C , 24-C ) :   1.6613 B( 23-C , 73-H ) :   0.9585
B( 24-C , 25-C ) :   1.1266 B( 24-C , 74-H ) :   0.9582 B( 25-C , 26-S ) :   1.0899
B( 25-C , 27-C ) :   0.1401 B( 25-C , 29-C ) :   1.4835 B( 26-S , 27-C ) :   1.1089
B( 27-C , 28-C ) :   1.5007 B( 27-C , 35-C ) :   1.1207 B( 28-C , 29-C ) :   1.1992
B( 28-C , 34-O ) :   1.1861 B( 29-C , 30-O ) :   1.1218 B( 30-O , 31-C ) :   0.9455
B( 31-C , 32-C ) :   1.0978 B( 31-C , 75-H ) :   0.9360 B( 31-C , 76-H ) :   0.9584
B( 32-C , 33-C ) :   1.0967 B( 32-C , 77-H ) :   0.9338 B( 32-C , 78-H ) :   0.9333
B( 33-C , 34-O ) :   0.9298 B( 33-C , 79-H ) :   0.9488 B( 33-C , 80-H ) :   0.9357
B( 35-C , 36-O ) :   1.2006 B( 35-C , 39-C ) :   1.4441 B( 36-O , 37-C ) :   1.1043
B( 37-C , 38-C ) :   1.4429 B( 37-C , 42-C ) :   1.1345 B( 38-C , 39-C ) :   1.2157
B( 38-C , 81-H ) :   1.0241 B( 39-C , 40-C ) :   1.1471 B( 40-C , 41-N ) :   2.9759
B( 42-C , 43-C ) :   1.6581 B( 42-C , 82-H ) :   0.9546 B( 43-C , 44-C ) :   1.1419
B( 43-C , 83-H ) :   0.9582 B( 44-C , 45-S ) :   1.1349 B( 44-C , 46-C ) :   0.1230
B( 44-C , 48-C ) :   1.3631 B( 45-S , 46-C ) :   1.1690 B( 46-C , 47-C ) :   1.3694
B( 46-C , 58-C ) :   1.1203 B( 47-C , 48-C ) :   1.2328 B( 47-C , 57-N ) :   1.3334
B( 48-C , 49-N ) :   1.3474 B( 49-N , 50-C ) :   1.6244 B( 50-C , 51-O ) :   1.2664
B( 50-C , 54-C ) :   1.0840 B( 51-O , 52-C ) :   0.9106 B( 52-C , 53-C ) :   1.1197
B( 52-C , 84-H ) :   0.9466 B( 52-C , 85-H ) :   0.9580 B( 53-C , 86-H ) :   0.9636
B( 53-C , 87-H ) :   0.9643 B( 53-C , 88-H ) :   0.9628 B( 54-C , 55-C ) :   0.9561
B( 54-C , 57-N ) :   1.7951 B( 55-C , 56-N ) :   1.1580 B( 55-C , 89-H ) :   0.9338
B( 55-C , 90-H ) :   0.9331 B( 56-N , 91-H ) :   0.9790 B( 56-N , 92-H ) :   0.9793
B( 58-C , 59-C ) :   1.9285 B( 58-C , 93-H ) :   0.9460 B( 59-C , 94-H ) :   0.9324
B( 59-C , 95-H ) :   0.9443

-----------------------------------------------------------------------------
         ABSORPTION SPECTRUM VIA TRANSITION ELECTRIC DIPOLE MOMENTS
-----------------------------------------------------------------------------
State   Energy  Wavelength   fosc         T2         TX        TY        TZ
        (cm-1)    (nm)                  (au**2)     (au)      (au)      (au)
-----------------------------------------------------------------------------
   0   18188.8    549.8   1.044804240  18.91069   0.09337  -2.54486   3.52500
   1   21069.3    474.6   1.051803169  16.43461   1.44938   3.30962   1.83857
   2   24350.8    410.7   0.415377121   5.61572  -0.45803  -0.54576  -2.26011
   3   24957.2    400.7   0.199118731   2.62659  -0.33102  -1.38377   0.77600
   4   27843.0    359.2   0.009417727   0.11135  -0.01380  -0.33296  -0.01738
   5   29168.8    342.8   0.062380911   0.70406   0.36366   0.60914   0.44806
   6   29313.9    341.1   0.180585163   2.02807   0.32553   1.14761   0.77788
   7   30670.1    326.1   0.149362745   1.60326   0.11375  -0.47512   1.16815
   8   31750.2    315.0   0.046211312   0.47916  -0.44147  -0.23993  -0.47612
   9   31793.2    314.5   0.018632714   0.19294   0.10736   0.14401   0.40084
  10   32664.1    306.1   0.114258772   1.15158   0.43572   0.88324  -0.42618
  11   33012.4    302.9   0.044521847   0.44399   0.00515  -0.21730  -0.62987
  12   33568.5    297.9   0.314196411   3.08138  -0.74948  -1.17410  -1.06824
  13   34004.1    294.1   0.220001673   2.12996  -0.06636   0.85025  -1.18433
  14   34578.3    289.2   0.046324220   0.44104  -0.33212   0.21335   0.53406
  15   35442.4    282.1   0.001362930   0.01266   0.09497  -0.06008   0.00551
  16   35503.2    281.7   0.002599952   0.02411  -0.13359   0.07913  -0.00037
  17   36630.2    273.0   0.141004009   1.26726  -0.46548  -0.12563  -1.01726
  18   36683.7    272.6   0.101001808   0.90642   0.44348   0.81368  -0.21835
  19   37861.5    264.1   0.001276919   0.01110   0.06042  -0.02683   0.08206
  20   38444.0    260.1   0.008340122   0.07142  -0.01771  -0.19617   0.18062
  21   39136.8    255.5   0.103821708   0.87333  -0.20838  -0.79700   0.44126
  22   39388.7    253.9   0.329153205   2.75107  -1.00595  -1.30347   0.20028
  23   40010.6    249.9   0.010374069   0.08536  -0.02374   0.10197  -0.27276
  24   40076.3    249.5   0.036254845   0.29782  -0.10038  -0.18958  -0.50180

FINAL SINGLE POINT ENERGY     -3740.564229187410

DIPOLE MOMENT
-------------
                                X             Y             Z
Electronic contribution:      2.87649      -6.77318     -10.05805
Nuclear contribution   :     -2.01458       6.89349      11.32514
                        -----------------------------------------
Total Dipole Moment    :      0.86191       0.12030       1.26709
                        -----------------------------------------
Magnitude (a.u.)       :      1.53717
Magnitude (Debye)      :      3.90717

Rotational constants in cm-1:     0.001345     0.000392     0.000307
Rotational constants in MHz :    40.334357    11.745008     9.207902

                             ****ORCA TERMINATED NORMALLY****
TOTAL RUN TIME: 0 days 0 hours 6 minutes 44 seconds 3 msec
