                         Program Version 4.2.0 -  RELEASE  -
|  1> # ORCA input file
|  2> # SCF done       -190.221648040612          0.000524112499
|  3> ! CAM-B3LYP def2-SVP def2/J RIJCOSX Grid4 TightSCF
|  4> %maxcore 5000
|  5> %tddft
|  6>     Mode sTDDFT
|  7>     Ethresh 5.0
|  8>     maxcore 5000
|  9> end
| 10>
| 11> %pal
| 12>   nprocs 6
| 13>   end
| 14> * xyz 0 1
| 15>    C       -4.51068        -0.08401         1.30297
| 16>    S       -2.99027        -0.71424         0.83753
| 17>    C       -3.26378        -2.23046         1.63964
| 18>    C       -4.51775        -2.21594         2.24897
| 19>    C       -5.22821        -0.98735         2.04904
| 20>    N       -6.47512        -0.80568         2.56107
| 21>    C       -6.96543        -1.80795         3.23351
| 22>    O       -8.18551        -1.73220         3.76340
| 23>    C       -8.89576        -0.51659         3.54058
| 24>    C      -10.27388        -0.65401         4.16056
| 25>    C       -6.24637        -3.04675         3.44854
| 26>    C       -6.87648        -4.15385         4.24972
| 27>    N       -6.05263        -5.33151         4.41513
| 28>    N       -5.05551        -3.23246         2.96155
| 29>    C       -2.34812        -3.30569         1.64368
| 30>    C       -1.15585        -3.32107         0.99964
| 31>    C       -0.28039        -4.43579         1.00896
| 32>    O       -0.56899        -5.55778         1.69414
| 33>    C        0.43349        -6.45116         1.49243
| 34>    C        1.39173        -5.90159         0.66468
| 35>    C        0.94279        -4.60278         0.35018
| 36>    C        1.57585        -3.65519        -0.46295
| 37>    N        2.09267        -2.88030        -1.13295
| 38>    C        0.34395        -7.71438         2.14515
| 39>    C        1.18916        -8.74097         1.91112
| 40>    C        1.17546       -10.01432         2.55665
| 41>    S        1.79096       -11.37763         1.67233
| 42>    C        1.44799       -12.46073         2.99039
| 43>    C        0.90574       -11.77305         4.06516
| 44>    C        0.76144       -10.39655         3.82350
| 45>    C        0.27135        -9.44326         4.87860
| 46>    C        1.10165        -8.19673         4.99338
| 47>    O        0.67687        -7.09190         5.17689
| 48>    C        2.65251        -8.38154         4.98249
| 49>    F        3.07329        -9.65192         5.03246
| 50>    F        3.19028        -7.83748         3.88402
| 51>    F        3.19237        -7.76326         6.03981
| 52>    C        0.27950       -10.10638         6.27427
| 53>    C       -0.36652       -11.48298         6.18247
| 54>    C        0.51920       -12.41434         5.36117
| 55>    C        1.72156       -13.84886         2.90365
| 56>    C        2.19601       -14.47047         1.79696
| 57>    C        2.45979       -15.86065         1.72858
| 58>    O        2.29923       -16.66770         2.79801
| 59>    C        2.61773       -17.93549         2.42530
| 60>    C        2.98718       -17.95220         1.09399
| 61>    C        2.89160       -16.62174         0.63805
| 62>    C        3.16233       -16.14093        -0.64831
| 63>    N        3.38725       -15.75272        -1.70441
| 64>    C        2.55455       -19.00780         3.35418
| 65>    C        2.22576       -18.85631         4.65998
| 66>    C        2.17417       -19.92075         5.59049
| 67>    S        1.80951       -19.61519         7.26029
| 68>    C        1.94258       -21.27561         7.72474
| 69>    C        2.25701       -22.05028         6.60934
| 70>    C        2.38774       -21.28826         5.40614
| 71>    N        2.68442       -21.88701         4.22802
| 72>    C        2.84254       -23.18233         4.25682
| 73>    O        3.12978       -23.85011         3.13981
| 74>    C        3.24440       -23.07516         1.94972
| 75>    C        3.55174       -24.01671         0.80016
| 76>    C        2.71828       -23.95822         5.46782
| 77>    C        2.91831       -25.44988         5.42853
| 78>    N        2.77520       -26.12279         6.70001
| 79>    N        2.43312       -23.39463         6.60273
| 80>    C        1.73903       -21.65510         9.08970
| 81>    C        1.82669       -22.90491         9.54728
| 82>    H       -4.80005         0.90380         1.00793
| 83>    H       -8.95689        -0.33382         2.46187
| 84>    H       -8.33403         0.31024         3.98983
| 85>    H      -10.80963        -1.48099         3.70254
| 86>    H      -10.83613         0.26236         4.00744
| 87>    H      -10.18778        -0.84526         5.22667
| 88>    H       -7.81487        -4.44367         3.76379
| 89>    H       -7.13893        -3.76236         5.23864
| 90>    H       -5.80209        -5.69594         3.50108
| 91>    H       -5.18210        -5.07113         4.86849
| 92>    H       -2.66596        -4.17246         2.20742
| 93>    H       -0.82497        -2.46534         0.42727
| 94>    H        2.30261        -6.35690         0.33544
| 95>    H       -0.48366        -7.80578         2.83149
| 96>    H        1.93140        -8.63345         1.13211
| 97>    H       -0.75785        -9.13308         4.66214
| 98>    H       -0.26365        -9.46673         6.97109
| 99>    H        1.30271       -10.21762         6.63705
|100>    H       -1.34931       -11.39625         5.71528
|101>    H       -0.50160       -11.89160         7.18453
|102>    H       -0.00232       -13.35459         5.17244
|103>    H        1.42821       -12.64660         5.92491
|104>    H        1.52939       -14.43766         3.78962
|105>    H        2.38969       -13.91164         0.89176
|106>    H        3.28929       -18.80632         0.52335
|107>    H        2.79486       -19.98815         2.97535
|108>    H        1.99478       -17.87072         5.04171
|109>    H        4.04219       -22.33485         2.08335
|110>    H        2.30393       -22.53614         1.78444
|111>    H        4.48384       -24.54292         0.98641
|112>    H        3.64062       -23.45108        -0.12256
|113>    H        2.75603       -24.74883         0.69361
|114>    H        3.91791       -25.65499         5.02991
|115>    H        2.20000       -25.87659         4.71976
|116>    H        3.44306       -25.74160         7.36275
|117>    H        1.85068       -25.94070         7.07779
|118>    H        1.50333       -20.83851         9.76055
|119>    H        2.06380       -23.71941         8.88713
|120>    H        1.66725       -23.13121        10.58670
|121> *
|122>
|123>                          ****END OF INPUT****

CARTESIAN COORDINATES (ANGSTROEM)
---------------------------------
  C     -4.510680   -0.084010    1.302970
  S     -2.990270   -0.714240    0.837530
  C     -3.263780   -2.230460    1.639640
  C     -4.517750   -2.215940    2.248970
  C     -5.228210   -0.987350    2.049040
  N     -6.475120   -0.805680    2.561070
  C     -6.965430   -1.807950    3.233510
  O     -8.185510   -1.732200    3.763400
  C     -8.895760   -0.516590    3.540580
  C    -10.273880   -0.654010    4.160560
  C     -6.246370   -3.046750    3.448540
  C     -6.876480   -4.153850    4.249720
  N     -6.052630   -5.331510    4.415130
  N     -5.055510   -3.232460    2.961550
  C     -2.348120   -3.305690    1.643680
  C     -1.155850   -3.321070    0.999640
  C     -0.280390   -4.435790    1.008960
  O     -0.568990   -5.557780    1.694140
  C      0.433490   -6.451160    1.492430
  C      1.391730   -5.901590    0.664680
  C      0.942790   -4.602780    0.350180
  C      1.575850   -3.655190   -0.462950
  N      2.092670   -2.880300   -1.132950
  C      0.343950   -7.714380    2.145150
  C      1.189160   -8.740970    1.911120
  C      1.175460  -10.014320    2.556650
  S      1.790960  -11.377630    1.672330
  C      1.447990  -12.460730    2.990390
  C      0.905740  -11.773050    4.065160
  C      0.761440  -10.396550    3.823500
  C      0.271350   -9.443260    4.878600
  C      1.101650   -8.196730    4.993380
  O      0.676870   -7.091900    5.176890
  C      2.652510   -8.381540    4.982490
  F      3.073290   -9.651920    5.032460
  F      3.190280   -7.837480    3.884020
  F      3.192370   -7.763260    6.039810
  C      0.279500  -10.106380    6.274270
  C     -0.366520  -11.482980    6.182470
  C      0.519200  -12.414340    5.361170
  C      1.721560  -13.848860    2.903650
  C      2.196010  -14.470470    1.796960
  C      2.459790  -15.860650    1.728580
  O      2.299230  -16.667700    2.798010
  C      2.617730  -17.935490    2.425300
  C      2.987180  -17.952200    1.093990
  C      2.891600  -16.621740    0.638050
  C      3.162330  -16.140930   -0.648310
  N      3.387250  -15.752720   -1.704410
  C      2.554550  -19.007800    3.354180
  C      2.225760  -18.856310    4.659980
  C      2.174170  -19.920750    5.590490
  S      1.809510  -19.615190    7.260290
  C      1.942580  -21.275610    7.724740
  C      2.257010  -22.050280    6.609340
  C      2.387740  -21.288260    5.406140
  N      2.684420  -21.887010    4.228020
  C      2.842540  -23.182330    4.256820
  O      3.129780  -23.850110    3.139810
  C      3.244400  -23.075160    1.949720
  C      3.551740  -24.016710    0.800160
  C      2.718280  -23.958220    5.467820
  C      2.918310  -25.449880    5.428530
  N      2.775200  -26.122790    6.700010
  N      2.433120  -23.394630    6.602730
  C      1.739030  -21.655100    9.089700
  C      1.826690  -22.904910    9.547280
  H     -4.800050    0.903800    1.007930
  H     -8.956890   -0.333820    2.461870
  H     -8.334030    0.310240    3.989830
  H    -10.809630   -1.480990    3.702540
  H    -10.836130    0.262360    4.007440
  H    -10.187780   -0.845260    5.226670
  H     -7.814870   -4.443670    3.763790
  H     -7.138930   -3.762360    5.238640
  H     -5.802090   -5.695940    3.501080
  H     -5.182100   -5.071130    4.868490
  H     -2.665960   -4.172460    2.207420
  H     -0.824970   -2.465340    0.427270
  H      2.302610   -6.356900    0.335440
  H     -0.483660   -7.805780    2.831490
  H      1.931400   -8.633450    1.132110
  H     -0.757850   -9.133080    4.662140
  H     -0.263650   -9.466730    6.971090
  H      1.302710  -10.217620    6.637050
  H     -1.349310  -11.396250    5.715280
  H     -0.501600  -11.891600    7.184530
  H     -0.002320  -13.354590    5.172440
  H      1.428210  -12.646600    5.924910
  H      1.529390  -14.437660    3.789620
  H      2.389690  -13.911640    0.891760
  H      3.289290  -18.806320    0.523350
  H      2.794860  -19.988150    2.975350
  H      1.994780  -17.870720    5.041710
  H      4.042190  -22.334850    2.083350
  H      2.303930  -22.536140    1.784440
  H      4.483840  -24.542920    0.986410
  H      3.640620  -23.451080   -0.122560
  H      2.756030  -24.748830    0.693610
  H      3.917910  -25.654990    5.029910
  H      2.200000  -25.876590    4.719760
  H      3.443060  -25.741600    7.362750
  H      1.850680  -25.940700    7.077790
  H      1.503330  -20.838510    9.760550
  H      2.063800  -23.719410    8.887130
  H      1.667250  -23.131210   10.586700

 Total Charge           Charge          ....    0
 Multiplicity           Mult            ....    1
 Number of Electrons    NEL             ....  498
 Basis Dimension        Dim             .... 1145

ORBITAL ENERGIES
----------------

  NO   OCC          E(Eh)            E(eV)
   0   2.0000     -88.969075     -2420.9716
   1   2.0000     -88.967623     -2420.9321
   2   2.0000     -88.957171     -2420.6477
   3   2.0000     -24.810836      -675.1372
   4   2.0000     -24.805398      -674.9892
   5   2.0000     -24.802358      -674.9065
   6   2.0000     -19.302035      -525.2351
   7   2.0000     -19.300952      -525.2056
   8   2.0000     -19.268933      -524.3343
   9   2.0000     -19.260855      -524.1145
  10   2.0000     -19.243578      -523.6444
  11   2.0000     -14.426702      -392.5705
  12   2.0000     -14.423339      -392.4790
  13   2.0000     -14.420785      -392.4095
  14   2.0000     -14.411940      -392.1688
  15   2.0000     -14.400224      -391.8500
  16   2.0000     -14.397218      -391.7682
  17   2.0000     -14.380098      -391.3024
  18   2.0000     -14.375396      -391.1744
  19   2.0000     -10.518901      -286.2338
  20   2.0000     -10.390997      -282.7534
  21   2.0000     -10.381203      -282.4869
  22   2.0000     -10.373947      -282.2894
  23   2.0000     -10.351190      -281.6702
  24   2.0000     -10.349440      -281.6226
  25   2.0000     -10.338716      -281.3308
  26   2.0000     -10.338611      -281.3279
  27   2.0000     -10.331278      -281.1284
  28   2.0000     -10.325685      -280.9762
  29   2.0000     -10.323012      -280.9034
  30   2.0000     -10.322223      -280.8820
  31   2.0000     -10.312706      -280.6230
  32   2.0000     -10.309775      -280.5432
  33   2.0000     -10.307833      -280.4904
  34   2.0000     -10.307693      -280.4866
  35   2.0000     -10.306890      -280.4647
  36   2.0000     -10.306018      -280.4410
  37   2.0000     -10.305604      -280.4297
  38   2.0000     -10.304922      -280.4112
  39   2.0000     -10.303096      -280.3615
  40   2.0000     -10.303084      -280.3612
  41   2.0000     -10.303060      -280.3605
  42   2.0000     -10.302996      -280.3588
  43   2.0000     -10.302467      -280.3444
  44   2.0000     -10.299534      -280.2646
  45   2.0000     -10.295436      -280.1531
  46   2.0000     -10.294875      -280.1378
  47   2.0000     -10.293909      -280.1115
  48   2.0000     -10.293721      -280.1064
  49   2.0000     -10.291810      -280.0544
  50   2.0000     -10.291569      -280.0478
  51   2.0000     -10.289678      -279.9964
  52   2.0000     -10.289619      -279.9948
  53   2.0000     -10.289386      -279.9884
  54   2.0000     -10.289095      -279.9805
  55   2.0000     -10.287221      -279.9295
  56   2.0000     -10.286369      -279.9063
  57   2.0000     -10.285278      -279.8767
  58   2.0000     -10.284882      -279.8659
  59   2.0000     -10.284566      -279.8573
  60   2.0000     -10.282680      -279.8060
  61   2.0000     -10.281308      -279.7686
  62   2.0000     -10.280333      -279.7421
  63   2.0000     -10.276870      -279.6479
  64   2.0000     -10.268916      -279.4314
  65   2.0000     -10.263572      -279.2860
  66   2.0000     -10.262569      -279.2587
  67   2.0000      -8.064352      -219.4422
  68   2.0000      -8.062741      -219.3983
  69   2.0000      -8.052950      -219.1319
  70   2.0000      -6.033169      -164.1709
  71   2.0000      -6.031659      -164.1298
  72   2.0000      -6.029392      -164.0681
  73   2.0000      -6.027586      -164.0189
  74   2.0000      -6.027161      -164.0074
  75   2.0000      -6.025677      -163.9670
  76   2.0000      -6.022089      -163.8694
  77   2.0000      -6.018190      -163.7633
  78   2.0000      -6.015063      -163.6782
  79   2.0000      -1.396820       -38.0094
  80   2.0000      -1.300647       -35.3924
  81   2.0000      -1.296544       -35.2808
  82   2.0000      -1.219925       -33.1959
  83   2.0000      -1.219771       -33.1917
  84   2.0000      -1.185245       -32.2522
  85   2.0000      -1.177667       -32.0459
  86   2.0000      -1.161943       -31.6181
  87   2.0000      -1.076089       -29.2819
  88   2.0000      -1.070842       -29.1391
  89   2.0000      -1.008608       -27.4456
  90   2.0000      -1.002097       -27.2684
  91   2.0000      -1.000073       -27.2134
  92   2.0000      -0.985976       -26.8298
  93   2.0000      -0.983056       -26.7503
  94   2.0000      -0.981824       -26.7168
  95   2.0000      -0.978169       -26.6173
  96   2.0000      -0.957721       -26.0609
  97   2.0000      -0.952785       -25.9266
  98   2.0000      -0.940001       -25.5787
  99   2.0000      -0.930546       -25.3214
 100   2.0000      -0.921595       -25.0779
 101   2.0000      -0.917675       -24.9712
 102   2.0000      -0.916451       -24.9379
 103   2.0000      -0.905734       -24.6463
 104   2.0000      -0.893594       -24.3159
 105   2.0000      -0.881988       -24.0001
 106   2.0000      -0.880683       -23.9646
 107   2.0000      -0.873111       -23.7586
 108   2.0000      -0.872610       -23.7449
 109   2.0000      -0.852062       -23.1858
 110   2.0000      -0.842199       -22.9174
 111   2.0000      -0.836358       -22.7585
 112   2.0000      -0.835648       -22.7391
 113   2.0000      -0.830562       -22.6007
 114   2.0000      -0.815781       -22.1985
 115   2.0000      -0.808440       -21.9988
 116   2.0000      -0.796782       -21.6815
 117   2.0000      -0.788408       -21.4537
 118   2.0000      -0.782605       -21.2958
 119   2.0000      -0.774736       -21.0816
 120   2.0000      -0.755649       -20.5622
 121   2.0000      -0.746925       -20.3249
 122   2.0000      -0.745974       -20.2990
 123   2.0000      -0.744023       -20.2459
 124   2.0000      -0.738203       -20.0875
 125   2.0000      -0.732068       -19.9206
 126   2.0000      -0.724486       -19.7143
 127   2.0000      -0.716807       -19.5053
 128   2.0000      -0.708975       -19.2922
 129   2.0000      -0.702084       -19.1047
 130   2.0000      -0.696819       -18.9614
 131   2.0000      -0.689951       -18.7745
 132   2.0000      -0.687974       -18.7207
 133   2.0000      -0.685053       -18.6413
 134   2.0000      -0.684031       -18.6134
 135   2.0000      -0.679553       -18.4916
 136   2.0000      -0.679183       -18.4815
 137   2.0000      -0.676073       -18.3969
 138   2.0000      -0.662324       -18.0227
 139   2.0000      -0.656013       -17.8510
 140   2.0000      -0.650754       -17.7079
 141   2.0000      -0.645008       -17.5516
 142   2.0000      -0.642602       -17.4861
 143   2.0000      -0.629119       -17.1192
 144   2.0000      -0.626154       -17.0385
 145   2.0000      -0.620379       -16.8814
 146   2.0000      -0.617720       -16.8090
 147   2.0000      -0.614465       -16.7205
 148   2.0000      -0.606004       -16.4902
 149   2.0000      -0.599936       -16.3251
 150   2.0000      -0.594393       -16.1742
 151   2.0000      -0.592042       -16.1103
 152   2.0000      -0.585500       -15.9323
 153   2.0000      -0.583486       -15.8775
 154   2.0000      -0.574348       -15.6288
 155   2.0000      -0.572772       -15.5859
 156   2.0000      -0.569201       -15.4888
 157   2.0000      -0.568719       -15.4756
 158   2.0000      -0.568197       -15.4614
 159   2.0000      -0.566011       -15.4019
 160   2.0000      -0.562055       -15.2943
 161   2.0000      -0.559179       -15.2160
 162   2.0000      -0.556625       -15.1465
 163   2.0000      -0.554552       -15.0901
 164   2.0000      -0.550124       -14.9696
 165   2.0000      -0.547848       -14.9077
 166   2.0000      -0.544455       -14.8154
 167   2.0000      -0.539749       -14.6873
 168   2.0000      -0.534892       -14.5552
 169   2.0000      -0.532612       -14.4931
 170   2.0000      -0.532362       -14.4863
 171   2.0000      -0.529869       -14.4185
 172   2.0000      -0.526187       -14.3183
 173   2.0000      -0.526040       -14.3143
 174   2.0000      -0.523556       -14.2467
 175   2.0000      -0.521921       -14.2022
 176   2.0000      -0.518144       -14.0994
 177   2.0000      -0.516342       -14.0504
 178   2.0000      -0.513575       -13.9751
 179   2.0000      -0.508409       -13.8345
 180   2.0000      -0.503264       -13.6945
 181   2.0000      -0.501972       -13.6594
 182   2.0000      -0.498871       -13.5750
 183   2.0000      -0.498347       -13.5607
 184   2.0000      -0.497265       -13.5313
 185   2.0000      -0.495613       -13.4863
 186   2.0000      -0.490897       -13.3580
 187   2.0000      -0.489235       -13.3128
 188   2.0000      -0.488827       -13.3017
 189   2.0000      -0.485782       -13.2188
 190   2.0000      -0.484296       -13.1784
 191   2.0000      -0.483547       -13.1580
 192   2.0000      -0.483415       -13.1544
 193   2.0000      -0.480434       -13.0733
 194   2.0000      -0.476947       -12.9784
 195   2.0000      -0.474745       -12.9185
 196   2.0000      -0.474556       -12.9133
 197   2.0000      -0.469618       -12.7790
 198   2.0000      -0.467454       -12.7201
 199   2.0000      -0.464602       -12.6425
 200   2.0000      -0.461406       -12.5555
 201   2.0000      -0.458909       -12.4875
 202   2.0000      -0.458157       -12.4671
 203   2.0000      -0.456527       -12.4227
 204   2.0000      -0.453483       -12.3399
 205   2.0000      -0.452600       -12.3159
 206   2.0000      -0.450842       -12.2680
 207   2.0000      -0.448119       -12.1940
 208   2.0000      -0.443555       -12.0698
 209   2.0000      -0.436611       -11.8808
 210   2.0000      -0.434230       -11.8160
 211   2.0000      -0.433625       -11.7995
 212   2.0000      -0.433189       -11.7877
 213   2.0000      -0.431902       -11.7527
 214   2.0000      -0.430553       -11.7159
 215   2.0000      -0.427609       -11.6358
 216   2.0000      -0.427089       -11.6217
 217   2.0000      -0.426446       -11.6042
 218   2.0000      -0.424093       -11.5402
 219   2.0000      -0.420310       -11.4372
 220   2.0000      -0.415690       -11.3115
 221   2.0000      -0.415084       -11.2950
 222   2.0000      -0.411704       -11.2030
 223   2.0000      -0.409424       -11.1410
 224   2.0000      -0.407456       -11.0874
 225   2.0000      -0.403730       -10.9860
 226   2.0000      -0.401912       -10.9366
 227   2.0000      -0.399573       -10.8729
 228   2.0000      -0.393695       -10.7130
 229   2.0000      -0.390287       -10.6203
 230   2.0000      -0.389196       -10.5906
 231   2.0000      -0.382265       -10.4020
 232   2.0000      -0.370203       -10.0737
 233   2.0000      -0.363345        -9.8871
 234   2.0000      -0.355294        -9.6681
 235   2.0000      -0.353308        -9.6140
 236   2.0000      -0.345149        -9.3920
 237   2.0000      -0.330782        -9.0010
 238   2.0000      -0.329424        -8.9641
 239   2.0000      -0.323656        -8.8071
 240   2.0000      -0.317147        -8.6300
 241   2.0000      -0.309072        -8.4103
 242   2.0000      -0.306377        -8.3369
 243   2.0000      -0.305155        -8.3037
 244   2.0000      -0.304058        -8.2738
 245   2.0000      -0.295708        -8.0466
 246   2.0000      -0.269516        -7.3339
 247   2.0000      -0.241171        -6.5626
 248   2.0000      -0.224592        -6.1115
 249   0.0000      -0.075236        -2.0473
 250   0.0000      -0.063396        -1.7251
 251   0.0000      -0.049703        -1.3525
 252   0.0000      -0.018332        -0.4988
 253   0.0000      -0.012732        -0.3465

MULLIKEN ATOMIC CHARGES
-----------------------
   0 C :   -0.158043
   1 S :    0.157708
   2 C :   -0.154914
   3 C :    0.032041
   4 C :    0.083161
   5 N :   -0.049012
   6 C :    0.113716
   7 O :   -0.289917
   8 C :    0.167499
   9 C :    0.012023
  10 C :   -0.197017
  11 C :    0.171245
  12 N :   -0.196077
  13 N :    0.001804
  14 C :    0.015646
  15 C :   -0.070452
  16 C :    0.171352
  17 O :   -0.188947
  18 C :    0.169733
  19 C :   -0.045737
  20 C :   -0.086550
  21 C :   -0.195777
  22 N :    0.142968
  23 C :    0.036828
  24 C :   -0.009760
  25 C :   -0.129380
  26 S :    0.128773
  27 C :   -0.093266
  28 C :   -0.079147
  29 C :   -0.005164
  30 C :    0.023551
  31 C :   -0.053955
  32 O :   -0.127547
  33 C :    0.512515
  34 F :   -0.153395
  35 F :   -0.151799
  36 F :   -0.153226
  37 C :    0.022241
  38 C :    0.059476
  39 C :    0.116234
  40 C :   -0.006154
  41 C :   -0.061134
  42 C :    0.162279
  43 O :   -0.203251
  44 C :    0.208911
  45 C :   -0.047760
  46 C :   -0.083172
  47 C :   -0.194056
  48 N :    0.142728
  49 C :   -0.035133
  50 C :    0.036749
  51 C :   -0.175453
  52 S :    0.162343
  53 C :   -0.175802
  54 C :    0.040587
  55 C :    0.057829
  56 N :   -0.056205
  57 C :    0.123623
  58 O :   -0.285614
  59 C :    0.147630
  60 C :    0.019898
  61 C :   -0.206764
  62 C :    0.171031
  63 N :   -0.198391
  64 N :    0.003579
  65 C :    0.016398
  66 C :   -0.001095
  67 H :    0.014218
  68 H :    0.021265
  69 H :    0.019082
  70 H :    0.025741
  71 H :    0.020554
  72 H :    0.026454
  73 H :    0.027117
  74 H :    0.026756
  75 H :    0.091208
  76 H :    0.091934
  77 H :    0.008057
  78 H :    0.015118
  79 H :   -0.005834
  80 H :    0.000836
  81 H :   -0.001068
  82 H :    0.030781
  83 H :    0.022276
  84 H :    0.018358
  85 H :    0.009429
  86 H :    0.007939
  87 H :    0.020065
  88 H :    0.021566
  89 H :   -0.000239
  90 H :    0.017180
  91 H :   -0.016159
  92 H :   -0.004739
  93 H :   -0.021039
  94 H :    0.028065
  95 H :    0.026897
  96 H :    0.027409
  97 H :    0.021952
  98 H :    0.028025
  99 H :    0.027585
 100 H :    0.027380
 101 H :    0.099074
 102 H :    0.099061
 103 H :   -0.021350
 104 H :    0.015796
 105 H :    0.020218
Sum of atomic charges:   -0.0000000

LOEWDIN ATOMIC CHARGES
----------------------
   0 C :   -0.196063
   1 S :    0.485930
   2 C :   -0.190904
   3 C :   -0.055390
   4 C :   -0.053065
   5 N :   -0.097759
   6 C :    0.048978
   7 O :   -0.081630
   8 C :    0.088339
   9 C :   -0.062890
  10 C :   -0.023338
  11 C :    0.007185
  12 N :   -0.101452
  13 N :   -0.051939
  14 C :   -0.003898
  15 C :   -0.057075
  16 C :    0.068235
  17 O :    0.025081
  18 C :    0.032964
  19 C :   -0.027933
  20 C :   -0.113093
  21 C :   -0.034444
  22 N :   -0.059310
  23 C :   -0.031201
  24 C :   -0.043273
  25 C :   -0.170646
  26 S :    0.447231
  27 C :   -0.176125
  28 C :   -0.045655
  29 C :   -0.070056
  30 C :   -0.050611
  31 C :    0.050086
  32 O :   -0.086208
  33 C :    0.138098
  34 F :   -0.048801
  35 F :   -0.045401
  36 F :   -0.049613
  37 C :   -0.013244
  38 C :   -0.022998
  39 C :   -0.025571
  40 C :   -0.020013
  41 C :   -0.051335
  42 C :    0.063214
  43 O :    0.015294
  44 C :    0.040436
  45 C :   -0.039612
  46 C :   -0.112320
  47 C :   -0.034789
  48 N :   -0.059399
  49 C :   -0.044756
  50 C :   -0.032770
  51 C :   -0.198120
  52 S :    0.480467
  53 C :   -0.178880
  54 C :   -0.058744
  55 C :   -0.038700
  56 N :   -0.091843
  57 C :    0.054298
  58 O :   -0.078052
  59 C :    0.086440
  60 C :   -0.061222
  61 C :   -0.026025
  62 C :    0.008330
  63 N :   -0.098084
  64 N :   -0.041431
  65 C :   -0.049808
  66 C :   -0.029950
  67 H :    0.027791
  68 H :    0.019180
  69 H :    0.019154
  70 H :    0.029237
  71 H :    0.033090
  72 H :    0.029452
  73 H :    0.035607
  74 H :    0.035217
  75 H :    0.052551
  76 H :    0.053310
  77 H :    0.040677
  78 H :    0.036799
  79 H :    0.037773
  80 H :    0.036572
  81 H :    0.031472
  82 H :    0.044481
  83 H :    0.032561
  84 H :    0.023730
  85 H :    0.025760
  86 H :    0.029341
  87 H :    0.033823
  88 H :    0.035995
  89 H :    0.034835
  90 H :    0.036995
  91 H :    0.036018
  92 H :    0.035937
  93 H :    0.027245
  94 H :    0.018345
  95 H :    0.018744
  96 H :    0.030513
  97 H :    0.033901
  98 H :    0.030629
  99 H :    0.035614
 100 H :    0.035767
 101 H :    0.054164
 102 H :    0.054014
 103 H :    0.026622
 104 H :    0.017991
 105 H :    0.023933

  Mayer bond orders larger than 0.100000
B(  0-C ,  1-S ) :   1.1783 B(  0-C ,  2-C ) :   0.1175 B(  0-C ,  4-C ) :   1.4297
B(  0-C , 67-H ) :   0.9770 B(  1-S ,  2-C ) :   1.1633 B(  2-C ,  3-C ) :   1.3438
B(  2-C , 14-C ) :   1.1724 B(  3-C ,  4-C ) :   1.2042 B(  3-C , 13-N ) :   1.3622
B(  4-C ,  5-N ) :   1.3217 B(  5-N ,  6-C ) :   1.6524 B(  6-C ,  7-O ) :   1.2668
B(  6-C , 10-C ) :   1.0778 B(  7-O ,  8-C ) :   0.9018 B(  8-C ,  9-C ) :   1.0927
B(  8-C , 68-H ) :   0.9563 B(  8-C , 69-H ) :   0.9579 B(  9-C , 70-H ) :   0.9691
B(  9-C , 71-H ) :   0.9618 B(  9-C , 72-H ) :   0.9685 B( 10-C , 11-C ) :   0.9578
B( 10-C , 13-N ) :   1.7976 B( 11-C , 12-N ) :   1.1607 B( 11-C , 73-H ) :   0.9318
B( 11-C , 74-H ) :   0.9333 B( 12-N , 75-H ) :   0.9765 B( 12-N , 76-H ) :   0.9770
B( 14-C , 15-C ) :   1.5876 B( 14-C , 77-H ) :   0.9859 B( 15-C , 16-C ) :   1.2062
B( 15-C , 78-H ) :   0.9540 B( 16-C , 17-O ) :   1.1812 B( 16-C , 20-C ) :   1.3949
B( 17-O , 18-C ) :   1.1075 B( 18-C , 19-C ) :   1.4784 B( 18-C , 23-C ) :   1.1326
B( 19-C , 20-C ) :   1.2405 B( 19-C , 79-H ) :   1.0139 B( 20-C , 21-C ) :   1.1059
B( 21-C , 22-N ) :   3.0332 B( 23-C , 24-C ) :   1.6891 B( 23-C , 80-H ) :   0.9425
B( 24-C , 25-C ) :   1.1048 B( 24-C , 81-H ) :   0.9492 B( 25-C , 26-S ) :   1.1294
B( 25-C , 29-C ) :   1.5023 B( 26-S , 27-C ) :   1.1077 B( 27-C , 28-C ) :   1.4953
B( 27-C , 40-C ) :   1.1419 B( 28-C , 29-C ) :   1.3318 B( 28-C , 39-C ) :   1.0533
B( 29-C , 30-C ) :   0.9532 B( 30-C , 31-C ) :   0.9492 B( 30-C , 37-C ) :   1.0539
B( 30-C , 82-H ) :   0.8671 B( 31-C , 32-O ) :   2.2231 B( 31-C , 33-C ) :   0.8688
B( 33-C , 34-F ) :   1.1248 B( 33-C , 35-F ) :   1.1520 B( 33-C , 36-F ) :   1.1687
B( 37-C , 38-C ) :   1.0764 B( 37-C , 83-H ) :   0.9328 B( 37-C , 84-H ) :   0.9379
B( 38-C , 39-C ) :   1.0973 B( 38-C , 85-H ) :   0.9403 B( 38-C , 86-H ) :   0.9305
B( 39-C , 87-H ) :   0.9113 B( 39-C , 88-H ) :   0.9076 B( 40-C , 41-C ) :   1.6126
B( 40-C , 89-H ) :   0.9806 B( 41-C , 42-C ) :   1.2102 B( 41-C , 90-H ) :   0.9507
B( 42-C , 43-O ) :   1.1682 B( 42-C , 46-C ) :   1.3989 B( 43-O , 44-C ) :   1.1160
B( 44-C , 45-C ) :   1.4343 B( 44-C , 49-C ) :   1.1356 B( 45-C , 46-C ) :   1.2263
B( 45-C , 91-H ) :   1.0243 B( 46-C , 47-C ) :   1.1056 B( 47-C , 48-N ) :   3.0328
B( 49-C , 50-C ) :   1.6505 B( 49-C , 92-H ) :   0.9529 B( 50-C , 51-C ) :   1.1473
B( 50-C , 93-H ) :   0.9588 B( 51-C , 52-S ) :   1.1333 B( 51-C , 53-C ) :   0.1226
B( 51-C , 55-C ) :   1.3594 B( 52-S , 53-C ) :   1.1690 B( 53-C , 54-C ) :   1.3701
B( 53-C , 65-C ) :   1.1199 B( 54-C , 55-C ) :   1.2331 B( 54-C , 64-N ) :   1.3338
B( 55-C , 56-N ) :   1.3512 B( 56-N , 57-C ) :   1.6305 B( 57-C , 58-O ) :   1.2701
B( 57-C , 61-C ) :   1.0824 B( 58-O , 59-C ) :   0.9016 B( 59-C , 60-C ) :   1.0929
B( 59-C , 94-H ) :   0.9572 B( 59-C , 95-H ) :   0.9570 B( 60-C , 96-H ) :   0.9683
B( 60-C , 97-H ) :   0.9609 B( 60-C , 98-H ) :   0.9683 B( 61-C , 62-C ) :   0.9552
B( 61-C , 64-N ) :   1.7961 B( 62-C , 63-N ) :   1.1585 B( 62-C , 99-H ) :   0.9337
B( 62-C ,100-H ) :   0.9329 B( 63-N ,101-H ) :   0.9792 B( 63-N ,102-H ) :   0.9791
B( 65-C , 66-C ) :   1.9294 B( 65-C ,103-H ) :   0.9452 B( 66-C ,104-H ) :   0.9318
B( 66-C ,105-H ) :   0.9443

-----------------------------------------------------------------------------
         ABSORPTION SPECTRUM VIA TRANSITION ELECTRIC DIPOLE MOMENTS
-----------------------------------------------------------------------------
State   Energy  Wavelength   fosc         T2         TX        TY        TZ
        (cm-1)    (nm)                  (au**2)     (au)      (au)      (au)
-----------------------------------------------------------------------------
   0   18093.0    552.7   2.037413511  37.07183   1.56063  -5.69575   1.48146
   1   21413.4    467.0   0.591361464   9.09166  -2.13791   1.48295   1.52377
   2   23623.5    423.3   0.089075553   1.24134   1.01163   0.42117   0.20139
   3   24814.1    403.0   0.040641149   0.53919   0.25912   0.65176   0.21739
   4   27958.6    357.7   0.038465240   0.45293  -0.43339   0.12644  -0.49911
   5   28707.9    348.3   0.010685967   0.12254  -0.19997   0.26310   0.11546
   6   29202.0    342.4   0.002639368   0.02976   0.01705   0.05068  -0.16400
   7   30775.9    324.9   0.155491159   1.66330   0.42577  -1.11534  -0.48790
   8   31429.7    318.2   0.046439086   0.48643  -0.53278   0.43665   0.10912
   9   31533.0    317.1   0.002162802   0.02258   0.10341   0.02491   0.10614
  10   32479.3    307.9   0.270246128   2.73923  -0.23355   0.78754  -1.43682
  11   33287.5    300.4   0.053545715   0.52956  -0.62954  -0.35969   0.06215
  12   33778.9    296.0   0.052173643   0.50849  -0.56005   0.37198   0.23762
  13   34241.5    292.0   0.181765470   1.74757   0.24403  -0.68887  -1.10158
  14   34939.9    286.2   0.005292818   0.04987  -0.16036  -0.08922   0.12725
  15   35256.0    283.6   0.394276896   3.68166   1.01376   1.16081  -1.14301
  16   36192.7    276.3   0.241718465   2.19869   1.25629  -0.33601  -0.71241
  17   36388.6    274.8   0.047347932   0.42836   0.39449   0.08327  -0.51557
  18   36766.8    272.0   0.197660158   1.76986   0.66041  -0.22995  -1.13174
  19   37126.8    269.3   0.340398059   3.01838  -0.92538  -0.55357   1.36221
  20   37835.9    264.3   0.046136750   0.40144   0.04256   0.59278   0.21964
  21   39202.4    255.1   0.122572603   1.02933  -0.05849  -0.12171   1.00553
  22   39493.7    253.2   0.327085797   2.72652   0.68365  -0.21993  -1.48687

FINAL SINGLE POINT ENERGY     -4156.762160263564

DIPOLE MOMENT
-------------
                                X             Y             Z
Electronic contribution:     42.47323      55.12846     -16.74423
Nuclear contribution   :    -44.76173     -56.64594      18.95912
                        -----------------------------------------
Total Dipole Moment    :     -2.28850      -1.51748       2.21489
                        -----------------------------------------
Magnitude (a.u.)       :      3.52785
Magnitude (Debye)      :      8.96708

Rotational constants in cm-1:     0.001745     0.000235     0.000223
Rotational constants in MHz :    52.319972     7.046004     6.695486

                             ****ORCA TERMINATED NORMALLY****
TOTAL RUN TIME: 0 days 0 hours 8 minutes 9 seconds 470 msec
