                         Program Version 4.2.0 -  RELEASE  -
|  1> # ORCA input file
|  2> # SCF done       -164.339406465346          0.000863667966
|  3> ! CAM-B3LYP def2-SVP def2/J RIJCOSX Grid4 TightSCF
|  4> %maxcore 5000
|  5> %tddft
|  6>     Mode sTDDFT
|  7>     Ethresh 5.0
|  8>     maxcore 5000
|  9> end
| 10>
| 11> %pal
| 12>   nprocs 6
| 13>   end
| 14> * xyz 0 1
| 15>    C       -1.26564         2.02568         5.36078
| 16>    O       -0.92390         3.10990         4.64450
| 17>    C       -1.26716         2.80620         3.37006
| 18>    N       -1.79411         1.61895         3.25412
| 19>    C       -1.80146         1.10556         4.50664
| 20>    C       -1.04673         3.76088         2.33448
| 21>    S       -0.41370         5.33487         2.72441
| 22>    C       -1.27196         3.66203         0.98253
| 23>    C       -1.74934         2.64393         0.02602
| 24>    O       -2.10883         1.51019         0.18206
| 25>    N       -1.68635         3.28564        -1.21491
| 26>    C       -2.09710         2.64247        -2.44519
| 27>    C       -3.58995         2.82670        -2.69350
| 28>    C       -1.23353         4.58971        -1.15962
| 29>    O       -1.11304         5.31509        -2.12102
| 30>    C       -0.95100         4.83851         0.26528
| 31>    C       -0.46498         5.86496         1.05390
| 32>    C       -0.03379         7.18044         0.74568
| 33>    C       -0.08388         7.71709        -0.50096
| 34>    C        0.35858         9.03521        -0.77482
| 35>    N        0.26856         9.62163        -2.01295
| 36>    C       -0.35082         9.05503        -3.18773
| 37>    C       -1.87291         9.14545        -3.11937
| 38>    C        0.79131        10.93097        -2.01778
| 39>    O        0.83012        11.64093        -2.99820
| 40>    C        1.23429        11.13439        -0.65284
| 41>    C        0.96173         9.95818         0.08195
| 42>    C        1.41211        10.17991         1.43684
| 43>    O        1.36935         9.48391         2.43270
| 44>    N        1.94816        11.48308         1.42592
| 45>    C        2.47543        12.04560         2.64609
| 46>    C        3.97168        11.77776         2.79879
| 47>    C        1.84277        12.06401         0.18472
| 48>    C        2.21603        13.36775        -0.24373
| 49>    C        3.04064        14.25069         0.35893
| 50>    C        3.34648        15.54419        -0.19424
| 51>    C        4.65205        16.07726        -0.17901
| 52>    C        5.80324        15.34802         0.38439
| 53>    O        5.81538        14.26022         0.88394
| 54>    S        7.27668        16.34839         0.21363
| 55>    C        6.39203        17.68651        -0.59576
| 56>    O        6.93730        18.69392        -0.93441
| 57>    C        4.96836        17.31740        -0.73123
| 58>    C        4.00726        18.15855        -1.33384
| 59>    C        2.70248        17.63148        -1.32930
| 60>    C        2.39118        16.38838        -0.78405
| 61>    C        0.91798        16.22436        -0.87083
| 62>    O        0.19930        15.39552        -0.40774
| 63>    O        0.43723        17.30077        -1.57539
| 64>    C        1.44308        18.17411        -1.90525
| 65>    O        1.23967        19.15091        -2.55557
| 66>    C        4.37776        19.42914        -1.90288
| 67>    C        3.63975        20.55320        -1.85580
| 68>    C        4.07462        21.78675        -2.42643
| 69>    O        5.24422        21.88795        -3.11451
| 70>    C        5.31395        23.16198        -3.49286
| 71>    N        4.30987        23.88918        -3.11777
| 72>    C        3.50175        23.04120        -2.43509
| 73>    H       -1.08411         2.03866         6.41510
| 74>    H       -2.18698         0.12792         4.70470
| 75>    H       -1.85655         1.58079        -2.35319
| 76>    H       -1.51621         3.08785        -3.25633
| 77>    H       -4.16080         2.39409        -1.87531
| 78>    H       -3.87263         2.33127        -3.61794
| 79>    H       -3.83100         3.88421        -2.77484
| 80>    H        0.34465         7.76699         1.57328
| 81>    H       -0.46849         7.12892        -1.32118
| 82>    H       -0.03494         8.01583        -3.30641
| 83>    H        0.01631         9.64031        -4.03523
| 84>    H       -2.25549         8.57814        -2.27424
| 85>    H       -2.30359         8.74241        -4.03127
| 86>    H       -2.18219        10.18278        -3.01485
| 87>    H        1.94347        11.54759         3.46312
| 88>    H        2.24720        13.11299         2.67734
| 89>    H        4.14704        10.70529         2.82943
| 90>    H        4.32830        12.21278         3.72846
| 91>    H        4.54584        12.19599         1.97556
| 92>    H        1.80567        13.60843        -1.21596
| 93>    H        3.59561        13.98352         1.24332
| 94>    H        5.36489        19.48120        -2.34138
| 95>    H        2.68569        20.59646        -1.35499
| 96>    H        6.15972        23.49488        -4.06081
| 97>    H        2.57835        23.36774        -2.00443
| 98> *
| 99>
|100>                          ****END OF INPUT****

CARTESIAN COORDINATES (ANGSTROEM)
---------------------------------
  C     -1.265640    2.025680    5.360780
  O     -0.923900    3.109900    4.644500
  C     -1.267160    2.806200    3.370060
  N     -1.794110    1.618950    3.254120
  C     -1.801460    1.105560    4.506640
  C     -1.046730    3.760880    2.334480
  S     -0.413700    5.334870    2.724410
  C     -1.271960    3.662030    0.982530
  C     -1.749340    2.643930    0.026020
  O     -2.108830    1.510190    0.182060
  N     -1.686350    3.285640   -1.214910
  C     -2.097100    2.642470   -2.445190
  C     -3.589950    2.826700   -2.693500
  C     -1.233530    4.589710   -1.159620
  O     -1.113040    5.315090   -2.121020
  C     -0.951000    4.838510    0.265280
  C     -0.464980    5.864960    1.053900
  C     -0.033790    7.180440    0.745680
  C     -0.083880    7.717090   -0.500960
  C      0.358580    9.035210   -0.774820
  N      0.268560    9.621630   -2.012950
  C     -0.350820    9.055030   -3.187730
  C     -1.872910    9.145450   -3.119370
  C      0.791310   10.930970   -2.017780
  O      0.830120   11.640930   -2.998200
  C      1.234290   11.134390   -0.652840
  C      0.961730    9.958180    0.081950
  C      1.412110   10.179910    1.436840
  O      1.369350    9.483910    2.432700
  N      1.948160   11.483080    1.425920
  C      2.475430   12.045600    2.646090
  C      3.971680   11.777760    2.798790
  C      1.842770   12.064010    0.184720
  C      2.216030   13.367750   -0.243730
  C      3.040640   14.250690    0.358930
  C      3.346480   15.544190   -0.194240
  C      4.652050   16.077260   -0.179010
  C      5.803240   15.348020    0.384390
  O      5.815380   14.260220    0.883940
  S      7.276680   16.348390    0.213630
  C      6.392030   17.686510   -0.595760
  O      6.937300   18.693920   -0.934410
  C      4.968360   17.317400   -0.731230
  C      4.007260   18.158550   -1.333840
  C      2.702480   17.631480   -1.329300
  C      2.391180   16.388380   -0.784050
  C      0.917980   16.224360   -0.870830
  O      0.199300   15.395520   -0.407740
  O      0.437230   17.300770   -1.575390
  C      1.443080   18.174110   -1.905250
  O      1.239670   19.150910   -2.555570
  C      4.377760   19.429140   -1.902880
  C      3.639750   20.553200   -1.855800
  C      4.074620   21.786750   -2.426430
  O      5.244220   21.887950   -3.114510
  C      5.313950   23.161980   -3.492860
  N      4.309870   23.889180   -3.117770
  C      3.501750   23.041200   -2.435090
  H     -1.084110    2.038660    6.415100
  H     -2.186980    0.127920    4.704700
  H     -1.856550    1.580790   -2.353190
  H     -1.516210    3.087850   -3.256330
  H     -4.160800    2.394090   -1.875310
  H     -3.872630    2.331270   -3.617940
  H     -3.831000    3.884210   -2.774840
  H      0.344650    7.766990    1.573280
  H     -0.468490    7.128920   -1.321180
  H     -0.034940    8.015830   -3.306410
  H      0.016310    9.640310   -4.035230
  H     -2.255490    8.578140   -2.274240
  H     -2.303590    8.742410   -4.031270
  H     -2.182190   10.182780   -3.014850
  H      1.943470   11.547590    3.463120
  H      2.247200   13.112990    2.677340
  H      4.147040   10.705290    2.829430
  H      4.328300   12.212780    3.728460
  H      4.545840   12.195990    1.975560
  H      1.805670   13.608430   -1.215960
  H      3.595610   13.983520    1.243320
  H      5.364890   19.481200   -2.341380
  H      2.685690   20.596460   -1.354990
  H      6.159720   23.494880   -4.060810
  H      2.578350   23.367740   -2.004430

 Total Charge           Charge          ....    0
 Multiplicity           Mult            ....    1
 Number of Electrons    NEL             ....  420
 Basis Dimension        Dim             ....  945

ORBITAL ENERGIES
----------------

  NO   OCC          E(Eh)            E(eV)
   0   2.0000     -88.982875     -2421.3471
   1   2.0000     -88.958636     -2420.6876
   2   2.0000     -19.313326      -525.5423
   3   2.0000     -19.308274      -525.4049
   4   2.0000     -19.296200      -525.0763
   5   2.0000     -19.252206      -523.8792
   6   2.0000     -19.251056      -523.8479
   7   2.0000     -19.243697      -523.6476
   8   2.0000     -19.242030      -523.6023
   9   2.0000     -19.217058      -522.9227
  10   2.0000     -19.207947      -522.6748
  11   2.0000     -19.191887      -522.2378
  12   2.0000     -19.190183      -522.1914
  13   2.0000     -14.454388      -393.3239
  14   2.0000     -14.452677      -393.2773
  15   2.0000     -14.452185      -393.2640
  16   2.0000     -14.411505      -392.1570
  17   2.0000     -14.408957      -392.0877
  18   2.0000     -10.439055      -284.0611
  19   2.0000     -10.437024      -284.0059
  20   2.0000     -10.413998      -283.3793
  21   2.0000     -10.413290      -283.3600
  22   2.0000     -10.399353      -282.9808
  23   2.0000     -10.392458      -282.7932
  24   2.0000     -10.374804      -282.3128
  25   2.0000     -10.373616      -282.2805
  26   2.0000     -10.372389      -282.2470
  27   2.0000     -10.362485      -281.9775
  28   2.0000     -10.342202      -281.4256
  29   2.0000     -10.341855      -281.4162
  30   2.0000     -10.339840      -281.3613
  31   2.0000     -10.339329      -281.3474
  32   2.0000     -10.338642      -281.3288
  33   2.0000     -10.338439      -281.3232
  34   2.0000     -10.335626      -281.2467
  35   2.0000     -10.334622      -281.2194
  36   2.0000     -10.334452      -281.2147
  37   2.0000     -10.334082      -281.2047
  38   2.0000     -10.333766      -281.1961
  39   2.0000     -10.333569      -281.1907
  40   2.0000     -10.305166      -280.4178
  41   2.0000     -10.304938      -280.4116
  42   2.0000     -10.304692      -280.4049
  43   2.0000     -10.304335      -280.3952
  44   2.0000     -10.302478      -280.3447
  45   2.0000     -10.302207      -280.3373
  46   2.0000     -10.301859      -280.3278
  47   2.0000     -10.301428      -280.3161
  48   2.0000     -10.300221      -280.2833
  49   2.0000     -10.299875      -280.2739
  50   2.0000     -10.296259      -280.1755
  51   2.0000     -10.290315      -280.0137
  52   2.0000     -10.289505      -279.9917
  53   2.0000     -10.263569      -279.2859
  54   2.0000     -10.260097      -279.1914
  55   2.0000     -10.258648      -279.1520
  56   2.0000     -10.256896      -279.1043
  57   2.0000     -10.255760      -279.0734
  58   2.0000      -8.077934      -219.8118
  59   2.0000      -8.057960      -219.2682
  60   2.0000      -6.047212      -164.5530
  61   2.0000      -6.042910      -164.4359
  62   2.0000      -6.040149      -164.3608
  63   2.0000      -6.026838      -163.9986
  64   2.0000      -6.023545      -163.9090
  65   2.0000      -6.018980      -163.7848
  66   2.0000      -1.246958       -33.9314
  67   2.0000      -1.242244       -33.8032
  68   2.0000      -1.239358       -33.7247
  69   2.0000      -1.176791       -32.0221
  70   2.0000      -1.172731       -31.9116
  71   2.0000      -1.171925       -31.8897
  72   2.0000      -1.159980       -31.5647
  73   2.0000      -1.135693       -30.9038
  74   2.0000      -1.133553       -30.8455
  75   2.0000      -1.133104       -30.8333
  76   2.0000      -1.126431       -30.6518
  77   2.0000      -1.063290       -28.9336
  78   2.0000      -1.053950       -28.6794
  79   2.0000      -1.050889       -28.5961
  80   2.0000      -1.022744       -27.8303
  81   2.0000      -1.021426       -27.7944
  82   2.0000      -1.017255       -27.6809
  83   2.0000      -1.006467       -27.3873
  84   2.0000      -0.959881       -26.1197
  85   2.0000      -0.945225       -25.7209
  86   2.0000      -0.928348       -25.2616
  87   2.0000      -0.920606       -25.0510
  88   2.0000      -0.914559       -24.8864
  89   2.0000      -0.906556       -24.6686
  90   2.0000      -0.890292       -24.2261
  91   2.0000      -0.885849       -24.1052
  92   2.0000      -0.879245       -23.9255
  93   2.0000      -0.866525       -23.5793
  94   2.0000      -0.840264       -22.8647
  95   2.0000      -0.837229       -22.7822
  96   2.0000      -0.829473       -22.5711
  97   2.0000      -0.816476       -22.2174
  98   2.0000      -0.805893       -21.9295
  99   2.0000      -0.804520       -21.8921
 100   2.0000      -0.787634       -21.4326
 101   2.0000      -0.774289       -21.0695
 102   2.0000      -0.763307       -20.7706
 103   2.0000      -0.756187       -20.5769
 104   2.0000      -0.753977       -20.5168
 105   2.0000      -0.747603       -20.3433
 106   2.0000      -0.739088       -20.1116
 107   2.0000      -0.726827       -19.7780
 108   2.0000      -0.724242       -19.7076
 109   2.0000      -0.718944       -19.5635
 110   2.0000      -0.712444       -19.3866
 111   2.0000      -0.703401       -19.1405
 112   2.0000      -0.700853       -19.0712
 113   2.0000      -0.687922       -18.7193
 114   2.0000      -0.682232       -18.5645
 115   2.0000      -0.666665       -18.1409
 116   2.0000      -0.662811       -18.0360
 117   2.0000      -0.657884       -17.9019
 118   2.0000      -0.648194       -17.6383
 119   2.0000      -0.644870       -17.5478
 120   2.0000      -0.639471       -17.4009
 121   2.0000      -0.634041       -17.2531
 122   2.0000      -0.633130       -17.2283
 123   2.0000      -0.625799       -17.0289
 124   2.0000      -0.619441       -16.8558
 125   2.0000      -0.608449       -16.5567
 126   2.0000      -0.606642       -16.5076
 127   2.0000      -0.590983       -16.0815
 128   2.0000      -0.588492       -16.0137
 129   2.0000      -0.585449       -15.9309
 130   2.0000      -0.581733       -15.8298
 131   2.0000      -0.577601       -15.7173
 132   2.0000      -0.576658       -15.6917
 133   2.0000      -0.574449       -15.6316
 134   2.0000      -0.572819       -15.5872
 135   2.0000      -0.568324       -15.4649
 136   2.0000      -0.564439       -15.3592
 137   2.0000      -0.563113       -15.3231
 138   2.0000      -0.561503       -15.2793
 139   2.0000      -0.558467       -15.1966
 140   2.0000      -0.557818       -15.1790
 141   2.0000      -0.551405       -15.0045
 142   2.0000      -0.546758       -14.8780
 143   2.0000      -0.545279       -14.8378
 144   2.0000      -0.543673       -14.7941
 145   2.0000      -0.537519       -14.6266
 146   2.0000      -0.530742       -14.4422
 147   2.0000      -0.527984       -14.3672
 148   2.0000      -0.526760       -14.3339
 149   2.0000      -0.524924       -14.2839
 150   2.0000      -0.520947       -14.1757
 151   2.0000      -0.519767       -14.1436
 152   2.0000      -0.517965       -14.0945
 153   2.0000      -0.513245       -13.9661
 154   2.0000      -0.512228       -13.9384
 155   2.0000      -0.510168       -13.8824
 156   2.0000      -0.508557       -13.8385
 157   2.0000      -0.504527       -13.7289
 158   2.0000      -0.503959       -13.7134
 159   2.0000      -0.501051       -13.6343
 160   2.0000      -0.498354       -13.5609
 161   2.0000      -0.496649       -13.5145
 162   2.0000      -0.490549       -13.3485
 163   2.0000      -0.489610       -13.3230
 164   2.0000      -0.485499       -13.2111
 165   2.0000      -0.485370       -13.2076
 166   2.0000      -0.483716       -13.1626
 167   2.0000      -0.477777       -13.0010
 168   2.0000      -0.471974       -12.8431
 169   2.0000      -0.469407       -12.7732
 170   2.0000      -0.465739       -12.6734
 171   2.0000      -0.464230       -12.6323
 172   2.0000      -0.463200       -12.6043
 173   2.0000      -0.462503       -12.5853
 174   2.0000      -0.454075       -12.3560
 175   2.0000      -0.450939       -12.2707
 176   2.0000      -0.450380       -12.2555
 177   2.0000      -0.447395       -12.1742
 178   2.0000      -0.439708       -11.9651
 179   2.0000      -0.436679       -11.8827
 180   2.0000      -0.433086       -11.7849
 181   2.0000      -0.425973       -11.5913
 182   2.0000      -0.421992       -11.4830
 183   2.0000      -0.421465       -11.4686
 184   2.0000      -0.419217       -11.4075
 185   2.0000      -0.415830       -11.3153
 186   2.0000      -0.413096       -11.2409
 187   2.0000      -0.407307       -11.0834
 188   2.0000      -0.399467       -10.8701
 189   2.0000      -0.393021       -10.6946
 190   2.0000      -0.387919       -10.5558
 191   2.0000      -0.381884       -10.3916
 192   2.0000      -0.374858       -10.2004
 193   2.0000      -0.373124       -10.1532
 194   2.0000      -0.370208       -10.0739
 195   2.0000      -0.366935        -9.9848
 196   2.0000      -0.362280        -9.8582
 197   2.0000      -0.356884        -9.7113
 198   2.0000      -0.356402        -9.6982
 199   2.0000      -0.353302        -9.6138
 200   2.0000      -0.348164        -9.4740
 201   2.0000      -0.341115        -9.2822
 202   2.0000      -0.338727        -9.2172
 203   2.0000      -0.333983        -9.0881
 204   2.0000      -0.333012        -9.0617
 205   2.0000      -0.330604        -8.9962
 206   2.0000      -0.314540        -8.5591
 207   2.0000      -0.289882        -7.8881
 208   2.0000      -0.286199        -7.7879
 209   2.0000      -0.239070        -6.5054
 210   0.0000      -0.101269        -2.7557
 211   0.0000      -0.099160        -2.6983
 212   0.0000      -0.069233        -1.8839
 213   0.0000      -0.046617        -1.2685
 214   0.0000      -0.040201        -1.0939

MULLIKEN ATOMIC CHARGES
-----------------------
   0 C :    0.136549
   1 O :   -0.181471
   2 C :    0.057989
   3 N :   -0.055128
   4 C :    0.022867
   5 C :   -0.163372
   6 S :    0.224427
   7 C :    0.027242
   8 C :    0.176129
   9 O :   -0.122298
  10 N :   -0.307416
  11 C :    0.135264
  12 C :   -0.006213
  13 C :    0.208653
  14 O :   -0.189721
  15 C :   -0.009080
  16 C :   -0.146209
  17 C :    0.072852
  18 C :   -0.027170
  19 C :    0.139321
  20 N :   -0.265047
  21 C :    0.098912
  22 C :    0.009227
  23 C :    0.152870
  24 O :   -0.185038
  25 C :   -0.028781
  26 C :   -0.064149
  27 C :    0.162387
  28 O :   -0.217013
  29 N :   -0.262658
  30 C :    0.104692
  31 C :    0.000933
  32 C :    0.077550
  33 C :    0.041945
  34 C :   -0.053574
  35 C :    0.034130
  36 C :    0.032992
  37 C :    0.037967
  38 O :   -0.127156
  39 S :    0.028202
  40 C :    0.031851
  41 O :   -0.121946
  42 C :    0.040050
  43 C :    0.039440
  44 C :   -0.078148
  45 C :   -0.075122
  46 C :    0.225979
  47 O :   -0.091268
  48 O :   -0.223038
  49 C :    0.227395
  50 O :   -0.099171
  51 C :   -0.051125
  52 C :    0.075896
  53 C :    0.103664
  54 O :   -0.179485
  55 C :    0.165987
  56 N :   -0.106770
  57 C :   -0.021578
  58 H :    0.025161
  59 H :    0.010683
  60 H :    0.033225
  61 H :    0.030127
  62 H :    0.030247
  63 H :    0.022357
  64 H :    0.022909
  65 H :   -0.001099
  66 H :   -0.004973
  67 H :    0.039534
  68 H :    0.038841
  69 H :    0.017099
  70 H :    0.023263
  71 H :    0.025700
  72 H :    0.035377
  73 H :    0.023606
  74 H :    0.025459
  75 H :    0.017649
  76 H :    0.033637
  77 H :    0.013022
  78 H :    0.020715
  79 H :    0.032778
  80 H :    0.007001
  81 H :    0.033904
  82 H :    0.009556
Sum of atomic charges:   -0.0000000

LOEWDIN ATOMIC CHARGES
----------------------
   0 C :    0.026380
   1 O :    0.013777
   2 C :    0.009092
   3 N :   -0.071820
   4 C :   -0.032767
   5 C :   -0.159173
   6 S :    0.494866
   7 C :   -0.073253
   8 C :    0.089177
   9 O :   -0.130790
  10 N :   -0.031445
  11 C :    0.043548
  12 C :   -0.059383
  13 C :    0.093441
  14 O :   -0.174245
  15 C :   -0.087983
  16 C :   -0.135958
  17 C :    0.001629
  18 C :   -0.025649
  19 C :    0.086816
  20 N :   -0.000353
  21 C :    0.037474
  22 C :   -0.058589
  23 C :    0.082684
  24 O :   -0.186831
  25 C :   -0.101518
  26 C :   -0.126556
  27 C :    0.080571
  28 O :   -0.205779
  29 N :    0.002748
  30 C :    0.035448
  31 C :   -0.064115
  32 C :    0.063378
  33 C :    0.015918
  34 C :   -0.031380
  35 C :    0.025252
  36 C :   -0.051728
  37 C :   -0.042586
  38 O :   -0.113277
  39 S :    0.311410
  40 C :   -0.042175
  41 O :   -0.104994
  42 C :   -0.053699
  43 C :    0.029614
  44 C :   -0.046040
  45 C :   -0.043058
  46 C :    0.104719
  47 O :   -0.089612
  48 O :   -0.052434
  49 C :    0.106031
  50 O :   -0.094623
  51 C :   -0.040110
  52 C :    0.013270
  53 C :    0.001293
  54 O :    0.023892
  55 C :    0.070331
  56 N :   -0.097137
  57 C :   -0.016494
  58 H :    0.028921
  59 H :    0.028612
  60 H :    0.033072
  61 H :    0.031349
  62 H :    0.029550
  63 H :    0.030336
  64 H :    0.026739
  65 H :    0.035901
  66 H :    0.032145
  67 H :    0.029771
  68 H :    0.036338
  69 H :    0.023407
  70 H :    0.031584
  71 H :    0.030016
  72 H :    0.035053
  73 H :    0.023699
  74 H :    0.031804
  75 H :    0.029533
  76 H :    0.024218
  77 H :    0.044519
  78 H :    0.034553
  79 H :    0.038068
  80 H :    0.039293
  81 H :    0.025976
  82 H :    0.028340

  Mayer bond orders larger than 0.100000
B(  0-C ,  1-O ) :   1.1287 B(  0-C ,  4-C ) :   1.5598 B(  0-C , 58-H ) :   0.9920
B(  1-O ,  2-C ) :   1.2336 B(  2-C ,  3-N ) :   1.7653 B(  2-C ,  5-C ) :   1.0366
B(  3-N ,  4-C ) :   1.3385 B(  4-C , 59-H ) :   0.9922 B(  5-C ,  6-S ) :   1.1492
B(  5-C ,  7-C ) :   1.5797 B(  6-S , 16-C ) :   1.1277 B(  7-C ,  8-C ) :   0.8678
B(  7-C , 15-C ) :   1.2700 B(  8-C ,  9-O ) :   2.2451 B(  8-C , 10-N ) :   1.0429
B( 10-N , 11-C ) :   0.9195 B( 10-N , 13-C ) :   1.1153 B( 11-C , 12-C ) :   1.1285
B( 11-C , 60-H ) :   0.9396 B( 11-C , 61-H ) :   0.9412 B( 12-C , 62-H ) :   0.9688
B( 12-C , 63-H ) :   0.9704 B( 12-C , 64-H ) :   0.9683 B( 13-C , 14-O ) :   2.0670
B( 13-C , 15-C ) :   0.8980 B( 14-O , 66-H ) :   0.1028 B( 15-C , 16-C ) :   1.4915
B( 16-C , 17-C ) :   1.1345 B( 17-C , 18-C ) :   1.6115 B( 17-C , 65-H ) :   0.9338
B( 18-C , 19-C ) :   1.1665 B( 18-C , 66-H ) :   0.9383 B( 19-C , 20-N ) :   1.1772
B( 19-C , 26-C ) :   1.3111 B( 20-N , 21-C ) :   0.9396 B( 20-N , 23-C ) :   1.0325
B( 21-C , 22-C ) :   1.1235 B( 21-C , 67-H ) :   0.9478 B( 21-C , 68-H ) :   0.9282
B( 22-C , 69-H ) :   0.9673 B( 22-C , 70-H ) :   0.9679 B( 22-C , 71-H ) :   0.9643
B( 23-C , 24-O ) :   2.1418 B( 23-C , 25-C ) :   0.9641 B( 25-C , 26-C ) :   1.2487
B( 25-C , 32-C ) :   1.3609 B( 26-C , 27-C ) :   0.9938 B( 27-C , 28-O ) :   2.0132
B( 27-C , 29-N ) :   1.0648 B( 28-O , 65-H ) :   0.1133 B( 29-N , 30-C ) :   0.9404
B( 29-N , 32-C ) :   1.1678 B( 30-C , 31-C ) :   1.1199 B( 30-C , 72-H ) :   0.9264
B( 30-C , 73-H ) :   0.9484 B( 31-C , 74-H ) :   0.9581 B( 31-C , 75-H ) :   0.9678
B( 31-C , 76-H ) :   0.9623 B( 32-C , 33-C ) :   1.2001 B( 33-C , 34-C ) :   1.6351
B( 33-C , 77-H ) :   0.9370 B( 34-C , 35-C ) :   1.0938 B( 34-C , 78-H ) :   0.9446
B( 35-C , 36-C ) :   1.3596 B( 35-C , 45-C ) :   1.3268 B( 36-C , 37-C ) :   0.8568
B( 36-C , 42-C ) :   1.3103 B( 37-C , 38-O ) :   2.1419 B( 37-C , 39-S ) :   1.0387
B( 38-O , 39-S ) :   0.1059 B( 39-S , 40-C ) :   1.0291 B( 39-S , 41-O ) :   0.1040
B( 40-C , 41-O ) :   2.1670 B( 40-C , 42-C ) :   0.8494 B( 42-C , 43-C ) :   1.3572
B( 43-C , 44-C ) :   1.3171 B( 43-C , 51-C ) :   1.1012 B( 44-C , 45-C ) :   1.3723
B( 44-C , 49-C ) :   0.8970 B( 45-C , 46-C ) :   0.8997 B( 46-C , 47-O ) :   2.2657
B( 46-C , 48-O ) :   1.0493 B( 48-O , 49-C ) :   1.0585 B( 49-C , 50-O ) :   2.2533
B( 51-C , 52-C ) :   1.7029 B( 51-C , 79-H ) :   0.9431 B( 52-C , 53-C ) :   1.1518
B( 52-C , 80-H ) :   0.9491 B( 53-C , 54-O ) :   1.1253 B( 53-C , 57-C ) :   1.4943
B( 54-O , 55-C ) :   1.1826 B( 55-C , 56-N ) :   1.7206 B( 55-C , 81-H ) :   0.9852
B( 56-N , 57-C ) :   1.3673 B( 57-C , 82-H ) :   0.9999

-----------------------------------------------------------------------------
         ABSORPTION SPECTRUM VIA TRANSITION ELECTRIC DIPOLE MOMENTS
-----------------------------------------------------------------------------
State   Energy  Wavelength   fosc         T2         TX        TY        TZ
        (cm-1)    (nm)                  (au**2)     (au)      (au)      (au)
-----------------------------------------------------------------------------
   0   14817.5    674.9   0.190283041   4.22768   0.32973   2.02818  -0.07369
   1   14848.4    673.5   0.801128956  17.76225  -1.82499  -3.79687  -0.12425
   2   21607.2    462.8   0.034917745   0.53201  -0.68277   0.16864  -0.19339
   3   22282.9    448.8   0.021382328   0.31591   0.12531   0.52276  -0.16409
   4   25855.3    386.8   0.003903538   0.04970   0.14990   0.15315  -0.06147
   5   26373.2    379.2   0.514575971   6.42335  -0.54837  -2.16875   1.19128
   6   27024.3    370.0   0.534131293   6.50682  -0.20281  -2.37946   0.89658
   7   27656.1    361.6   0.017541103   0.20881  -0.36204   0.10443  -0.25851
   8   27853.2    359.0   0.007919442   0.09360   0.05020  -0.25454  -0.16215
   9   28008.3    357.0   0.186090907   2.18733   0.01272   0.59714  -1.35300
  10   28584.0    349.8   0.008280183   0.09537  -0.00668   0.24398  -0.18920
  11   31306.7    319.4   0.029496045   0.31017  -0.32533   0.25945  -0.37016
  12   31387.5    318.6   0.001157800   0.01214  -0.00069  -0.08444   0.07080
  13   31584.9    316.6   0.001606757   0.01675  -0.01812  -0.10975   0.06614
  14   31831.4    314.2   0.176220446   1.82254   0.27234   0.85059  -1.01235
  15   32296.9    309.6   0.043040471   0.43872  -0.19250   0.38173  -0.50591
  16   32567.8    307.1   0.010957837   0.11077  -0.08090   0.24556  -0.20957
  17   32950.4    303.5   0.045860378   0.45820  -0.05747   0.66309  -0.12330
  18   33678.5    296.9   0.041491023   0.40558   0.49700   0.38931   0.08374
  19   34399.9    290.7   0.138669507   1.32709   0.67216   0.93037  -0.09856
  20   34961.6    286.0   0.108083802   1.01776   0.12048   0.91847  -0.39957
  21   35107.8    284.8   0.019139230   0.17947   0.03449  -0.41657  -0.06895
  22   35271.1    283.5   0.002596478   0.02423  -0.03492   0.10049  -0.11365
  23   35644.5    280.5   0.006752500   0.06237  -0.00041  -0.24881  -0.02146
  24   35771.7    279.6   0.187025334   1.72122   0.09048  -0.13345   1.30201
  25   36362.0    275.0   0.004623155   0.04186   0.12616  -0.03771  -0.15658
  26   36818.1    271.6   0.061963846   0.55405  -0.12123  -0.00706  -0.73438
  27   37205.6    268.8   0.127728079   1.13019   0.25560   0.89510  -0.51348
  28   37669.6    265.5   0.049103258   0.42914   0.02211  -0.31754   0.57255
  29   38085.0    262.6   0.027263510   0.23567  -0.18427   0.06925  -0.44376
  30   38708.0    258.3   0.003195929   0.02718   0.04756  -0.09235   0.12803
  31   39765.2    251.5   0.004060811   0.03362   0.17454   0.00007   0.05616
  32   39909.1    250.6   0.000792429   0.00654  -0.07141   0.02400  -0.02936
  33   40099.2    249.4   0.034879202   0.28636  -0.44643  -0.29468   0.01467
  34   40320.5    248.0   0.012183442   0.09948   0.28715  -0.06163  -0.11498

FINAL SINGLE POINT ENERGY     -3433.549184061026

DIPOLE MOMENT
-------------
                                X             Y             Z
Electronic contribution:     23.11426      34.68095      10.22025
Nuclear contribution   :    -22.77923     -35.39912      -9.01033
                        -----------------------------------------
Total Dipole Moment    :      0.33503      -0.71816       1.20992
                        -----------------------------------------
Magnitude (a.u.)       :      1.44634
Magnitude (Debye)      :      3.67631

Rotational constants in cm-1:     0.003582     0.000405     0.000382
Rotational constants in MHz :   107.372534    12.149704    11.437409

                             ****ORCA TERMINATED NORMALLY****
TOTAL RUN TIME: 0 days 0 hours 6 minutes 42 seconds 921 msec
