                         Program Version 4.2.0 -  RELEASE  -
|  1> # ORCA input file
|  2> # SCF done       -165.429207643237          0.000519558312
|  3> ! CAM-B3LYP def2-SVP def2/J RIJCOSX Grid4 TightSCF
|  4> %maxcore 5000
|  5> %tddft
|  6>     Mode sTDDFT
|  7>     Ethresh 5.0
|  8>     maxcore 5000
|  9> end
| 10>
| 11> %pal
| 12>   nprocs 6
| 13>   end
| 14> * xyz 0 1
| 15>    C        4.13270        -2.09526         3.95539
| 16>    O        3.72854        -3.04779         4.58977
| 17>    C        5.00936        -1.02765         4.49040
| 18>    C        5.27515        -0.08415         3.48551
| 19>    C        6.08074         1.00636         3.76833
| 20>    C        6.60576         1.13219         5.04998
| 21>    C        6.33566         0.18777         6.04072
| 22>    C        5.52790        -0.90727         5.76187
| 23>   Br        7.06293         0.38265         7.77519
| 24>   Br        7.70572         2.62291         5.43393
| 25>    C        4.58548        -0.49711         2.26312
| 26>    C        4.59411         0.21788         1.09030
| 27>    C        5.28489         1.43524         0.91170
| 28>    N        5.81923         2.42814         0.69599
| 29>    C        3.92508        -0.12255        -0.10294
| 30>    N        3.41412        -0.31914        -1.11393
| 31>    C        3.89901        -1.74288         2.54349
| 32>    C        3.19379        -2.44820         1.59454
| 33>    C        2.43338        -3.62135         1.65990
| 34>    N        1.85775        -4.09067         0.48198
| 35>    C        1.15050        -5.20631         0.75957
| 36>    C        0.35002        -6.19832         0.20499
| 37>    C       -0.01041        -7.04165         1.26462
| 38>    N        0.55291        -6.58124         2.43381
| 39>    C        1.27330        -5.46157         2.15751
| 40>    C        2.07071        -4.48143         2.71805
| 41>    C       -0.82427        -8.20574         1.26172
| 42>    C       -1.36498        -8.77101         0.15816
| 43>    C       -2.17809        -9.93437         0.22070
| 44>    S       -2.79728       -10.71834        -1.23291
| 45>    C       -3.54889       -11.87092        -0.12956
| 46>    N       -3.29786       -11.59582         1.11965
| 47>    N       -2.55159       -10.54504         1.30935
| 48>    C       -4.32652       -12.96162        -0.60025
| 49>    C       -4.95875       -13.81671         0.23721
| 50>    C       -5.73728       -14.92967        -0.17313
| 51>    N       -6.40941       -15.70091         0.75094
| 52>    C       -7.06766       -16.69115         0.09455
| 53>    C       -7.90243       -17.78446         0.26095
| 54>    C       -8.12334       -18.30385        -1.02893
| 55>    N       -7.43158       -17.53849        -1.95252
| 56>    C       -6.79108       -16.54242        -1.29493
| 57>    C       -5.96378       -15.43856        -1.45953
| 58>    C       -8.87250       -19.42569        -1.42370
| 59>    C       -9.67763       -20.15865        -0.59478
| 60>    C      -10.35264       -21.29982        -1.04251
| 61>    C      -11.20239       -22.13865        -0.36369
| 62>    C      -12.02632       -23.07397        -1.16344
| 63>    O      -11.90143       -23.33466        -2.33959
| 64>    C      -13.06001       -23.58105        -0.23453
| 65>    C      -12.82509       -23.05592         1.04830
| 66>    C      -11.59508       -22.25490         1.01879
| 67>    C      -10.90699       -21.87484         2.14460
| 68>    C       -9.61601       -21.31214         2.18735
| 69>    N       -8.56150       -20.87865         2.32902
| 70>    C      -11.37677       -22.08159         3.45925
| 71>    N      -11.70526       -22.20263         4.55264
| 72>    C      -13.70408       -23.34848         2.07676
| 73>    C      -14.79393       -24.17040         1.80914
| 74>    C      -15.00664       -24.70201         0.53732
| 75>    C      -14.13321       -24.40401        -0.50103
| 76>   Br      -16.49175       -25.82452         0.20418
| 77>   Br      -16.00386       -24.55349         3.21200
| 78>    H        6.31511         1.75689         3.03142
| 79>    H        5.31044        -1.64573         6.51785
| 80>    H        3.21966        -2.02575         0.59720
| 81>    H        1.95820        -3.64412        -0.41433
| 82>    H        0.05097        -6.30892        -0.81690
| 83>    H        0.44451        -7.02046         3.33212
| 84>    H        2.37727        -4.36211         3.73614
| 85>    H       -1.02040        -8.67435         2.21671
| 86>    H       -1.18961        -8.35817        -0.82334
| 87>    H       -4.39540       -13.07695        -1.67094
| 88>    H       -4.86897       -13.64012         1.30060
| 89>    H       -6.39744       -15.54093         1.74388
| 90>    H       -8.28151       -18.19926         1.17249
| 91>    H       -7.43639       -17.70054        -2.94500
| 92>    H       -5.56227       -15.04478        -2.37047
| 93>    H       -8.78860       -19.72773        -2.46124
| 94>    H       -9.80442       -19.83079         0.42266
| 95>    H      -10.25831       -21.54010        -2.09777
| 96>    H      -13.57875       -22.95382         3.07181
| 97>    H      -14.28967       -24.80305        -1.49115
| 98> *
| 99>
|100>                          ****END OF INPUT****

CARTESIAN COORDINATES (ANGSTROEM)
---------------------------------
  C      4.132700   -2.095260    3.955390
  O      3.728540   -3.047790    4.589770
  C      5.009360   -1.027650    4.490400
  C      5.275150   -0.084150    3.485510
  C      6.080740    1.006360    3.768330
  C      6.605760    1.132190    5.049980
  C      6.335660    0.187770    6.040720
  C      5.527900   -0.907270    5.761870
  Br     7.062930    0.382650    7.775190
  Br     7.705720    2.622910    5.433930
  C      4.585480   -0.497110    2.263120
  C      4.594110    0.217880    1.090300
  C      5.284890    1.435240    0.911700
  N      5.819230    2.428140    0.695990
  C      3.925080   -0.122550   -0.102940
  N      3.414120   -0.319140   -1.113930
  C      3.899010   -1.742880    2.543490
  C      3.193790   -2.448200    1.594540
  C      2.433380   -3.621350    1.659900
  N      1.857750   -4.090670    0.481980
  C      1.150500   -5.206310    0.759570
  C      0.350020   -6.198320    0.204990
  C     -0.010410   -7.041650    1.264620
  N      0.552910   -6.581240    2.433810
  C      1.273300   -5.461570    2.157510
  C      2.070710   -4.481430    2.718050
  C     -0.824270   -8.205740    1.261720
  C     -1.364980   -8.771010    0.158160
  C     -2.178090   -9.934370    0.220700
  S     -2.797280  -10.718340   -1.232910
  C     -3.548890  -11.870920   -0.129560
  N     -3.297860  -11.595820    1.119650
  N     -2.551590  -10.545040    1.309350
  C     -4.326520  -12.961620   -0.600250
  C     -4.958750  -13.816710    0.237210
  C     -5.737280  -14.929670   -0.173130
  N     -6.409410  -15.700910    0.750940
  C     -7.067660  -16.691150    0.094550
  C     -7.902430  -17.784460    0.260950
  C     -8.123340  -18.303850   -1.028930
  N     -7.431580  -17.538490   -1.952520
  C     -6.791080  -16.542420   -1.294930
  C     -5.963780  -15.438560   -1.459530
  C     -8.872500  -19.425690   -1.423700
  C     -9.677630  -20.158650   -0.594780
  C    -10.352640  -21.299820   -1.042510
  C    -11.202390  -22.138650   -0.363690
  C    -12.026320  -23.073970   -1.163440
  O    -11.901430  -23.334660   -2.339590
  C    -13.060010  -23.581050   -0.234530
  C    -12.825090  -23.055920    1.048300
  C    -11.595080  -22.254900    1.018790
  C    -10.906990  -21.874840    2.144600
  C     -9.616010  -21.312140    2.187350
  N     -8.561500  -20.878650    2.329020
  C    -11.376770  -22.081590    3.459250
  N    -11.705260  -22.202630    4.552640
  C    -13.704080  -23.348480    2.076760
  C    -14.793930  -24.170400    1.809140
  C    -15.006640  -24.702010    0.537320
  C    -14.133210  -24.404010   -0.501030
  Br   -16.491750  -25.824520    0.204180
  Br   -16.003860  -24.553490    3.212000
  H      6.315110    1.756890    3.031420
  H      5.310440   -1.645730    6.517850
  H      3.219660   -2.025750    0.597200
  H      1.958200   -3.644120   -0.414330
  H      0.050970   -6.308920   -0.816900
  H      0.444510   -7.020460    3.332120
  H      2.377270   -4.362110    3.736140
  H     -1.020400   -8.674350    2.216710
  H     -1.189610   -8.358170   -0.823340
  H     -4.395400  -13.076950   -1.670940
  H     -4.868970  -13.640120    1.300600
  H     -6.397440  -15.540930    1.743880
  H     -8.281510  -18.199260    1.172490
  H     -7.436390  -17.700540   -2.945000
  H     -5.562270  -15.044780   -2.370470
  H     -8.788600  -19.727730   -2.461240
  H     -9.804420  -19.830790    0.422660
  H    -10.258310  -21.540100   -2.097770
  H    -13.578750  -22.953820    3.071810
  H    -14.289670  -24.803050   -1.491150

 Total Charge           Charge          ....    0
 Multiplicity           Mult            ....    1
 Number of Electrons    NEL             ....  538
 Basis Dimension        Dim             .... 1058

ORBITAL ENERGIES
----------------

  NO   OCC          E(Eh)            E(eV)
   0   2.0000    -482.872496    -13139.6286
   1   2.0000    -482.871743    -13139.6081
   2   2.0000    -482.870122    -13139.5640
   3   2.0000    -482.870061    -13139.5624
   4   2.0000     -88.976553     -2421.1751
   5   2.0000     -62.550113     -1702.0751
   6   2.0000     -62.549349     -1702.0543
   7   2.0000     -62.547753     -1702.0109
   8   2.0000     -62.547697     -1702.0094
   9   2.0000     -56.384052     -1534.2881
  10   2.0000     -56.383290     -1534.2673
  11   2.0000     -56.381708     -1534.2243
  12   2.0000     -56.381651     -1534.2227
  13   2.0000     -56.381418     -1534.2164
  14   2.0000     -56.381320     -1534.2137
  15   2.0000     -56.380649     -1534.1955
  16   2.0000     -56.380562     -1534.1931
  17   2.0000     -56.379046     -1534.1518
  18   2.0000     -56.378989     -1534.1503
  19   2.0000     -56.378954     -1534.1493
  20   2.0000     -56.378900     -1534.1479
  21   2.0000     -19.217061      -522.9228
  22   2.0000     -19.211324      -522.7667
  23   2.0000     -14.478176      -393.9712
  24   2.0000     -14.477895      -393.9636
  25   2.0000     -14.477020      -393.9398
  26   2.0000     -14.474650      -393.8753
  27   2.0000     -14.441666      -392.9777
  28   2.0000     -14.440373      -392.9425
  29   2.0000     -14.417966      -392.3328
  30   2.0000     -14.415219      -392.2581
  31   2.0000     -14.411954      -392.1692
  32   2.0000     -14.410572      -392.1316
  33   2.0000     -10.368157      -282.1319
  34   2.0000     -10.361865      -281.9607
  35   2.0000     -10.347987      -281.5830
  36   2.0000     -10.347323      -281.5650
  37   2.0000     -10.347277      -281.5637
  38   2.0000     -10.346919      -281.5540
  39   2.0000     -10.346807      -281.5509
  40   2.0000     -10.346480      -281.5420
  41   2.0000     -10.341125      -281.3963
  42   2.0000     -10.340513      -281.3797
  43   2.0000     -10.340338      -281.3749
  44   2.0000     -10.338560      -281.3265
  45   2.0000     -10.334980      -281.2291
  46   2.0000     -10.329806      -281.0883
  47   2.0000     -10.323968      -280.9294
  48   2.0000     -10.323899      -280.9276
  49   2.0000     -10.321943      -280.8743
  50   2.0000     -10.321763      -280.8694
  51   2.0000     -10.319005      -280.7944
  52   2.0000     -10.318828      -280.7896
  53   2.0000     -10.318368      -280.7771
  54   2.0000     -10.315127      -280.6889
  55   2.0000     -10.314655      -280.6760
  56   2.0000     -10.314301      -280.6664
  57   2.0000     -10.313815      -280.6532
  58   2.0000     -10.313096      -280.6336
  59   2.0000     -10.310956      -280.5754
  60   2.0000     -10.310545      -280.5642
  61   2.0000     -10.310457      -280.5618
  62   2.0000     -10.305325      -280.4221
  63   2.0000     -10.305174      -280.4180
  64   2.0000     -10.304968      -280.4124
  65   2.0000     -10.304907      -280.4108
  66   2.0000     -10.304418      -280.3975
  67   2.0000     -10.304255      -280.3930
  68   2.0000     -10.303566      -280.3743
  69   2.0000     -10.299698      -280.2690
  70   2.0000     -10.296093      -280.1709
  71   2.0000     -10.295751      -280.1616
  72   2.0000     -10.293283      -280.0945
  73   2.0000     -10.287750      -279.9439
  74   2.0000     -10.287136      -279.9272
  75   2.0000     -10.285678      -279.8875
  76   2.0000     -10.284212      -279.8476
  77   2.0000     -10.283989      -279.8416
  78   2.0000     -10.283817      -279.8369
  79   2.0000      -8.779430      -238.9004
  80   2.0000      -8.778656      -238.8794
  81   2.0000      -8.777076      -238.8364
  82   2.0000      -8.777021      -238.8349
  83   2.0000      -8.073049      -219.6788
  84   2.0000      -6.615516      -180.0173
  85   2.0000      -6.614745      -179.9964
  86   2.0000      -6.613222      -179.9549
  87   2.0000      -6.613157      -179.9531
  88   2.0000      -6.601567      -179.6378
  89   2.0000      -6.600814      -179.6173
  90   2.0000      -6.600779      -179.6163
  91   2.0000      -6.600046      -179.5964
  92   2.0000      -6.599163      -179.5724
  93   2.0000      -6.599117      -179.5711
  94   2.0000      -6.598438      -179.5526
  95   2.0000      -6.598390      -179.5513
  96   2.0000      -6.041717      -164.4035
  97   2.0000      -6.038466      -164.3150
  98   2.0000      -6.035313      -164.2292
  99   2.0000      -2.731420       -74.3257
 100   2.0000      -2.730646       -74.3046
 101   2.0000      -2.729103       -74.2627
 102   2.0000      -2.729042       -74.2610
 103   2.0000      -2.727683       -74.2240
 104   2.0000      -2.727088       -74.2078
 105   2.0000      -2.726920       -74.2033
 106   2.0000      -2.726308       -74.1866
 107   2.0000      -2.725362       -74.1609
 108   2.0000      -2.725308       -74.1594
 109   2.0000      -2.724755       -74.1444
 110   2.0000      -2.724691       -74.1426
 111   2.0000      -2.716003       -73.9062
 112   2.0000      -2.715987       -73.9058
 113   2.0000      -2.715223       -73.8850
 114   2.0000      -2.715200       -73.8844
 115   2.0000      -2.713599       -73.8408
 116   2.0000      -2.713579       -73.8402
 117   2.0000      -2.713552       -73.8395
 118   2.0000      -2.713531       -73.8389
 119   2.0000      -1.144688       -31.1485
 120   2.0000      -1.131905       -30.8007
 121   2.0000      -1.126291       -30.6479
 122   2.0000      -1.110707       -30.2239
 123   2.0000      -1.110273       -30.2121
 124   2.0000      -1.073655       -29.2156
 125   2.0000      -1.073550       -29.2128
 126   2.0000      -1.019892       -27.7527
 127   2.0000      -1.018729       -27.7210
 128   2.0000      -1.005206       -27.3530
 129   2.0000      -1.003936       -27.3185
 130   2.0000      -0.992517       -27.0078
 131   2.0000      -0.992063       -26.9954
 132   2.0000      -0.971409       -26.4334
 133   2.0000      -0.970365       -26.4050
 134   2.0000      -0.955421       -25.9983
 135   2.0000      -0.934359       -25.4252
 136   2.0000      -0.929971       -25.3058
 137   2.0000      -0.917015       -24.9532
 138   2.0000      -0.913465       -24.8566
 139   2.0000      -0.910265       -24.7696
 140   2.0000      -0.906322       -24.6623
 141   2.0000      -0.905495       -24.6398
 142   2.0000      -0.903109       -24.5748
 143   2.0000      -0.899116       -24.4662
 144   2.0000      -0.890587       -24.2341
 145   2.0000      -0.883915       -24.0526
 146   2.0000      -0.882341       -24.0097
 147   2.0000      -0.875998       -23.8371
 148   2.0000      -0.868510       -23.6333
 149   2.0000      -0.854949       -23.2643
 150   2.0000      -0.847114       -23.0512
 151   2.0000      -0.846876       -23.0447
 152   2.0000      -0.843199       -22.9446
 153   2.0000      -0.811316       -22.0770
 154   2.0000      -0.803163       -21.8552
 155   2.0000      -0.784564       -21.3491
 156   2.0000      -0.779309       -21.2061
 157   2.0000      -0.764382       -20.7999
 158   2.0000      -0.762913       -20.7599
 159   2.0000      -0.744677       -20.2637
 160   2.0000      -0.742241       -20.1974
 161   2.0000      -0.715448       -19.4683
 162   2.0000      -0.714011       -19.4292
 163   2.0000      -0.712417       -19.3858
 164   2.0000      -0.709583       -19.3087
 165   2.0000      -0.706636       -19.2285
 166   2.0000      -0.701517       -19.0893
 167   2.0000      -0.696570       -18.9546
 168   2.0000      -0.691330       -18.8120
 169   2.0000      -0.688655       -18.7393
 170   2.0000      -0.681776       -18.5521
 171   2.0000      -0.676065       -18.3967
 172   2.0000      -0.669196       -18.2098
 173   2.0000      -0.660850       -17.9826
 174   2.0000      -0.651530       -17.7290
 175   2.0000      -0.646785       -17.5999
 176   2.0000      -0.641624       -17.4595
 177   2.0000      -0.622930       -16.9508
 178   2.0000      -0.619655       -16.8617
 179   2.0000      -0.612795       -16.6750
 180   2.0000      -0.612240       -16.6599
 181   2.0000      -0.606359       -16.4999
 182   2.0000      -0.599966       -16.3259
 183   2.0000      -0.589283       -16.0352
 184   2.0000      -0.585370       -15.9287
 185   2.0000      -0.580587       -15.7986
 186   2.0000      -0.573546       -15.6070
 187   2.0000      -0.568468       -15.4688
 188   2.0000      -0.565559       -15.3896
 189   2.0000      -0.563229       -15.3262
 190   2.0000      -0.555764       -15.1231
 191   2.0000      -0.554548       -15.0900
 192   2.0000      -0.549036       -14.9400
 193   2.0000      -0.545836       -14.8530
 194   2.0000      -0.544910       -14.8278
 195   2.0000      -0.543761       -14.7965
 196   2.0000      -0.542657       -14.7664
 197   2.0000      -0.540588       -14.7101
 198   2.0000      -0.538953       -14.6656
 199   2.0000      -0.537855       -14.6358
 200   2.0000      -0.536692       -14.6041
 201   2.0000      -0.535705       -14.5773
 202   2.0000      -0.531726       -14.4690
 203   2.0000      -0.530255       -14.4290
 204   2.0000      -0.522228       -14.2105
 205   2.0000      -0.516012       -14.0414
 206   2.0000      -0.508642       -13.8409
 207   2.0000      -0.503732       -13.7072
 208   2.0000      -0.499622       -13.5954
 209   2.0000      -0.497826       -13.5465
 210   2.0000      -0.496908       -13.5216
 211   2.0000      -0.495829       -13.4922
 212   2.0000      -0.494078       -13.4446
 213   2.0000      -0.493257       -13.4222
 214   2.0000      -0.492760       -13.4087
 215   2.0000      -0.488877       -13.3030
 216   2.0000      -0.485140       -13.2013
 217   2.0000      -0.483461       -13.1557
 218   2.0000      -0.482092       -13.1184
 219   2.0000      -0.472722       -12.8634
 220   2.0000      -0.471377       -12.8268
 221   2.0000      -0.465451       -12.6656
 222   2.0000      -0.460560       -12.5325
 223   2.0000      -0.459360       -12.4998
 224   2.0000      -0.457562       -12.4509
 225   2.0000      -0.456823       -12.4308
 226   2.0000      -0.453083       -12.3290
 227   2.0000      -0.452373       -12.3097
 228   2.0000      -0.449984       -12.2447
 229   2.0000      -0.448164       -12.1952
 230   2.0000      -0.441066       -12.0020
 231   2.0000      -0.440348       -11.9825
 232   2.0000      -0.439327       -11.9547
 233   2.0000      -0.433300       -11.7907
 234   2.0000      -0.428419       -11.6579
 235   2.0000      -0.426394       -11.6028
 236   2.0000      -0.424616       -11.5544
 237   2.0000      -0.423314       -11.5190
 238   2.0000      -0.421433       -11.4678
 239   2.0000      -0.416614       -11.3366
 240   2.0000      -0.406234       -11.0542
 241   2.0000      -0.405706       -11.0398
 242   2.0000      -0.404040       -10.9945
 243   2.0000      -0.400678       -10.9030
 244   2.0000      -0.394977       -10.7479
 245   2.0000      -0.394289       -10.7292
 246   2.0000      -0.393936       -10.7195
 247   2.0000      -0.385194       -10.4817
 248   2.0000      -0.384995       -10.4762
 249   2.0000      -0.383323       -10.4308
 250   2.0000      -0.377101       -10.2614
 251   2.0000      -0.372028       -10.1234
 252   2.0000      -0.360488        -9.8094
 253   2.0000      -0.346844        -9.4381
 254   2.0000      -0.344393        -9.3714
 255   2.0000      -0.343178        -9.3383
 256   2.0000      -0.337559        -9.1855
 257   2.0000      -0.335294        -9.1238
 258   2.0000      -0.333024        -9.0621
 259   2.0000      -0.329418        -8.9639
 260   2.0000      -0.328905        -8.9500
 261   2.0000      -0.319925        -8.7056
 262   2.0000      -0.309379        -8.4186
 263   2.0000      -0.308693        -8.4000
 264   2.0000      -0.306882        -8.3507
 265   2.0000      -0.305413        -8.3107
 266   2.0000      -0.297498        -8.0953
 267   2.0000      -0.254005        -6.9118
 268   2.0000      -0.237052        -6.4505
 269   0.0000      -0.101219        -2.7543
 270   0.0000      -0.091191        -2.4814
 271   0.0000      -0.068056        -1.8519
 272   0.0000      -0.062876        -1.7109
 273   0.0000      -0.048282        -1.3138

MULLIKEN ATOMIC CHARGES
-----------------------
   0 C :    0.153529
   1 O :   -0.158007
   2 C :   -0.008733
   3 C :    0.030456
   4 C :   -0.010931
   5 C :   -0.025750
   6 C :   -0.013637
   7 C :   -0.029461
   8 Br:    0.007559
   9 Br:    0.015498
  10 C :    0.322512
  11 C :   -0.372368
  12 C :   -0.188208
  13 N :    0.150209
  14 C :   -0.173525
  15 N :    0.131142
  16 C :   -0.105991
  17 C :   -0.004116
  18 C :    0.084080
  19 N :   -0.036886
  20 C :    0.138202
  21 C :   -0.170121
  22 C :    0.117721
  23 N :   -0.029352
  24 C :    0.118406
  25 C :   -0.136227
  26 C :    0.016819
  27 C :    0.052023
  28 C :   -0.103438
  29 S :    0.086422
  30 C :   -0.099965
  31 N :   -0.054111
  32 N :   -0.051023
  33 C :    0.046065
  34 C :    0.017441
  35 C :    0.109813
  36 N :   -0.027981
  37 C :    0.116931
  38 C :   -0.129339
  39 C :    0.092734
  40 N :   -0.030081
  41 C :    0.124818
  42 C :   -0.164236
  43 C :    0.017486
  44 C :   -0.006081
  45 C :    0.023843
  46 C :   -0.119518
  47 C :    0.134650
  48 O :   -0.149558
  49 C :   -0.001174
  50 C :    0.015406
  51 C :    0.312294
  52 C :   -0.349578
  53 C :   -0.206541
  54 N :    0.160440
  55 C :   -0.186943
  56 N :    0.145500
  57 C :   -0.010179
  58 C :   -0.024324
  59 C :   -0.015556
  60 C :   -0.024218
  61 Br:    0.006960
  62 Br:    0.014448
  63 H :    0.006014
  64 H :    0.001937
  65 H :   -0.027276
  66 H :    0.139718
  67 H :   -0.025882
  68 H :    0.131771
  69 H :    0.002216
  70 H :    0.005157
  71 H :   -0.009597
  72 H :   -0.012479
  73 H :    0.005578
  74 H :    0.131464
  75 H :   -0.010187
  76 H :    0.125459
  77 H :   -0.029461
  78 H :   -0.011187
  79 H :    0.011657
  80 H :    0.008731
  81 H :    0.006881
  82 H :    0.003233
Sum of atomic charges:   -0.0000000

LOEWDIN ATOMIC CHARGES
----------------------
   0 C :    0.084811
   1 O :   -0.147965
   2 C :   -0.039409
   3 C :   -0.012640
   4 C :   -0.008181
   5 C :   -0.121234
   6 C :   -0.123907
   7 C :    0.002124
   8 Br:    0.132306
   9 Br:    0.135873
  10 C :    0.077681
  11 C :   -0.151249
  12 C :   -0.020571
  13 N :   -0.055359
  14 C :   -0.018862
  15 N :   -0.067161
  16 C :   -0.117083
  17 C :    0.051626
  18 C :   -0.012508
  19 N :    0.074500
  20 C :    0.011481
  21 C :   -0.095346
  22 C :    0.023664
  23 N :    0.075743
  24 C :   -0.021600
  25 C :   -0.031612
  26 C :    0.001284
  27 C :   -0.047798
  28 C :   -0.151027
  29 S :    0.373456
  30 C :   -0.146235
  31 N :   -0.083619
  32 N :   -0.079642
  33 C :   -0.058544
  34 C :    0.006463
  35 C :    0.011942
  36 N :    0.077148
  37 C :   -0.015633
  38 C :   -0.046844
  39 C :   -0.013758
  40 N :    0.072758
  41 C :   -0.000820
  42 C :   -0.090702
  43 C :    0.028695
  44 C :   -0.045833
  45 C :    0.066359
  46 C :   -0.116504
  47 C :    0.080011
  48 O :   -0.149467
  49 C :   -0.042104
  50 C :   -0.008701
  51 C :    0.072413
  52 C :   -0.146705
  53 C :   -0.018471
  54 N :   -0.060674
  55 C :   -0.021001
  56 N :   -0.054279
  57 C :   -0.010885
  58 C :   -0.120400
  59 C :   -0.124990
  60 C :    0.004104
  61 Br:    0.131700
  62 Br:    0.135735
  63 H :    0.044151
  64 H :    0.044222
  65 H :    0.042406
  66 H :    0.097207
  67 H :    0.026647
  68 H :    0.095899
  69 H :    0.032329
  70 H :    0.039390
  71 H :    0.031397
  72 H :    0.029987
  73 H :    0.039502
  74 H :    0.095789
  75 H :    0.034604
  76 H :    0.092247
  77 H :    0.025528
  78 H :    0.034302
  79 H :    0.031451
  80 H :    0.041637
  81 H :    0.043620
  82 H :    0.045131

  Mayer bond orders larger than 0.100000
B(  0-C ,  1-O ) :   2.1725 B(  0-C ,  2-C ) :   0.9468 B(  0-C , 16-C ) :   0.9563
B(  2-C ,  3-C ) :   1.3320 B(  2-C ,  7-C ) :   1.3755 B(  3-C ,  4-C ) :   1.3707
B(  3-C , 10-C ) :   0.9779 B(  4-C ,  5-C ) :   1.3653 B(  4-C , 63-H ) :   0.9777
B(  5-C ,  6-C ) :   1.4306 B(  5-C ,  9-Br) :   1.0541 B(  6-C ,  7-C ) :   1.3440
B(  6-C ,  8-Br) :   1.0286 B(  7-C , 64-H ) :   1.0079 B( 10-C , 11-C ) :   1.5952
B( 10-C , 16-C ) :   1.1170 B( 11-C , 12-C ) :   1.1486 B( 11-C , 14-C ) :   1.1487
B( 12-C , 13-N ) :   2.9652 B( 14-C , 15-N ) :   2.9523 B( 16-C , 17-C ) :   1.4913
B( 17-C , 18-C ) :   1.2370 B( 17-C , 65-H ) :   0.9155 B( 18-C , 19-N ) :   1.1245
B( 18-C , 25-C ) :   1.3262 B( 19-N , 20-C ) :   1.2155 B( 19-N , 66-H ) :   0.9295
B( 20-C , 21-C ) :   1.2609 B( 20-C , 24-C ) :   1.2552 B( 21-C , 22-C ) :   1.3939
B( 21-C , 67-H ) :   1.0313 B( 22-C , 23-N ) :   1.1952 B( 22-C , 26-C ) :   1.0890
B( 23-N , 24-C ) :   1.1481 B( 23-N , 68-H ) :   0.9343 B( 24-C , 25-C ) :   1.2739
B( 25-C , 69-H ) :   1.0288 B( 26-C , 27-C ) :   1.7127 B( 26-C , 70-H ) :   0.9714
B( 27-C , 28-C ) :   1.1084 B( 27-C , 71-H ) :   0.9525 B( 28-C , 29-S ) :   1.0819
B( 28-C , 32-N ) :   1.6828 B( 29-S , 30-C ) :   1.0843 B( 30-C , 31-N ) :   1.6779
B( 30-C , 33-C ) :   1.1131 B( 31-N , 32-N ) :   1.2247 B( 33-C , 34-C ) :   1.7029
B( 33-C , 72-H ) :   0.9516 B( 34-C , 35-C ) :   1.0960 B( 34-C , 73-H ) :   0.9721
B( 35-C , 36-N ) :   1.1860 B( 35-C , 42-C ) :   1.3929 B( 36-N , 37-C ) :   1.1617
B( 36-N , 74-H ) :   0.9345 B( 37-C , 38-C ) :   1.2983 B( 37-C , 41-C ) :   1.2746
B( 38-C , 39-C ) :   1.3527 B( 38-C , 75-H ) :   1.0280 B( 39-C , 40-N ) :   1.1441
B( 39-C , 43-C ) :   1.1530 B( 40-N , 41-C ) :   1.1906 B( 40-N , 76-H ) :   0.9366
B( 41-C , 42-C ) :   1.2671 B( 42-C , 77-H ) :   1.0311 B( 43-C , 44-C ) :   1.5524
B( 43-C , 78-H ) :   0.9774 B( 44-C , 45-C ) :   1.2098 B( 44-C , 79-H ) :   0.9670
B( 45-C , 46-C ) :   1.5140 B( 45-C , 80-H ) :   0.9496 B( 46-C , 47-C ) :   0.9659
B( 46-C , 51-C ) :   1.0687 B( 47-C , 48-O ) :   2.2467 B( 47-C , 49-C ) :   0.9223
B( 49-C , 50-C ) :   1.3312 B( 49-C , 60-C ) :   1.3797 B( 50-C , 51-C ) :   0.9934
B( 50-C , 57-C ) :   1.3727 B( 51-C , 52-C ) :   1.6128 B( 52-C , 53-C ) :   1.1734
B( 52-C , 55-C ) :   1.1277 B( 53-C , 54-N ) :   2.9848 B( 55-C , 56-N ) :   2.9777
B( 57-C , 58-C ) :   1.3654 B( 57-C , 81-H ) :   0.9787 B( 58-C , 59-C ) :   1.4319
B( 58-C , 62-Br) :   1.0500 B( 59-C , 60-C ) :   1.3483 B( 59-C , 61-Br) :   1.0279
B( 60-C , 82-H ) :   1.0081

-----------------------------------------------------------------------------
         ABSORPTION SPECTRUM VIA TRANSITION ELECTRIC DIPOLE MOMENTS
-----------------------------------------------------------------------------
State   Energy  Wavelength   fosc         T2         TX        TY        TZ
        (cm-1)    (nm)                  (au**2)     (au)      (au)      (au)
-----------------------------------------------------------------------------
   0   15316.5    652.9   3.188090172  68.52456  -4.97532  -6.61522   0.09787
   1   18595.6    537.8   0.589058623  10.42857   1.62192   2.51120   1.22141
   2   22695.0    440.6   0.197564599   2.86586   0.90840   0.95837   1.05933
   3   23459.6    426.3   0.062570465   0.87806  -0.45176  -0.41236  -0.70988
   4   24205.1    413.1   0.061325873   0.83409  -0.52426  -0.74419  -0.07362
   5   25819.8    387.3   0.062842328   0.80126   0.57141   0.66510  -0.17997
   6   28123.2    355.6   0.069330999   0.81159   0.47669   0.76257  -0.05338
   7   28821.8    347.0   0.032558369   0.37189  -0.17959  -0.20411  -0.54588
   8   28957.1    345.3   0.149285110   1.69722   0.36654   0.29726   1.21429
   9   29300.4    341.3   0.251595511   2.82686  -1.30038  -1.06136  -0.09692
  10   29976.9    333.6   0.000075325   0.00083   0.02859   0.00041   0.00309
  11   30487.9    328.0   0.247854080   2.67636  -0.58981  -0.25789  -1.50399
  12   30939.9    323.2   0.039491096   0.42020  -0.58470  -0.26486  -0.09045
  13   30976.4    322.8   0.024716627   0.26268  -0.19817  -0.02020  -0.47223
  14   31166.5    320.9   0.006270657   0.06624  -0.05113  -0.23881  -0.08118
  15   31534.2    317.1   0.006818721   0.07119   0.02834   0.23518   0.12278
  16   32294.6    309.6   0.086832245   0.88517   0.57706   0.36552   0.64696
  17   32404.7    308.6   0.040041477   0.40680  -0.18345  -0.26896  -0.54845
  18   33231.2    300.9   0.005261190   0.05212   0.09901   0.11377   0.17139
  19   33321.1    300.1   0.001462352   0.01445  -0.05496   0.00883  -0.10653
  20   34138.5    292.9   0.080060418   0.77206   0.46394   0.23059   0.70968
  21   34539.2    289.5   0.229325676   2.18583  -1.13452  -0.47751  -0.81895
  22   35201.0    284.1   0.330268989   3.08879  -0.09302   0.31122  -1.72722
  23   35673.0    280.3   0.171086711   1.57889  -0.77815  -0.96194   0.21919
  24   36052.6    277.4   0.131605598   1.20175   0.54697   0.13727   0.94007
  25   36247.2    275.9   0.265607592   2.41236  -0.51580   0.10792  -1.46105
  26   36441.8    274.4   0.216621123   1.95694  -0.81210  -1.11529  -0.23146
  27   36632.3    273.0   0.007213767   0.06483   0.24975  -0.04454  -0.02167
  28   36644.5    272.9   0.009974373   0.08961  -0.12707  -0.25388   0.09491
  29   37063.6    269.8   0.100485591   0.89255   0.31117  -0.22522   0.86313
  30   37731.5    265.0   0.009606334   0.08382   0.06035   0.20858   0.19149
  31   38023.1    263.0   0.012697286   0.10994   0.11580   0.30526   0.05780
  32   38197.9    261.8   0.018897584   0.16287  -0.22866  -0.22503   0.24484
  33   38793.2    257.8   0.026760890   0.22710   0.00741   0.08289  -0.46923
  34   38954.1    256.7   0.125162584   1.05778   0.27645  -0.10884  -0.98464
  35   39611.4    252.5   0.132645946   1.10243   0.59617   0.77219  -0.38824
  36   39984.3    250.1   0.016113455   0.13267  -0.15177  -0.33004   0.02663
  37   40253.7    248.4   0.021550576   0.17625  -0.16430  -0.38553   0.02502

FINAL SINGLE POINT ENERGY    -13153.591662383395

DIPOLE MOMENT
-------------
                                X             Y             Z
Electronic contribution:    -24.82065       0.87022     104.92533
Nuclear contribution   :     24.29156      -1.54730    -106.84437
                        -----------------------------------------
Total Dipole Moment    :     -0.52909      -0.67708      -1.91904
                        -----------------------------------------
Magnitude (a.u.)       :      2.10263
Magnitude (Debye)      :      5.34447

Rotational constants in cm-1:     0.002727     0.000085     0.000083
Rotational constants in MHz :    81.767000     2.536902     2.476358

                             ****ORCA TERMINATED NORMALLY****
TOTAL RUN TIME: 0 days 0 hours 7 minutes 59 seconds 831 msec
