                         Program Version 4.2.0 -  RELEASE  -
|  1> # ORCA input file
|  2> # SCF done       -158.371392317372          0.000353903711
|  3> ! CAM-B3LYP def2-SVP def2/J RIJCOSX Grid4 TightSCF
|  4> %maxcore 5000
|  5> %tddft
|  6>     Mode sTDDFT
|  7>     Ethresh 5.0
|  8>     maxcore 5000
|  9> end
| 10>
| 11> %pal
| 12>   nprocs 6
| 13>   end
| 14> * xyz 0 1
| 15>    C        0.29817         1.24577        -2.97426
| 16>    C       -0.17608         2.48487        -2.67202
| 17>    S        0.88405         3.31080        -1.58979
| 18>    C        1.99456         1.96111        -1.54211
| 19>   Cl        3.40623         2.00914        -0.60973
| 20>    C        1.53943         0.94395        -2.32738
| 21>    C        1.98750        -0.40353        -2.69351
| 22>    O        3.01107        -0.95304        -2.36408
| 23>    C        0.93682        -0.90389        -3.64090
| 24>    C       -0.10130         0.10874        -3.77686
| 25>    C       -1.27898         0.01806        -4.47038
| 26>    C       -2.20136         1.08606        -4.49001
| 27>    N       -2.95794         1.94776        -4.52034
| 28>    C       -1.71738        -1.10027        -5.20719
| 29>    N       -2.13501        -1.97869        -5.81726
| 30>    C        1.03124        -2.03107        -4.39856
| 31>    C        1.95358        -3.10327        -4.24788
| 32>    C        2.56861        -3.57613        -3.11360
| 33>    C        3.39024        -4.69552        -3.45986
| 34>    C        3.22724        -4.89095        -4.91172
| 35>    C        2.34717        -3.96019        -5.36170
| 36>    C        3.84649        -5.87081        -5.69615
| 37>    N        4.34790        -6.66419        -6.35845
| 38>    C        4.18419        -5.42918        -2.61524
| 39>    C        5.09638        -6.46751        -2.96779
| 40>    C        5.72144        -6.92561        -1.83061
| 41>    C        5.18915        -6.18283        -0.68974
| 42>    C        4.28067        -5.28654        -1.14680
| 43>    C        3.53376        -4.41957        -0.33769
| 44>    N        2.92129        -3.73925         0.35509
| 45>    C        6.71786        -7.93251        -1.78426
| 46>    S        7.25727        -8.64716        -3.28754
| 47>    C        8.40144        -9.69736        -2.49432
| 48>    C        8.35334        -9.48331        -1.12416
| 49>    C        7.41480        -8.50134        -0.72625
| 50>    C        7.44645        -8.33489         0.73515
| 51>    O        6.79787        -7.58587         1.42202
| 52>    C        8.48910        -9.31093         1.24854
| 53>    C        9.10843        -9.97968         0.03337
| 54>    O       10.05018       -10.73018         0.04782
| 55>    C        9.19534       -10.58755        -3.26261
| 56>    C        9.98223       -11.62679        -2.81808
| 57>    C       10.62475       -12.22937        -3.94210
| 58>    C       10.17379       -11.48005        -5.12736
| 59>    C        9.30346       -10.52309        -4.71242
| 60>    C       10.53570       -11.71820        -6.45874
| 61>    N       10.81520       -11.88597        -7.55991
| 62>    C       11.49874       -13.28899        -3.93013
| 63>    C       12.27733       -13.78414        -5.01323
| 64>    C       13.05989       -14.82031        -4.56168
| 65>    C       12.76074       -15.03784        -3.14911
| 66>    C       11.83498       -14.13010        -2.75692
| 67>    C       11.24557       -14.08616        -1.48675
| 68>    N       10.76844       -14.11991        -0.44309
| 69>    C       14.00960       -15.57716        -5.29305
| 70>    S       14.91823       -16.87194        -4.55171
| 71>    C       15.74388       -17.20299        -6.00118
| 72>    C       15.36109       -16.37146        -7.02570
| 73>    C       14.36431       -15.43266        -6.62955
| 74>    O       13.81812       -14.50620        -7.42590
| 75>    C       15.87597       -16.40929        -8.33386
| 76>    N       16.25358       -16.38527        -9.41624
| 77>    H       -1.06849         2.97344        -3.00963
| 78>    H        0.35256        -2.13646        -5.23788
| 79>    H        2.45700        -3.19457        -2.11953
| 80>    H        2.00273        -3.84017        -6.37263
| 81>    H        5.27226        -6.81446        -3.96766
| 82>    H        5.48411        -6.34118         0.33034
| 83>    H        8.02393       -10.05883         1.89564
| 84>    H        9.24255        -8.80477         1.85555
| 85>    H       10.12479       -11.92217        -1.79762
| 86>    H        8.78204        -9.81721        -5.33288
| 87>    H       12.27245       -13.38685        -6.00743
| 88>    H       13.20855       -15.80463        -2.54366
| 89>    H       16.47310       -17.98788        -6.04707
| 90>    H       14.17468       -14.55937        -8.32403
| 91> *
| 92>
| 93>                          ****END OF INPUT****

CARTESIAN COORDINATES (ANGSTROEM)
---------------------------------
  C      0.298170    1.245770   -2.974260
  C     -0.176080    2.484870   -2.672020
  S      0.884050    3.310800   -1.589790
  C      1.994560    1.961110   -1.542110
  Cl     3.406230    2.009140   -0.609730
  C      1.539430    0.943950   -2.327380
  C      1.987500   -0.403530   -2.693510
  O      3.011070   -0.953040   -2.364080
  C      0.936820   -0.903890   -3.640900
  C     -0.101300    0.108740   -3.776860
  C     -1.278980    0.018060   -4.470380
  C     -2.201360    1.086060   -4.490010
  N     -2.957940    1.947760   -4.520340
  C     -1.717380   -1.100270   -5.207190
  N     -2.135010   -1.978690   -5.817260
  C      1.031240   -2.031070   -4.398560
  C      1.953580   -3.103270   -4.247880
  C      2.568610   -3.576130   -3.113600
  C      3.390240   -4.695520   -3.459860
  C      3.227240   -4.890950   -4.911720
  C      2.347170   -3.960190   -5.361700
  C      3.846490   -5.870810   -5.696150
  N      4.347900   -6.664190   -6.358450
  C      4.184190   -5.429180   -2.615240
  C      5.096380   -6.467510   -2.967790
  C      5.721440   -6.925610   -1.830610
  C      5.189150   -6.182830   -0.689740
  C      4.280670   -5.286540   -1.146800
  C      3.533760   -4.419570   -0.337690
  N      2.921290   -3.739250    0.355090
  C      6.717860   -7.932510   -1.784260
  S      7.257270   -8.647160   -3.287540
  C      8.401440   -9.697360   -2.494320
  C      8.353340   -9.483310   -1.124160
  C      7.414800   -8.501340   -0.726250
  C      7.446450   -8.334890    0.735150
  O      6.797870   -7.585870    1.422020
  C      8.489100   -9.310930    1.248540
  C      9.108430   -9.979680    0.033370
  O     10.050180  -10.730180    0.047820
  C      9.195340  -10.587550   -3.262610
  C      9.982230  -11.626790   -2.818080
  C     10.624750  -12.229370   -3.942100
  C     10.173790  -11.480050   -5.127360
  C      9.303460  -10.523090   -4.712420
  C     10.535700  -11.718200   -6.458740
  N     10.815200  -11.885970   -7.559910
  C     11.498740  -13.288990   -3.930130
  C     12.277330  -13.784140   -5.013230
  C     13.059890  -14.820310   -4.561680
  C     12.760740  -15.037840   -3.149110
  C     11.834980  -14.130100   -2.756920
  C     11.245570  -14.086160   -1.486750
  N     10.768440  -14.119910   -0.443090
  C     14.009600  -15.577160   -5.293050
  S     14.918230  -16.871940   -4.551710
  C     15.743880  -17.202990   -6.001180
  C     15.361090  -16.371460   -7.025700
  C     14.364310  -15.432660   -6.629550
  O     13.818120  -14.506200   -7.425900
  C     15.875970  -16.409290   -8.333860
  N     16.253580  -16.385270   -9.416240
  H     -1.068490    2.973440   -3.009630
  H      0.352560   -2.136460   -5.237880
  H      2.457000   -3.194570   -2.119530
  H      2.002730   -3.840170   -6.372630
  H      5.272260   -6.814460   -3.967660
  H      5.484110   -6.341180    0.330340
  H      8.023930  -10.058830    1.895640
  H      9.242550   -8.804770    1.855550
  H     10.124790  -11.922170   -1.797620
  H      8.782040   -9.817210   -5.332880
  H     12.272450  -13.386850   -6.007430
  H     13.208550  -15.804630   -2.543660
  H     16.473100  -17.987880   -6.047070
  H     14.174680  -14.559370   -8.324030

 Total Charge           Charge          ....    0
 Multiplicity           Mult            ....    1
 Number of Electrons    NEL             ....  442
 Basis Dimension        Dim             ....  954

ORBITAL ENERGIES
----------------

  NO   OCC          E(Eh)            E(eV)
   0   2.0000    -101.618667     -2765.1845
   1   2.0000     -88.999392     -2421.7966
   2   2.0000     -88.998680     -2421.7772
   3   2.0000     -88.996437     -2421.7162
   4   2.0000     -19.290765      -524.9284
   5   2.0000     -19.235833      -523.4336
   6   2.0000     -19.227837      -523.2160
   7   2.0000     -19.225588      -523.1548
   8   2.0000     -14.432323      -392.7235
   9   2.0000     -14.425354      -392.5338
  10   2.0000     -14.423592      -392.4859
  11   2.0000     -14.415697      -392.2711
  12   2.0000     -14.414023      -392.2255
  13   2.0000     -14.412449      -392.1827
  14   2.0000     -14.412336      -392.1796
  15   2.0000     -10.389572      -282.7146
  16   2.0000     -10.383187      -282.5409
  17   2.0000     -10.383172      -282.5405
  18   2.0000     -10.382229      -282.5148
  19   2.0000     -10.378784      -282.4211
  20   2.0000     -10.353282      -281.7271
  21   2.0000     -10.352691      -281.7110
  22   2.0000     -10.352282      -281.6999
  23   2.0000     -10.350795      -281.6594
  24   2.0000     -10.348822      -281.6058
  25   2.0000     -10.340199      -281.3711
  26   2.0000     -10.339634      -281.3557
  27   2.0000     -10.334163      -281.2069
  28   2.0000     -10.332555      -281.1631
  29   2.0000     -10.332547      -281.1629
  30   2.0000     -10.332203      -281.1535
  31   2.0000     -10.330945      -281.1193
  32   2.0000     -10.329639      -281.0838
  33   2.0000     -10.328135      -281.0428
  34   2.0000     -10.327393      -281.0227
  35   2.0000     -10.327050      -281.0133
  36   2.0000     -10.326004      -280.9848
  37   2.0000     -10.325412      -280.9687
  38   2.0000     -10.324329      -280.9393
  39   2.0000     -10.322326      -280.8848
  40   2.0000     -10.322295      -280.8839
  41   2.0000     -10.321622      -280.8656
  42   2.0000     -10.321600      -280.8650
  43   2.0000     -10.318234      -280.7734
  44   2.0000     -10.318124      -280.7704
  45   2.0000     -10.316241      -280.7192
  46   2.0000     -10.315699      -280.7044
  47   2.0000     -10.315687      -280.7041
  48   2.0000     -10.315554      -280.7005
  49   2.0000     -10.315323      -280.6942
  50   2.0000     -10.314782      -280.6795
  51   2.0000     -10.314190      -280.6634
  52   2.0000     -10.313972      -280.6575
  53   2.0000     -10.313863      -280.6545
  54   2.0000     -10.310456      -280.5618
  55   2.0000     -10.309064      -280.5239
  56   2.0000     -10.304724      -280.4058
  57   2.0000     -10.302605      -280.3481
  58   2.0000     -10.300891      -280.3015
  59   2.0000     -10.296167      -280.1730
  60   2.0000     -10.294542      -280.1287
  61   2.0000     -10.285519      -279.8832
  62   2.0000      -9.573438      -260.5065
  63   2.0000      -8.094859      -220.2723
  64   2.0000      -8.093514      -220.2357
  65   2.0000      -8.092091      -220.1970
  66   2.0000      -7.344094      -199.8430
  67   2.0000      -7.333466      -199.5538
  68   2.0000      -7.332914      -199.5387
  69   2.0000      -6.064079      -165.0120
  70   2.0000      -6.062645      -164.9730
  71   2.0000      -6.061452      -164.9405
  72   2.0000      -6.059868      -164.8974
  73   2.0000      -6.058419      -164.8579
  74   2.0000      -6.057153      -164.8235
  75   2.0000      -6.056840      -164.8150
  76   2.0000      -6.056038      -164.7932
  77   2.0000      -6.054409      -164.7488
  78   2.0000      -1.188634       -32.3444
  79   2.0000      -1.153741       -31.3949
  80   2.0000      -1.144840       -31.1527
  81   2.0000      -1.143523       -31.1168
  82   2.0000      -1.041249       -28.3338
  83   2.0000      -1.035086       -28.1661
  84   2.0000      -1.030844       -28.0507
  85   2.0000      -1.025079       -27.8938
  86   2.0000      -1.021524       -27.7971
  87   2.0000      -1.020246       -27.7623
  88   2.0000      -1.010767       -27.5044
  89   2.0000      -1.007338       -27.4111
  90   2.0000      -1.003866       -27.3166
  91   2.0000      -1.002904       -27.2904
  92   2.0000      -0.994099       -27.0508
  93   2.0000      -0.991007       -26.9667
  94   2.0000      -0.990041       -26.9404
  95   2.0000      -0.988547       -26.8997
  96   2.0000      -0.985261       -26.8103
  97   2.0000      -0.957653       -26.0591
  98   2.0000      -0.940375       -25.5889
  99   2.0000      -0.917896       -24.9772
 100   2.0000      -0.911925       -24.8147
 101   2.0000      -0.904221       -24.6051
 102   2.0000      -0.899052       -24.4644
 103   2.0000      -0.876590       -23.8532
 104   2.0000      -0.873371       -23.7656
 105   2.0000      -0.866239       -23.5716
 106   2.0000      -0.859114       -23.3777
 107   2.0000      -0.849802       -23.1243
 108   2.0000      -0.844481       -22.9795
 109   2.0000      -0.837848       -22.7990
 110   2.0000      -0.835741       -22.7417
 111   2.0000      -0.829859       -22.5816
 112   2.0000      -0.806406       -21.9434
 113   2.0000      -0.793069       -21.5805
 114   2.0000      -0.774882       -21.0856
 115   2.0000      -0.758231       -20.6325
 116   2.0000      -0.750386       -20.4190
 117   2.0000      -0.743033       -20.2190
 118   2.0000      -0.738944       -20.1077
 119   2.0000      -0.734539       -19.9878
 120   2.0000      -0.726803       -19.7773
 121   2.0000      -0.717293       -19.5185
 122   2.0000      -0.713910       -19.4265
 123   2.0000      -0.707492       -19.2518
 124   2.0000      -0.697841       -18.9892
 125   2.0000      -0.684216       -18.6185
 126   2.0000      -0.683450       -18.5976
 127   2.0000      -0.679727       -18.4963
 128   2.0000      -0.679498       -18.4901
 129   2.0000      -0.669556       -18.2196
 130   2.0000      -0.651789       -17.7361
 131   2.0000      -0.648754       -17.6535
 132   2.0000      -0.641991       -17.4695
 133   2.0000      -0.639212       -17.3939
 134   2.0000      -0.620684       -16.8897
 135   2.0000      -0.618753       -16.8371
 136   2.0000      -0.610787       -16.6203
 137   2.0000      -0.599453       -16.3120
 138   2.0000      -0.599118       -16.3028
 139   2.0000      -0.588133       -16.0039
 140   2.0000      -0.579838       -15.7782
 141   2.0000      -0.579543       -15.7702
 142   2.0000      -0.569011       -15.4836
 143   2.0000      -0.567519       -15.4430
 144   2.0000      -0.557289       -15.1646
 145   2.0000      -0.556322       -15.1383
 146   2.0000      -0.554835       -15.0978
 147   2.0000      -0.551174       -14.9982
 148   2.0000      -0.547922       -14.9097
 149   2.0000      -0.543154       -14.7800
 150   2.0000      -0.541964       -14.7476
 151   2.0000      -0.540253       -14.7010
 152   2.0000      -0.536922       -14.6104
 153   2.0000      -0.532303       -14.4847
 154   2.0000      -0.530498       -14.4356
 155   2.0000      -0.529071       -14.3968
 156   2.0000      -0.527731       -14.3603
 157   2.0000      -0.527263       -14.3476
 158   2.0000      -0.522849       -14.2274
 159   2.0000      -0.518623       -14.1124
 160   2.0000      -0.512843       -13.9552
 161   2.0000      -0.512651       -13.9500
 162   2.0000      -0.511564       -13.9204
 163   2.0000      -0.509862       -13.8741
 164   2.0000      -0.505558       -13.7569
 165   2.0000      -0.502096       -13.6627
 166   2.0000      -0.500108       -13.6086
 167   2.0000      -0.499123       -13.5818
 168   2.0000      -0.497338       -13.5333
 169   2.0000      -0.492451       -13.4003
 170   2.0000      -0.491583       -13.3767
 171   2.0000      -0.489151       -13.3105
 172   2.0000      -0.487835       -13.2747
 173   2.0000      -0.484970       -13.1967
 174   2.0000      -0.482605       -13.1324
 175   2.0000      -0.480053       -13.0629
 176   2.0000      -0.478575       -13.0227
 177   2.0000      -0.470567       -12.8048
 178   2.0000      -0.461384       -12.5549
 179   2.0000      -0.458506       -12.4766
 180   2.0000      -0.458327       -12.4717
 181   2.0000      -0.457726       -12.4554
 182   2.0000      -0.456778       -12.4295
 183   2.0000      -0.451999       -12.2995
 184   2.0000      -0.451096       -12.2749
 185   2.0000      -0.448864       -12.2142
 186   2.0000      -0.447594       -12.1796
 187   2.0000      -0.446049       -12.1376
 188   2.0000      -0.444559       -12.0971
 189   2.0000      -0.442517       -12.0415
 190   2.0000      -0.442449       -12.0396
 191   2.0000      -0.441287       -12.0080
 192   2.0000      -0.441102       -12.0030
 193   2.0000      -0.437011       -11.8917
 194   2.0000      -0.435696       -11.8559
 195   2.0000      -0.435161       -11.8413
 196   2.0000      -0.435027       -11.8377
 197   2.0000      -0.429414       -11.6849
 198   2.0000      -0.422539       -11.4979
 199   2.0000      -0.421413       -11.4672
 200   2.0000      -0.420384       -11.4392
 201   2.0000      -0.414025       -11.2662
 202   2.0000      -0.405094       -11.0232
 203   2.0000      -0.403929       -10.9915
 204   2.0000      -0.402658       -10.9569
 205   2.0000      -0.393412       -10.7053
 206   2.0000      -0.374887       -10.2012
 207   2.0000      -0.364229        -9.9112
 208   2.0000      -0.362294        -9.8585
 209   2.0000      -0.359841        -9.7918
 210   2.0000      -0.349403        -9.5077
 211   2.0000      -0.341370        -9.2892
 212   2.0000      -0.338960        -9.2236
 213   2.0000      -0.338583        -9.2133
 214   2.0000      -0.336144        -9.1469
 215   2.0000      -0.332368        -9.0442
 216   2.0000      -0.319964        -8.7067
 217   2.0000      -0.317937        -8.6515
 218   2.0000      -0.300529        -8.1778
 219   2.0000      -0.292403        -7.9567
 220   2.0000      -0.273561        -7.4440
 221   0.0000      -0.144342        -3.9277
 222   0.0000      -0.126509        -3.4425
 223   0.0000      -0.087538        -2.3820
 224   0.0000      -0.058183        -1.5832
 225   0.0000      -0.052652        -1.4327

MULLIKEN ATOMIC CHARGES
-----------------------
   0 C :    0.034198
   1 C :   -0.127454
   2 S :    0.190383
   3 C :   -0.168968
   4 Cl:    0.005591
   5 C :    0.073766
   6 C :    0.151709
   7 O :   -0.122379
   8 C :   -0.088207
   9 C :    0.283947
  10 C :   -0.326175
  11 C :   -0.191429
  12 N :    0.158511
  13 C :   -0.190722
  14 N :    0.165034
  15 C :   -0.028339
  16 C :    0.082708
  17 C :   -0.022483
  18 C :    0.072492
  19 C :   -0.095913
  20 C :    0.006211
  21 C :   -0.172427
  22 N :    0.133351
  23 C :    0.131649
  24 C :   -0.142155
  25 C :    0.104467
  26 C :   -0.000373
  27 C :   -0.093361
  28 C :   -0.166026
  29 N :    0.142593
  30 C :   -0.110989
  31 S :    0.180387
  32 C :   -0.088768
  33 C :    0.011306
  34 C :    0.020650
  35 C :    0.031925
  36 O :   -0.142726
  37 C :    0.061956
  38 C :    0.028484
  39 O :   -0.132647
  40 C :    0.095796
  41 C :   -0.115461
  42 C :    0.093162
  43 C :   -0.086160
  44 C :   -0.027293
  45 C :   -0.179354
  46 N :    0.143179
  47 C :    0.127688
  48 C :   -0.152104
  49 C :    0.130367
  50 C :   -0.029330
  51 C :   -0.077080
  52 C :   -0.178922
  53 N :    0.151640
  54 C :   -0.183729
  55 S :    0.173928
  56 C :   -0.033955
  57 C :   -0.103747
  58 C :    0.188148
  59 O :   -0.138599
  60 C :   -0.216530
  61 N :    0.147260
  62 H :    0.055028
  63 H :    0.026185
  64 H :    0.020491
  65 H :    0.006856
  66 H :    0.015607
  67 H :    0.016690
  68 H :    0.081778
  69 H :    0.071141
  70 H :    0.024802
  71 H :    0.012867
  72 H :    0.014349
  73 H :    0.008461
  74 H :    0.048128
  75 H :    0.208937
Sum of atomic charges:   -0.0000000

LOEWDIN ATOMIC CHARGES
----------------------
   0 C :   -0.059941
   1 C :   -0.148149
   2 S :    0.479811
   3 C :   -0.270345
   4 Cl:    0.197177
   5 C :   -0.116582
   6 C :    0.082375
   7 O :   -0.119165
   8 C :   -0.072530
   9 C :    0.073026
  10 C :   -0.132332
  11 C :   -0.015280
  12 N :   -0.047692
  13 C :   -0.024802
  14 N :   -0.043209
  15 C :    0.067334
  16 C :   -0.041513
  17 C :    0.049163
  18 C :    0.029533
  19 C :   -0.090016
  20 C :    0.062550
  21 C :   -0.029789
  22 N :   -0.064647
  23 C :    0.057091
  24 C :   -0.030334
  25 C :   -0.022673
  26 C :    0.067533
  27 C :   -0.078497
  28 C :   -0.028894
  29 N :   -0.051972
  30 C :   -0.135628
  31 S :    0.501111
  32 C :   -0.115791
  33 C :   -0.090624
  34 C :   -0.080392
  35 C :    0.086698
  36 O :   -0.123559
  37 C :   -0.065456
  38 C :    0.080417
  39 O :   -0.115490
  40 C :   -0.053782
  41 C :    0.015734
  42 C :    0.020898
  43 C :   -0.077855
  44 C :    0.038402
  45 C :   -0.030750
  46 N :   -0.058836
  47 C :    0.056621
  48 C :   -0.040348
  49 C :   -0.013017
  50 C :    0.043662
  51 C :   -0.066765
  52 C :   -0.036087
  53 N :   -0.044780
  54 C :   -0.215221
  55 S :    0.486080
  56 C :   -0.128377
  57 C :   -0.142023
  58 C :    0.059317
  59 O :   -0.005785
  60 C :   -0.044328
  61 N :   -0.039441
  62 H :    0.038146
  63 H :    0.047994
  64 H :    0.038596
  65 H :    0.040667
  66 H :    0.029934
  67 H :    0.037559
  68 H :    0.070005
  69 H :    0.064835
  70 H :    0.035451
  71 H :    0.033861
  72 H :    0.034414
  73 H :    0.033284
  74 H :    0.040734
  75 H :    0.112683

  Mayer bond orders larger than 0.100000
B(  0-C ,  1-C ) :   1.5416 B(  0-C ,  5-C ) :   1.2219 B(  0-C ,  9-C ) :   1.0006
B(  1-C ,  2-S ) :   1.1637 B(  1-C , 62-H ) :   0.9542 B(  2-S ,  3-C ) :   1.1529
B(  3-C ,  4-Cl) :   1.1325 B(  3-C ,  5-C ) :   1.4756 B(  5-C ,  6-C ) :   0.9524
B(  6-C ,  7-O ) :   2.2376 B(  6-C ,  8-C ) :   0.9232 B(  8-C ,  9-C ) :   1.0595
B(  8-C , 15-C ) :   1.6473 B(  9-C , 10-C ) :   1.6624 B( 10-C , 11-C ) :   1.1439
B( 10-C , 13-C ) :   1.1355 B( 11-C , 12-N ) :   2.9928 B( 13-C , 14-N ) :   2.9842
B( 15-C , 16-C ) :   1.0966 B( 15-C , 63-H ) :   0.9434 B( 16-C , 17-C ) :   1.5508
B( 16-C , 20-C ) :   1.0373 B( 17-C , 18-C ) :   1.1135 B( 17-C , 64-H ) :   0.9873
B( 18-C , 19-C ) :   1.1088 B( 18-C , 23-C ) :   1.4278 B( 19-C , 20-C ) :   1.6611
B( 19-C , 21-C ) :   1.0910 B( 20-C , 65-H ) :   1.0233 B( 21-C , 22-N ) :   2.9612
B( 23-C , 24-C ) :   1.1266 B( 23-C , 27-C ) :   1.0934 B( 24-C , 25-C ) :   1.5396
B( 24-C , 66-H ) :   0.9906 B( 25-C , 26-C ) :   1.0543 B( 25-C , 30-C ) :   1.1232
B( 26-C , 27-C ) :   1.6719 B( 26-C , 67-H ) :   1.0010 B( 27-C , 28-C ) :   1.0906
B( 28-C , 29-N ) :   2.9679 B( 30-C , 31-S ) :   1.1442 B( 30-C , 34-C ) :   1.4625
B( 31-S , 32-C ) :   1.1608 B( 32-C , 33-C ) :   1.4689 B( 32-C , 40-C ) :   1.1060
B( 33-C , 34-C ) :   1.2111 B( 33-C , 38-C ) :   0.9333 B( 34-C , 35-C ) :   0.9249
B( 35-C , 36-O ) :   2.1723 B( 35-C , 37-C ) :   1.0038 B( 37-C , 38-C ) :   0.9964
B( 37-C , 68-H ) :   0.8946 B( 37-C , 69-H ) :   0.8963 B( 38-C , 39-O ) :   2.1923
B( 40-C , 41-C ) :   1.5581 B( 40-C , 44-C ) :   1.0442 B( 41-C , 42-C ) :   1.0978
B( 41-C , 70-H ) :   0.9888 B( 42-C , 43-C ) :   1.1161 B( 42-C , 47-C ) :   1.4088
B( 43-C , 44-C ) :   1.6758 B( 43-C , 45-C ) :   1.0859 B( 44-C , 71-H ) :   1.0097
B( 45-C , 46-N ) :   2.9719 B( 47-C , 48-C ) :   1.1067 B( 47-C , 51-C ) :   1.0870
B( 48-C , 49-C ) :   1.5701 B( 48-C , 72-H ) :   1.0025 B( 49-C , 50-C ) :   1.0138
B( 49-C , 54-C ) :   1.1142 B( 50-C , 51-C ) :   1.7100 B( 50-C , 73-H ) :   1.0124
B( 51-C , 52-C ) :   1.0782 B( 52-C , 53-N ) :   2.9856 B( 54-C , 55-S ) :   1.1142
B( 54-C , 58-C ) :   1.4358 B( 55-S , 56-C ) :   1.2123 B( 55-S , 57-C ) :   0.1085
B( 56-C , 57-C ) :   1.5060 B( 56-C , 74-H ) :   0.9758 B( 57-C , 58-C ) :   1.2141
B( 57-C , 60-C ) :   1.0775 B( 58-C , 59-O ) :   1.3311 B( 59-O , 75-H ) :   0.9338
B( 60-C , 61-N ) :   3.0401

-----------------------------------------------------------------------------
         ABSORPTION SPECTRUM VIA TRANSITION ELECTRIC DIPOLE MOMENTS
-----------------------------------------------------------------------------
State   Energy  Wavelength   fosc         T2         TX        TY        TZ
        (cm-1)    (nm)                  (au**2)     (au)      (au)      (au)
-----------------------------------------------------------------------------
   0   12992.7    769.7   1.036029550  26.25124   3.46385  -3.76966   0.20647
   1   15156.1    659.8   0.052878852   1.14860  -0.20725   0.24450   1.02268
   2   16450.8    607.9   0.002109482   0.04221  -0.10299   0.17636   0.02246
   3   17602.9    568.1   0.001695307   0.03171  -0.04558   0.16449   0.05073
   4   20726.1    482.5   0.203064559   3.22546  -1.23129   1.30652  -0.04887
   5   23099.3    432.9   0.198547840   2.82972   1.23720  -1.11278   0.24655
   6   23607.7    423.6   0.090342205   1.25983   0.58107  -0.72157  -0.63366
   7   23743.5    421.2   0.150341677   2.08454  -1.03728   1.00427  -0.00426
   8   24259.9    412.2   0.403139842   5.47069   1.49210  -1.80076  -0.03963
   9   25078.2    398.8   0.006262055   0.08220   0.13663  -0.11237  -0.22563
  10   26229.4    381.3   0.098545982   1.23688  -0.05075   0.02236   1.11077
  11   26526.6    377.0   0.102245090   1.26892  -0.84652   0.74188   0.04406
  12   26832.2    372.7   0.010277513   0.12610   0.00101   0.35104   0.05356
  13   27056.5    369.6   0.218169702   2.65460   0.91906  -1.30382   0.33164
  14   28343.4    352.8   0.021689431   0.25193   0.00652  -0.29522   0.40587
  15   28453.1    351.5   0.030269118   0.35022   0.11618   0.26118  -0.51818
  16   29077.2    343.9   0.071123474   0.80526  -0.64077   0.61879   0.10850
  17   29506.7    338.9   0.326926185   3.64757  -1.15893   1.38536   0.62066
  18   30450.8    328.4   0.033583754   0.36308   0.30372  -0.41701  -0.31135
  19   30785.6    324.8   0.008596258   0.09193  -0.14653   0.21020  -0.16208
  20   31415.1    318.3   0.022925262   0.24024  -0.08540   0.20287  -0.43794
  21   31433.3    318.1   0.036086466   0.37795   0.26142   0.45994   0.31314
  22   31706.8    315.4   0.018695753   0.19412  -0.06176   0.43484  -0.03495
  23   32563.6    307.1   0.061654888   0.62332   0.35153  -0.40472  -0.57961
  24   32865.1    304.3   0.084549287   0.84693   0.50802   0.59886   0.47981
  25   33412.5    299.3   0.048644714   0.47929  -0.28500   0.11037  -0.62120
  26   34225.9    292.2   0.141075227   1.35697   0.22803  -0.22737   1.11950
  27   34346.1    291.2   0.107018224   1.02578  -0.51204   0.84327   0.22912
  28   34861.7    286.8   0.065986112   0.62313   0.60295  -0.47768   0.17722
  29   35202.8    284.1   0.161735239   1.51253   0.19472   0.98702   0.70739
  30   35268.3    283.5   0.014080050   0.13143  -0.19804   0.24423   0.18044
  31   35430.5    282.2   0.134024299   1.24532  -0.58215   0.75534   0.57956
  32   35853.4    278.9   0.021387853   0.19639   0.30691  -0.29808   0.11552
  33   35993.0    277.8   0.089003402   0.81408   0.62257  -0.56052  -0.33511
  34   36262.6    275.8   0.046858048   0.42540  -0.50049  -0.15812  -0.38718
  35   36461.5    274.3   0.068256117   0.61629   0.55286  -0.40149  -0.38658
  36   36638.0    272.9   0.029802773   0.26779  -0.05365   0.47193  -0.20542
  37   36844.4    271.4   0.020940172   0.18710  -0.35542  -0.21872  -0.11378
  38   37223.6    268.6   0.012304123   0.10882   0.26150  -0.04922   0.19498
  39   37313.9    268.0   0.000539892   0.00476   0.04930  -0.01595   0.04559
  40   37492.3    266.7   0.009650996   0.08474  -0.03109   0.08690   0.27609
  41   37759.1    264.8   0.099998514   0.87186  -0.71401  -0.32423  -0.50688
  42   37925.0    263.7   0.015905893   0.13807   0.24776   0.22639   0.15948
  43   38291.7    261.2   0.326884394   2.81038   1.11936   0.84709   0.91643
  44   38821.4    257.6   0.016380923   0.13891   0.18144   0.29851   0.12993
  45   38866.1    257.3   0.009497782   0.08045  -0.04240   0.02967   0.27888
  46   38914.9    257.0   0.050878784   0.43042  -0.65488  -0.02471   0.03083
  47   39258.7    254.7   0.042784575   0.35878   0.22074   0.10338   0.54714
  48   39775.5    251.4   0.255092961   2.11134   0.43802   0.31699   1.34870
  49   40279.2    248.3   0.007731102   0.06319  -0.16654   0.04490   0.18286

FINAL SINGLE POINT ENERGY     -4134.488603574680

DIPOLE MOMENT
-------------
                                X             Y             Z
Electronic contribution:    -14.34911      30.75291       4.74688
Nuclear contribution   :     17.09660     -31.67650      -3.92019
                        -----------------------------------------
Total Dipole Moment    :      2.74749      -0.92359       0.82670
                        -----------------------------------------
Magnitude (a.u.)       :      3.01415
Magnitude (Debye)      :      7.66137

Rotational constants in cm-1:     0.002918     0.000286     0.000271
Rotational constants in MHz :    87.475976     8.559638     8.117069

                             ****ORCA TERMINATED NORMALLY****
TOTAL RUN TIME: 0 days 0 hours 7 minutes 8 seconds 282 msec
