                         Program Version 4.2.0 -  RELEASE  -
|  1> # ORCA input file
|  2> # SCF done       -183.479661673509          0.000647828278
|  3> ! CAM-B3LYP def2-SVP def2/J RIJCOSX Grid4 TightSCF
|  4> %maxcore 5000
|  5> %tddft
|  6>     Mode sTDDFT
|  7>     Ethresh 5.0
|  8>     maxcore 5000
|  9> end
| 10>
| 11> %pal
| 12>   nprocs 6
| 13>   end
| 14> * xyz 0 1
| 15>    C        3.08438         4.82059        -5.58441
| 16>    C        3.46801         5.80539        -6.45691
| 17>    C        4.29966         5.58556        -7.57593
| 18>    N        4.96500         5.47754        -8.50514
| 19>    C        3.14455         7.17565        -6.35791
| 20>    N        2.95243         8.30799        -6.34109
| 21>    C        3.52876         3.43416        -5.63846
| 22>    C        3.07314         2.76979        -4.46543
| 23>    C        3.35024         1.45463        -4.22510
| 24>    C        4.10766         0.72745        -5.17002
| 25>    C        4.56096         1.38264        -6.35150
| 26>    C        4.26001         2.74630        -6.57082
| 27>    C        5.31352         0.64711        -7.28966
| 28>    C        5.60637        -0.67173        -7.07240
| 29>    C        5.15966        -1.31578        -5.90881
| 30>    C        4.42646        -0.63119        -4.97778
| 31>    C        2.30314         3.70695        -3.63176
| 32>    O        1.81348         3.45726        -2.55000
| 33>    C        2.24635         4.97676        -4.40235
| 34>    C        1.47456         6.07940        -4.17168
| 35>    C        0.64169         6.43255        -3.08534
| 36>    S       -0.28379         7.91052        -3.25707
| 37>    C       -0.95372         7.75813        -1.67148
| 38>    C       -0.46428         6.59733        -1.04681
| 39>    C        0.42301         5.86549        -1.84226
| 40>    C       -0.80240         6.18178         0.25248
| 41>    N       -1.05746         5.81865         1.31103
| 42>    C       -1.84327         8.75524        -1.20816
| 43>    C       -2.40639         8.79747         0.03012
| 44>    C       -3.26803         9.84514         0.43221
| 45>    N       -3.81023         9.94277         1.69313
| 46>    C       -3.57944         9.04641         2.80152
| 47>    C       -2.22647         9.29088         3.46406
| 48>    C       -4.61688        11.08292         1.83314
| 49>    O       -5.19255        11.37806         2.86210
| 50>    C       -4.56882        11.71901         0.53383
| 51>    C       -3.73231        10.93701        -0.30123
| 52>    C       -3.68675        11.56784        -1.60070
| 53>    O       -3.10655        11.27777        -2.62906
| 54>    N       -4.50255        12.70352        -1.46490
| 55>    C       -4.75310        13.57530        -2.58706
| 56>    C       -6.10460        13.28841        -3.23665
| 57>    C       -5.03722        12.80648        -0.20130
| 58>    C       -5.88330        13.87192         0.20741
| 59>    C       -6.38644        13.96220         1.46061
| 60>    C       -7.21798        15.02937         1.94083
| 61>    C       -7.84406        15.99670         1.13795
| 62>    N       -8.57529        16.96777         1.63431
| 63>    C       -8.75161        16.99647         2.95626
| 64>    N       -8.19367        16.14383         3.81554
| 65>    C       -7.44808        15.18705         3.32109
| 66>    C       -9.55211        18.08985         3.48055
| 67>    C      -10.37937        17.99739         4.53992
| 68>    C      -11.05978        19.09375         5.22535
| 69>    C      -11.11342        20.40018         4.82627
| 70>    C      -11.78712        21.41761         5.53764
| 71>    N      -12.31526        22.29016         6.06386
| 72>    C      -10.53474        20.92655         3.65040
| 73>    N      -10.10014        21.44081         2.72078
| 74>    C      -11.67321        18.54478         6.42697
| 75>    C      -11.50024        17.13055         6.43073
| 76>    C      -10.77418        16.71755         5.21738
| 77>    O      -10.62543        15.59343         4.80498
| 78>    C      -11.98078        16.34829         7.44152
| 79>    C      -12.65473        16.95600         8.52381
| 80>    C      -12.82732        18.37096         8.53084
| 81>    C      -12.32965        19.15412         7.46591
| 82>    C      -13.50067        18.96784         9.61700
| 83>    C      -13.97951        18.20596        10.64730
| 84>    C      -13.80873        16.81303        10.63946
| 85>    C      -13.16103        16.20154         9.60065
| 86>    H        2.99523         0.97576        -3.32459
| 87>    H        4.61313         3.21060        -7.47762
| 88>    H        5.65640         1.14790        -8.18313
| 89>    H        6.18446        -1.22620        -7.79633
| 90>    H        5.39936        -2.35711        -5.75396
| 91>    H        4.07986        -1.12181        -4.08004
| 92>    H        1.47551         6.83061        -4.95328
| 93>    H        0.88954         4.95003        -1.52481
| 94>    H       -2.06722         9.54597        -1.91331
| 95>    H       -2.19407         8.02039         0.74773
| 96>    H       -3.65903         8.01135         2.45873
| 97>    H       -4.38037         9.24432         3.51932
| 98>    H       -1.41176         9.12528         2.76296
| 99>    H       -2.10425         8.61134         4.30239
|100>    H       -2.16932        10.31291         3.83084
|101>    H       -3.95278        13.37849        -3.30591
|102>    H       -4.68653        14.61814        -2.26512
|103>    H       -6.13178        12.26300        -3.59671
|104>    H       -6.25709        13.95636        -4.07977
|105>    H       -6.91769        13.42644        -2.52722
|106>    H       -6.10010        14.63711        -0.52368
|107>    H       -6.13842        13.19674         2.18494
|108>    H       -7.76455        15.98461         0.05830
|109>    H       -6.99141        14.51555         4.03728
|110>    H       -9.42761        19.02405         2.94985
|111>    H      -11.84036        15.27790         7.41789
|112>    H      -12.47663        20.22187         7.50123
|113>    H      -13.63014        20.04015         9.61792
|114>    H      -14.49281        18.67203        11.47494
|115>    H      -14.19318        16.22752        11.46115
|116>    H      -13.02692        15.12986         9.58920
|117> *
|118>
|119>                          ****END OF INPUT****

CARTESIAN COORDINATES (ANGSTROEM)
---------------------------------
  C      3.084380    4.820590   -5.584410
  C      3.468010    5.805390   -6.456910
  C      4.299660    5.585560   -7.575930
  N      4.965000    5.477540   -8.505140
  C      3.144550    7.175650   -6.357910
  N      2.952430    8.307990   -6.341090
  C      3.528760    3.434160   -5.638460
  C      3.073140    2.769790   -4.465430
  C      3.350240    1.454630   -4.225100
  C      4.107660    0.727450   -5.170020
  C      4.560960    1.382640   -6.351500
  C      4.260010    2.746300   -6.570820
  C      5.313520    0.647110   -7.289660
  C      5.606370   -0.671730   -7.072400
  C      5.159660   -1.315780   -5.908810
  C      4.426460   -0.631190   -4.977780
  C      2.303140    3.706950   -3.631760
  O      1.813480    3.457260   -2.550000
  C      2.246350    4.976760   -4.402350
  C      1.474560    6.079400   -4.171680
  C      0.641690    6.432550   -3.085340
  S     -0.283790    7.910520   -3.257070
  C     -0.953720    7.758130   -1.671480
  C     -0.464280    6.597330   -1.046810
  C      0.423010    5.865490   -1.842260
  C     -0.802400    6.181780    0.252480
  N     -1.057460    5.818650    1.311030
  C     -1.843270    8.755240   -1.208160
  C     -2.406390    8.797470    0.030120
  C     -3.268030    9.845140    0.432210
  N     -3.810230    9.942770    1.693130
  C     -3.579440    9.046410    2.801520
  C     -2.226470    9.290880    3.464060
  C     -4.616880   11.082920    1.833140
  O     -5.192550   11.378060    2.862100
  C     -4.568820   11.719010    0.533830
  C     -3.732310   10.937010   -0.301230
  C     -3.686750   11.567840   -1.600700
  O     -3.106550   11.277770   -2.629060
  N     -4.502550   12.703520   -1.464900
  C     -4.753100   13.575300   -2.587060
  C     -6.104600   13.288410   -3.236650
  C     -5.037220   12.806480   -0.201300
  C     -5.883300   13.871920    0.207410
  C     -6.386440   13.962200    1.460610
  C     -7.217980   15.029370    1.940830
  C     -7.844060   15.996700    1.137950
  N     -8.575290   16.967770    1.634310
  C     -8.751610   16.996470    2.956260
  N     -8.193670   16.143830    3.815540
  C     -7.448080   15.187050    3.321090
  C     -9.552110   18.089850    3.480550
  C    -10.379370   17.997390    4.539920
  C    -11.059780   19.093750    5.225350
  C    -11.113420   20.400180    4.826270
  C    -11.787120   21.417610    5.537640
  N    -12.315260   22.290160    6.063860
  C    -10.534740   20.926550    3.650400
  N    -10.100140   21.440810    2.720780
  C    -11.673210   18.544780    6.426970
  C    -11.500240   17.130550    6.430730
  C    -10.774180   16.717550    5.217380
  O    -10.625430   15.593430    4.804980
  C    -11.980780   16.348290    7.441520
  C    -12.654730   16.956000    8.523810
  C    -12.827320   18.370960    8.530840
  C    -12.329650   19.154120    7.465910
  C    -13.500670   18.967840    9.617000
  C    -13.979510   18.205960   10.647300
  C    -13.808730   16.813030   10.639460
  C    -13.161030   16.201540    9.600650
  H      2.995230    0.975760   -3.324590
  H      4.613130    3.210600   -7.477620
  H      5.656400    1.147900   -8.183130
  H      6.184460   -1.226200   -7.796330
  H      5.399360   -2.357110   -5.753960
  H      4.079860   -1.121810   -4.080040
  H      1.475510    6.830610   -4.953280
  H      0.889540    4.950030   -1.524810
  H     -2.067220    9.545970   -1.913310
  H     -2.194070    8.020390    0.747730
  H     -3.659030    8.011350    2.458730
  H     -4.380370    9.244320    3.519320
  H     -1.411760    9.125280    2.762960
  H     -2.104250    8.611340    4.302390
  H     -2.169320   10.312910    3.830840
  H     -3.952780   13.378490   -3.305910
  H     -4.686530   14.618140   -2.265120
  H     -6.131780   12.263000   -3.596710
  H     -6.257090   13.956360   -4.079770
  H     -6.917690   13.426440   -2.527220
  H     -6.100100   14.637110   -0.523680
  H     -6.138420   13.196740    2.184940
  H     -7.764550   15.984610    0.058300
  H     -6.991410   14.515550    4.037280
  H     -9.427610   19.024050    2.949850
  H    -11.840360   15.277900    7.417890
  H    -12.476630   20.221870    7.501230
  H    -13.630140   20.040150    9.617920
  H    -14.492810   18.672030   11.474940
  H    -14.193180   16.227520   11.461150
  H    -13.026920   15.129860    9.589200

 Total Charge           Charge          ....    0
 Multiplicity           Mult            ....    1
 Number of Electrons    NEL             ....  484
 Basis Dimension        Dim             .... 1153

ORBITAL ENERGIES
----------------

  NO   OCC          E(Eh)            E(eV)
   0   2.0000     -88.986103     -2421.4350
   1   2.0000     -19.224485      -523.1248
   2   2.0000     -19.214909      -522.8643
   3   2.0000     -19.202545      -522.5278
   4   2.0000     -19.196787      -522.3711
   5   2.0000     -14.462777      -393.5522
   6   2.0000     -14.459000      -393.4494
   7   2.0000     -14.423959      -392.4959
   8   2.0000     -14.419827      -392.3834
   9   2.0000     -14.419672      -392.3792
  10   2.0000     -14.419304      -392.3692
  11   2.0000     -14.418818      -392.3560
  12   2.0000     -14.418486      -392.3470
  13   2.0000     -14.417118      -392.3097
  14   2.0000     -10.383886      -282.5599
  15   2.0000     -10.380009      -282.4544
  16   2.0000     -10.375439      -282.3301
  17   2.0000     -10.366479      -282.0862
  18   2.0000     -10.355638      -281.7912
  19   2.0000     -10.349292      -281.6185
  20   2.0000     -10.347717      -281.5757
  21   2.0000     -10.345849      -281.5249
  22   2.0000     -10.345721      -281.5214
  23   2.0000     -10.345457      -281.5142
  24   2.0000     -10.344671      -281.4928
  25   2.0000     -10.344243      -281.4812
  26   2.0000     -10.333763      -281.1960
  27   2.0000     -10.331793      -281.1424
  28   2.0000     -10.330259      -281.1006
  29   2.0000     -10.329212      -281.0721
  30   2.0000     -10.327200      -281.0174
  31   2.0000     -10.322306      -280.8842
  32   2.0000     -10.320738      -280.8416
  33   2.0000     -10.320589      -280.8375
  34   2.0000     -10.320438      -280.8334
  35   2.0000     -10.319980      -280.8209
  36   2.0000     -10.316243      -280.7192
  37   2.0000     -10.312324      -280.6126
  38   2.0000     -10.308914      -280.5198
  39   2.0000     -10.308460      -280.5075
  40   2.0000     -10.306960      -280.4666
  41   2.0000     -10.306669      -280.4587
  42   2.0000     -10.306428      -280.4522
  43   2.0000     -10.305854      -280.4365
  44   2.0000     -10.305640      -280.4307
  45   2.0000     -10.305535      -280.4279
  46   2.0000     -10.305221      -280.4193
  47   2.0000     -10.303017      -280.3594
  48   2.0000     -10.302102      -280.3345
  49   2.0000     -10.300626      -280.2943
  50   2.0000     -10.300378      -280.2875
  51   2.0000     -10.299928      -280.2753
  52   2.0000     -10.299639      -280.2674
  53   2.0000     -10.299480      -280.2631
  54   2.0000     -10.299230      -280.2563
  55   2.0000     -10.298808      -280.2448
  56   2.0000     -10.297397      -280.2064
  57   2.0000     -10.291974      -280.0588
  58   2.0000     -10.289739      -279.9980
  59   2.0000     -10.289210      -279.9836
  60   2.0000     -10.288713      -279.9701
  61   2.0000     -10.288440      -279.9627
  62   2.0000     -10.288126      -279.9541
  63   2.0000     -10.287931      -279.9488
  64   2.0000     -10.287394      -279.9342
  65   2.0000     -10.287243      -279.9301
  66   2.0000     -10.286817      -279.9185
  67   2.0000     -10.271686      -279.5068
  68   2.0000     -10.271021      -279.4887
  69   2.0000     -10.269274      -279.4412
  70   2.0000     -10.262461      -279.2558
  71   2.0000      -8.081723      -219.9149
  72   2.0000      -6.050730      -164.6487
  73   2.0000      -6.046668      -164.5382
  74   2.0000      -6.044184      -164.4706
  75   2.0000      -1.142624       -31.0924
  76   2.0000      -1.139209       -30.9994
  77   2.0000      -1.134558       -30.8729
  78   2.0000      -1.131141       -30.7799
  79   2.0000      -1.095194       -29.8017
  80   2.0000      -1.072345       -29.1800
  81   2.0000      -1.063102       -28.9285
  82   2.0000      -1.024694       -27.8833
  83   2.0000      -1.021122       -27.7862
  84   2.0000      -1.020779       -27.7768
  85   2.0000      -1.002267       -27.2731
  86   2.0000      -1.000228       -27.2176
  87   2.0000      -0.998403       -27.1679
  88   2.0000      -0.996644       -27.1201
  89   2.0000      -0.996414       -27.1138
  90   2.0000      -0.989676       -26.9305
  91   2.0000      -0.974930       -26.5292
  92   2.0000      -0.973080       -26.4788
  93   2.0000      -0.942873       -25.6569
  94   2.0000      -0.936829       -25.4924
  95   2.0000      -0.932423       -25.3725
  96   2.0000      -0.925709       -25.1898
  97   2.0000      -0.923813       -25.1382
  98   2.0000      -0.907957       -24.7068
  99   2.0000      -0.905549       -24.6413
 100   2.0000      -0.889183       -24.1959
 101   2.0000      -0.886782       -24.1306
 102   2.0000      -0.883625       -24.0446
 103   2.0000      -0.882426       -24.0120
 104   2.0000      -0.877540       -23.8791
 105   2.0000      -0.872059       -23.7299
 106   2.0000      -0.859985       -23.4014
 107   2.0000      -0.846805       -23.0427
 108   2.0000      -0.831311       -22.6211
 109   2.0000      -0.829736       -22.5783
 110   2.0000      -0.825587       -22.4654
 111   2.0000      -0.816886       -22.2286
 112   2.0000      -0.806462       -21.9449
 113   2.0000      -0.786632       -21.4053
 114   2.0000      -0.777045       -21.1445
 115   2.0000      -0.766168       -20.8485
 116   2.0000      -0.765771       -20.8377
 117   2.0000      -0.764270       -20.7968
 118   2.0000      -0.760850       -20.7038
 119   2.0000      -0.744625       -20.2623
 120   2.0000      -0.738434       -20.0938
 121   2.0000      -0.725891       -19.7525
 122   2.0000      -0.714524       -19.4432
 123   2.0000      -0.709389       -19.3034
 124   2.0000      -0.706871       -19.2349
 125   2.0000      -0.705605       -19.2005
 126   2.0000      -0.703993       -19.1566
 127   2.0000      -0.699223       -19.0268
 128   2.0000      -0.692925       -18.8554
 129   2.0000      -0.683083       -18.5876
 130   2.0000      -0.681943       -18.5566
 131   2.0000      -0.676989       -18.4218
 132   2.0000      -0.666943       -18.1484
 133   2.0000      -0.663381       -18.0515
 134   2.0000      -0.655844       -17.8464
 135   2.0000      -0.645263       -17.5585
 136   2.0000      -0.639899       -17.4125
 137   2.0000      -0.635052       -17.2806
 138   2.0000      -0.625930       -17.0324
 139   2.0000      -0.624582       -16.9957
 140   2.0000      -0.617310       -16.7979
 141   2.0000      -0.609770       -16.5927
 142   2.0000      -0.609044       -16.5729
 143   2.0000      -0.605744       -16.4831
 144   2.0000      -0.604570       -16.4512
 145   2.0000      -0.595606       -16.2073
 146   2.0000      -0.589091       -16.0300
 147   2.0000      -0.583678       -15.8827
 148   2.0000      -0.577408       -15.7121
 149   2.0000      -0.575284       -15.6543
 150   2.0000      -0.571554       -15.5528
 151   2.0000      -0.563462       -15.3326
 152   2.0000      -0.556517       -15.1436
 153   2.0000      -0.555109       -15.1053
 154   2.0000      -0.549808       -14.9610
 155   2.0000      -0.549250       -14.9459
 156   2.0000      -0.547180       -14.8895
 157   2.0000      -0.543113       -14.7789
 158   2.0000      -0.540840       -14.7170
 159   2.0000      -0.539547       -14.6818
 160   2.0000      -0.537640       -14.6299
 161   2.0000      -0.537394       -14.6232
 162   2.0000      -0.535191       -14.5633
 163   2.0000      -0.534930       -14.5562
 164   2.0000      -0.531038       -14.4503
 165   2.0000      -0.526914       -14.3381
 166   2.0000      -0.525925       -14.3111
 167   2.0000      -0.522543       -14.2191
 168   2.0000      -0.521778       -14.1983
 169   2.0000      -0.519129       -14.1262
 170   2.0000      -0.517599       -14.0846
 171   2.0000      -0.516710       -14.0604
 172   2.0000      -0.514879       -14.0106
 173   2.0000      -0.513456       -13.9718
 174   2.0000      -0.512052       -13.9336
 175   2.0000      -0.509444       -13.8627
 176   2.0000      -0.506320       -13.7777
 177   2.0000      -0.502090       -13.6626
 178   2.0000      -0.501465       -13.6456
 179   2.0000      -0.499287       -13.5863
 180   2.0000      -0.498365       -13.5612
 181   2.0000      -0.491033       -13.3617
 182   2.0000      -0.490456       -13.3460
 183   2.0000      -0.487475       -13.2649
 184   2.0000      -0.484905       -13.1949
 185   2.0000      -0.482489       -13.1292
 186   2.0000      -0.475432       -12.9372
 187   2.0000      -0.474137       -12.9019
 188   2.0000      -0.471382       -12.8270
 189   2.0000      -0.468545       -12.7497
 190   2.0000      -0.466273       -12.6879
 191   2.0000      -0.464635       -12.6434
 192   2.0000      -0.459556       -12.5051
 193   2.0000      -0.453954       -12.3527
 194   2.0000      -0.452096       -12.3022
 195   2.0000      -0.451560       -12.2876
 196   2.0000      -0.451279       -12.2799
 197   2.0000      -0.449724       -12.2376
 198   2.0000      -0.448577       -12.2064
 199   2.0000      -0.446881       -12.1603
 200   2.0000      -0.446509       -12.1501
 201   2.0000      -0.444814       -12.1040
 202   2.0000      -0.443914       -12.0795
 203   2.0000      -0.442989       -12.0543
 204   2.0000      -0.442012       -12.0278
 205   2.0000      -0.436651       -11.8819
 206   2.0000      -0.436350       -11.8737
 207   2.0000      -0.436067       -11.8660
 208   2.0000      -0.434635       -11.8270
 209   2.0000      -0.433660       -11.8005
 210   2.0000      -0.429756       -11.6943
 211   2.0000      -0.429443       -11.6857
 212   2.0000      -0.427899       -11.6437
 213   2.0000      -0.422343       -11.4925
 214   2.0000      -0.421592       -11.4721
 215   2.0000      -0.415915       -11.3176
 216   2.0000      -0.414696       -11.2844
 217   2.0000      -0.413650       -11.2560
 218   2.0000      -0.409490       -11.1428
 219   2.0000      -0.408531       -11.1167
 220   2.0000      -0.402038       -10.9400
 221   2.0000      -0.397021       -10.8035
 222   2.0000      -0.391144       -10.6436
 223   2.0000      -0.390482       -10.6256
 224   2.0000      -0.378532       -10.3004
 225   2.0000      -0.377131       -10.2622
 226   2.0000      -0.357123        -9.7178
 227   2.0000      -0.352332        -9.5874
 228   2.0000      -0.348676        -9.4880
 229   2.0000      -0.345437        -9.3998
 230   2.0000      -0.343601        -9.3499
 231   2.0000      -0.340509        -9.2657
 232   2.0000      -0.338230        -9.2037
 233   2.0000      -0.324513        -8.8305
 234   2.0000      -0.323196        -8.7946
 235   2.0000      -0.320789        -8.7291
 236   2.0000      -0.320131        -8.7112
 237   2.0000      -0.311179        -8.4676
 238   2.0000      -0.302555        -8.2329
 239   2.0000      -0.294826        -8.0226
 240   2.0000      -0.291755        -7.9390
 241   2.0000      -0.244289        -6.6475
 242   0.0000      -0.114955        -3.1281
 243   0.0000      -0.097275        -2.6470
 244   0.0000      -0.079754        -2.1702
 245   0.0000      -0.061806        -1.6818
 246   0.0000      -0.055612        -1.5133

MULLIKEN ATOMIC CHARGES
-----------------------
   0 C :    0.306886
   1 C :   -0.349170
   2 C :   -0.180379
   3 N :    0.148245
   4 C :   -0.200220
   5 N :    0.161288
   6 C :    0.050976
   7 C :   -0.002619
   8 C :   -0.081509
   9 C :    0.097896
  10 C :    0.097052
  11 C :   -0.083613
  12 C :   -0.019682
  13 C :    0.036733
  14 C :    0.036977
  15 C :   -0.014869
  16 C :    0.162611
  17 O :   -0.153983
  18 C :   -0.083497
  19 C :    0.051912
  20 C :   -0.109743
  21 S :    0.199893
  22 C :   -0.051429
  23 C :   -0.094893
  24 C :    0.038919
  25 C :   -0.154220
  26 N :    0.120009
  27 C :    0.053093
  28 C :   -0.028088
  29 C :    0.135042
  30 N :   -0.256304
  31 C :    0.091647
  32 C :    0.008341
  33 C :    0.167858
  34 O :   -0.210458
  35 C :   -0.068855
  36 C :   -0.063666
  37 C :    0.169764
  38 O :   -0.206340
  39 N :   -0.258691
  40 C :    0.094985
  41 C :    0.003084
  42 C :    0.134967
  43 C :   -0.002473
  44 C :    0.015431
  45 C :    0.013593
  46 C :    0.033909
  47 N :   -0.049668
  48 C :   -0.064986
  49 N :   -0.034980
  50 C :    0.045491
  51 C :    0.030875
  52 C :   -0.051777
  53 C :    0.308520
  54 C :   -0.342803
  55 C :   -0.185321
  56 N :    0.154705
  57 C :   -0.190201
  58 N :    0.164910
  59 C :    0.049569
  60 C :   -0.001595
  61 C :    0.151582
  62 O :   -0.123704
  63 C :   -0.079998
  64 C :    0.100080
  65 C :    0.097384
  66 C :   -0.084556
  67 C :   -0.019805
  68 C :    0.037586
  69 C :    0.037110
  70 C :   -0.017957
  71 H :   -0.011934
  72 H :   -0.006996
  73 H :   -0.008435
  74 H :   -0.003046
  75 H :   -0.003606
  76 H :   -0.016847
  77 H :    0.016351
  78 H :    0.026481
  79 H :    0.007040
  80 H :   -0.010444
  81 H :    0.038352
  82 H :    0.043520
  83 H :    0.017475
  84 H :    0.030826
  85 H :    0.024304
  86 H :    0.047952
  87 H :    0.027163
  88 H :    0.030888
  89 H :    0.028386
  90 H :    0.014713
  91 H :   -0.024843
  92 H :    0.023072
  93 H :    0.009423
  94 H :    0.022292
  95 H :    0.040654
  96 H :   -0.010767
  97 H :   -0.007400
  98 H :   -0.007503
  99 H :   -0.004173
 100 H :   -0.004130
 101 H :   -0.015636
Sum of atomic charges:   -0.0000000

LOEWDIN ATOMIC CHARGES
----------------------
   0 C :    0.076112
   1 C :   -0.138350
   2 C :   -0.016680
   3 N :   -0.051812
   4 C :   -0.026541
   5 N :   -0.048196
   6 C :   -0.026566
   7 C :   -0.056166
   8 C :    0.033656
   9 C :   -0.008128
  10 C :   -0.005682
  11 C :    0.020262
  12 C :   -0.004908
  13 C :   -0.012265
  14 C :   -0.011276
  15 C :   -0.009019
  16 C :    0.088755
  17 O :   -0.140763
  18 C :   -0.086689
  19 C :    0.045654
  20 C :   -0.179739
  21 S :    0.503451
  22 C :   -0.125298
  23 C :   -0.110048
  24 C :    0.021617
  25 C :   -0.023101
  26 N :   -0.057839
  27 C :   -0.010642
  28 C :   -0.017425
  29 C :    0.069949
  30 N :    0.003643
  31 C :    0.036610
  32 C :   -0.058819
  33 C :    0.080144
  34 O :   -0.201418
  35 C :   -0.120968
  36 C :   -0.112057
  37 C :    0.082191
  38 O :   -0.195431
  39 N :    0.001510
  40 C :    0.036241
  41 C :   -0.060621
  42 C :    0.081463
  43 C :   -0.042750
  44 C :    0.035970
  45 C :   -0.067810
  46 C :    0.056952
  47 N :   -0.067145
  48 C :    0.023430
  49 N :   -0.053622
  50 C :    0.065453
  51 C :    0.062237
  52 C :   -0.055443
  53 C :    0.075023
  54 C :   -0.127178
  55 C :   -0.016129
  56 N :   -0.047424
  57 C :   -0.021454
  58 N :   -0.040301
  59 C :   -0.027202
  60 C :   -0.054349
  61 C :    0.083641
  62 O :   -0.120156
  63 C :    0.032275
  64 C :   -0.006406
  65 C :   -0.005975
  66 C :    0.020632
  67 C :   -0.004889
  68 C :   -0.012973
  69 C :   -0.010817
  70 C :   -0.009587
  71 H :    0.039343
  72 H :    0.039303
  73 H :    0.035105
  74 H :    0.033788
  75 H :    0.033382
  76 H :    0.032221
  77 H :    0.044329
  78 H :    0.042825
  79 H :    0.037346
  80 H :    0.037245
  81 H :    0.028481
  82 H :    0.038037
  83 H :    0.023171
  84 H :    0.034558
  85 H :    0.029916
  86 H :    0.039459
  87 H :    0.023940
  88 H :    0.033004
  89 H :    0.032569
  90 H :    0.021639
  91 H :    0.028143
  92 H :    0.040385
  93 H :    0.024981
  94 H :    0.033715
  95 H :    0.051026
  96 H :    0.039740
  97 H :    0.039069
  98 H :    0.035191
  99 H :    0.033534
 100 H :    0.033244
 101 H :    0.032498

  Mayer bond orders larger than 0.100000
B(  0-C ,  1-C ) :   1.6305 B(  0-C ,  6-C ) :   0.9872 B(  0-C , 18-C ) :   1.0691
B(  1-C ,  2-C ) :   1.1492 B(  1-C ,  4-C ) :   1.1355 B(  2-C ,  3-N ) :   2.9643
B(  4-C ,  5-N ) :   2.9856 B(  6-C ,  7-C ) :   1.2142 B(  6-C , 11-C ) :   1.4480
B(  7-C ,  8-C ) :   1.4675 B(  7-C , 16-C ) :   0.9559 B(  8-C ,  9-C ) :   1.1795
B(  8-C , 71-H ) :   1.0168 B(  9-C , 10-C ) :   1.2551 B(  9-C , 15-C ) :   1.2442
B( 10-C , 11-C ) :   1.2066 B( 10-C , 12-C ) :   1.2398 B( 11-C , 72-H ) :   0.9900
B( 12-C , 13-C ) :   1.4898 B( 12-C , 73-H ) :   0.9975 B( 13-C , 14-C ) :   1.2594
B( 13-C , 74-H ) :   0.9884 B( 14-C , 15-C ) :   1.4892 B( 14-C , 75-H ) :   0.9887
B( 15-C , 76-H ) :   0.9976 B( 16-C , 17-O ) :   2.1701 B( 16-C , 18-C ) :   0.9330
B( 18-C , 19-C ) :   1.6193 B( 19-C , 20-C ) :   1.1882 B( 19-C , 77-H ) :   0.9141
B( 20-C , 21-S ) :   1.1077 B( 20-C , 24-C ) :   1.4265 B( 21-S , 22-C ) :   1.1880
B( 22-C , 23-C ) :   1.3777 B( 22-C , 27-C ) :   1.1654 B( 23-C , 24-C ) :   1.3154
B( 23-C , 25-C ) :   1.1218 B( 24-C , 78-H ) :   0.9815 B( 25-C , 26-N ) :   2.9670
B( 27-C , 28-C ) :   1.6032 B( 27-C , 79-H ) :   0.9207 B( 28-C , 29-C ) :   1.1742
B( 28-C , 80-H ) :   0.9465 B( 29-C , 30-N ) :   1.1612 B( 29-C , 36-C ) :   1.3324
B( 30-N , 31-C ) :   0.9370 B( 30-N , 33-C ) :   1.0669 B( 31-C , 32-C ) :   1.1247
B( 31-C , 81-H ) :   0.9482 B( 31-C , 82-H ) :   0.9275 B( 32-C , 83-H ) :   0.9678
B( 32-C , 84-H ) :   0.9671 B( 32-C , 85-H ) :   0.9633 B( 33-C , 34-O ) :   2.0249
B( 33-C , 35-C ) :   0.9844 B( 34-O , 92-H ) :   0.1142 B( 35-C , 36-C ) :   1.2580
B( 35-C , 42-C ) :   1.3392 B( 36-C , 37-C ) :   0.9838 B( 37-C , 38-O ) :   2.0229
B( 37-C , 39-N ) :   1.0609 B( 38-O , 79-H ) :   0.1161 B( 39-N , 40-C ) :   0.9423
B( 39-N , 42-C ) :   1.1628 B( 40-C , 41-C ) :   1.1214 B( 40-C , 86-H ) :   0.9275
B( 40-C , 87-H ) :   0.9498 B( 41-C , 88-H ) :   0.9638 B( 41-C , 89-H ) :   0.9679
B( 41-C , 90-H ) :   0.9686 B( 42-C , 43-C ) :   1.1557 B( 43-C , 44-C ) :   1.6316
B( 43-C , 91-H ) :   0.9556 B( 44-C , 45-C ) :   1.0684 B( 44-C , 92-H ) :   0.9564
B( 45-C , 46-C ) :   1.3080 B( 45-C , 50-C ) :   1.2939 B( 46-C , 47-N ) :   1.5837
B( 46-C , 93-H ) :   0.9839 B( 47-N , 48-C ) :   1.5019 B( 48-C , 49-N ) :   1.4911
B( 48-C , 51-C ) :   0.9983 B( 49-N , 50-C ) :   1.5790 B( 50-C , 94-H ) :   0.9882
B( 51-C , 52-C ) :   1.7609 B( 51-C , 95-H ) :   0.9327 B( 52-C , 53-C ) :   1.0347
B( 52-C , 61-C ) :   0.9066 B( 53-C , 54-C ) :   1.6588 B( 53-C , 59-C ) :   1.0000
B( 54-C , 55-C ) :   1.1425 B( 54-C , 57-C ) :   1.1382 B( 55-C , 56-N ) :   2.9689
B( 57-C , 58-N ) :   2.9773 B( 59-C , 60-C ) :   1.2131 B( 59-C , 66-C ) :   1.4372
B( 60-C , 61-C ) :   0.9324 B( 60-C , 63-C ) :   1.4689 B( 61-C , 62-O ) :   2.2708
B( 63-C , 64-C ) :   1.1860 B( 63-C , 96-H ) :   1.0160 B( 64-C , 65-C ) :   1.2524
B( 64-C , 70-C ) :   1.2412 B( 65-C , 66-C ) :   1.2157 B( 65-C , 67-C ) :   1.2354
B( 66-C , 97-H ) :   0.9899 B( 67-C , 68-C ) :   1.4936 B( 67-C , 98-H ) :   0.9977
B( 68-C , 69-C ) :   1.2562 B( 68-C , 99-H ) :   0.9880 B( 69-C , 70-C ) :   1.4920
B( 69-C ,100-H ) :   0.9883 B( 70-C ,101-H ) :   0.9983

-----------------------------------------------------------------------------
         ABSORPTION SPECTRUM VIA TRANSITION ELECTRIC DIPOLE MOMENTS
-----------------------------------------------------------------------------
State   Energy  Wavelength   fosc         T2         TX        TY        TZ
        (cm-1)    (nm)                  (au**2)     (au)      (au)      (au)
-----------------------------------------------------------------------------
   0   13574.6    736.7   1.262292656  30.61323  -3.46294   3.93411   1.77315
   1   19949.5    501.3   0.028899108   0.47690  -0.16690   0.61232  -0.27223
   2   23218.7    430.7   0.371391025   5.26585  -1.14154   0.28400   1.97030
   3   24124.5    414.5   0.236989858   3.23405   1.23295  -0.69651  -1.10849
   4   24653.6    405.6   0.007958995   0.10628   0.22511  -0.17509  -0.15796
   5   25792.4    387.7   0.055512705   0.70856   0.49033  -0.53508  -0.42641
   6   26019.0    384.3   0.230114885   2.91159  -0.83577   1.42805   0.41683
   7   26099.9    383.1   0.130058466   1.64050  -0.74866   0.43625   0.94324
   8   27281.2    366.6   0.194042842   2.34159   0.89702  -0.84703  -0.90525
   9   27551.3    363.0   0.015463544   0.18477   0.06913  -0.42222  -0.04158
  10   28131.1    355.5   0.019154336   0.22416   0.26978  -0.37785  -0.09276
  11   28257.9    353.9   0.106948628   1.24598   0.57271  -0.78624  -0.54755
  12   28622.6    349.4   0.138648579   1.59471   0.63584  -1.01115  -0.40987
  13   28776.5    347.5   0.012635746   0.14456   0.04689   0.32121  -0.19794
  14   29064.8    344.1   0.097643862   1.10599  -0.35240   0.98270   0.12692
  15   30007.1    333.3   0.477597529   5.23978  -1.37469   0.99686   1.53502
  16   30893.0    323.7   0.147039965   1.56694   0.62623   0.38438  -1.01342
  17   31052.0    322.0   0.017394150   0.18441   0.16395  -0.33603  -0.21123
  18   31511.3    317.3   0.002097549   0.02191   0.03497  -0.14369  -0.00663
  19   32642.8    306.3   0.188188574   1.89794  -0.25061  -0.97962   0.93567
  20   32858.3    304.3   0.660858869   6.62123   0.80696  -2.43005  -0.25473
  21   33002.7    303.0   0.095235287   0.95000  -0.32332  -0.51576   0.76122
  22   33758.3    296.2   0.072455306   0.70659  -0.08454  -0.71669   0.43104
  23   33886.0    295.1   0.069545517   0.67565   0.13498   0.27793  -0.76170
  24   34327.3    291.3   0.521947441   5.00568   1.10437   0.49438  -1.88192
  25   34420.8    290.5   0.020574108   0.19678  -0.20499   0.15326   0.36231
  26   34595.9    289.1   0.007205191   0.06856   0.02198  -0.25513   0.05468
  27   34986.4    285.8   0.010785999   0.10149  -0.14684   0.11353   0.25892
  28   35607.9    280.8   0.076824245   0.71028   0.35043  -0.75921  -0.10526
  29   35729.7    279.9   0.030136275   0.27767   0.29927   0.07453  -0.42727
  30   36248.5    275.9   0.022130001   0.20099   0.23023  -0.12348  -0.36433
  31   36424.7    274.5   0.004671526   0.04222  -0.12304   0.11251   0.12010
  32   36681.4    272.6   0.231856393   2.08089   0.59937   0.47891  -1.22159
  33   37105.1    269.5   0.257181564   2.28182   0.50807   0.52511  -1.32210
  34   37236.0    268.6   0.268001270   2.36946   0.12295  -1.51850   0.22020
  35   37966.6    263.4   0.054108090   0.46918   0.24039   0.30937  -0.56185
  36   38395.9    260.4   0.012753156   0.10935   0.19857   0.04310  -0.26088
  37   38672.1    258.6   0.086284011   0.73453   0.48868  -0.39111  -0.58545
  38   38815.3    257.6   0.164586947   1.39594  -0.14301  -0.98123   0.64240
  39   38944.8    256.8   0.045064471   0.38094   0.10027   0.51130  -0.33086
  40   39140.9    255.5   0.018012755   0.15150  -0.20228  -0.12044   0.30997
  41   39371.0    254.0   0.016215749   0.13559   0.04578   0.35665  -0.07935
  42   39648.0    252.2   0.007206596   0.05984  -0.04194  -0.10135   0.21865
  43   39886.7    250.7   0.018976597   0.15663  -0.16474  -0.09846   0.34611
  44   39942.0    250.4   0.023349455   0.19245   0.09258  -0.42743   0.03435

FINAL SINGLE POINT ENERGY     -3378.638964568530

DIPOLE MOMENT
-------------
                                X             Y             Z
Electronic contribution:      6.41851      10.32180     -11.53645
Nuclear contribution   :     -6.73393     -13.47851      12.70607
                        -----------------------------------------
Total Dipole Moment    :     -0.31543      -3.15671       1.16963
                        -----------------------------------------
Magnitude (a.u.)       :      3.38118
Magnitude (Debye)      :      8.59427

Rotational constants in cm-1:     0.003232     0.000188     0.000179
Rotational constants in MHz :    96.902418     5.625136     5.359606

                             ****ORCA TERMINATED NORMALLY****
TOTAL RUN TIME: 0 days 0 hours 9 minutes 27 seconds 715 msec
