                         Program Version 4.2.0 -  RELEASE  -
|  1> # ORCA input file
|  2> # SCF done       -203.258594776203          0.000828710812
|  3> ! CAM-B3LYP def2-SVP def2/J RIJCOSX Grid4 TightSCF
|  4> %maxcore 5000
|  5> %tddft
|  6>     Mode sTDDFT
|  7>     Ethresh 5.0
|  8>     maxcore 5000
|  9> end
| 10>
| 11> %pal
| 12>   nprocs 6
| 13>   end
| 14> * xyz 0 1
| 15>    C       -1.11728         0.41057         3.67236
| 16>    C       -1.30966         1.67682         4.15744
| 17>    C       -0.73486         2.77794         3.52151
| 18>    C        0.05005         2.65202         2.38694
| 19>    C        0.26369         1.33875         1.86694
| 20>    C       -0.33064         0.22639         2.52121
| 21>    N       -0.14827        -1.02297         2.04261
| 22>    C        0.58107        -1.19519         0.97399
| 23>    C        1.18397        -0.08085         0.31451
| 24>    N        1.01301         1.13339         0.76680
| 25>    C        2.02355        -0.25291        -0.90474
| 26>    C        0.75833        -2.58766         0.47026
| 27>    C        0.62024         3.81572         1.75799
| 28>    C        1.46536         3.87477         0.67199
| 29>    C        1.80777         5.18491         0.33219
| 30>    C        1.21630         6.14192         1.17132
| 31>    S        0.24404         5.42583         2.37560
| 32>    C        1.61797         7.43244         0.73533
| 33>    C        2.46484         7.28529        -0.37618
| 34>    C        2.60897         5.86642        -0.66768
| 35>    C        3.32951         5.29817        -1.67755
| 36>    C        4.06718         6.07217        -2.59757
| 37>    N        4.66122         6.70460        -3.34738
| 38>    C        3.37792         3.90250        -1.87273
| 39>    N        3.42237         2.76937        -2.04474
| 40>    C        2.90557         8.50349        -0.88999
| 41>    C        2.39758         9.57785        -0.18286
| 42>    S        1.36285         9.07035         1.14637
| 43>    C        2.61052        10.95439        -0.44362
| 44>    C        2.05793        12.04051         0.21099
| 45>    C        2.46925        13.25062        -0.34793
| 46>    C        3.34771        13.08122        -1.43223
| 47>    S        3.66680        11.43536        -1.76420
| 48>    C        3.68497        14.35610        -1.94393
| 49>    C        3.01657        15.33670        -1.18910
| 50>    C        2.23738        14.67354        -0.15506
| 51>    C        1.45202        15.26286         0.79241
| 52>    C        1.30163        16.66298         0.87404
| 53>    N        1.18219        17.80191         0.93404
| 54>    C        0.74015        14.51037         1.74978
| 55>    N        0.16061        13.89929         2.52795
| 56>    C        3.26678        16.63156        -1.63855
| 57>    C        4.12393        16.65197        -2.72540
| 58>    S        4.63072        15.02887        -3.19392
| 59>    C        4.57950        17.78374        -3.45936
| 60>    C        5.49636        17.68467        -4.48304
| 61>    C        5.95887        18.75332        -5.24144
| 62>    C        5.46081        20.11132        -5.02222
| 63>    C        4.56259        20.44213        -4.06665
| 64>    S        3.87192        19.31577        -2.97561
| 65>    C        6.12294        20.91649        -5.98809
| 66>    C        6.98332        20.13258        -6.76219
| 67>    C        7.70241        20.91285        -7.69413
| 68>    C        7.36343        22.22636        -7.61461
| 69>    S        6.17020        22.57890        -6.41269
| 70>    C        6.88728        18.76316        -6.31279
| 71>    C        7.56139        17.62643        -6.78298
| 72>    C        8.32212        17.51900        -7.92040
| 73>    C        8.95021        16.30747        -8.22934
| 74>    C        9.68096        15.90483        -9.32293
| 75>    C        9.93789        14.44917        -9.45034
| 76>    O        9.74090        13.60276        -8.60436
| 77>    C       10.43747        14.24593       -10.82390
| 78>    C       10.75162        13.08086       -11.45988
| 79>    C       11.18087        13.12775       -12.80540
| 80>    C       11.26196        14.38713       -13.46570
| 81>    C       11.68074        14.42916       -14.81056
| 82>    C       12.00898        13.27588       -15.46623
| 83>    C       11.93198        12.03159       -14.81077
| 84>    C       11.52574        11.95714       -13.50796
| 85>    F       12.26111        10.91559       -15.47863
| 86>    F       12.40938        13.31876       -16.74555
| 87>    C       10.93441        15.57785       -12.77584
| 88>    C       10.53828        15.51073       -11.46712
| 89>    C       10.18789        16.55778       -10.50135
| 90>    C       10.47684        17.88876       -10.68952
| 91>    C       10.41399        18.89459        -9.71045
| 92>    N       10.43222        19.77648        -8.97317
| 93>    C       10.97941        18.42792       -11.89140
| 94>    N       11.36813        18.94849       -12.83890
| 95>    H       -1.54953        -0.45823         4.14213
| 96>    H       -1.91068         1.83640         5.03996
| 97>    H       -0.90775         3.76350         3.93100
| 98>    H        1.43786        -0.70464        -1.70421
| 99>    H        2.86398        -0.91249        -0.69394
|100>    H        2.40010         0.71025        -1.23834
|101>    H        0.21408        -3.27445         1.11186
|102>    H        1.81341        -2.85711         0.46474
|103>    H        0.38515        -2.67175        -0.54928
|104>    H        1.79562         2.98505         0.16949
|105>    H        3.55727         8.61988        -1.73743
|106>    H        1.38632        11.93740         1.04438
|107>    H        2.85200        17.52386        -1.20526
|108>    H        5.87370        16.69337        -4.69756
|109>    H        4.21548        21.45254        -3.91994
|110>    H        8.46405        20.55353        -8.36148
|111>    H        7.75276        23.03701        -8.19861
|112>    H        7.45768        16.73190        -6.17965
|113>    H        8.39906        18.35784        -8.58934
|114>    H        8.78653        15.49819        -7.52104
|115>    H       10.67433        12.13604       -10.94372
|116>    H       11.74885        15.37422       -15.32646
|117>    H       11.47132        10.99674       -13.01968
|118>    H       11.00203        16.51255       -13.30830
|119> *
|120>
|121>                          ****END OF INPUT****

CARTESIAN COORDINATES (ANGSTROEM)
---------------------------------
  C     -1.117280    0.410570    3.672360
  C     -1.309660    1.676820    4.157440
  C     -0.734860    2.777940    3.521510
  C      0.050050    2.652020    2.386940
  C      0.263690    1.338750    1.866940
  C     -0.330640    0.226390    2.521210
  N     -0.148270   -1.022970    2.042610
  C      0.581070   -1.195190    0.973990
  C      1.183970   -0.080850    0.314510
  N      1.013010    1.133390    0.766800
  C      2.023550   -0.252910   -0.904740
  C      0.758330   -2.587660    0.470260
  C      0.620240    3.815720    1.757990
  C      1.465360    3.874770    0.671990
  C      1.807770    5.184910    0.332190
  C      1.216300    6.141920    1.171320
  S      0.244040    5.425830    2.375600
  C      1.617970    7.432440    0.735330
  C      2.464840    7.285290   -0.376180
  C      2.608970    5.866420   -0.667680
  C      3.329510    5.298170   -1.677550
  C      4.067180    6.072170   -2.597570
  N      4.661220    6.704600   -3.347380
  C      3.377920    3.902500   -1.872730
  N      3.422370    2.769370   -2.044740
  C      2.905570    8.503490   -0.889990
  C      2.397580    9.577850   -0.182860
  S      1.362850    9.070350    1.146370
  C      2.610520   10.954390   -0.443620
  C      2.057930   12.040510    0.210990
  C      2.469250   13.250620   -0.347930
  C      3.347710   13.081220   -1.432230
  S      3.666800   11.435360   -1.764200
  C      3.684970   14.356100   -1.943930
  C      3.016570   15.336700   -1.189100
  C      2.237380   14.673540   -0.155060
  C      1.452020   15.262860    0.792410
  C      1.301630   16.662980    0.874040
  N      1.182190   17.801910    0.934040
  C      0.740150   14.510370    1.749780
  N      0.160610   13.899290    2.527950
  C      3.266780   16.631560   -1.638550
  C      4.123930   16.651970   -2.725400
  S      4.630720   15.028870   -3.193920
  C      4.579500   17.783740   -3.459360
  C      5.496360   17.684670   -4.483040
  C      5.958870   18.753320   -5.241440
  C      5.460810   20.111320   -5.022220
  C      4.562590   20.442130   -4.066650
  S      3.871920   19.315770   -2.975610
  C      6.122940   20.916490   -5.988090
  C      6.983320   20.132580   -6.762190
  C      7.702410   20.912850   -7.694130
  C      7.363430   22.226360   -7.614610
  S      6.170200   22.578900   -6.412690
  C      6.887280   18.763160   -6.312790
  C      7.561390   17.626430   -6.782980
  C      8.322120   17.519000   -7.920400
  C      8.950210   16.307470   -8.229340
  C      9.680960   15.904830   -9.322930
  C      9.937890   14.449170   -9.450340
  O      9.740900   13.602760   -8.604360
  C     10.437470   14.245930  -10.823900
  C     10.751620   13.080860  -11.459880
  C     11.180870   13.127750  -12.805400
  C     11.261960   14.387130  -13.465700
  C     11.680740   14.429160  -14.810560
  C     12.008980   13.275880  -15.466230
  C     11.931980   12.031590  -14.810770
  C     11.525740   11.957140  -13.507960
  F     12.261110   10.915590  -15.478630
  F     12.409380   13.318760  -16.745550
  C     10.934410   15.577850  -12.775840
  C     10.538280   15.510730  -11.467120
  C     10.187890   16.557780  -10.501350
  C     10.476840   17.888760  -10.689520
  C     10.413990   18.894590   -9.710450
  N     10.432220   19.776480   -8.973170
  C     10.979410   18.427920  -11.891400
  N     11.368130   18.948490  -12.838900
  H     -1.549530   -0.458230    4.142130
  H     -1.910680    1.836400    5.039960
  H     -0.907750    3.763500    3.931000
  H      1.437860   -0.704640   -1.704210
  H      2.863980   -0.912490   -0.693940
  H      2.400100    0.710250   -1.238340
  H      0.214080   -3.274450    1.111860
  H      1.813410   -2.857110    0.464740
  H      0.385150   -2.671750   -0.549280
  H      1.795620    2.985050    0.169490
  H      3.557270    8.619880   -1.737430
  H      1.386320   11.937400    1.044380
  H      2.852000   17.523860   -1.205260
  H      5.873700   16.693370   -4.697560
  H      4.215480   21.452540   -3.919940
  H      8.464050   20.553530   -8.361480
  H      7.752760   23.037010   -8.198610
  H      7.457680   16.731900   -6.179650
  H      8.399060   18.357840   -8.589340
  H      8.786530   15.498190   -7.521040
  H     10.674330   12.136040  -10.943720
  H     11.748850   15.374220  -15.326460
  H     11.471320   10.996740  -13.019680
  H     11.002030   16.512550  -13.308300

 Total Charge           Charge          ....    0
 Multiplicity           Mult            ....    1
 Number of Electrons    NEL             ....  580
 Basis Dimension        Dim             .... 1264

ORBITAL ENERGIES
----------------

  NO   OCC          E(Eh)            E(eV)
   0   2.0000     -89.002815     -2421.8897
   1   2.0000     -88.999027     -2421.7866
   2   2.0000     -88.996252     -2421.7111
   3   2.0000     -88.995606     -2421.6936
   4   2.0000     -88.984922     -2421.4028
   5   2.0000     -88.959123     -2420.7008
   6   2.0000     -24.790038      -674.5712
   7   2.0000     -24.789186      -674.5480
   8   2.0000     -19.201014      -522.4861
   9   2.0000     -14.439831      -392.9278
  10   2.0000     -14.439417      -392.9165
  11   2.0000     -14.433310      -392.7503
  12   2.0000     -14.432219      -392.7206
  13   2.0000     -14.416046      -392.2805
  14   2.0000     -14.414667      -392.2430
  15   2.0000     -14.408282      -392.0693
  16   2.0000     -14.404899      -391.9772
  17   2.0000     -10.374820      -282.3132
  18   2.0000     -10.372403      -282.2474
  19   2.0000     -10.371724      -282.2290
  20   2.0000     -10.365085      -282.0483
  21   2.0000     -10.361803      -281.9590
  22   2.0000     -10.352708      -281.7115
  23   2.0000     -10.351463      -281.6776
  24   2.0000     -10.350833      -281.6605
  25   2.0000     -10.345393      -281.5124
  26   2.0000     -10.342483      -281.4333
  27   2.0000     -10.339911      -281.3633
  28   2.0000     -10.339498      -281.3520
  29   2.0000     -10.339332      -281.3475
  30   2.0000     -10.339293      -281.3465
  31   2.0000     -10.339264      -281.3457
  32   2.0000     -10.336676      -281.2753
  33   2.0000     -10.334331      -281.2115
  34   2.0000     -10.333159      -281.1795
  35   2.0000     -10.332915      -281.1729
  36   2.0000     -10.332086      -281.1504
  37   2.0000     -10.329564      -281.0817
  38   2.0000     -10.328672      -281.0575
  39   2.0000     -10.321614      -280.8654
  40   2.0000     -10.319791      -280.8158
  41   2.0000     -10.316992      -280.7396
  42   2.0000     -10.315636      -280.7027
  43   2.0000     -10.315247      -280.6921
  44   2.0000     -10.314795      -280.6798
  45   2.0000     -10.313913      -280.6558
  46   2.0000     -10.313579      -280.6468
  47   2.0000     -10.313361      -280.6408
  48   2.0000     -10.313193      -280.6363
  49   2.0000     -10.310333      -280.5584
  50   2.0000     -10.309914      -280.5470
  51   2.0000     -10.309904      -280.5468
  52   2.0000     -10.308820      -280.5173
  53   2.0000     -10.307525      -280.4820
  54   2.0000     -10.305505      -280.4270
  55   2.0000     -10.304095      -280.3887
  56   2.0000     -10.302844      -280.3546
  57   2.0000     -10.300404      -280.2882
  58   2.0000     -10.300131      -280.2808
  59   2.0000     -10.299505      -280.2638
  60   2.0000     -10.296833      -280.1911
  61   2.0000     -10.296655      -280.1862
  62   2.0000     -10.295215      -280.1471
  63   2.0000     -10.293078      -280.0889
  64   2.0000     -10.292285      -280.0673
  65   2.0000     -10.291488      -280.0456
  66   2.0000     -10.291458      -280.0448
  67   2.0000     -10.291010      -280.0326
  68   2.0000     -10.287719      -279.9431
  69   2.0000     -10.286801      -279.9181
  70   2.0000     -10.283551      -279.8297
  71   2.0000     -10.282972      -279.8139
  72   2.0000     -10.281721      -279.7799
  73   2.0000     -10.281107      -279.7632
  74   2.0000     -10.279601      -279.7222
  75   2.0000     -10.277279      -279.6590
  76   2.0000     -10.277278      -279.6590
  77   2.0000     -10.268809      -279.4285
  78   2.0000     -10.267826      -279.4018
  79   2.0000     -10.261371      -279.2261
  80   2.0000      -8.096992      -220.3304
  81   2.0000      -8.093377      -220.2320
  82   2.0000      -8.091291      -220.1752
  83   2.0000      -8.089947      -220.1386
  84   2.0000      -8.079218      -219.8467
  85   2.0000      -8.054646      -219.1780
  86   2.0000      -6.066299      -165.0724
  87   2.0000      -6.062672      -164.9737
  88   2.0000      -6.062150      -164.9595
  89   2.0000      -6.060822      -164.9234
  90   2.0000      -6.059280      -164.8814
  91   2.0000      -6.059229      -164.8800
  92   2.0000      -6.058528      -164.8609
  93   2.0000      -6.056194      -164.7974
  94   2.0000      -6.055634      -164.7822
  95   2.0000      -6.055091      -164.7674
  96   2.0000      -6.053349      -164.7200
  97   2.0000      -6.052243      -164.6899
  98   2.0000      -6.048461      -164.5870
  99   2.0000      -6.044245      -164.4723
 100   2.0000      -6.041728      -164.4038
 101   2.0000      -6.024070      -163.9233
 102   2.0000      -6.019779      -163.8065
 103   2.0000      -6.016727      -163.7235
 104   2.0000      -1.311970       -35.7005
 105   2.0000      -1.297176       -35.2980
 106   2.0000      -1.115821       -30.3630
 107   2.0000      -1.076902       -29.3040
 108   2.0000      -1.055472       -28.7208
 109   2.0000      -1.044782       -28.4300
 110   2.0000      -1.031704       -28.0741
 111   2.0000      -1.024581       -27.8803
 112   2.0000      -1.021119       -27.7860
 113   2.0000      -1.017010       -27.6743
 114   2.0000      -1.010932       -27.5089
 115   2.0000      -1.010101       -27.4862
 116   2.0000      -1.009756       -27.4769
 117   2.0000      -1.001463       -27.2512
 118   2.0000      -0.995141       -27.0792
 119   2.0000      -0.994805       -27.0700
 120   2.0000      -0.985683       -26.8218
 121   2.0000      -0.982727       -26.7414
 122   2.0000      -0.970263       -26.4022
 123   2.0000      -0.967957       -26.3395
 124   2.0000      -0.961478       -26.1632
 125   2.0000      -0.950211       -25.8565
 126   2.0000      -0.940916       -25.6036
 127   2.0000      -0.928416       -25.2635
 128   2.0000      -0.922036       -25.0899
 129   2.0000      -0.912935       -24.8422
 130   2.0000      -0.907135       -24.6844
 131   2.0000      -0.898073       -24.4378
 132   2.0000      -0.886449       -24.1215
 133   2.0000      -0.883963       -24.0539
 134   2.0000      -0.881240       -23.9797
 135   2.0000      -0.879958       -23.9449
 136   2.0000      -0.874473       -23.7956
 137   2.0000      -0.866230       -23.5713
 138   2.0000      -0.862706       -23.4754
 139   2.0000      -0.857196       -23.3255
 140   2.0000      -0.851045       -23.1581
 141   2.0000      -0.839837       -22.8531
 142   2.0000      -0.832044       -22.6411
 143   2.0000      -0.830422       -22.5969
 144   2.0000      -0.816481       -22.2176
 145   2.0000      -0.809136       -22.0177
 146   2.0000      -0.805659       -21.9231
 147   2.0000      -0.802443       -21.8356
 148   2.0000      -0.790677       -21.5154
 149   2.0000      -0.781171       -21.2567
 150   2.0000      -0.776450       -21.1283
 151   2.0000      -0.769959       -20.9517
 152   2.0000      -0.756441       -20.5838
 153   2.0000      -0.748631       -20.3713
 154   2.0000      -0.740599       -20.1527
 155   2.0000      -0.725515       -19.7423
 156   2.0000      -0.721137       -19.6231
 157   2.0000      -0.717464       -19.5232
 158   2.0000      -0.715694       -19.4750
 159   2.0000      -0.708921       -19.2907
 160   2.0000      -0.707450       -19.2507
 161   2.0000      -0.703948       -19.1554
 162   2.0000      -0.696038       -18.9402
 163   2.0000      -0.691119       -18.8063
 164   2.0000      -0.683883       -18.6094
 165   2.0000      -0.678253       -18.4562
 166   2.0000      -0.673326       -18.3221
 167   2.0000      -0.666728       -18.1426
 168   2.0000      -0.662130       -18.0175
 169   2.0000      -0.661684       -18.0053
 170   2.0000      -0.652426       -17.7534
 171   2.0000      -0.645841       -17.5742
 172   2.0000      -0.636611       -17.3231
 173   2.0000      -0.633587       -17.2408
 174   2.0000      -0.632451       -17.2099
 175   2.0000      -0.631567       -17.1858
 176   2.0000      -0.627942       -17.0872
 177   2.0000      -0.626187       -17.0394
 178   2.0000      -0.624379       -16.9902
 179   2.0000      -0.618613       -16.8333
 180   2.0000      -0.611305       -16.6344
 181   2.0000      -0.605227       -16.4691
 182   2.0000      -0.603590       -16.4245
 183   2.0000      -0.597173       -16.2499
 184   2.0000      -0.589869       -16.0512
 185   2.0000      -0.581085       -15.8121
 186   2.0000      -0.579593       -15.7715
 187   2.0000      -0.578010       -15.7284
 188   2.0000      -0.576782       -15.6950
 189   2.0000      -0.570710       -15.5298
 190   2.0000      -0.565559       -15.3896
 191   2.0000      -0.562397       -15.3036
 192   2.0000      -0.558203       -15.1895
 193   2.0000      -0.554773       -15.0962
 194   2.0000      -0.550795       -14.9879
 195   2.0000      -0.549156       -14.9433
 196   2.0000      -0.546067       -14.8592
 197   2.0000      -0.545019       -14.8307
 198   2.0000      -0.543733       -14.7957
 199   2.0000      -0.538638       -14.6571
 200   2.0000      -0.533820       -14.5260
 201   2.0000      -0.530680       -14.4405
 202   2.0000      -0.527495       -14.3539
 203   2.0000      -0.526629       -14.3303
 204   2.0000      -0.524296       -14.2668
 205   2.0000      -0.522641       -14.2218
 206   2.0000      -0.521825       -14.1996
 207   2.0000      -0.521086       -14.1795
 208   2.0000      -0.515601       -14.0302
 209   2.0000      -0.514109       -13.9896
 210   2.0000      -0.510336       -13.8869
 211   2.0000      -0.509088       -13.8530
 212   2.0000      -0.506784       -13.7903
 213   2.0000      -0.505528       -13.7561
 214   2.0000      -0.504596       -13.7308
 215   2.0000      -0.502441       -13.6721
 216   2.0000      -0.497137       -13.5278
 217   2.0000      -0.495953       -13.4956
 218   2.0000      -0.495666       -13.4877
 219   2.0000      -0.494207       -13.4480
 220   2.0000      -0.491786       -13.3822
 221   2.0000      -0.489207       -13.3120
 222   2.0000      -0.488787       -13.3006
 223   2.0000      -0.488450       -13.2914
 224   2.0000      -0.486974       -13.2512
 225   2.0000      -0.481123       -13.0920
 226   2.0000      -0.480754       -13.0820
 227   2.0000      -0.477653       -12.9976
 228   2.0000      -0.475085       -12.9277
 229   2.0000      -0.473695       -12.8899
 230   2.0000      -0.470777       -12.8105
 231   2.0000      -0.470334       -12.7984
 232   2.0000      -0.468385       -12.7454
 233   2.0000      -0.466173       -12.6852
 234   2.0000      -0.464753       -12.6466
 235   2.0000      -0.462084       -12.5739
 236   2.0000      -0.460320       -12.5259
 237   2.0000      -0.459299       -12.4982
 238   2.0000      -0.458231       -12.4691
 239   2.0000      -0.454876       -12.3778
 240   2.0000      -0.454136       -12.3577
 241   2.0000      -0.453640       -12.3442
 242   2.0000      -0.450557       -12.2603
 243   2.0000      -0.449511       -12.2318
 244   2.0000      -0.447565       -12.1789
 245   2.0000      -0.446722       -12.1559
 246   2.0000      -0.444830       -12.1044
 247   2.0000      -0.443331       -12.0637
 248   2.0000      -0.441906       -12.0249
 249   2.0000      -0.439352       -11.9554
 250   2.0000      -0.438912       -11.9434
 251   2.0000      -0.438193       -11.9238
 252   2.0000      -0.436787       -11.8856
 253   2.0000      -0.436404       -11.8752
 254   2.0000      -0.433132       -11.7861
 255   2.0000      -0.431611       -11.7447
 256   2.0000      -0.430814       -11.7231
 257   2.0000      -0.429185       -11.6787
 258   2.0000      -0.424955       -11.5636
 259   2.0000      -0.423593       -11.5266
 260   2.0000      -0.421272       -11.4634
 261   2.0000      -0.418970       -11.4007
 262   2.0000      -0.416500       -11.3335
 263   2.0000      -0.415737       -11.3128
 264   2.0000      -0.411932       -11.2093
 265   2.0000      -0.407952       -11.1009
 266   2.0000      -0.406190       -11.0530
 267   2.0000      -0.404798       -11.0151
 268   2.0000      -0.397166       -10.8074
 269   2.0000      -0.387233       -10.5371
 270   2.0000      -0.379729       -10.3330
 271   2.0000      -0.372227       -10.1288
 272   2.0000      -0.367509       -10.0004
 273   2.0000      -0.360754        -9.8166
 274   2.0000      -0.360203        -9.8016
 275   2.0000      -0.348445        -9.4817
 276   2.0000      -0.342768        -9.3272
 277   2.0000      -0.333162        -9.0658
 278   2.0000      -0.326750        -8.8913
 279   2.0000      -0.326555        -8.8860
 280   2.0000      -0.322952        -8.7880
 281   2.0000      -0.316955        -8.6248
 282   2.0000      -0.315231        -8.5779
 283   2.0000      -0.311414        -8.4740
 284   2.0000      -0.305145        -8.3034
 285   2.0000      -0.296600        -8.0709
 286   2.0000      -0.290895        -7.9157
 287   2.0000      -0.278256        -7.5717
 288   2.0000      -0.252657        -6.8751
 289   2.0000      -0.235636        -6.4120
 290   0.0000      -0.117418        -3.1951
 291   0.0000      -0.105538        -2.8718
 292   0.0000      -0.097505        -2.6533
 293   0.0000      -0.060309        -1.6411
 294   0.0000      -0.051782        -1.4091

MULLIKEN ATOMIC CHARGES
-----------------------
   0 C :    0.001051
   1 C :    0.041649
   2 C :   -0.077798
   3 C :    0.156561
   4 C :   -0.027673
   5 C :   -0.021690
   6 N :    0.009592
   7 C :   -0.187869
   8 C :   -0.155731
   9 N :   -0.015786
  10 C :    0.124400
  11 C :    0.135178
  12 C :   -0.116648
  13 C :   -0.045441
  14 C :    0.030969
  15 C :   -0.089737
  16 S :    0.156994
  17 C :   -0.097790
  18 C :    0.012114
  19 C :    0.307965
  20 C :   -0.306228
  21 C :   -0.191639
  22 N :    0.172059
  23 C :   -0.176870
  24 N :    0.184497
  25 C :   -0.065445
  26 C :   -0.055666
  27 S :    0.195642
  28 C :   -0.046250
  29 C :   -0.069002
  30 C :    0.019624
  31 C :   -0.101582
  32 S :    0.198898
  33 C :   -0.086609
  34 C :    0.012702
  35 C :    0.298067
  36 C :   -0.291836
  37 C :   -0.186585
  38 N :    0.172471
  39 C :   -0.186681
  40 N :    0.177079
  41 C :   -0.047436
  42 C :   -0.072747
  43 S :    0.179358
  44 C :   -0.012184
  45 C :   -0.094745
  46 C :    0.079652
  47 C :    0.059712
  48 C :   -0.114956
  49 S :    0.154345
  50 C :   -0.118650
  51 C :    0.063144
  52 C :    0.023023
  53 C :   -0.062175
  54 S :    0.128533
  55 C :    0.101740
  56 C :   -0.035018
  57 C :    0.010721
  58 C :    0.008998
  59 C :   -0.113313
  60 C :    0.136420
  61 O :   -0.158864
  62 C :    0.012263
  63 C :   -0.089087
  64 C :    0.117829
  65 C :    0.114963
  66 C :   -0.111742
  67 C :    0.243649
  68 C :    0.239082
  69 C :   -0.110770
  70 F :   -0.175553
  71 F :   -0.174609
  72 C :   -0.088821
  73 C :    0.034160
  74 C :    0.323780
  75 C :   -0.369634
  76 C :   -0.163892
  77 N :    0.136445
  78 C :   -0.183932
  79 N :    0.139928
  80 H :   -0.025484
  81 H :   -0.008345
  82 H :   -0.011307
  83 H :    0.022456
  84 H :    0.022164
  85 H :    0.033958
  86 H :    0.026624
  87 H :    0.025896
  88 H :    0.024566
  89 H :    0.015674
  90 H :    0.013206
  91 H :    0.012573
  92 H :    0.022414
  93 H :   -0.003434
  94 H :    0.045210
  95 H :   -0.026578
  96 H :    0.030869
  97 H :   -0.017571
  98 H :   -0.007227
  99 H :    0.008486
 100 H :   -0.014184
 101 H :    0.003682
 102 H :   -0.003161
 103 H :   -0.007054
Sum of atomic charges:   -0.0000000

LOEWDIN ATOMIC CHARGES
----------------------
   0 C :   -0.011843
   1 C :   -0.018490
   2 C :   -0.026664
   3 C :   -0.038527
   4 C :   -0.005844
   5 C :   -0.012856
   6 N :   -0.045599
   7 C :   -0.002965
   8 C :    0.008137
   9 N :   -0.042238
  10 C :   -0.055996
  11 C :   -0.052434
  12 C :   -0.150027
  13 C :   -0.024014
  14 C :   -0.074107
  15 C :   -0.185027
  16 S :    0.472042
  17 C :   -0.171838
  18 C :   -0.071320
  19 C :    0.086470
  20 C :   -0.105652
  21 C :   -0.016524
  22 N :   -0.036626
  23 C :   -0.004372
  24 N :   -0.030375
  25 C :   -0.035044
  26 C :   -0.188311
  27 S :    0.483339
  28 C :   -0.170066
  29 C :   -0.042701
  30 C :   -0.062350
  31 C :   -0.187879
  32 S :    0.487935
  33 C :   -0.168623
  34 C :   -0.072249
  35 C :    0.082198
  36 C :   -0.098369
  37 C :   -0.016084
  38 N :   -0.029976
  39 C :   -0.016521
  40 N :   -0.029479
  41 C :   -0.030875
  42 C :   -0.188147
  43 S :    0.483491
  44 C :   -0.166360
  45 C :   -0.038220
  46 C :    0.013156
  47 C :   -0.044986
  48 C :   -0.138105
  49 S :    0.485755
  50 C :   -0.205594
  51 C :   -0.031497
  52 C :   -0.054929
  53 C :   -0.156225
  54 S :    0.424433
  55 C :   -0.062143
  56 C :    0.044821
  57 C :   -0.052595
  58 C :    0.069016
  59 C :   -0.118597
  60 C :    0.079471
  61 O :   -0.158469
  62 C :   -0.050895
  63 C :    0.025377
  64 C :   -0.010390
  65 C :   -0.007398
  66 C :   -0.030574
  67 C :    0.064483
  68 C :    0.065203
  69 C :   -0.034516
  70 F :   -0.053151
  71 F :   -0.052561
  72 C :    0.010967
  73 C :   -0.018335
  74 C :    0.075513
  75 C :   -0.155398
  76 C :   -0.006897
  77 N :   -0.062808
  78 C :   -0.018757
  79 N :   -0.064140
  80 H :    0.034568
  81 H :    0.032845
  82 H :    0.019512
  83 H :    0.038166
  84 H :    0.038012
  85 H :    0.037208
  86 H :    0.038647
  87 H :    0.038478
  88 H :    0.038190
  89 H :    0.035212
  90 H :    0.035337
  91 H :    0.036234
  92 H :    0.036131
  93 H :    0.027506
  94 H :    0.040830
  95 H :    0.029232
  96 H :    0.026941
  97 H :    0.030794
  98 H :    0.029820
  99 H :    0.040193
 100 H :    0.038875
 101 H :    0.046522
 102 H :    0.043726
 103 H :    0.038763

  Mayer bond orders larger than 0.100000
B(  0-C ,  1-C ) :   1.4261 B(  0-C ,  3-C ) :   0.1078 B(  0-C ,  5-C ) :   1.2603
B(  0-C , 80-H ) :   1.0096 B(  1-C ,  2-C ) :   1.2715 B(  1-C , 81-H ) :   0.9864
B(  2-C ,  3-C ) :   1.4339 B(  2-C , 82-H ) :   0.9881 B(  3-C ,  4-C ) :   1.2091
B(  3-C , 12-C ) :   1.0901 B(  4-C ,  5-C ) :   1.2616 B(  4-C ,  9-N ) :   1.4318
B(  5-C ,  6-N ) :   1.3880 B(  6-N ,  7-C ) :   1.7259 B(  7-C ,  8-C ) :   1.1590
B(  7-C , 11-C ) :   1.0967 B(  8-C ,  9-N ) :   1.6731 B(  8-C , 10-C ) :   1.0931
B( 10-C , 83-H ) :   0.9342 B( 10-C , 84-H ) :   0.9348 B( 10-C , 85-H ) :   0.9316
B( 11-C , 86-H ) :   0.9411 B( 11-C , 87-H ) :   0.9405 B( 11-C , 88-H ) :   0.9405
B( 12-C , 13-C ) :   1.5088 B( 12-C , 16-S ) :   1.0925 B( 13-C , 14-C ) :   1.2095
B( 13-C , 89-H ) :   0.9772 B( 14-C , 15-C ) :   1.4423 B( 14-C , 19-C ) :   1.0076
B( 15-C , 16-S ) :   1.1250 B( 15-C , 17-C ) :   1.1765 B( 17-C , 18-C ) :   1.4483
B( 17-C , 27-S ) :   1.1249 B( 18-C , 19-C ) :   0.9890 B( 18-C , 25-C ) :   1.3053
B( 19-C , 20-C ) :   1.7062 B( 20-C , 21-C ) :   1.1315 B( 20-C , 23-C ) :   1.1409
B( 21-C , 22-N ) :   2.9922 B( 23-C , 24-N ) :   2.9838 B( 25-C , 26-C ) :   1.4553
B( 25-C , 90-H ) :   0.9850 B( 26-C , 27-S ) :   1.1018 B( 26-C , 28-C ) :   1.1715
B( 28-C , 29-C ) :   1.4545 B( 28-C , 32-S ) :   1.1150 B( 29-C , 30-C ) :   1.3018
B( 29-C , 91-H ) :   0.9883 B( 30-C , 31-C ) :   1.4442 B( 30-C , 35-C ) :   0.9950
B( 31-C , 32-S ) :   1.1119 B( 31-C , 33-C ) :   1.1920 B( 33-C , 34-C ) :   1.4354
B( 33-C , 43-S ) :   1.1338 B( 34-C , 35-C ) :   0.9994 B( 34-C , 41-C ) :   1.3102
B( 35-C , 36-C ) :   1.7150 B( 36-C , 37-C ) :   1.1319 B( 36-C , 39-C ) :   1.1336
B( 37-C , 38-N ) :   2.9895 B( 39-C , 40-N ) :   2.9925 B( 41-C , 42-C ) :   1.4527
B( 41-C , 92-H ) :   0.9791 B( 42-C , 43-S ) :   1.0976 B( 42-C , 44-C ) :   1.1683
B( 44-C , 45-C ) :   1.4907 B( 44-C , 49-S ) :   1.0863 B( 45-C , 46-C ) :   1.2873
B( 45-C , 93-H ) :   0.9575 B( 46-C , 47-C ) :   1.0659 B( 46-C , 55-C ) :   1.3177
B( 47-C , 48-C ) :   1.5893 B( 47-C , 50-C ) :   1.1780 B( 48-C , 49-S ) :   1.1458
B( 48-C , 94-H ) :   0.9394 B( 50-C , 51-C ) :   1.4452 B( 50-C , 54-S ) :   1.0831
B( 51-C , 52-C ) :   1.2263 B( 51-C , 55-C ) :   1.0679 B( 52-C , 53-C ) :   1.5836
B( 52-C , 95-H ) :   0.9819 B( 53-C , 54-S ) :   1.1497 B( 53-C , 96-H ) :   0.9647
B( 55-C , 56-C ) :   1.1922 B( 56-C , 57-C ) :   1.5138 B( 56-C , 97-H ) :   0.9692
B( 57-C , 58-C ) :   1.2223 B( 57-C , 98-H ) :   0.9718 B( 58-C , 59-C ) :   1.4889
B( 58-C , 99-H ) :   0.9430 B( 59-C , 60-C ) :   0.9660 B( 59-C , 74-C ) :   1.0699
B( 60-C , 61-O ) :   2.2314 B( 60-C , 62-C ) :   0.9211 B( 62-C , 63-C ) :   1.4805
B( 62-C , 73-C ) :   1.2240 B( 63-C , 64-C ) :   1.1817 B( 63-C ,100-H ) :   1.0177
B( 64-C , 65-C ) :   1.2642 B( 64-C , 69-C ) :   1.1917 B( 65-C , 66-C ) :   1.1882
B( 65-C , 72-C ) :   1.2103 B( 66-C , 67-C ) :   1.4383 B( 66-C , 69-C ) :   0.1100
B( 66-C ,101-H ) :   1.0082 B( 67-C , 68-C ) :   1.1951 B( 67-C , 71-F ) :   1.1317
B( 68-C , 69-C ) :   1.4391 B( 68-C , 70-F ) :   1.1298 B( 69-C ,102-H ) :   1.0085
B( 72-C , 73-C ) :   1.4553 B( 72-C ,103-H ) :   0.9906 B( 73-C , 74-C ) :   0.9897
B( 74-C , 75-C ) :   1.5913 B( 75-C , 76-C ) :   1.1947 B( 75-C , 78-C ) :   1.1327
B( 76-C , 77-N ) :   2.8965 B( 78-C , 79-N ) :   2.9691

-----------------------------------------------------------------------------
         ABSORPTION SPECTRUM VIA TRANSITION ELECTRIC DIPOLE MOMENTS
-----------------------------------------------------------------------------
State   Energy  Wavelength   fosc         T2         TX        TY        TZ
        (cm-1)    (nm)                  (au**2)     (au)      (au)      (au)
-----------------------------------------------------------------------------
   0   10137.8    986.4   0.338440747  10.99046   1.40379   2.36811  -1.84713
   1   11967.6    835.6   0.089160772   2.45268  -0.47586  -1.38866   0.54576
   2   15024.5    665.6   1.094017387  23.97171   3.01385   0.15086  -3.85560
   3   16360.0    611.2   0.086300147   1.73661  -0.55150  -0.97274   0.69731
   4   20631.9    484.7   0.025774648   0.41127  -0.01500   0.63900  -0.05226
   5   21517.4    464.7   0.535973408   8.20028  -0.27473   2.83830   0.26243
   6   21774.2    459.3   0.190934354   2.88680   0.60474  -1.50390  -0.50930
   7   23159.9    431.8   0.044813560   0.63701   0.48718   0.19840  -0.60025
   8   24665.7    405.4   0.017186534   0.22939   0.12421   0.44921  -0.11030
   9   24926.9    401.2   0.491067877   6.48559   1.18844   1.78236  -1.37709
  10   25228.2    396.4   0.029287597   0.38218   0.28022   0.42683  -0.34853
  11   25949.2    385.4   0.478837671   6.07490   0.27998   2.40775  -0.44638
  12   26695.9    374.6   0.153106904   1.88810   0.16210   1.29060  -0.44293
  13   27156.7    368.2   0.565901873   6.86025  -0.02929  -2.60505  -0.27037
  14   28039.3    356.6   0.023997180   0.28175  -0.23393   0.46560   0.10121
  15   28456.1    351.4   0.034947253   0.40431  -0.30048   0.21203   0.51871
  16   28921.5    345.8   0.002285656   0.02602  -0.15110  -0.00683   0.05603
  17   29432.2    339.8   0.067917459   0.75969   0.40026  -0.59462  -0.49589
  18   29697.5    336.7   0.088378660   0.97972  -0.29620  -0.80210   0.49861
  19   29912.7    334.3   0.144505157   1.59039   0.38005  -0.87195  -0.82804
  20   30166.7    331.5   0.307814730   3.35921  -0.98751   0.86647   1.27799
  21   30409.6    328.8   0.006287637   0.06807   0.18243  -0.15450  -0.10449
  22   30715.3    325.6   0.145865858   1.56341   0.01721  -1.24968   0.03759
  23   30964.8    322.9   0.137584064   1.46277   0.75309  -0.25273  -0.91200
  24   31026.0    322.3   0.158451103   1.68130   0.75464  -0.20452  -1.03440
  25   31625.7    316.2   0.234983831   2.44609   0.86972  -0.42678  -1.22782
  26   31738.9    315.1   0.106165354   1.10120  -0.61385   0.37959   0.76178
  27   32113.9    311.4   0.280190140   2.87233   1.06627  -0.05325  -1.31627
  28   32492.3    307.8   0.192246128   1.94784  -0.50653   0.91115   0.92793
  29   32623.0    306.5   0.226531749   2.28602   0.36697   1.37691  -0.50545
  30   32766.5    305.2   0.006383224   0.06413  -0.24866  -0.04758  -0.00634
  31   33085.3    302.2   0.314208651   3.12650  -0.74848   1.11597   1.14931
  32   33113.0    302.0   0.280561575   2.78936  -0.77918   0.78171   1.25346
  33   33410.3    299.3   0.110625168   1.09006   0.37403   0.93871  -0.26265
  34   33646.4    297.2   0.029891777   0.29247   0.02433  -0.53324  -0.08683
  35   33873.9    295.2   0.122364749   1.18923  -0.21507   0.91223   0.55750
  36   34076.6    293.5   0.001073562   0.01037  -0.02387   0.06828   0.07169
  37   34428.0    290.5   0.211782734   2.02514  -0.39375  -1.19586   0.66333
  38   34830.0    287.1   0.452745410   4.27933   0.43593  -1.87984  -0.74531
  39   34910.1    286.5   0.014633808   0.13800   0.17201   0.18488  -0.27245
  40   35273.9    283.5   0.052755764   0.49237   0.29533  -0.28947  -0.56689
  41   35439.6    282.2   0.050392383   0.46811  -0.04830  -0.45557  -0.50817
  42   35698.0    280.1   0.000102130   0.00094  -0.02379   0.01908  -0.00343
  43   35951.6    278.2   0.027492052   0.25175   0.39654   0.23845  -0.19403
  44   36017.8    277.6   0.014104731   0.12892  -0.22506   0.12301   0.25127
  45   36123.4    276.8   0.019247532   0.17541   0.06934   0.41291  -0.01053
  46   36184.1    276.4   0.000900688   0.00819   0.04226   0.00248   0.08002
  47   36438.0    274.4   0.027183658   0.24560  -0.06895  -0.45620  -0.18091
  48   36800.9    271.7   0.031326586   0.28024  -0.35256  -0.05165   0.39151
  49   36952.0    270.6   0.163214488   1.45411  -0.68531  -0.38251   0.91550
  50   37184.3    268.9   0.000740133   0.00655   0.04239  -0.06489  -0.02334
  51   37391.6    267.4   0.017295687   0.15228  -0.03075  -0.38868   0.01622
  52   37436.4    267.1   0.108694833   0.95585  -0.15266  -0.93461   0.24300
  53   37809.7    264.5   0.015076751   0.13127  -0.12434   0.31580   0.12681
  54   38350.6    260.8   0.032331526   0.27754  -0.27933  -0.38986   0.21800
  55   38481.1    259.9   0.181999791   1.55704  -0.61558  -0.80441   0.72872
  56   38566.1    259.3   0.010123902   0.08642   0.19007   0.19383  -0.11280
  57   39006.6    256.4   0.091150467   0.76930  -0.53005  -0.09797   0.69191
  58   39229.6    254.9   0.049025597   0.41142  -0.21372   0.47064   0.37979
  59   39469.6    253.4   0.017309088   0.14437  -0.20802   0.14565   0.28264
  60   39786.4    251.3   0.097930820   0.81033  -0.21019  -0.73089   0.48162
  61   39921.2    250.5   0.060846806   0.50178  -0.15866  -0.59367   0.35236
  62   40156.1    249.0   0.039018685   0.31989  -0.43539  -0.09919   0.34711

FINAL SINGLE POINT ENERGY     -5512.411439258029

DIPOLE MOMENT
-------------
                                X             Y             Z
Electronic contribution:     19.06731      57.24586     -25.38100
Nuclear contribution   :    -21.85086     -58.99180      28.07272
                        -----------------------------------------
Total Dipole Moment    :     -2.78355      -1.74594       2.69172
                        -----------------------------------------
Magnitude (a.u.)       :      4.24757
Magnitude (Debye)      :     10.79647

Rotational constants in cm-1:     0.000711     0.000206     0.000160
Rotational constants in MHz :    21.305900     6.180248     4.810987

                             ****ORCA TERMINATED NORMALLY****
TOTAL RUN TIME: 0 days 0 hours 11 minutes 28 seconds 535 msec
