                         Program Version 4.2.0 -  RELEASE  -
|  1> # ORCA input file
|  2> # SCF done       -197.529327555120          0.000431481028
|  3> ! CAM-B3LYP def2-SVP def2/J RIJCOSX Grid4 TightSCF
|  4> %maxcore 5000
|  5> %tddft
|  6>     Mode sTDDFT
|  7>     Ethresh 5.0
|  8>     maxcore 5000
|  9> end
| 10>
| 11> %pal
| 12>   nprocs 6
| 13>   end
| 14> * xyz 0 1
| 15>    C        0.30352         2.86956         2.81075
| 16>    C        1.01686         1.81993         2.29208
| 17>    C        2.39273         1.60960         2.52372
| 18>    N        3.50859         1.38539         2.67282
| 19>    C        0.49737         0.79336         1.47563
| 20>    N        0.15283        -0.08141         0.81611
| 21>    C        0.84623         3.90360         3.68743
| 22>    C       -0.20493         4.77324         4.07004
| 23>    C       -0.01590         5.85300         4.89768
| 24>    C        1.27898         6.09166         5.36923
| 25>    C        2.32521         5.22117         4.98051
| 26>    C        2.13089         4.12645         4.14627
| 27>    S        3.84500         5.70205         5.67047
| 28>    C        3.06590         7.04735         6.46025
| 29>    C        1.73541         7.13337         6.22186
| 30>   Br        4.08171         8.21134         7.52286
| 31>    C       -1.45393         4.32395         3.43647
| 32>    O       -2.55208         4.84017         3.56294
| 33>    C       -1.10857         3.15220         2.62691
| 34>    C       -1.96814         2.47644         1.79758
| 35>    C       -3.33156         2.68256         1.54234
| 36>    C       -4.03104         1.91036         0.60518
| 37>    C       -5.35762         2.27825         0.49876
| 38>    C       -5.68935         3.34029         1.37612
| 39>    S       -4.37269         3.88661         2.30585
| 40>    C       -7.05675         3.64828         1.18849
| 41>    C       -7.59046         2.79889         0.20203
| 42>    C       -6.54030         1.90556        -0.26133
| 43>    C       -6.64942         0.93176        -1.20970
| 44>    C       -5.55796         0.12109        -1.58790
| 45>    N       -4.67468        -0.53794        -1.90304
| 46>    C       -7.86517         0.67488        -1.87780
| 47>    N       -8.85535         0.47006        -2.41860
| 48>    C       -8.93754         3.04352        -0.05592
| 49>    C       -9.43493         4.06884         0.73049
| 50>    S       -8.21841         4.74072         1.80478
| 51>    C      -10.75197         4.59072         0.73331
| 52>    C      -11.27187         5.56678         1.56292
| 53>    C      -12.60854         5.83971         1.27500
| 54>    C      -13.10860         5.06517         0.20966
| 55>    S      -11.93761         3.99790        -0.42568
| 56>    C      -14.46070         5.41894        -0.01233
| 57>    C      -14.81789         6.41181         0.91621
| 58>    C      -13.66978         6.70042         1.76302
| 59>    C      -13.62076         7.58065         2.80577
| 60>    C      -12.44329         7.78805         3.55463
| 61>    N      -11.48182         7.95736         4.15553
| 62>    C      -14.74986         8.32603         3.20036
| 63>    N      -15.67810         8.92134         3.51757
| 64>    C      -16.13173         6.84475         0.77647
| 65>    C      -16.79108         6.19286        -0.25491
| 66>    S      -15.75578         5.01962        -1.05558
| 67>    C      -18.14207         6.37860        -0.67061
| 68>    C      -18.95015         7.34371        -0.11693
| 69>    C      -20.28490         7.56091        -0.45175
| 70>    C      -20.90618         6.82778        -1.56554
| 71>    C      -20.29761         5.83534        -2.25042
| 72>    S      -18.70725         5.28300        -1.92378
| 73>    C      -22.19923         7.39730        -1.71760
| 74>    C      -22.38243         8.40113        -0.76371
| 75>    C      -23.65752         9.00094        -0.86259
| 76>    C      -24.38925         8.45303        -1.86741
| 77>    S      -23.57295         7.19056        -2.72768
| 78>    C      -21.20436         8.49787         0.05502
| 79>    C      -21.08913         9.39366         1.15564
| 80>    C      -20.21783         9.28920         2.18440
| 81>    C      -20.06537        10.21473         3.27770
| 82>    C      -20.93426        11.28963         3.51654
| 83>    C      -20.71731        12.12669         4.58101
| 84>    C      -19.63812        11.92629         5.44675
| 85>    C      -18.74141        10.86717         5.23136
| 86>    C      -18.98435        10.03790         4.15094
| 87>    C      -17.53752        10.58147         6.10406
| 88>    O      -17.88897         9.99377         7.32994
| 89>    N      -19.50712        12.85362         6.52541
| 90>    O      -20.11629        13.90268         6.44810
| 91>    O      -18.80205        12.55536         7.47610
| 92>    H       -0.83949         6.49402         5.17028
| 93>    H        2.96252         3.49621         3.87991
| 94>    H        1.10097         7.89942         6.62874
| 95>    H       -1.55193         1.65791         1.22278
| 96>    H       -3.55610         1.12569         0.04290
| 97>    H       -9.54030         2.51384        -0.77174
| 98>    H      -10.69351         6.04409         2.33364
| 99>    H      -16.58431         7.59476         1.39679
|100>    H      -18.49761         8.00129         0.60737
|101>    H      -20.78076         5.30281        -3.05439
|102>    H      -24.01888         9.79276        -0.23200
|103>    H      -25.38474         8.71187        -2.17100
|104>    H      -21.80290        10.20709         1.14687
|105>    H      -19.56299         8.43164         2.23338
|106>    H      -21.78572        11.45778         2.87716
|107>    H      -21.38239        12.95350         4.78095
|108>    H      -18.29465         9.22674         3.97168
|109>    H      -16.96719        11.50720         6.26467
|110>    H      -16.89443         9.86159         5.59273
|111>    H      -18.26606        10.69341         7.88537
|112> *
|113>
|114>                          ****END OF INPUT****

CARTESIAN COORDINATES (ANGSTROEM)
---------------------------------
  C      0.303520    2.869560    2.810750
  C      1.016860    1.819930    2.292080
  C      2.392730    1.609600    2.523720
  N      3.508590    1.385390    2.672820
  C      0.497370    0.793360    1.475630
  N      0.152830   -0.081410    0.816110
  C      0.846230    3.903600    3.687430
  C     -0.204930    4.773240    4.070040
  C     -0.015900    5.853000    4.897680
  C      1.278980    6.091660    5.369230
  C      2.325210    5.221170    4.980510
  C      2.130890    4.126450    4.146270
  S      3.845000    5.702050    5.670470
  C      3.065900    7.047350    6.460250
  C      1.735410    7.133370    6.221860
  Br     4.081710    8.211340    7.522860
  C     -1.453930    4.323950    3.436470
  O     -2.552080    4.840170    3.562940
  C     -1.108570    3.152200    2.626910
  C     -1.968140    2.476440    1.797580
  C     -3.331560    2.682560    1.542340
  C     -4.031040    1.910360    0.605180
  C     -5.357620    2.278250    0.498760
  C     -5.689350    3.340290    1.376120
  S     -4.372690    3.886610    2.305850
  C     -7.056750    3.648280    1.188490
  C     -7.590460    2.798890    0.202030
  C     -6.540300    1.905560   -0.261330
  C     -6.649420    0.931760   -1.209700
  C     -5.557960    0.121090   -1.587900
  N     -4.674680   -0.537940   -1.903040
  C     -7.865170    0.674880   -1.877800
  N     -8.855350    0.470060   -2.418600
  C     -8.937540    3.043520   -0.055920
  C     -9.434930    4.068840    0.730490
  S     -8.218410    4.740720    1.804780
  C    -10.751970    4.590720    0.733310
  C    -11.271870    5.566780    1.562920
  C    -12.608540    5.839710    1.275000
  C    -13.108600    5.065170    0.209660
  S    -11.937610    3.997900   -0.425680
  C    -14.460700    5.418940   -0.012330
  C    -14.817890    6.411810    0.916210
  C    -13.669780    6.700420    1.763020
  C    -13.620760    7.580650    2.805770
  C    -12.443290    7.788050    3.554630
  N    -11.481820    7.957360    4.155530
  C    -14.749860    8.326030    3.200360
  N    -15.678100    8.921340    3.517570
  C    -16.131730    6.844750    0.776470
  C    -16.791080    6.192860   -0.254910
  S    -15.755780    5.019620   -1.055580
  C    -18.142070    6.378600   -0.670610
  C    -18.950150    7.343710   -0.116930
  C    -20.284900    7.560910   -0.451750
  C    -20.906180    6.827780   -1.565540
  C    -20.297610    5.835340   -2.250420
  S    -18.707250    5.283000   -1.923780
  C    -22.199230    7.397300   -1.717600
  C    -22.382430    8.401130   -0.763710
  C    -23.657520    9.000940   -0.862590
  C    -24.389250    8.453030   -1.867410
  S    -23.572950    7.190560   -2.727680
  C    -21.204360    8.497870    0.055020
  C    -21.089130    9.393660    1.155640
  C    -20.217830    9.289200    2.184400
  C    -20.065370   10.214730    3.277700
  C    -20.934260   11.289630    3.516540
  C    -20.717310   12.126690    4.581010
  C    -19.638120   11.926290    5.446750
  C    -18.741410   10.867170    5.231360
  C    -18.984350   10.037900    4.150940
  C    -17.537520   10.581470    6.104060
  O    -17.888970    9.993770    7.329940
  N    -19.507120   12.853620    6.525410
  O    -20.116290   13.902680    6.448100
  O    -18.802050   12.555360    7.476100
  H     -0.839490    6.494020    5.170280
  H      2.962520    3.496210    3.879910
  H      1.100970    7.899420    6.628740
  H     -1.551930    1.657910    1.222780
  H     -3.556100    1.125690    0.042900
  H     -9.540300    2.513840   -0.771740
  H    -10.693510    6.044090    2.333640
  H    -16.584310    7.594760    1.396790
  H    -18.497610    8.001290    0.607370
  H    -20.780760    5.302810   -3.054390
  H    -24.018880    9.792760   -0.232000
  H    -25.384740    8.711870   -2.171000
  H    -21.802900   10.207090    1.146870
  H    -19.562990    8.431640    2.233380
  H    -21.785720   11.457780    2.877160
  H    -21.382390   12.953500    4.780950
  H    -18.294650    9.226740    3.971680
  H    -16.967190   11.507200    6.264670
  H    -16.894430    9.861590    5.592730
  H    -18.266060   10.693410    7.885370

 Total Charge           Charge          ....    0
 Multiplicity           Mult            ....    1
 Number of Electrons    NEL             ....  596
 Basis Dimension        Dim             .... 1224

ORBITAL ENERGIES
----------------

  NO   OCC          E(Eh)            E(eV)
   0   2.0000    -482.888297    -13140.0586
   1   2.0000     -89.002819     -2421.8898
   2   2.0000     -89.001469     -2421.8531
   3   2.0000     -89.001112     -2421.8434
   4   2.0000     -88.993879     -2421.6466
   5   2.0000     -88.987659     -2421.4773
   6   2.0000     -88.978962     -2421.2406
   7   2.0000     -88.963943     -2420.8320
   8   2.0000     -62.565977     -1702.5068
   9   2.0000     -56.399931     -1534.7202
  10   2.0000     -56.397209     -1534.6461
  11   2.0000     -56.397178     -1534.6452
  12   2.0000     -19.239806      -523.5417
  13   2.0000     -19.237327      -523.4743
  14   2.0000     -19.228890      -523.2447
  15   2.0000     -19.179794      -521.9087
  16   2.0000     -14.643649      -398.4739
  17   2.0000     -14.447178      -393.1277
  18   2.0000     -14.440821      -392.9547
  19   2.0000     -14.437836      -392.8735
  20   2.0000     -14.435263      -392.8035
  21   2.0000     -14.419661      -392.3789
  22   2.0000     -14.417085      -392.3088
  23   2.0000     -10.376781      -282.3666
  24   2.0000     -10.376395      -282.3561
  25   2.0000     -10.372098      -282.2391
  26   2.0000     -10.364437      -282.0307
  27   2.0000     -10.362129      -281.9679
  28   2.0000     -10.360039      -281.9110
  29   2.0000     -10.348575      -281.5991
  30   2.0000     -10.346367      -281.5390
  31   2.0000     -10.345858      -281.5251
  32   2.0000     -10.345124      -281.5051
  33   2.0000     -10.344803      -281.4964
  34   2.0000     -10.341010      -281.3932
  35   2.0000     -10.340586      -281.3817
  36   2.0000     -10.340197      -281.3711
  37   2.0000     -10.340150      -281.3698
  38   2.0000     -10.339890      -281.3627
  39   2.0000     -10.339134      -281.3421
  40   2.0000     -10.338874      -281.3351
  41   2.0000     -10.338220      -281.3173
  42   2.0000     -10.338169      -281.3159
  43   2.0000     -10.334839      -281.2253
  44   2.0000     -10.330762      -281.1143
  45   2.0000     -10.330342      -281.1029
  46   2.0000     -10.329292      -281.0743
  47   2.0000     -10.322123      -280.8793
  48   2.0000     -10.320104      -280.8243
  49   2.0000     -10.318530      -280.7815
  50   2.0000     -10.318306      -280.7754
  51   2.0000     -10.317659      -280.7578
  52   2.0000     -10.315380      -280.6958
  53   2.0000     -10.314718      -280.6778
  54   2.0000     -10.314286      -280.6660
  55   2.0000     -10.312973      -280.6303
  56   2.0000     -10.312229      -280.6100
  57   2.0000     -10.311877      -280.6005
  58   2.0000     -10.311316      -280.5852
  59   2.0000     -10.309948      -280.5480
  60   2.0000     -10.309137      -280.5259
  61   2.0000     -10.308063      -280.4967
  62   2.0000     -10.306963      -280.4667
  63   2.0000     -10.305893      -280.4376
  64   2.0000     -10.304133      -280.3897
  65   2.0000     -10.302764      -280.3525
  66   2.0000     -10.299874      -280.2738
  67   2.0000     -10.298949      -280.2487
  68   2.0000     -10.297054      -280.1971
  69   2.0000     -10.295038      -280.1422
  70   2.0000     -10.294571      -280.1295
  71   2.0000     -10.294378      -280.1243
  72   2.0000     -10.290869      -280.0288
  73   2.0000     -10.289026      -279.9786
  74   2.0000     -10.287758      -279.9441
  75   2.0000     -10.285151      -279.8732
  76   2.0000     -10.282345      -279.7968
  77   2.0000     -10.281223      -279.7663
  78   2.0000     -10.281041      -279.7613
  79   2.0000     -10.280749      -279.7534
  80   2.0000     -10.274803      -279.5916
  81   2.0000      -8.795399      -239.3350
  82   2.0000      -8.097286      -220.3384
  83   2.0000      -8.095991      -220.3031
  84   2.0000      -8.095635      -220.2934
  85   2.0000      -8.086203      -220.0368
  86   2.0000      -8.083223      -219.9557
  87   2.0000      -8.074923      -219.7298
  88   2.0000      -8.059389      -219.3071
  89   2.0000      -6.631691      -180.4575
  90   2.0000      -6.617140      -180.0615
  91   2.0000      -6.616925      -180.0557
  92   2.0000      -6.066570      -165.0798
  93   2.0000      -6.065327      -165.0459
  94   2.0000      -6.064910      -165.0346
  95   2.0000      -6.062417      -164.9667
  96   2.0000      -6.061035      -164.9292
  97   2.0000      -6.060762      -164.9217
  98   2.0000      -6.059537      -164.8884
  99   2.0000      -6.058288      -164.8544
 100   2.0000      -6.057877      -164.8432
 101   2.0000      -6.055644      -164.7825
 102   2.0000      -6.052880      -164.7072
 103   2.0000      -6.050842      -164.6518
 104   2.0000      -6.048736      -164.5945
 105   2.0000      -6.048290      -164.5823
 106   2.0000      -6.044964      -164.4918
 107   2.0000      -6.044605      -164.4821
 108   2.0000      -6.040326      -164.3656
 109   2.0000      -6.036167      -164.2525
 110   2.0000      -6.028856      -164.0535
 111   2.0000      -6.024585      -163.9373
 112   2.0000      -6.021373      -163.8499
 113   2.0000      -2.747608       -74.7662
 114   2.0000      -2.743457       -74.6533
 115   2.0000      -2.743305       -74.6491
 116   2.0000      -2.731736       -74.3343
 117   2.0000      -2.731727       -74.3341
 118   2.0000      -1.316931       -35.8355
 119   2.0000      -1.144416       -31.1411
 120   2.0000      -1.134921       -30.8828
 121   2.0000      -1.071544       -29.1582
 122   2.0000      -1.057400       -28.7733
 123   2.0000      -1.052864       -28.6499
 124   2.0000      -1.035807       -28.1857
 125   2.0000      -1.028853       -27.9965
 126   2.0000      -1.026915       -27.9438
 127   2.0000      -1.021429       -27.7945
 128   2.0000      -1.019138       -27.7322
 129   2.0000      -1.016840       -27.6696
 130   2.0000      -1.014195       -27.5976
 131   2.0000      -1.012235       -27.5443
 132   2.0000      -1.002635       -27.2831
 133   2.0000      -0.997256       -27.1367
 134   2.0000      -0.993965       -27.0472
 135   2.0000      -0.983189       -26.7539
 136   2.0000      -0.975744       -26.5513
 137   2.0000      -0.969530       -26.3822
 138   2.0000      -0.964135       -26.2354
 139   2.0000      -0.946688       -25.7607
 140   2.0000      -0.938568       -25.5397
 141   2.0000      -0.930477       -25.3196
 142   2.0000      -0.921581       -25.0775
 143   2.0000      -0.913087       -24.8464
 144   2.0000      -0.912387       -24.8273
 145   2.0000      -0.901017       -24.5179
 146   2.0000      -0.897215       -24.4145
 147   2.0000      -0.889706       -24.2101
 148   2.0000      -0.880948       -23.9718
 149   2.0000      -0.880847       -23.9691
 150   2.0000      -0.873514       -23.7695
 151   2.0000      -0.868992       -23.6465
 152   2.0000      -0.863651       -23.5011
 153   2.0000      -0.861564       -23.4443
 154   2.0000      -0.858449       -23.3596
 155   2.0000      -0.847096       -23.0507
 156   2.0000      -0.837608       -22.7925
 157   2.0000      -0.832919       -22.6649
 158   2.0000      -0.820066       -22.3151
 159   2.0000      -0.806785       -21.9537
 160   2.0000      -0.797682       -21.7060
 161   2.0000      -0.790460       -21.5095
 162   2.0000      -0.784806       -21.3557
 163   2.0000      -0.779670       -21.2159
 164   2.0000      -0.766689       -20.8627
 165   2.0000      -0.760935       -20.7061
 166   2.0000      -0.746723       -20.3194
 167   2.0000      -0.742680       -20.2093
 168   2.0000      -0.730944       -19.8900
 169   2.0000      -0.722803       -19.6685
 170   2.0000      -0.715294       -19.4641
 171   2.0000      -0.708594       -19.2818
 172   2.0000      -0.701653       -19.0930
 173   2.0000      -0.699073       -19.0227
 174   2.0000      -0.698150       -18.9976
 175   2.0000      -0.694997       -18.9118
 176   2.0000      -0.690783       -18.7972
 177   2.0000      -0.685537       -18.6544
 178   2.0000      -0.675882       -18.3917
 179   2.0000      -0.664550       -18.0833
 180   2.0000      -0.662212       -18.0197
 181   2.0000      -0.659448       -17.9445
 182   2.0000      -0.652072       -17.7438
 183   2.0000      -0.643522       -17.5111
 184   2.0000      -0.639422       -17.3996
 185   2.0000      -0.637083       -17.3359
 186   2.0000      -0.636110       -17.3094
 187   2.0000      -0.633312       -17.2333
 188   2.0000      -0.632011       -17.1979
 189   2.0000      -0.627507       -17.0753
 190   2.0000      -0.625977       -17.0337
 191   2.0000      -0.622803       -16.9473
 192   2.0000      -0.620055       -16.8726
 193   2.0000      -0.607254       -16.5242
 194   2.0000      -0.602782       -16.4025
 195   2.0000      -0.599404       -16.3106
 196   2.0000      -0.595859       -16.2142
 197   2.0000      -0.586723       -15.9655
 198   2.0000      -0.585431       -15.9304
 199   2.0000      -0.575629       -15.6637
 200   2.0000      -0.574907       -15.6440
 201   2.0000      -0.570529       -15.5249
 202   2.0000      -0.563794       -15.3416
 203   2.0000      -0.560508       -15.2522
 204   2.0000      -0.556748       -15.1499
 205   2.0000      -0.555748       -15.1227
 206   2.0000      -0.552851       -15.0438
 207   2.0000      -0.547896       -14.9090
 208   2.0000      -0.547369       -14.8947
 209   2.0000      -0.546996       -14.8845
 210   2.0000      -0.540562       -14.7094
 211   2.0000      -0.534428       -14.5425
 212   2.0000      -0.532214       -14.4823
 213   2.0000      -0.528342       -14.3769
 214   2.0000      -0.526369       -14.3232
 215   2.0000      -0.525042       -14.2871
 216   2.0000      -0.523821       -14.2539
 217   2.0000      -0.521079       -14.1793
 218   2.0000      -0.519579       -14.1385
 219   2.0000      -0.516877       -14.0649
 220   2.0000      -0.514409       -13.9978
 221   2.0000      -0.511556       -13.9201
 222   2.0000      -0.509842       -13.8735
 223   2.0000      -0.508585       -13.8393
 224   2.0000      -0.505922       -13.7668
 225   2.0000      -0.504930       -13.7398
 226   2.0000      -0.501790       -13.6544
 227   2.0000      -0.500028       -13.6065
 228   2.0000      -0.499231       -13.5848
 229   2.0000      -0.497581       -13.5399
 230   2.0000      -0.493973       -13.4417
 231   2.0000      -0.493651       -13.4329
 232   2.0000      -0.487989       -13.2789
 233   2.0000      -0.486523       -13.2390
 234   2.0000      -0.483449       -13.1553
 235   2.0000      -0.477262       -12.9869
 236   2.0000      -0.476103       -12.9554
 237   2.0000      -0.473434       -12.8828
 238   2.0000      -0.468914       -12.7598
 239   2.0000      -0.468636       -12.7522
 240   2.0000      -0.467613       -12.7244
 241   2.0000      -0.466392       -12.6912
 242   2.0000      -0.464823       -12.6485
 243   2.0000      -0.463478       -12.6119
 244   2.0000      -0.462645       -12.5892
 245   2.0000      -0.459964       -12.5163
 246   2.0000      -0.456875       -12.4322
 247   2.0000      -0.454037       -12.3550
 248   2.0000      -0.453016       -12.3272
 249   2.0000      -0.452670       -12.3178
 250   2.0000      -0.451630       -12.2895
 251   2.0000      -0.451182       -12.2773
 252   2.0000      -0.449432       -12.2297
 253   2.0000      -0.446432       -12.1480
 254   2.0000      -0.446259       -12.1433
 255   2.0000      -0.445006       -12.1092
 256   2.0000      -0.443155       -12.0589
 257   2.0000      -0.441329       -12.0092
 258   2.0000      -0.440426       -11.9846
 259   2.0000      -0.438369       -11.9286
 260   2.0000      -0.437497       -11.9049
 261   2.0000      -0.433082       -11.7848
 262   2.0000      -0.432232       -11.7616
 263   2.0000      -0.430057       -11.7024
 264   2.0000      -0.428626       -11.6635
 265   2.0000      -0.425479       -11.5779
 266   2.0000      -0.420567       -11.4442
 267   2.0000      -0.420378       -11.4391
 268   2.0000      -0.417221       -11.3532
 269   2.0000      -0.416305       -11.3282
 270   2.0000      -0.410076       -11.1587
 271   2.0000      -0.407443       -11.0871
 272   2.0000      -0.399462       -10.8699
 273   2.0000      -0.395855       -10.7718
 274   2.0000      -0.391541       -10.6544
 275   2.0000      -0.386778       -10.5248
 276   2.0000      -0.383021       -10.4225
 277   2.0000      -0.381887       -10.3917
 278   2.0000      -0.377507       -10.2725
 279   2.0000      -0.371418       -10.1068
 280   2.0000      -0.362909        -9.8753
 281   2.0000      -0.362576        -9.8662
 282   2.0000      -0.361064        -9.8251
 283   2.0000      -0.356970        -9.7136
 284   2.0000      -0.346601        -9.4315
 285   2.0000      -0.345243        -9.3945
 286   2.0000      -0.338369        -9.2075
 287   2.0000      -0.333533        -9.0759
 288   2.0000      -0.332915        -9.0591
 289   2.0000      -0.329451        -8.9648
 290   2.0000      -0.321549        -8.7498
 291   2.0000      -0.319682        -8.6990
 292   2.0000      -0.313779        -8.5384
 293   2.0000      -0.304225        -8.2784
 294   2.0000      -0.296781        -8.0758
 295   2.0000      -0.283843        -7.7238
 296   2.0000      -0.261616        -7.1189
 297   2.0000      -0.234446        -6.3796
 298   0.0000      -0.121242        -3.2992
 299   0.0000      -0.113741        -3.0950
 300   0.0000      -0.091835        -2.4990
 301   0.0000      -0.077003        -2.0953
 302   0.0000      -0.067554        -1.8382

MULLIKEN ATOMIC CHARGES
-----------------------
   0 C :    0.323487
   1 C :   -0.352653
   2 C :   -0.183828
   3 N :    0.151706
   4 C :   -0.191061
   5 N :    0.151067
   6 C :    0.013375
   7 C :   -0.013260
   8 C :   -0.069253
   9 C :    0.117844
  10 C :   -0.094595
  11 C :   -0.017812
  12 S :    0.190171
  13 C :   -0.122057
  14 C :    0.037873
  15 Br:    0.026906
  16 C :    0.166236
  17 O :   -0.193435
  18 C :   -0.092200
  19 C :   -0.029292
  20 C :   -0.052931
  21 C :   -0.061203
  22 C :    0.046011
  23 C :   -0.067597
  24 S :    0.245233
  25 C :   -0.106264
  26 C :    0.025988
  27 C :    0.303612
  28 C :   -0.290581
  29 C :   -0.194168
  30 N :    0.185292
  31 C :   -0.187113
  32 N :    0.170512
  33 C :   -0.072348
  34 C :   -0.042044
  35 S :    0.205828
  36 C :   -0.057370
  37 C :   -0.059689
  38 C :    0.011293
  39 C :   -0.096839
  40 S :    0.200936
  41 C :   -0.102178
  42 C :    0.014171
  43 C :    0.307244
  44 C :   -0.291272
  45 C :   -0.187939
  46 N :    0.176251
  47 C :   -0.165357
  48 N :    0.172369
  49 C :   -0.050082
  50 C :   -0.053913
  51 S :    0.195234
  52 C :   -0.035063
  53 C :   -0.075413
  54 C :    0.052002
  55 C :    0.062992
  56 C :   -0.126867
  57 S :    0.124426
  58 C :   -0.108333
  59 C :    0.050669
  60 C :    0.007182
  61 C :   -0.064788
  62 S :    0.133074
  63 C :    0.075967
  64 C :    0.005546
  65 C :   -0.028159
  66 C :    0.159183
  67 C :   -0.020374
  68 C :   -0.002756
  69 C :    0.099313
  70 C :   -0.085988
  71 C :   -0.094599
  72 C :    0.332847
  73 O :   -0.330885
  74 N :    0.266770
  75 O :   -0.234916
  76 O :   -0.270268
  77 H :   -0.009897
  78 H :   -0.005432
  79 H :   -0.001835
  80 H :    0.016657
  81 H :    0.028769
  82 H :    0.013194
  83 H :    0.013858
  84 H :    0.005016
  85 H :   -0.018226
  86 H :    0.039513
  87 H :   -0.016185
  88 H :    0.028844
  89 H :   -0.020356
  90 H :   -0.021094
  91 H :   -0.021964
  92 H :    0.003832
  93 H :   -0.026365
  94 H :   -0.001384
  95 H :   -0.006914
  96 H :    0.168101
Sum of atomic charges:   -0.0000000

LOEWDIN ATOMIC CHARGES
----------------------
   0 C :    0.076474
   1 C :   -0.141144
   2 C :   -0.017950
   3 N :   -0.052446
   4 C :   -0.023275
   5 N :   -0.047747
   6 C :   -0.019685
   7 C :   -0.051642
   8 C :    0.022977
   9 C :   -0.032794
  10 C :   -0.143387
  11 C :   -0.008557
  12 S :    0.435853
  13 C :   -0.270887
  14 C :   -0.070343
  15 Br:    0.139245
  16 C :    0.086405
  17 O :   -0.176203
  18 C :   -0.112320
  19 C :    0.055874
  20 C :   -0.184530
  21 C :    0.013477
  22 C :   -0.080043
  23 C :   -0.165648
  24 S :    0.549331
  25 C :   -0.188752
  26 C :   -0.051493
  27 C :    0.078503
  28 C :   -0.099206
  29 C :   -0.020458
  30 N :   -0.021524
  31 C :   -0.015406
  32 N :   -0.033180
  33 C :   -0.044094
  34 C :   -0.167231
  35 S :    0.490607
  36 C :   -0.185490
  37 C :   -0.030740
  38 C :   -0.073838
  39 C :   -0.169694
  40 S :    0.488491
  41 C :   -0.190623
  42 C :   -0.063723
  43 C :    0.086415
  44 C :   -0.102553
  45 C :   -0.017359
  46 N :   -0.027548
  47 C :    0.001099
  48 N :   -0.033565
  49 C :   -0.030452
  50 C :   -0.175904
  51 S :    0.473298
  52 C :   -0.189853
  53 C :   -0.013802
  54 C :   -0.020629
  55 C :   -0.044876
  56 C :   -0.139204
  57 S :    0.437386
  58 C :   -0.204038
  59 C :   -0.038484
  60 C :   -0.063699
  61 C :   -0.161359
  62 S :    0.425027
  63 C :   -0.046459
  64 C :   -0.002147
  65 C :   -0.031371
  66 C :    0.002185
  67 C :   -0.020857
  68 C :    0.005607
  69 C :   -0.046589
  70 C :   -0.008511
  71 C :   -0.010690
  72 C :    0.071781
  73 O :   -0.144059
  74 N :    0.293273
  75 O :   -0.200244
  76 O :   -0.211108
  77 H :    0.041261
  78 H :    0.041595
  79 H :    0.039316
  80 H :    0.053738
  81 H :    0.048344
  82 H :    0.035980
  83 H :    0.037059
  84 H :    0.037447
  85 H :    0.037544
  86 H :    0.038101
  87 H :    0.030701
  88 H :    0.024544
  89 H :    0.028629
  90 H :    0.026001
  91 H :    0.028304
  92 H :    0.039229
  93 H :    0.028778
  94 H :    0.011644
  95 H :    0.021469
  96 H :    0.056419

  Mayer bond orders larger than 0.100000
B(  0-C ,  1-C ) :   1.6260 B(  0-C ,  6-C ) :   0.9986 B(  0-C , 18-C ) :   1.0770
B(  1-C ,  2-C ) :   1.1453 B(  1-C ,  4-C ) :   1.1434 B(  2-C ,  3-N ) :   2.9674
B(  4-C ,  5-N ) :   2.9609 B(  6-C ,  7-C ) :   1.2729 B(  6-C , 11-C ) :   1.4158
B(  7-C ,  8-C ) :   1.4219 B(  7-C , 16-C ) :   0.9642 B(  8-C ,  9-C ) :   1.2439
B(  8-C , 77-H ) :   1.0165 B(  9-C , 10-C ) :   1.3059 B(  9-C , 14-C ) :   1.1638
B( 10-C , 11-C ) :   1.3269 B( 10-C , 12-S ) :   1.0892 B( 11-C , 78-H ) :   0.9786
B( 12-S , 13-C ) :   1.0865 B( 13-C , 14-C ) :   1.6179 B( 13-C , 15-Br) :   1.0207
B( 14-C , 79-H ) :   0.9999 B( 16-C , 17-O ) :   2.1054 B( 16-C , 18-C ) :   0.9849
B( 18-C , 19-C ) :   1.4874 B( 19-C , 20-C ) :   1.2711 B( 19-C , 80-H ) :   0.9407
B( 20-C , 21-C ) :   1.3256 B( 20-C , 24-S ) :   1.0669 B( 21-C , 22-C ) :   1.3337
B( 21-C , 81-H ) :   1.0096 B( 22-C , 23-C ) :   1.3487 B( 22-C , 27-C ) :   0.9864
B( 23-C , 24-S ) :   1.1295 B( 23-C , 25-C ) :   1.2073 B( 25-C , 26-C ) :   1.4332
B( 25-C , 35-S ) :   1.1086 B( 26-C , 27-C ) :   0.9955 B( 26-C , 33-C ) :   1.3058
B( 27-C , 28-C ) :   1.7171 B( 28-C , 29-C ) :   1.1332 B( 28-C , 31-C ) :   1.1327
B( 29-C , 30-N ) :   2.9953 B( 31-C , 32-N ) :   2.9879 B( 33-C , 34-C ) :   1.4444
B( 33-C , 82-H ) :   0.9875 B( 34-C , 35-S ) :   1.1214 B( 34-C , 36-C ) :   1.1743
B( 36-C , 37-C ) :   1.4574 B( 36-C , 40-S ) :   1.0991 B( 37-C , 38-C ) :   1.2996
B( 37-C , 83-H ) :   0.9881 B( 38-C , 39-C ) :   1.4314 B( 38-C , 43-C ) :   1.0009
B( 39-C , 40-S ) :   1.1307 B( 39-C , 41-C ) :   1.1993 B( 41-C , 42-C ) :   1.4351
B( 41-C , 51-S ) :   1.1127 B( 42-C , 43-C ) :   0.9986 B( 42-C , 49-C ) :   1.3054
B( 43-C , 44-C ) :   1.7053 B( 44-C , 45-C ) :   1.1321 B( 44-C , 47-C ) :   1.1336
B( 45-C , 46-N ) :   2.9922 B( 47-C , 48-N ) :   2.9492 B( 49-C , 50-C ) :   1.4739
B( 49-C , 84-H ) :   0.9857 B( 50-C , 51-S ) :   1.1104 B( 50-C , 52-C ) :   1.1212
B( 52-C , 53-C ) :   1.5513 B( 52-C , 57-S ) :   1.0391 B( 53-C , 54-C ) :   1.2293
B( 53-C , 85-H ) :   0.9651 B( 54-C , 55-C ) :   1.0488 B( 54-C , 63-C ) :   1.3966
B( 55-C , 56-C ) :   1.6159 B( 55-C , 58-C ) :   1.1781 B( 56-C , 57-S ) :   1.1345
B( 56-C , 86-H ) :   0.9403 B( 58-C , 59-C ) :   1.4356 B( 58-C , 62-S ) :   1.0766
B( 59-C , 60-C ) :   1.2175 B( 59-C , 63-C ) :   1.1070 B( 60-C , 61-C ) :   1.5873
B( 60-C , 87-H ) :   0.9988 B( 61-C , 62-S ) :   1.1554 B( 61-C , 88-H ) :   0.9659
B( 63-C , 64-C ) :   1.1371 B( 64-C , 65-C ) :   1.6590 B( 64-C , 89-H ) :   0.9556
B( 65-C , 66-C ) :   1.0844 B( 65-C , 90-H ) :   0.9802 B( 66-C , 67-C ) :   1.3075
B( 66-C , 71-C ) :   1.2967 B( 67-C , 68-C ) :   1.3989 B( 67-C , 91-H ) :   0.9925
B( 68-C , 69-C ) :   1.3490 B( 68-C , 92-H ) :   0.9852 B( 69-C , 70-C ) :   1.3718
B( 69-C , 74-N ) :   0.9160 B( 70-C , 71-C ) :   1.4146 B( 70-C , 72-C ) :   1.0024
B( 71-C , 93-H ) :   0.9967 B( 72-C , 73-O ) :   1.0779 B( 72-C , 94-H ) :   0.9273
B( 72-C , 95-H ) :   0.9190 B( 73-O , 96-H ) :   0.9659 B( 74-N , 75-O ) :   1.5709
B( 74-N , 76-O ) :   1.4767 B( 75-O , 76-O ) :   0.2495

-----------------------------------------------------------------------------
         ABSORPTION SPECTRUM VIA TRANSITION ELECTRIC DIPOLE MOMENTS
-----------------------------------------------------------------------------
State   Energy  Wavelength   fosc         T2         TX        TY        TZ
        (cm-1)    (nm)                  (au**2)     (au)      (au)      (au)
-----------------------------------------------------------------------------
   0    9211.8   1085.6   0.300710735  10.74681   3.10925  -1.02019   0.19638
   1   12700.0    787.4   0.354939177   9.20081   2.93625  -0.66402   0.37189
   2   15784.9    633.5   0.022672343   0.47286   0.15475  -0.49045  -0.45648
   3   17994.7    555.7   0.780040179  14.27081  -3.41580   1.56431   0.39507
   4   19176.3    521.5   0.206934814   3.55258   1.38329  -1.07154  -0.70064
   5   20525.2    487.2   1.020849270  16.37380   3.80158   0.07317   1.38436
   6   22499.0    444.5   0.011654653   0.17053   0.17377   0.19305   0.32105
   7   22649.6    441.5   0.073018215   1.06132   0.20710  -0.74401  -0.68182
   8   24775.1    403.6   0.050136966   0.66622  -0.79707   0.14807  -0.09477
   9   25439.8    393.1   0.205008869   2.65299   1.36654   0.11366   0.87900
  10   25605.1    390.5   0.019408783   0.24954  -0.46882  -0.06790  -0.15856
  11   26071.4    383.6   0.190280640   2.40274  -0.72777  -0.70400  -1.17366
  12   26866.9    372.2   0.392086585   4.80442   1.63366   0.73693   1.26194
  13   27032.1    369.9   0.028994062   0.35311  -0.23914   0.53418  -0.10280
  14   27657.4    361.6   0.154935830   1.84423  -1.08864  -0.10444  -0.80510
  15   28847.6    346.6   0.005455486   0.06226  -0.23375  -0.08087   0.03284
  16   29125.8    343.3   0.071053847   0.80313  -0.89057   0.05991  -0.08013
  17   29621.7    337.6   0.153866278   1.71005  -0.54798   0.96275   0.69489
  18   29782.2    335.8   0.072778996   0.80450  -0.57702  -0.18330  -0.66178
  19   29966.6    333.7   0.547018798   6.00954   0.11702  -1.71532  -1.74743
  20   30615.8    326.6   0.007979482   0.08580  -0.15936  -0.02096  -0.24489
  21   30689.5    325.8   0.024293479   0.26060   0.37056   0.09457   0.33814
  22   30899.4    323.6   0.044615048   0.47534  -0.36535  -0.40620  -0.42055
  23   31129.0    321.2   0.125166054   1.32372   0.06780   0.93086   0.67277
  24   31401.3    318.5   0.616888207   6.46747   0.18780   1.75382   1.83202
  25   31628.9    316.2   0.034192806   0.35590  -0.57064  -0.09933   0.14285
  26   31932.2    313.2   0.423597091   4.36716   0.99894   1.19612   1.39233
  27   32038.5    312.1   0.246080722   2.52860  -0.74440   1.25384   0.63433
  28   32459.4    308.1   0.536970025   5.44609   0.69944   1.54788   1.60029
  29   32830.4    304.6   0.187506666   1.88025   1.20769  -0.64763  -0.04825
  30   33076.3    302.3   0.036937158   0.36764  -0.38267   0.36263   0.29950
  31   33116.4    302.0   0.078614249   0.78151   0.38670  -0.60483  -0.51590
  32   33183.0    301.4   0.004608986   0.04573  -0.20458   0.06221   0.00152
  33   33384.7    299.5   0.014778451   0.14573   0.21372  -0.30599   0.08018
  34   33629.8    297.4   0.096749310   0.94711  -0.06400   0.68873   0.68459
  35   34073.0    293.5   0.262343184   2.53475  -1.50399   0.51625  -0.07904
  36   34428.7    290.5   0.105917689   1.01280  -0.85203  -0.26597  -0.46487
  37   34456.5    290.2   0.106004472   1.01281   0.19651  -0.72030  -0.67480
  38   34852.5    286.9   0.112194656   1.05978  -0.47168  -0.37251  -0.83578
  39   35037.8    285.4   0.233112103   2.19030   0.67017   0.84658   1.01216
  40   35397.9    282.5   0.236719938   2.20157  -1.12679   0.92986   0.25936
  41   35472.1    281.9   0.069937996   0.64909   0.60904   0.21619   0.48105
  42   35951.9    278.1   0.020949186   0.19183   0.38117  -0.06684   0.20512
  43   36165.6    276.5   0.004405822   0.04011   0.12444  -0.15223  -0.03804
  44   36175.6    276.4   0.047842407   0.43538  -0.47104  -0.21496  -0.40902
  45   36352.8    275.1   0.057708606   0.52261  -0.62408   0.10553  -0.34928
  46   36463.2    274.2   0.029981270   0.27069   0.47804  -0.07292   0.19197
  47   36607.2    273.2   0.060522850   0.54429  -0.63036   0.04611  -0.38053
  48   36835.6    271.5   0.014638232   0.13083   0.28816   0.18238   0.12055
  49   37073.7    269.7   0.015361860   0.13641  -0.28529  -0.15822  -0.17318
  50   37170.6    269.0   0.034418291   0.30484  -0.27589   0.42826   0.21287
  51   37528.4    266.5   0.005451006   0.04782  -0.17697   0.11492   0.05740
  52   37559.1    266.2   0.004091914   0.03587   0.09703   0.04934   0.15497
  53   37972.8    263.3   0.022913200   0.19865   0.21597  -0.20284  -0.33296
  54   38251.4    261.4   0.235613319   2.02781  -0.61586  -0.73760  -1.05094
  55   38630.4    258.9   0.010322715   0.08797   0.29122  -0.03032  -0.04738
  56   38758.7    258.0   0.140674067   1.19487   1.01451  -0.40696  -0.00438
  57   38931.5    256.9   0.098988408   0.83707  -0.85858   0.30890  -0.06691
  58   39170.4    255.3   0.007815599   0.06569   0.20561   0.08126   0.12965
  59   39485.3    253.3   0.032076890   0.26744   0.37562   0.06660   0.34917
  60   39533.3    253.0   0.022086289   0.18392  -0.35107  -0.02837  -0.24468
  61   40018.4    249.9   0.034545473   0.28419  -0.29916   0.36116   0.25348
  62   40078.8    249.5   0.093003951   0.76395   0.74792  -0.45227  -0.00342
  63   40147.5    249.1   0.006881196   0.05643   0.11986  -0.16841  -0.11703
  64   40271.8    248.3   0.007156919   0.05851  -0.07950   0.18359   0.13594

FINAL SINGLE POINT ENERGY     -8262.891587510539

DIPOLE MOMENT
-------------
                                X             Y             Z
Electronic contribution:    206.69077      -9.78495      41.19205
Nuclear contribution   :   -209.04685      10.82423     -43.01064
                        -----------------------------------------
Total Dipole Moment    :     -2.35609       1.03928      -1.81858
                        -----------------------------------------
Magnitude (a.u.)       :      3.15254
Magnitude (Debye)      :      8.01311

Rotational constants in cm-1:     0.000962     0.000164     0.000141
Rotational constants in MHz :    28.853536     4.903665     4.224351

                             ****ORCA TERMINATED NORMALLY****
TOTAL RUN TIME: 0 days 0 hours 10 minutes 33 seconds 981 msec
