                         Program Version 4.2.0 -  RELEASE  -
|  1> # ORCA input file
|  2> # SCF done       -198.676256773594          0.000765378102
|  3> ! CAM-B3LYP def2-SVP def2/J RIJCOSX Grid4 TightSCF
|  4> %maxcore 5000
|  5> %tddft
|  6>     Mode sTDDFT
|  7>     Ethresh 5.0
|  8>     maxcore 5000
|  9> end
| 10>
| 11> %pal
| 12>   nprocs 6
| 13>   end
| 14> * xyz 0 1
| 15>    C        1.76409         2.06080        -3.67193
| 16>    C        1.54166         3.08934        -4.54482
| 17>    C        1.24570         2.90018        -5.91226
| 18>    N        1.01278         2.79240        -7.03020
| 19>    C        1.68727         4.45132        -4.20831
| 20>    N        1.84075         5.56833        -3.99440
| 21>    C        1.84904         0.65032        -4.02665
| 22>    C        2.57187        -0.03607        -3.00576
| 23>    C        2.83277        -1.37432        -3.08972
| 24>    C        2.36673        -2.09838        -4.20952
| 25>    C        1.62943        -1.42061        -5.22436
| 26>    C        1.37824        -0.03423        -5.11525
| 27>    C        1.16346        -2.15737        -6.33240
| 28>    C        1.41433        -3.49835        -6.43640
| 29>    C        2.14030        -4.16472        -5.43745
| 30>    C        2.60676        -3.47992        -4.34837
| 31>    C        2.92282         0.90923        -1.93438
| 32>    O        3.58576         0.71552        -0.94345
| 33>    C        2.21585         2.18112        -2.29278
| 34>    C        2.01060         3.12175        -1.34875
| 35>    C        1.07387         4.22204        -1.39323
| 36>    C       -0.16653         4.08316        -2.01250
| 37>    C       -1.06270         5.13472        -2.04212
| 38>    N       -2.36403         4.86466        -2.60100
| 39>    O       -2.43714         3.97036        -3.41715
| 40>    O       -3.30334         5.50956        -2.18992
| 41>    C       -0.74833         6.39083        -1.49035
| 42>    C        0.48953         6.49914        -0.84187
| 43>    C        1.36608         5.44149        -0.77048
| 44>    C       -1.62146         7.52655        -1.64852
| 45>    C       -1.73067         8.53649        -0.75750
| 46>    C       -2.60759         9.63525        -0.97531
| 47>    N       -2.82786        10.63785        -0.06022
| 48>    C       -2.16475        10.81097         1.20872
| 49>    C       -0.76212        11.39090         1.04150
| 50>    C       -3.78889        11.56563        -0.51335
| 51>    O       -4.14770        12.53126         0.12697
| 52>    C       -4.16763        11.06559        -1.81520
| 53>    C       -3.42214         9.89181        -2.07479
| 54>    C       -3.81976         9.40694        -3.37688
| 55>    O       -3.43356         8.47192        -4.04750
| 56>    N       -4.82594        10.30066        -3.80099
| 57>    C       -5.39004        10.14942        -5.12125
| 58>    C       -4.91649        11.23980        -6.07810
| 59>    C       -5.03998        11.29850        -2.87591
| 60>    C       -5.96913        12.37032        -2.87355
| 61>    C       -7.02531        12.59156        -3.69584
| 62>    C       -7.92211        13.68464        -3.55942
| 63>    S       -9.35273        13.72826        -4.55480
| 64>    C       -9.87764        15.21982        -3.84161
| 65>    C       -8.95103        15.65084        -2.88350
| 66>    C       -7.86309        14.78512        -2.72430
| 67>    C       -9.11631        16.84048        -2.15124
| 68>    N       -9.24317        17.81189        -1.55554
| 69>    C      -11.08981        15.85114        -4.19373
| 70>    C      -11.98725        15.31876        -5.06802
| 71>    C      -13.21215        15.94665        -5.37752
| 72>    C      -14.17169        15.40472        -6.18743
| 73>    C      -15.45769        15.98610        -6.52555
| 74>    C      -15.90602        17.24107        -6.20190
| 75>    C      -17.17128        17.74717        -6.56711
| 76>    N      -18.18214        18.22223        -6.83304
| 77>    C      -15.18187        18.21406        -5.48188
| 78>    N      -14.66118        19.06175        -4.90789
| 79>    C      -16.20057        15.00123        -7.30532
| 80>    C      -15.37878        13.85338        -7.49099
| 81>    C      -14.08285        14.06384        -6.82563
| 82>    O      -13.14812        13.28922        -6.80595
| 83>    C      -15.80913        12.75986        -8.18552
| 84>    C      -17.11010        12.76149        -8.73566
| 85>    C      -17.94040        13.90488        -8.55354
| 86>    C      -17.46549        15.02370        -7.83111
| 87>    C      -19.23805        13.89555        -9.10443
| 88>    C      -19.69512        12.81009        -9.80102
| 89>    C      -18.87675        11.68460        -9.97899
| 90>    C      -17.61151        11.66098        -9.45797
| 91>    H        3.38647        -1.87533        -2.30961
| 92>    H        0.80587         0.45334        -5.88891
| 93>    H        0.60748        -1.63922        -7.09968
| 94>    H        1.05464        -4.05369        -7.28950
| 95>    H        2.32751        -5.22352        -5.53512
| 96>    H        3.16598        -3.98784        -3.57634
| 97>    H        2.57648         3.00200        -0.43041
| 98>    H       -0.46699         3.13827        -2.44248
| 99>    H        0.77080         7.44967        -0.41657
|100>    H        2.31419         5.56035        -0.26820
|101>    H       -2.23000         7.55915        -2.54334
|102>    H       -1.19003         8.50382         0.17794
|103>    H       -2.13236         9.85548         1.74016
|104>    H       -2.78359        11.50934         1.77921
|105>    H       -0.14005        10.74063         0.43026
|106>    H       -0.29450        11.51177         2.01472
|107>    H       -0.81911        12.36407         0.56043
|108>    H       -6.48098        10.11449        -5.06194
|109>    H       -5.03769         9.17554        -5.47536
|110>    H       -5.19666        12.22853        -5.72194
|111>    H       -5.35694        11.08284        -7.05879
|112>    H       -3.83419        11.20171        -6.17450
|113>    H       -5.80289        13.05014        -2.04807
|114>    H       -7.26414        11.90715        -4.49473
|115>    H       -7.06501        14.96673        -2.02743
|116>    H      -11.29681        16.79797        -3.70839
|117>    H      -11.77363        14.36733        -5.53585
|118>    H      -13.39300        16.90888        -4.91562
|119>    H      -15.16440        11.90256        -8.31086
|120>    H      -18.12119        15.87096        -7.70939
|121>    H      -19.86449        14.76437        -8.96498
|122>    H      -20.69071        12.81261       -10.21885
|123>    H      -19.25391        10.83651       -10.53071
|124>    H      -16.97656        10.79729        -9.59152
|125> *
|126>
|127>                          ****END OF INPUT****

CARTESIAN COORDINATES (ANGSTROEM)
---------------------------------
  C      1.764090    2.060800   -3.671930
  C      1.541660    3.089340   -4.544820
  C      1.245700    2.900180   -5.912260
  N      1.012780    2.792400   -7.030200
  C      1.687270    4.451320   -4.208310
  N      1.840750    5.568330   -3.994400
  C      1.849040    0.650320   -4.026650
  C      2.571870   -0.036070   -3.005760
  C      2.832770   -1.374320   -3.089720
  C      2.366730   -2.098380   -4.209520
  C      1.629430   -1.420610   -5.224360
  C      1.378240   -0.034230   -5.115250
  C      1.163460   -2.157370   -6.332400
  C      1.414330   -3.498350   -6.436400
  C      2.140300   -4.164720   -5.437450
  C      2.606760   -3.479920   -4.348370
  C      2.922820    0.909230   -1.934380
  O      3.585760    0.715520   -0.943450
  C      2.215850    2.181120   -2.292780
  C      2.010600    3.121750   -1.348750
  C      1.073870    4.222040   -1.393230
  C     -0.166530    4.083160   -2.012500
  C     -1.062700    5.134720   -2.042120
  N     -2.364030    4.864660   -2.601000
  O     -2.437140    3.970360   -3.417150
  O     -3.303340    5.509560   -2.189920
  C     -0.748330    6.390830   -1.490350
  C      0.489530    6.499140   -0.841870
  C      1.366080    5.441490   -0.770480
  C     -1.621460    7.526550   -1.648520
  C     -1.730670    8.536490   -0.757500
  C     -2.607590    9.635250   -0.975310
  N     -2.827860   10.637850   -0.060220
  C     -2.164750   10.810970    1.208720
  C     -0.762120   11.390900    1.041500
  C     -3.788890   11.565630   -0.513350
  O     -4.147700   12.531260    0.126970
  C     -4.167630   11.065590   -1.815200
  C     -3.422140    9.891810   -2.074790
  C     -3.819760    9.406940   -3.376880
  O     -3.433560    8.471920   -4.047500
  N     -4.825940   10.300660   -3.800990
  C     -5.390040   10.149420   -5.121250
  C     -4.916490   11.239800   -6.078100
  C     -5.039980   11.298500   -2.875910
  C     -5.969130   12.370320   -2.873550
  C     -7.025310   12.591560   -3.695840
  C     -7.922110   13.684640   -3.559420
  S     -9.352730   13.728260   -4.554800
  C     -9.877640   15.219820   -3.841610
  C     -8.951030   15.650840   -2.883500
  C     -7.863090   14.785120   -2.724300
  C     -9.116310   16.840480   -2.151240
  N     -9.243170   17.811890   -1.555540
  C    -11.089810   15.851140   -4.193730
  C    -11.987250   15.318760   -5.068020
  C    -13.212150   15.946650   -5.377520
  C    -14.171690   15.404720   -6.187430
  C    -15.457690   15.986100   -6.525550
  C    -15.906020   17.241070   -6.201900
  C    -17.171280   17.747170   -6.567110
  N    -18.182140   18.222230   -6.833040
  C    -15.181870   18.214060   -5.481880
  N    -14.661180   19.061750   -4.907890
  C    -16.200570   15.001230   -7.305320
  C    -15.378780   13.853380   -7.490990
  C    -14.082850   14.063840   -6.825630
  O    -13.148120   13.289220   -6.805950
  C    -15.809130   12.759860   -8.185520
  C    -17.110100   12.761490   -8.735660
  C    -17.940400   13.904880   -8.553540
  C    -17.465490   15.023700   -7.831110
  C    -19.238050   13.895550   -9.104430
  C    -19.695120   12.810090   -9.801020
  C    -18.876750   11.684600   -9.978990
  C    -17.611510   11.660980   -9.457970
  H      3.386470   -1.875330   -2.309610
  H      0.805870    0.453340   -5.888910
  H      0.607480   -1.639220   -7.099680
  H      1.054640   -4.053690   -7.289500
  H      2.327510   -5.223520   -5.535120
  H      3.165980   -3.987840   -3.576340
  H      2.576480    3.002000   -0.430410
  H     -0.466990    3.138270   -2.442480
  H      0.770800    7.449670   -0.416570
  H      2.314190    5.560350   -0.268200
  H     -2.230000    7.559150   -2.543340
  H     -1.190030    8.503820    0.177940
  H     -2.132360    9.855480    1.740160
  H     -2.783590   11.509340    1.779210
  H     -0.140050   10.740630    0.430260
  H     -0.294500   11.511770    2.014720
  H     -0.819110   12.364070    0.560430
  H     -6.480980   10.114490   -5.061940
  H     -5.037690    9.175540   -5.475360
  H     -5.196660   12.228530   -5.721940
  H     -5.356940   11.082840   -7.058790
  H     -3.834190   11.201710   -6.174500
  H     -5.802890   13.050140   -2.048070
  H     -7.264140   11.907150   -4.494730
  H     -7.065010   14.966730   -2.027430
  H    -11.296810   16.797970   -3.708390
  H    -11.773630   14.367330   -5.535850
  H    -13.393000   16.908880   -4.915620
  H    -15.164400   11.902560   -8.310860
  H    -18.121190   15.870960   -7.709390
  H    -19.864490   14.764370   -8.964980
  H    -20.690710   12.812610  -10.218850
  H    -19.253910   10.836510  -10.530710
  H    -16.976560   10.797290   -9.591520

 Total Charge           Charge          ....    0
 Multiplicity           Mult            ....    1
 Number of Electrons    NEL             ....  520
 Basis Dimension        Dim             .... 1238

ORBITAL ENERGIES
----------------

  NO   OCC          E(Eh)            E(eV)
   0   2.0000     -88.983465     -2421.3632
   1   2.0000     -19.249357      -523.8016
   2   2.0000     -19.246807      -523.7322
   3   2.0000     -19.224525      -523.1259
   4   2.0000     -19.216428      -522.9056
   5   2.0000     -19.196273      -522.3571
   6   2.0000     -19.192664      -522.2589
   7   2.0000     -14.653282      -398.7361
   8   2.0000     -14.458417      -393.4335
   9   2.0000     -14.456204      -393.3733
  10   2.0000     -14.422004      -392.4427
  11   2.0000     -14.421323      -392.4242
  12   2.0000     -14.413976      -392.2242
  13   2.0000     -14.413434      -392.2095
  14   2.0000     -14.412310      -392.1789
  15   2.0000     -10.379304      -282.4352
  16   2.0000     -10.375928      -282.3434
  17   2.0000     -10.375479      -282.3311
  18   2.0000     -10.366824      -282.0956
  19   2.0000     -10.352951      -281.7181
  20   2.0000     -10.349708      -281.6299
  21   2.0000     -10.347146      -281.5601
  22   2.0000     -10.341691      -281.4117
  23   2.0000     -10.340940      -281.3913
  24   2.0000     -10.339970      -281.3649
  25   2.0000     -10.338441      -281.3233
  26   2.0000     -10.334711      -281.2218
  27   2.0000     -10.331618      -281.1376
  28   2.0000     -10.329390      -281.0770
  29   2.0000     -10.325758      -280.9782
  30   2.0000     -10.323518      -280.9172
  31   2.0000     -10.323044      -280.9043
  32   2.0000     -10.322049      -280.8772
  33   2.0000     -10.316414      -280.7239
  34   2.0000     -10.315168      -280.6900
  35   2.0000     -10.314859      -280.6816
  36   2.0000     -10.314758      -280.6788
  37   2.0000     -10.314644      -280.6757
  38   2.0000     -10.313994      -280.6580
  39   2.0000     -10.312635      -280.6211
  40   2.0000     -10.311133      -280.5802
  41   2.0000     -10.311061      -280.5782
  42   2.0000     -10.310978      -280.5760
  43   2.0000     -10.308882      -280.5189
  44   2.0000     -10.308653      -280.5127
  45   2.0000     -10.307950      -280.4936
  46   2.0000     -10.304693      -280.4050
  47   2.0000     -10.304573      -280.4017
  48   2.0000     -10.304450      -280.3983
  49   2.0000     -10.304346      -280.3955
  50   2.0000     -10.304113      -280.3892
  51   2.0000     -10.303751      -280.3793
  52   2.0000     -10.303363      -280.3688
  53   2.0000     -10.301280      -280.3121
  54   2.0000     -10.300837      -280.3000
  55   2.0000     -10.299312      -280.2585
  56   2.0000     -10.298489      -280.2361
  57   2.0000     -10.297265      -280.2028
  58   2.0000     -10.296601      -280.1848
  59   2.0000     -10.296323      -280.1772
  60   2.0000     -10.295516      -280.1552
  61   2.0000     -10.295079      -280.1433
  62   2.0000     -10.292242      -280.0661
  63   2.0000     -10.291776      -280.0535
  64   2.0000     -10.291666      -280.0505
  65   2.0000     -10.291461      -280.0449
  66   2.0000     -10.290883      -280.0292
  67   2.0000     -10.286972      -279.9227
  68   2.0000     -10.285787      -279.8905
  69   2.0000     -10.285256      -279.8760
  70   2.0000     -10.284839      -279.8647
  71   2.0000     -10.284332      -279.8509
  72   2.0000     -10.270025      -279.4616
  73   2.0000     -10.267646      -279.3969
  74   2.0000     -10.264755      -279.3182
  75   2.0000     -10.263948      -279.2962
  76   2.0000      -8.078829      -219.8361
  77   2.0000      -6.047909      -164.5720
  78   2.0000      -6.043911      -164.4632
  79   2.0000      -6.041189      -164.3891
  80   2.0000      -1.329157       -36.1682
  81   2.0000      -1.148488       -31.2519
  82   2.0000      -1.139868       -31.0174
  83   2.0000      -1.137446       -30.9515
  84   2.0000      -1.130595       -30.7651
  85   2.0000      -1.130426       -30.7605
  86   2.0000      -1.067797       -29.0562
  87   2.0000      -1.057962       -28.7886
  88   2.0000      -1.026394       -27.9296
  89   2.0000      -1.020736       -27.7756
  90   2.0000      -1.015942       -27.6452
  91   2.0000      -1.005337       -27.3566
  92   2.0000      -1.004153       -27.3244
  93   2.0000      -0.997692       -27.1486
  94   2.0000      -0.996832       -27.1252
  95   2.0000      -0.991983       -26.9932
  96   2.0000      -0.991405       -26.9775
  97   2.0000      -0.978468       -26.6255
  98   2.0000      -0.970278       -26.4026
  99   2.0000      -0.940775       -25.5998
 100   2.0000      -0.938483       -25.5374
 101   2.0000      -0.933062       -25.3899
 102   2.0000      -0.926767       -25.2186
 103   2.0000      -0.923372       -25.1262
 104   2.0000      -0.915431       -24.9102
 105   2.0000      -0.913073       -24.8460
 106   2.0000      -0.902815       -24.5668
 107   2.0000      -0.891977       -24.2719
 108   2.0000      -0.888182       -24.1687
 109   2.0000      -0.885958       -24.1082
 110   2.0000      -0.879796       -23.9405
 111   2.0000      -0.878444       -23.9037
 112   2.0000      -0.872976       -23.7549
 113   2.0000      -0.866683       -23.5836
 114   2.0000      -0.853851       -23.2345
 115   2.0000      -0.834937       -22.7198
 116   2.0000      -0.833043       -22.6682
 117   2.0000      -0.826989       -22.5035
 118   2.0000      -0.824529       -22.4366
 119   2.0000      -0.815196       -22.1826
 120   2.0000      -0.803768       -21.8716
 121   2.0000      -0.803260       -21.8578
 122   2.0000      -0.781647       -21.2697
 123   2.0000      -0.774198       -21.0670
 124   2.0000      -0.766734       -20.8639
 125   2.0000      -0.764551       -20.8045
 126   2.0000      -0.760212       -20.6864
 127   2.0000      -0.743788       -20.2395
 128   2.0000      -0.735203       -20.0059
 129   2.0000      -0.726803       -19.7773
 130   2.0000      -0.716831       -19.5060
 131   2.0000      -0.712757       -19.3951
 132   2.0000      -0.709445       -19.3050
 133   2.0000      -0.703370       -19.1397
 134   2.0000      -0.702869       -19.1260
 135   2.0000      -0.701025       -19.0759
 136   2.0000      -0.697340       -18.9756
 137   2.0000      -0.690429       -18.7875
 138   2.0000      -0.684103       -18.6154
 139   2.0000      -0.676098       -18.3976
 140   2.0000      -0.674757       -18.3611
 141   2.0000      -0.668072       -18.1792
 142   2.0000      -0.661488       -18.0000
 143   2.0000      -0.654545       -17.8111
 144   2.0000      -0.651065       -17.7164
 145   2.0000      -0.645945       -17.5771
 146   2.0000      -0.641226       -17.4486
 147   2.0000      -0.639370       -17.3982
 148   2.0000      -0.634359       -17.2618
 149   2.0000      -0.629624       -17.1329
 150   2.0000      -0.618358       -16.8264
 151   2.0000      -0.614374       -16.7180
 152   2.0000      -0.612735       -16.6734
 153   2.0000      -0.609280       -16.5793
 154   2.0000      -0.605251       -16.4697
 155   2.0000      -0.602482       -16.3944
 156   2.0000      -0.596902       -16.2425
 157   2.0000      -0.591279       -16.0895
 158   2.0000      -0.589818       -16.0498
 159   2.0000      -0.587562       -15.9884
 160   2.0000      -0.583312       -15.8727
 161   2.0000      -0.578733       -15.7481
 162   2.0000      -0.570685       -15.5291
 163   2.0000      -0.560983       -15.2651
 164   2.0000      -0.558580       -15.1997
 165   2.0000      -0.556994       -15.1566
 166   2.0000      -0.553985       -15.0747
 167   2.0000      -0.553100       -15.0506
 168   2.0000      -0.552619       -15.0375
 169   2.0000      -0.549976       -14.9656
 170   2.0000      -0.547143       -14.8885
 171   2.0000      -0.545314       -14.8387
 172   2.0000      -0.543708       -14.7951
 173   2.0000      -0.537629       -14.6296
 174   2.0000      -0.537147       -14.6165
 175   2.0000      -0.536237       -14.5918
 176   2.0000      -0.535323       -14.5669
 177   2.0000      -0.534661       -14.5489
 178   2.0000      -0.526464       -14.3258
 179   2.0000      -0.524048       -14.2601
 180   2.0000      -0.522201       -14.2098
 181   2.0000      -0.519710       -14.1420
 182   2.0000      -0.519309       -14.1311
 183   2.0000      -0.518532       -14.1100
 184   2.0000      -0.517801       -14.0901
 185   2.0000      -0.515306       -14.0222
 186   2.0000      -0.513732       -13.9794
 187   2.0000      -0.511319       -13.9137
 188   2.0000      -0.510346       -13.8872
 189   2.0000      -0.506356       -13.7786
 190   2.0000      -0.504536       -13.7291
 191   2.0000      -0.503363       -13.6972
 192   2.0000      -0.496057       -13.4984
 193   2.0000      -0.495789       -13.4911
 194   2.0000      -0.493871       -13.4389
 195   2.0000      -0.490739       -13.3537
 196   2.0000      -0.487065       -13.2537
 197   2.0000      -0.485084       -13.1998
 198   2.0000      -0.480420       -13.0729
 199   2.0000      -0.478253       -13.0139
 200   2.0000      -0.475025       -12.9261
 201   2.0000      -0.472983       -12.8705
 202   2.0000      -0.471511       -12.8305
 203   2.0000      -0.469184       -12.7671
 204   2.0000      -0.464984       -12.6529
 205   2.0000      -0.463716       -12.6184
 206   2.0000      -0.462798       -12.5934
 207   2.0000      -0.458457       -12.4753
 208   2.0000      -0.456053       -12.4098
 209   2.0000      -0.455452       -12.3935
 210   2.0000      -0.453750       -12.3472
 211   2.0000      -0.452034       -12.3005
 212   2.0000      -0.449909       -12.2427
 213   2.0000      -0.446800       -12.1580
 214   2.0000      -0.445441       -12.1211
 215   2.0000      -0.444567       -12.0973
 216   2.0000      -0.444109       -12.0848
 217   2.0000      -0.442347       -12.0369
 218   2.0000      -0.441555       -12.0153
 219   2.0000      -0.439461       -11.9584
 220   2.0000      -0.438730       -11.9384
 221   2.0000      -0.437470       -11.9042
 222   2.0000      -0.436950       -11.8900
 223   2.0000      -0.433893       -11.8068
 224   2.0000      -0.431879       -11.7520
 225   2.0000      -0.431581       -11.7439
 226   2.0000      -0.431448       -11.7403
 227   2.0000      -0.430548       -11.7158
 228   2.0000      -0.425293       -11.5728
 229   2.0000      -0.424011       -11.5379
 230   2.0000      -0.420833       -11.4515
 231   2.0000      -0.419601       -11.4179
 232   2.0000      -0.417661       -11.3651
 233   2.0000      -0.415724       -11.3124
 234   2.0000      -0.409990       -11.1564
 235   2.0000      -0.404160       -10.9977
 236   2.0000      -0.399973       -10.8838
 237   2.0000      -0.395142       -10.7524
 238   2.0000      -0.387196       -10.5361
 239   2.0000      -0.384847       -10.4722
 240   2.0000      -0.381279       -10.3751
 241   2.0000      -0.379210       -10.3188
 242   2.0000      -0.372263       -10.1298
 243   2.0000      -0.368012       -10.0141
 244   2.0000      -0.356379        -9.6976
 245   2.0000      -0.352825        -9.6009
 246   2.0000      -0.350437        -9.5359
 247   2.0000      -0.344019        -9.3612
 248   2.0000      -0.342510        -9.3202
 249   2.0000      -0.335535        -9.1304
 250   2.0000      -0.335390        -9.1264
 251   2.0000      -0.333275        -9.0689
 252   2.0000      -0.324194        -8.8218
 253   2.0000      -0.320129        -8.7112
 254   2.0000      -0.315471        -8.5844
 255   2.0000      -0.312666        -8.5081
 256   2.0000      -0.299652        -8.1539
 257   2.0000      -0.294913        -8.0250
 258   2.0000      -0.279881        -7.6160
 259   2.0000      -0.239899        -6.5280
 260   0.0000      -0.112529        -3.0621
 261   0.0000      -0.099813        -2.7161
 262   0.0000      -0.081223        -2.2102
 263   0.0000      -0.062416        -1.6984
 264   0.0000      -0.058271        -1.5856

MULLIKEN ATOMIC CHARGES
-----------------------
   0 C :    0.249732
   1 C :   -0.315181
   2 C :   -0.178865
   3 N :    0.163222
   4 C :   -0.187266
   5 N :    0.176108
   6 C :    0.032464
   7 C :    0.015310
   8 C :   -0.083132
   9 C :    0.096215
  10 C :    0.095078
  11 C :   -0.076877
  12 C :   -0.016415
  13 C :    0.037457
  14 C :    0.037102
  15 C :   -0.016086
  16 C :    0.138028
  17 O :   -0.135185
  18 C :   -0.111663
  19 C :    0.039664
  20 C :    0.037902
  21 C :   -0.038566
  22 C :    0.142017
  23 N :    0.244309
  24 O :   -0.231628
  25 O :   -0.217827
  26 C :    0.082924
  27 C :   -0.024419
  28 C :    0.061544
  29 C :    0.020257
  30 C :   -0.032237
  31 C :    0.138220
  32 N :   -0.266416
  33 C :    0.097245
  34 C :    0.003225
  35 C :    0.152801
  36 O :   -0.190143
  37 C :   -0.039324
  38 C :   -0.067521
  39 C :    0.177693
  40 O :   -0.205385
  41 N :   -0.266426
  42 C :    0.095616
  43 C :   -0.003301
  44 C :    0.109156
  45 C :   -0.033312
  46 C :    0.078809
  47 C :   -0.078726
  48 S :    0.163678
  49 C :   -0.051362
  50 C :   -0.040850
  51 C :    0.018211
  52 C :   -0.189973
  53 N :    0.145685
  54 C :    0.028052
  55 C :   -0.015241
  56 C :   -0.035920
  57 C :   -0.069151
  58 C :    0.336239
  59 C :   -0.354379
  60 C :   -0.181194
  61 N :    0.149064
  62 C :   -0.195924
  63 N :    0.153819
  64 C :    0.047633
  65 C :    0.001927
  66 C :    0.149376
  67 O :   -0.154718
  68 C :   -0.085131
  69 C :    0.100900
  70 C :    0.099019
  71 C :   -0.090190
  72 C :   -0.021420
  73 C :    0.039026
  74 C :    0.037458
  75 C :   -0.018686
  76 H :   -0.009320
  77 H :   -0.000431
  78 H :   -0.007397
  79 H :   -0.002169
  80 H :   -0.002126
  81 H :   -0.015374
  82 H :    0.027831
  83 H :    0.016316
  84 H :   -0.008388
  85 H :   -0.007082
  86 H :    0.042307
  87 H :   -0.024957
  88 H :    0.024703
  89 H :    0.046589
  90 H :    0.011889
  91 H :    0.025076
  92 H :    0.031884
  93 H :    0.028134
  94 H :    0.050572
  95 H :    0.021591
  96 H :    0.023863
  97 H :    0.029353
  98 H :    0.012006
  99 H :   -0.019217
 100 H :    0.014016
 101 H :    0.031931
 102 H :    0.032441
 103 H :    0.013858
 104 H :   -0.014511
 105 H :   -0.008035
 106 H :   -0.008502
 107 H :   -0.005401
 108 H :   -0.005709
 109 H :   -0.017886
Sum of atomic charges:   -0.0000000

LOEWDIN ATOMIC CHARGES
----------------------
   0 C :    0.064137
   1 C :   -0.123559
   2 C :   -0.017374
   3 N :   -0.041168
   4 C :   -0.017324
   5 N :   -0.041524
   6 C :   -0.024322
   7 C :   -0.059535
   8 C :    0.035448
   9 C :   -0.008120
  10 C :   -0.004077
  11 C :    0.020722
  12 C :   -0.004536
  13 C :   -0.010258
  14 C :   -0.010632
  15 C :   -0.008445
  16 C :    0.085686
  17 O :   -0.135677
  18 C :   -0.072726
  19 C :    0.069594
  20 C :   -0.035164
  21 C :    0.018771
  22 C :   -0.014967
  23 N :    0.285672
  24 O :   -0.199580
  25 O :   -0.178755
  26 C :    0.004435
  27 C :    0.004725
  28 C :    0.024722
  29 C :    0.044213
  30 C :   -0.043883
  31 C :    0.086898
  32 N :   -0.003929
  33 C :    0.036179
  34 C :   -0.061046
  35 C :    0.080788
  36 O :   -0.192629
  37 C :   -0.104567
  38 C :   -0.124680
  39 C :    0.084641
  40 O :   -0.191046
  41 N :   -0.003803
  42 C :    0.034884
  43 C :   -0.062745
  44 C :    0.064070
  45 C :   -0.012413
  46 C :   -0.034994
  47 C :   -0.150529
  48 S :    0.481383
  49 C :   -0.151666
  50 C :   -0.083210
  51 C :   -0.021986
  52 C :   -0.033521
  53 N :   -0.039477
  54 C :    0.011914
  55 C :   -0.029515
  56 C :    0.065781
  57 C :   -0.087931
  58 C :    0.073916
  59 C :   -0.137416
  60 C :   -0.016676
  61 N :   -0.053907
  62 C :   -0.021865
  63 N :   -0.049084
  64 C :   -0.025195
  65 C :   -0.055596
  66 C :    0.085573
  67 O :   -0.148328
  68 C :    0.031566
  69 C :   -0.008414
  70 C :   -0.005925
  71 C :    0.018980
  72 C :   -0.005308
  73 C :   -0.013292
  74 C :   -0.012494
  75 C :   -0.009970
  76 H :    0.040346
  77 H :    0.040595
  78 H :    0.035686
  79 H :    0.034327
  80 H :    0.033930
  81 H :    0.032589
  82 H :    0.048487
  83 H :    0.041014
  84 H :    0.035632
  85 H :    0.037960
  86 H :    0.038844
  87 H :    0.027605
  88 H :    0.023245
  89 H :    0.038962
  90 H :    0.020288
  91 H :    0.031184
  92 H :    0.033438
  93 H :    0.019698
  94 H :    0.039959
  95 H :    0.021487
  96 H :    0.031720
  97 H :    0.032899
  98 H :    0.046683
  99 H :    0.029160
 100 H :    0.044497
 101 H :    0.049037
 102 H :    0.027075
 103 H :    0.043941
 104 H :    0.038376
 105 H :    0.039069
 106 H :    0.034920
 107 H :    0.033169
 108 H :    0.032614
 109 H :    0.031645

  Mayer bond orders larger than 0.100000
B(  0-C ,  1-C ) :   1.6885 B(  0-C ,  6-C ) :   1.0042 B(  0-C , 18-C ) :   0.9995
B(  1-C ,  2-C ) :   1.1304 B(  1-C ,  4-C ) :   1.1543 B(  2-C ,  3-N ) :   2.9943
B(  4-C ,  5-N ) :   3.0099 B(  6-C ,  7-C ) :   1.2132 B(  6-C , 11-C ) :   1.4521
B(  7-C ,  8-C ) :   1.4658 B(  7-C , 16-C ) :   0.9219 B(  8-C ,  9-C ) :   1.1890
B(  8-C , 76-H ) :   1.0166 B(  9-C , 10-C ) :   1.2535 B(  9-C , 15-C ) :   1.2439
B( 10-C , 11-C ) :   1.2082 B( 10-C , 12-C ) :   1.2391 B( 11-C , 77-H ) :   0.9950
B( 12-C , 13-C ) :   1.4907 B( 12-C , 78-H ) :   0.9980 B( 13-C , 14-C ) :   1.2590
B( 13-C , 79-H ) :   0.9884 B( 14-C , 15-C ) :   1.4904 B( 14-C , 80-H ) :   0.9888
B( 15-C , 81-H ) :   0.9978 B( 16-C , 17-O ) :   2.2811 B( 16-C , 18-C ) :   0.9197
B( 18-C , 19-C ) :   1.7690 B( 19-C , 20-C ) :   1.0108 B( 19-C , 82-H ) :   0.9427
B( 20-C , 21-C ) :   1.3017 B( 20-C , 28-C ) :   1.3352 B( 21-C , 22-C ) :   1.4023
B( 21-C , 83-H ) :   0.9914 B( 22-C , 23-N ) :   0.8756 B( 22-C , 26-C ) :   1.3472
B( 23-N , 24-O ) :   1.5503 B( 23-N , 25-O ) :   1.5350 B( 24-O , 25-O ) :   0.2708
B( 26-C , 27-C ) :   1.3414 B( 26-C , 29-C ) :   1.0551 B( 27-C , 28-C ) :   1.3905
B( 27-C , 84-H ) :   0.9871 B( 28-C , 85-H ) :   0.9973 B( 29-C , 30-C ) :   1.6743
B( 29-C , 86-H ) :   0.9168 B( 30-C , 31-C ) :   1.1477 B( 30-C , 87-H ) :   0.9630
B( 31-C , 32-N ) :   1.1664 B( 31-C , 38-C ) :   1.3457 B( 32-N , 33-C ) :   0.9441
B( 32-N , 35-C ) :   1.0327 B( 33-C , 34-C ) :   1.1211 B( 33-C , 88-H ) :   0.9504
B( 33-C , 89-H ) :   0.9281 B( 34-C , 90-H ) :   0.9690 B( 34-C , 91-H ) :   0.9678
B( 34-C , 92-H ) :   0.9637 B( 35-C , 36-O ) :   2.1305 B( 35-C , 37-C ) :   0.9732
B( 37-C , 38-C ) :   1.2437 B( 37-C , 44-C ) :   1.3552 B( 38-C , 39-C ) :   0.9876
B( 39-C , 40-O ) :   2.0191 B( 39-C , 41-N ) :   1.0572 B( 40-O , 86-H ) :   0.1144
B( 41-N , 42-C ) :   0.9425 B( 41-N , 44-C ) :   1.1627 B( 42-C , 43-C ) :   1.1152
B( 42-C , 93-H ) :   0.9504 B( 42-C , 94-H ) :   0.9225 B( 43-C , 95-H ) :   0.9681
B( 43-C , 96-H ) :   0.9679 B( 43-C , 97-H ) :   0.9625 B( 44-C , 45-C ) :   1.1914
B( 45-C , 46-C ) :   1.6031 B( 45-C , 98-H ) :   0.9465 B( 46-C , 47-C ) :   1.1185
B( 46-C , 99-H ) :   0.9622 B( 47-C , 48-S ) :   1.1338 B( 47-C , 51-C ) :   1.4608
B( 48-S , 49-C ) :   1.1242 B( 49-C , 50-C ) :   1.4110 B( 49-C , 54-C ) :   1.1796
B( 50-C , 51-C ) :   1.3115 B( 50-C , 52-C ) :   1.1039 B( 51-C ,100-H ) :   0.9986
B( 52-C , 53-N ) :   3.0223 B( 54-C , 55-C ) :   1.5415 B( 54-C ,101-H ) :   0.9740
B( 55-C , 56-C ) :   1.1696 B( 55-C ,102-H ) :   0.9742 B( 56-C , 57-C ) :   1.5387
B( 56-C ,103-H ) :   0.9659 B( 57-C , 58-C ) :   1.0612 B( 57-C , 66-C ) :   0.9442
B( 58-C , 59-C ) :   1.6293 B( 58-C , 64-C ) :   0.9860 B( 59-C , 60-C ) :   1.1483
B( 59-C , 62-C ) :   1.1459 B( 60-C , 61-N ) :   2.9619 B( 62-C , 63-N ) :   2.9656
B( 64-C , 65-C ) :   1.2152 B( 64-C , 71-C ) :   1.4495 B( 65-C , 66-C ) :   0.9474
B( 65-C , 68-C ) :   1.4693 B( 66-C , 67-O ) :   2.1903 B( 68-C , 69-C ) :   1.1784
B( 68-C ,104-H ) :   1.0162 B( 69-C , 70-C ) :   1.2557 B( 69-C , 75-C ) :   1.2441
B( 70-C , 71-C ) :   1.2058 B( 70-C , 72-C ) :   1.2405 B( 71-C ,105-H ) :   0.9888
B( 72-C , 73-C ) :   1.4897 B( 72-C ,106-H ) :   0.9970 B( 73-C , 74-C ) :   1.2591
B( 73-C ,107-H ) :   0.9880 B( 74-C , 75-C ) :   1.4896 B( 74-C ,108-H ) :   0.9885
B( 75-C ,109-H ) :   0.9974

-----------------------------------------------------------------------------
         ABSORPTION SPECTRUM VIA TRANSITION ELECTRIC DIPOLE MOMENTS
-----------------------------------------------------------------------------
State   Energy  Wavelength   fosc         T2         TX        TY        TZ
        (cm-1)    (nm)                  (au**2)     (au)      (au)      (au)
-----------------------------------------------------------------------------
   0   14016.2    713.5   1.452058063  34.10588  -4.67479   2.87057  -2.00301
   1   18516.0    540.1   0.146679029   2.60793  -1.09572  -0.72328  -0.94032
   2   21442.9    466.4   0.069654497   1.06940   0.97474  -0.09732  -0.33137
   3   22554.6    443.4   0.469386189   6.85126   2.29434  -0.68159   1.05956
   4   24749.5    404.0   0.021058173   0.28011   0.36033  -0.12810   0.36587
   5   25222.8    396.5   0.169036930   2.20630  -1.26210  -0.13261  -0.77189
   6   26449.4    378.1   0.032831161   0.40865   0.48420   0.24350  -0.33898
   7   26548.6    376.7   0.000508856   0.00631  -0.07379   0.01796  -0.02329
   8   26634.9    375.4   0.011487149   0.14198  -0.07365   0.33268   0.16087
   9   27694.2    361.1   0.010282121   0.12223  -0.22849   0.15532   0.21423
  10   27916.4    358.2   0.351056509   4.13993   0.78139  -1.53383  -1.08476
  11   28514.5    350.7   0.019651839   0.22689   0.16202   0.23090   0.38383
  12   28623.9    349.4   0.010091484   0.11607  -0.29061  -0.05979   0.16744
  13   28656.4    349.0   0.002415580   0.02775  -0.06788   0.14559  -0.04411
  14   29149.7    343.1   0.201954965   2.28085   0.54056   1.08667   0.89878
  15   29213.5    342.3   0.252146415   2.84149   0.57606  -1.46675  -0.59858
  16   30061.2    332.7   0.009520777   0.10427  -0.05724  -0.20193  -0.24539
  17   30763.8    325.1   0.110953617   1.18735   0.34716  -1.00619  -0.23326
  18   31699.4    315.5   0.218699888   2.27129  -0.34910   1.46266  -0.10025
  19   32281.6    309.8   0.041986936   0.42819  -0.35975   0.53721  -0.10088
  20   32608.5    306.7   0.475668099   4.80229  -1.08718  -1.48966  -1.18374
  21   33000.4    303.0   0.092306264   0.92085   0.06071   0.92223   0.25817
  22   33568.5    297.9   0.221366745   2.17098   0.18949  -1.34952  -0.56025
  23   33827.4    295.6   0.016058711   0.15629   0.04135   0.35235   0.17443
  24   34032.9    293.8   0.060015781   0.58055   0.45997  -0.29849   0.52904
  25   34075.2    293.5   0.982421522   9.49152  -0.10766  -3.01814  -0.60890
  26   34225.9    292.2   0.016120465   0.15506   0.21224   0.07950   0.32202
  27   34288.2    291.6   0.024358181   0.23387   0.23781   0.40310   0.12177
  28   34820.4    287.2   0.035604366   0.33662   0.41362  -0.02591   0.40605
  29   34997.8    285.7   0.130516672   1.22773  -0.23131   1.04956   0.26954
  30   35240.8    283.8   0.026274700   0.24545  -0.41491   0.20419  -0.17778
  31   35582.5    281.0   0.010589494   0.09797   0.15417   0.22648   0.15137
  32   35848.2    279.0   0.012761702   0.11720   0.11778   0.30795   0.09214
  33   36441.8    274.4   0.089278558   0.80654   0.45626   0.65163   0.41682
  34   37277.9    268.3   0.248835951   2.19754   0.15394  -1.22409  -0.82186
  35   37427.7    267.2   0.179236861   1.57656   0.86850  -0.90554   0.04758
  36   37772.3    264.7   0.017497229   0.15250   0.05143   0.24968   0.29583
  37   37963.6    263.4   0.081159984   0.70380   0.10455  -0.80947  -0.19398
  38   38115.9    262.4   0.002068701   0.01787   0.07777   0.09937   0.04411
  39   38280.0    261.2   0.012129342   0.10431   0.03770  -0.31441   0.06354
  40   38515.9    259.6   0.031407952   0.26846  -0.08759  -0.29791  -0.41477
  41   38609.2    259.0   0.057062537   0.48656   0.26101  -0.64620  -0.02923
  42   38899.3    257.1   0.132653128   1.12267  -0.41588   0.93752   0.26601
  43   39174.8    255.3   0.005965371   0.05013  -0.21689  -0.05169  -0.02046
  44   39396.6    253.8   0.084552213   0.70655   0.26976  -0.70919   0.36171
  45   39577.2    252.7   0.007968363   0.06628   0.16763  -0.15109   0.12391
  46   39971.5    250.2   0.069006174   0.56835   0.02531  -0.00563  -0.75344

FINAL SINGLE POINT ENERGY     -3628.157400912692

DIPOLE MOMENT
-------------
                                X             Y             Z
Electronic contribution:    -12.11483       8.69310      -1.83347
Nuclear contribution   :     14.03292     -13.94228       1.68826
                        -----------------------------------------
Total Dipole Moment    :      1.91808      -5.24918      -0.14522
                        -----------------------------------------
Magnitude (a.u.)       :      5.59052
Magnitude (Debye)      :     14.20999

Rotational constants in cm-1:     0.001341     0.000196     0.000174
Rotational constants in MHz :    40.204894     5.879353     5.222322

                             ****ORCA TERMINATED NORMALLY****
TOTAL RUN TIME: 0 days 0 hours 10 minutes 2 seconds 147 msec
