                         Program Version 4.2.0 -  RELEASE  -
|  1> # ORCA input file
|  2> # SCF done       -152.531562720784          0.000555403731
|  3> ! CAM-B3LYP def2-SVP def2/J RIJCOSX Grid4 TightSCF
|  4> %maxcore 5000
|  5> %tddft
|  6>     Mode sTDDFT
|  7>     Ethresh 5.0
|  8>     maxcore 5000
|  9> end
| 10>
| 11> %pal
| 12>   nprocs 6
| 13>   end
| 14> * xyz 0 1
| 15>    C        2.44780         1.31615         0.78486
| 16>    N        1.61824         0.29657         0.90843
| 17>    N        2.01153        -0.77229         1.46888
| 18>    C        3.29928        -0.85758         1.85006
| 19>    N        3.85302         0.31623         2.21357
| 20>    N        3.44710         1.37516         1.64744
| 21>    C        3.94596        -2.11951         2.08572
| 22>    C        4.71320        -2.68365         1.07422
| 23>    N        4.85800        -2.01601        -0.12633
| 24>    O        5.53627        -2.47653        -1.02183
| 25>    O        4.24305        -0.93742        -0.20895
| 26>    C        5.21588        -3.95298         1.50762
| 27>    C        4.71599        -4.18305         2.75084
| 28>    C        3.90308        -3.06887         3.16397
| 29>    C        3.25274        -2.87401         4.37954
| 30>    C        2.93684        -1.61292         4.94689
| 31>    C        2.55249        -1.78671         6.25154
| 32>    C        2.55788        -3.17507         6.55296
| 33>    N        2.11477        -3.68291         7.77270
| 34>    O        2.00394        -4.90569         7.91888
| 35>    O        1.84739        -2.88892         8.65734
| 36>    C        2.94425        -3.88885         5.39196
| 37>    C        2.86038        -5.27542         5.30429
| 38>    C        2.70864        -6.10379         4.21424
| 39>    C        2.42389        -7.45559         4.40098
| 40>    S        2.43410        -8.57072         3.05166
| 41>    C        2.05380        -9.97188         4.03320
| 42>    C        1.87119        -9.56320         5.37317
| 43>    C        2.07955        -8.16949         5.56749
| 44>    N        1.83130        -7.87781         6.86789
| 45>    C        1.47528        -9.03881         7.50667
| 46>    C        1.14934        -9.07933         8.87219
| 47>    N        0.87906        -9.14782         9.98389
| 48>    C        1.49554       -10.10114         6.61945
| 49>    C        1.99900       -11.22152         3.42412
| 50>    C        1.78877       -12.41613         4.07564
| 51>    C        1.77252       -13.66992         3.45410
| 52>    C        1.61582       -14.89343         4.10697
| 53>    C        1.69179       -15.94046         3.16974
| 54>    C        1.89073       -15.29873         1.85412
| 55>    C        1.93742       -13.95405         2.03596
| 56>    C        2.00659       -15.93662         0.61335
| 57>    N        2.10362       -16.41947        -0.42443
| 58>    C        1.62512       -17.30581         3.40929
| 59>    C        1.75407       -18.35663         2.47028
| 60>    C        1.65676       -19.57481         3.12709
| 61>    C        1.44935       -19.29851         4.53753
| 62>    C        1.42794       -17.94947         4.71772
| 63>    C        1.24413       -17.30784         5.94711
| 64>    N        1.09017       -16.80626         6.96941
| 65>    C        1.76387       -20.84291         2.51378
| 66>    C        1.69748       -22.03874         3.15940
| 67>    C        1.80773       -23.26834         2.46708
| 68>    N        2.25638       -23.35338         1.18305
| 69>    N        1.91369       -24.39772         0.54000
| 70>    C        1.39133       -25.44028         1.13569
| 71>    N        1.49590       -25.52653         2.47250
| 72>    N        1.61134       -24.42958         3.09930
| 73>    H        2.21524         2.14811         0.14774
| 74>    H        5.87224        -4.57444         0.93058
| 75>    H        4.95033        -5.01920         3.38031
| 76>    H        3.07124        -0.67065         4.45349
| 77>    H        2.27897        -1.02299         6.95505
| 78>    H        2.80692        -5.75617         6.26693
| 79>    H        2.76104        -5.73064         3.20266
| 80>    H        1.82614        -6.97076         7.32149
| 81>    H        1.25181       -11.11358         6.86803
| 82>    H        2.15901       -11.23122         2.35470
| 83>    H        1.64567       -12.41129         5.14591
| 84>    H        1.47463       -15.01722         5.16272
| 85>    H        2.07021       -13.22232         1.26152
| 86>    H        1.91212       -18.22938         1.41717
| 87>    H        1.33355       -20.03676         5.30836
| 88>    H        1.91965       -20.85033         1.44207
| 89>    H        1.53730       -22.11069         4.22397
| 90>    H        1.02864       -26.27376         0.56324
| 91> *
| 92>
| 93>                          ****END OF INPUT****

CARTESIAN COORDINATES (ANGSTROEM)
---------------------------------
  C      2.447800    1.316150    0.784860
  N      1.618240    0.296570    0.908430
  N      2.011530   -0.772290    1.468880
  C      3.299280   -0.857580    1.850060
  N      3.853020    0.316230    2.213570
  N      3.447100    1.375160    1.647440
  C      3.945960   -2.119510    2.085720
  C      4.713200   -2.683650    1.074220
  N      4.858000   -2.016010   -0.126330
  O      5.536270   -2.476530   -1.021830
  O      4.243050   -0.937420   -0.208950
  C      5.215880   -3.952980    1.507620
  C      4.715990   -4.183050    2.750840
  C      3.903080   -3.068870    3.163970
  C      3.252740   -2.874010    4.379540
  C      2.936840   -1.612920    4.946890
  C      2.552490   -1.786710    6.251540
  C      2.557880   -3.175070    6.552960
  N      2.114770   -3.682910    7.772700
  O      2.003940   -4.905690    7.918880
  O      1.847390   -2.888920    8.657340
  C      2.944250   -3.888850    5.391960
  C      2.860380   -5.275420    5.304290
  C      2.708640   -6.103790    4.214240
  C      2.423890   -7.455590    4.400980
  S      2.434100   -8.570720    3.051660
  C      2.053800   -9.971880    4.033200
  C      1.871190   -9.563200    5.373170
  C      2.079550   -8.169490    5.567490
  N      1.831300   -7.877810    6.867890
  C      1.475280   -9.038810    7.506670
  C      1.149340   -9.079330    8.872190
  N      0.879060   -9.147820    9.983890
  C      1.495540  -10.101140    6.619450
  C      1.999000  -11.221520    3.424120
  C      1.788770  -12.416130    4.075640
  C      1.772520  -13.669920    3.454100
  C      1.615820  -14.893430    4.106970
  C      1.691790  -15.940460    3.169740
  C      1.890730  -15.298730    1.854120
  C      1.937420  -13.954050    2.035960
  C      2.006590  -15.936620    0.613350
  N      2.103620  -16.419470   -0.424430
  C      1.625120  -17.305810    3.409290
  C      1.754070  -18.356630    2.470280
  C      1.656760  -19.574810    3.127090
  C      1.449350  -19.298510    4.537530
  C      1.427940  -17.949470    4.717720
  C      1.244130  -17.307840    5.947110
  N      1.090170  -16.806260    6.969410
  C      1.763870  -20.842910    2.513780
  C      1.697480  -22.038740    3.159400
  C      1.807730  -23.268340    2.467080
  N      2.256380  -23.353380    1.183050
  N      1.913690  -24.397720    0.540000
  C      1.391330  -25.440280    1.135690
  N      1.495900  -25.526530    2.472500
  N      1.611340  -24.429580    3.099300
  H      2.215240    2.148110    0.147740
  H      5.872240   -4.574440    0.930580
  H      4.950330   -5.019200    3.380310
  H      3.071240   -0.670650    4.453490
  H      2.278970   -1.022990    6.955050
  H      2.806920   -5.756170    6.266930
  H      2.761040   -5.730640    3.202660
  H      1.826140   -6.970760    7.321490
  H      1.251810  -11.113580    6.868030
  H      2.159010  -11.231220    2.354700
  H      1.645670  -12.411290    5.145910
  H      1.474630  -15.017220    5.162720
  H      2.070210  -13.222320    1.261520
  H      1.912120  -18.229380    1.417170
  H      1.333550  -20.036760    5.308360
  H      1.919650  -20.850330    1.442070
  H      1.537300  -22.110690    4.223970
  H      1.028640  -26.273760    0.563240

 Total Charge           Charge          ....    0
 Multiplicity           Mult            ....    1
 Number of Electrons    NEL             ....  398
 Basis Dimension        Dim             ....  906

ORBITAL ENERGIES
----------------

  NO   OCC          E(Eh)            E(eV)
   0   2.0000     -89.004950     -2421.9478
   1   2.0000     -19.260028      -524.0920
   2   2.0000     -19.252009      -523.8738
   3   2.0000     -19.244312      -523.6644
   4   2.0000     -19.244240      -523.6624
   5   2.0000     -14.662001      -398.9733
   6   2.0000     -14.654589      -398.7716
   7   2.0000     -14.510085      -394.8395
   8   2.0000     -14.476222      -393.9180
   9   2.0000     -14.475781      -393.9060
  10   2.0000     -14.474094      -393.8601
  11   2.0000     -14.473667      -393.8485
  12   2.0000     -14.457529      -393.4094
  13   2.0000     -14.456680      -393.3863
  14   2.0000     -14.456501      -393.3814
  15   2.0000     -14.455999      -393.3677
  16   2.0000     -14.433201      -392.7474
  17   2.0000     -14.426364      -392.5613
  18   2.0000     -14.422998      -392.4697
  19   2.0000     -10.374853      -282.3141
  20   2.0000     -10.371118      -282.2125
  21   2.0000     -10.369180      -282.1597
  22   2.0000     -10.363520      -282.0057
  23   2.0000     -10.363064      -281.9933
  24   2.0000     -10.357245      -281.8350
  25   2.0000     -10.353673      -281.7378
  26   2.0000     -10.345577      -281.5175
  27   2.0000     -10.342770      -281.4411
  28   2.0000     -10.342358      -281.4299
  29   2.0000     -10.341947      -281.4187
  30   2.0000     -10.340644      -281.3832
  31   2.0000     -10.340060      -281.3673
  32   2.0000     -10.338792      -281.3328
  33   2.0000     -10.337603      -281.3005
  34   2.0000     -10.332740      -281.1682
  35   2.0000     -10.332544      -281.1628
  36   2.0000     -10.331280      -281.1284
  37   2.0000     -10.331104      -281.1236
  38   2.0000     -10.330733      -281.1135
  39   2.0000     -10.329420      -281.0778
  40   2.0000     -10.329145      -281.0703
  41   2.0000     -10.327502      -281.0256
  42   2.0000     -10.326381      -280.9951
  43   2.0000     -10.324815      -280.9525
  44   2.0000     -10.324438      -280.9422
  45   2.0000     -10.324288      -280.9381
  46   2.0000     -10.322468      -280.8886
  47   2.0000     -10.319033      -280.7952
  48   2.0000     -10.318649      -280.7847
  49   2.0000     -10.317377      -280.7501
  50   2.0000     -10.316382      -280.7230
  51   2.0000     -10.314357      -280.6679
  52   2.0000     -10.310977      -280.5760
  53   2.0000     -10.306653      -280.4583
  54   2.0000     -10.305831      -280.4359
  55   2.0000     -10.303213      -280.3647
  56   2.0000     -10.299985      -280.2768
  57   2.0000     -10.288166      -279.9552
  58   2.0000      -8.099980      -220.4117
  59   2.0000      -6.069335      -165.1550
  60   2.0000      -6.065199      -165.0425
  61   2.0000      -6.061998      -164.9553
  62   2.0000      -1.329474       -36.1768
  63   2.0000      -1.319725       -35.9115
  64   2.0000      -1.206079       -32.8191
  65   2.0000      -1.193878       -32.4871
  66   2.0000      -1.147234       -31.2178
  67   2.0000      -1.136235       -30.9185
  68   2.0000      -1.133149       -30.8345
  69   2.0000      -1.105673       -30.0869
  70   2.0000      -1.088479       -29.6190
  71   2.0000      -1.034768       -28.1575
  72   2.0000      -1.031243       -28.0616
  73   2.0000      -1.024162       -27.8689
  74   2.0000      -1.017571       -27.6895
  75   2.0000      -1.012465       -27.5506
  76   2.0000      -1.011080       -27.5129
  77   2.0000      -1.002783       -27.2871
  78   2.0000      -0.999399       -27.1950
  79   2.0000      -0.991138       -26.9702
  80   2.0000      -0.969883       -26.3918
  81   2.0000      -0.959784       -26.1170
  82   2.0000      -0.933045       -25.3894
  83   2.0000      -0.925770       -25.1915
  84   2.0000      -0.918412       -24.9913
  85   2.0000      -0.913663       -24.8620
  86   2.0000      -0.897698       -24.4276
  87   2.0000      -0.888332       -24.1727
  88   2.0000      -0.878622       -23.9085
  89   2.0000      -0.874440       -23.7947
  90   2.0000      -0.863471       -23.4962
  91   2.0000      -0.858142       -23.3512
  92   2.0000      -0.852931       -23.2094
  93   2.0000      -0.834816       -22.7165
  94   2.0000      -0.826800       -22.4984
  95   2.0000      -0.816949       -22.2303
  96   2.0000      -0.808889       -22.0110
  97   2.0000      -0.801226       -21.8025
  98   2.0000      -0.781590       -21.2681
  99   2.0000      -0.776969       -21.1424
 100   2.0000      -0.772518       -21.0213
 101   2.0000      -0.760346       -20.6901
 102   2.0000      -0.744305       -20.2536
 103   2.0000      -0.743673       -20.2364
 104   2.0000      -0.739618       -20.1260
 105   2.0000      -0.726854       -19.7787
 106   2.0000      -0.726159       -19.7598
 107   2.0000      -0.694724       -18.9044
 108   2.0000      -0.690855       -18.7991
 109   2.0000      -0.688633       -18.7386
 110   2.0000      -0.685056       -18.6413
 111   2.0000      -0.674572       -18.3560
 112   2.0000      -0.672024       -18.2867
 113   2.0000      -0.667215       -18.1558
 114   2.0000      -0.663383       -18.0516
 115   2.0000      -0.657605       -17.8943
 116   2.0000      -0.650497       -17.7009
 117   2.0000      -0.647620       -17.6226
 118   2.0000      -0.640646       -17.4329
 119   2.0000      -0.639062       -17.3898
 120   2.0000      -0.635183       -17.2842
 121   2.0000      -0.633190       -17.2300
 122   2.0000      -0.628621       -17.1057
 123   2.0000      -0.625639       -17.0245
 124   2.0000      -0.609649       -16.5894
 125   2.0000      -0.609597       -16.5880
 126   2.0000      -0.606734       -16.5101
 127   2.0000      -0.600976       -16.3534
 128   2.0000      -0.593170       -16.1410
 129   2.0000      -0.589150       -16.0316
 130   2.0000      -0.585901       -15.9432
 131   2.0000      -0.578156       -15.7324
 132   2.0000      -0.576023       -15.6744
 133   2.0000      -0.570923       -15.5356
 134   2.0000      -0.564557       -15.3624
 135   2.0000      -0.562070       -15.2947
 136   2.0000      -0.557884       -15.1808
 137   2.0000      -0.557241       -15.1633
 138   2.0000      -0.550361       -14.9761
 139   2.0000      -0.543370       -14.7858
 140   2.0000      -0.539600       -14.6833
 141   2.0000      -0.536545       -14.6001
 142   2.0000      -0.534767       -14.5517
 143   2.0000      -0.530503       -14.4357
 144   2.0000      -0.521970       -14.2035
 145   2.0000      -0.517702       -14.0874
 146   2.0000      -0.515603       -14.0303
 147   2.0000      -0.513992       -13.9864
 148   2.0000      -0.510830       -13.9004
 149   2.0000      -0.505947       -13.7675
 150   2.0000      -0.504696       -13.7335
 151   2.0000      -0.501814       -13.6550
 152   2.0000      -0.498264       -13.5584
 153   2.0000      -0.491542       -13.3755
 154   2.0000      -0.486962       -13.2509
 155   2.0000      -0.483281       -13.1507
 156   2.0000      -0.476126       -12.9560
 157   2.0000      -0.473950       -12.8968
 158   2.0000      -0.467034       -12.7086
 159   2.0000      -0.466248       -12.6872
 160   2.0000      -0.464917       -12.6510
 161   2.0000      -0.462137       -12.5754
 162   2.0000      -0.460906       -12.5419
 163   2.0000      -0.456348       -12.4178
 164   2.0000      -0.454641       -12.3714
 165   2.0000      -0.452031       -12.3004
 166   2.0000      -0.450161       -12.2495
 167   2.0000      -0.449054       -12.2194
 168   2.0000      -0.448790       -12.2122
 169   2.0000      -0.445219       -12.1150
 170   2.0000      -0.443249       -12.0614
 171   2.0000      -0.438351       -11.9281
 172   2.0000      -0.436585       -11.8801
 173   2.0000      -0.434813       -11.8319
 174   2.0000      -0.431963       -11.7543
 175   2.0000      -0.428382       -11.6569
 176   2.0000      -0.418891       -11.3986
 177   2.0000      -0.413799       -11.2600
 178   2.0000      -0.406942       -11.0735
 179   2.0000      -0.395494       -10.7619
 180   2.0000      -0.391640       -10.6571
 181   2.0000      -0.391435       -10.6515
 182   2.0000      -0.388453       -10.5703
 183   2.0000      -0.383687       -10.4407
 184   2.0000      -0.381601       -10.3839
 185   2.0000      -0.371099       -10.0981
 186   2.0000      -0.370300       -10.0764
 187   2.0000      -0.367664       -10.0047
 188   2.0000      -0.354102        -9.6356
 189   2.0000      -0.345366        -9.3979
 190   2.0000      -0.343241        -9.3401
 191   2.0000      -0.341437        -9.2910
 192   2.0000      -0.332688        -9.0529
 193   2.0000      -0.328565        -8.9407
 194   2.0000      -0.313210        -8.5229
 195   2.0000      -0.301963        -8.2168
 196   2.0000      -0.292372        -7.9558
 197   2.0000      -0.279614        -7.6087
 198   2.0000      -0.255771        -6.9599
 199   0.0000      -0.164703        -4.4818
 200   0.0000      -0.138269        -3.7625
 201   0.0000      -0.091997        -2.5034
 202   0.0000      -0.064837        -1.7643
 203   0.0000      -0.057038        -1.5521

MULLIKEN ATOMIC CHARGES
-----------------------
   0 C :    0.126181
   1 N :   -0.069190
   2 N :   -0.030664
   3 C :   -0.151490
   4 N :   -0.046494
   5 N :   -0.065595
   6 C :    0.089011
   7 C :    0.100590
   8 N :    0.300683
   9 O :   -0.220236
  10 O :   -0.256269
  11 C :   -0.015122
  12 C :   -0.036505
  13 C :    0.079686
  14 C :    0.050987
  15 C :   -0.014140
  16 C :    0.042959
  17 C :    0.055660
  18 N :    0.301012
  19 O :   -0.319993
  20 O :   -0.242717
  21 C :    0.070708
  22 C :   -0.083250
  23 C :    0.070743
  24 C :   -0.180776
  25 S :    0.181195
  26 C :   -0.117426
  27 C :    0.116344
  28 C :    0.120179
  29 N :   -0.017241
  30 C :   -0.092622
  31 C :   -0.140353
  32 N :    0.185149
  33 C :   -0.045866
  34 C :    0.060683
  35 C :    0.011222
  36 C :    0.111021
  37 C :   -0.109344
  38 C :    0.131580
  39 C :   -0.087978
  40 C :   -0.008273
  41 C :   -0.181242
  42 N :    0.145304
  43 C :    0.121263
  44 C :   -0.100121
  45 C :    0.113638
  46 C :    0.001922
  47 C :   -0.094537
  48 C :   -0.179613
  49 N :    0.136539
  50 C :    0.020800
  51 C :    0.034261
  52 C :   -0.032150
  53 N :   -0.057419
  54 N :   -0.059295
  55 C :    0.097625
  56 N :   -0.061756
  57 N :   -0.043101
  58 H :    0.025795
  59 H :   -0.002267
  60 H :   -0.002177
  61 H :    0.002159
  62 H :    0.016330
  63 H :   -0.004163
  64 H :    0.013562
  65 H :    0.160239
  66 H :    0.007884
  67 H :   -0.014470
  68 H :   -0.016375
  69 H :    0.006594
  70 H :    0.005178
  71 H :    0.009704
  72 H :    0.006875
  73 H :    0.025543
  74 H :    0.005541
  75 H :    0.037883
Sum of atomic charges:   -0.0000000

LOEWDIN ATOMIC CHARGES
----------------------
   0 C :    0.010886
   1 N :   -0.025460
   2 N :   -0.045298
   3 C :   -0.001004
   4 N :   -0.047466
   5 N :   -0.024362
   6 C :   -0.006651
   7 C :   -0.028983
   8 N :    0.301101
   9 O :   -0.183958
  10 O :   -0.214537
  11 C :   -0.011319
  12 C :   -0.036512
  13 C :    0.010791
  14 C :    0.069978
  15 C :   -0.051776
  16 C :    0.056747
  17 C :   -0.081406
  18 N :    0.296534
  19 O :   -0.270563
  20 O :   -0.206027
  21 C :    0.026283
  22 C :   -0.028574
  23 C :    0.008261
  24 C :   -0.189338
  25 S :    0.472786
  26 C :   -0.131402
  27 C :   -0.064436
  28 C :    0.012375
  29 N :    0.102294
  30 C :   -0.015152
  31 C :   -0.044343
  32 N :   -0.014855
  33 C :   -0.029318
  34 C :   -0.033605
  35 C :    0.012753
  36 C :   -0.014514
  37 C :   -0.017206
  38 C :    0.035926
  39 C :   -0.068653
  40 C :    0.048886
  41 C :   -0.032556
  42 N :   -0.050864
  43 C :    0.037596
  44 C :   -0.010914
  45 C :   -0.017016
  46 C :    0.056534
  47 C :   -0.079622
  48 C :   -0.030574
  49 N :   -0.059767
  50 C :    0.033598
  51 C :   -0.030792
  52 C :   -0.009442
  53 N :   -0.042294
  54 N :   -0.013486
  55 C :    0.005333
  56 N :   -0.028032
  57 N :   -0.025672
  58 H :    0.031811
  59 H :    0.038280
  60 H :    0.028996
  61 H :    0.032521
  62 H :    0.044087
  63 H :    0.025326
  64 H :    0.039236
  65 H :    0.098430
  66 H :    0.038614
  67 H :    0.033016
  68 H :    0.039233
  69 H :    0.036757
  70 H :    0.036726
  71 H :    0.038284
  72 H :    0.038822
  73 H :    0.046292
  74 H :    0.039649
  75 H :    0.033008

  Mayer bond orders larger than 0.100000
B(  0-C ,  1-N ) :   1.4544 B(  0-C ,  3-C ) :   0.1038 B(  0-C ,  5-N ) :   1.4486
B(  0-C , 58-H ) :   0.9888 B(  1-N ,  2-N ) :   1.3948 B(  2-N ,  3-C ) :   1.4769
B(  3-C ,  4-N ) :   1.4289 B(  3-C ,  6-C ) :   0.8975 B(  3-C , 10-O ) :   0.1836
B(  4-N ,  5-N ) :   1.4046 B(  6-C ,  7-C ) :   1.5798 B(  6-C , 13-C ) :   1.1749
B(  7-C ,  8-N ) :   0.9650 B(  7-C , 11-C ) :   1.1351 B(  8-N ,  9-O ) :   1.5430
B(  8-N , 10-O ) :   1.4335 B(  9-O , 10-O ) :   0.2545 B( 11-C , 12-C ) :   1.5835
B( 11-C , 59-H ) :   1.0247 B( 12-C , 13-C ) :   1.1085 B( 12-C , 60-H ) :   1.0036
B( 13-C , 14-C ) :   1.4104 B( 14-C , 15-C ) :   1.2173 B( 14-C , 21-C ) :   0.9880
B( 15-C , 16-C ) :   1.4862 B( 15-C , 61-H ) :   0.9994 B( 16-C , 17-C ) :   1.1577
B( 16-C , 62-H ) :   1.0120 B( 17-C , 18-N ) :   1.0018 B( 17-C , 21-C ) :   1.3780
B( 18-N , 19-O ) :   1.3969 B( 18-N , 20-O ) :   1.5425 B( 19-O , 20-O ) :   0.2249
B( 21-C , 22-C ) :   1.3308 B( 22-C , 23-C ) :   1.4234 B( 22-C , 63-H ) :   0.9277
B( 23-C , 24-C ) :   1.2915 B( 23-C , 64-H ) :   0.9536 B( 24-C , 25-S ) :   1.0812
B( 24-C , 28-C ) :   1.2565 B( 25-S , 26-C ) :   1.1479 B( 26-C , 27-C ) :   1.2264
B( 26-C , 34-C ) :   1.2361 B( 27-C , 28-C ) :   1.2713 B( 27-C , 33-C ) :   1.2007
B( 28-C , 29-N ) :   1.2288 B( 29-N , 30-C ) :   1.2328 B( 29-N , 65-H ) :   0.9010
B( 30-C , 31-C ) :   1.0542 B( 30-C , 33-C ) :   1.5730 B( 31-C , 32-N ) :   3.0548
B( 33-C , 66-H ) :   1.0089 B( 34-C , 35-C ) :   1.5239 B( 34-C , 67-H ) :   0.9530
B( 35-C , 36-C ) :   1.1939 B( 35-C , 68-H ) :   0.9766 B( 36-C , 37-C ) :   1.4486
B( 36-C , 40-C ) :   1.0342 B( 37-C , 38-C ) :   1.1576 B( 37-C , 69-H ) :   1.0066
B( 38-C , 39-C ) :   1.0976 B( 38-C , 43-C ) :   1.3702 B( 39-C , 40-C ) :   1.7007
B( 39-C , 41-C ) :   1.0888 B( 40-C , 70-H ) :   1.0126 B( 41-C , 42-N ) :   2.9698
B( 43-C , 44-C ) :   1.1289 B( 43-C , 47-C ) :   1.1105 B( 44-C , 45-C ) :   1.5022
B( 44-C , 71-H ) :   1.0087 B( 45-C , 46-C ) :   1.0459 B( 45-C , 50-C ) :   1.1021
B( 46-C , 47-C ) :   1.6741 B( 46-C , 72-H ) :   1.0154 B( 47-C , 48-C ) :   1.0932
B( 48-C , 49-N ) :   2.9629 B( 50-C , 51-C ) :   1.6162 B( 50-C , 73-H ) :   0.9834
B( 51-C , 52-C ) :   1.1119 B( 51-C , 74-H ) :   0.9668 B( 52-C , 53-N ) :   1.3964
B( 52-C , 57-N ) :   1.4764 B( 53-N , 54-N ) :   1.3816 B( 54-N , 55-C ) :   1.5045
B( 55-C , 56-N ) :   1.3981 B( 55-C , 75-H ) :   0.9865 B( 56-N , 57-N ) :   1.4104

-----------------------------------------------------------------------------
         ABSORPTION SPECTRUM VIA TRANSITION ELECTRIC DIPOLE MOMENTS
-----------------------------------------------------------------------------
State   Energy  Wavelength   fosc         T2         TX        TY        TZ
        (cm-1)    (nm)                  (au**2)     (au)      (au)      (au)
-----------------------------------------------------------------------------
   0    5711.4   1750.9   0.511932253  29.50830  -0.79516  -5.36183   0.35612
   1    8568.4   1167.1   0.028462301   1.09357   0.42811   0.94091   0.15802
   2   11710.9    853.9   0.522611140  14.69148  -0.04386   3.72828   0.88853
   3   14350.4    696.8   0.056705972   1.30089  -0.03707  -1.13877   0.05211
   4   15640.4    639.4   0.064158626   1.35047   0.03491   1.15947  -0.06983
   5   16635.3    601.1   0.047644302   0.94288  -0.12115  -0.94060  -0.20853
   6   17734.2    563.9   0.019061793   0.35386  -0.01912   0.55366   0.21669
   7   19307.9    517.9   0.388747819   6.62840   0.15699   2.36616   1.00253
   8   19733.1    506.8   0.010179168   0.16982   0.39767  -0.00509   0.10794
   9   19986.8    500.3   0.058510543   0.96376   0.03166   0.94002   0.28127
  10   21056.4    474.9   0.082019348   1.28236  -0.09171  -1.02492  -0.47275
  11   21380.3    467.7   0.000637749   0.00982  -0.09660   0.01228   0.01837
  12   21441.8    466.4   0.013238402   0.20326   0.18390  -0.15357  -0.38191
  13   22490.1    444.6   0.086449420   1.26545   0.22253   0.91215  -0.61961
  14   23707.4    421.8   0.007954878   0.11047  -0.00320  -0.28823  -0.16546
  15   24159.4    413.9   0.185959149   2.53400   0.16865  -1.49852  -0.50989
  16   24702.9    404.8   0.156246560   2.08228  -0.12645   1.43033   0.14299
  17   25678.1    389.4   0.028613861   0.36685   0.11863   0.40715  -0.43244
  18   25877.9    386.4   0.084293172   1.07236   0.23513   0.79542  -0.61998
  19   26094.2    383.2   0.004436208   0.05597  -0.11858  -0.04465   0.19978
  20   26585.0    376.2   0.029796895   0.36899   0.19852  -0.05004  -0.57190
  21   26783.1    373.4   0.124910490   1.53537  -0.36357   0.40532   1.11306
  22   26908.8    371.6   0.032106962   0.39281  -0.04463   0.12439   0.61265
  23   27682.1    361.2   0.048865426   0.58114   0.05471  -0.76029   0.01006
  24   27826.5    359.4   0.030985856   0.36659  -0.10234   0.12581   0.58334
  25   28022.4    356.9   0.390467527   4.58727   0.70064   0.01865  -2.02387
  26   29069.1    344.0   0.025705380   0.29112   0.08999   0.46104  -0.26544
  27   29639.7    337.4   0.063160582   0.70153  -0.16911  -0.79319   0.20924
  28   29896.9    334.5   0.003762458   0.04143  -0.01625  -0.07475  -0.18862
  29   30394.9    329.0   0.099772674   1.08065  -0.38819  -0.34143   0.90188
  30   30563.9    327.2   0.015988808   0.17222  -0.08186  -0.02900   0.40581
  31   30622.7    326.6   0.005678067   0.06104   0.14517   0.04349  -0.19513
  32   31101.9    321.5   0.079343064   0.83984   0.02956   0.85101   0.33874
  33   31153.7    321.0   0.226279013   2.39116  -0.18754   1.33151   0.76360
  34   31720.5    315.3   0.024616261   0.25548   0.23161  -0.03432  -0.44795
  35   31964.1    312.9   0.051694630   0.53243  -0.28732   0.42539   0.51858
  36   32443.4    308.2   0.058694451   0.59559   0.08211   0.71075   0.28928
  37   33001.2    303.0   0.026417296   0.26353  -0.02166   0.11640  -0.49952
  38   33705.0    296.7   0.004146153   0.04050   0.05618  -0.17701   0.07752
  39   33791.8    295.9   0.006584757   0.06415   0.06296   0.23983  -0.05164
  40   34046.7    293.7   0.004972004   0.04808  -0.13540   0.16689   0.04347
  41   34889.1    286.6   0.061958098   0.58463  -0.30617   0.12586   0.68924
  42   35005.2    285.7   0.033984475   0.31961  -0.11596   0.32478   0.44798
  43   35144.6    284.5   0.032129856   0.30097  -0.17720  -0.35890   0.37518
  44   35798.7    279.3   0.005311916   0.04885  -0.01786  -0.21906  -0.02332
  45   35832.0    279.1   0.037463780   0.34420   0.03849  -0.53484  -0.23806
  46   36114.8    276.9   0.279516169   2.54799   0.14485   1.58603  -0.10731
  47   36254.7    275.8   0.107907402   0.97986   0.08747  -0.95119  -0.25969
  48   36298.5    275.5   0.024129420   0.21884  -0.20510  -0.35089   0.23164
  49   36442.1    274.4   0.007565518   0.06835  -0.05049   0.12153   0.22589
  50   36651.9    272.8   0.012561238   0.11283   0.07941  -0.01451  -0.32605
  51   36904.9    271.0   0.030364825   0.27087  -0.14047  -0.49206   0.09493
  52   37168.3    269.0   0.140763051   1.24679  -0.08776   1.07401   0.29254
  53   37430.4    267.2   0.018261500   0.16062  -0.04083   0.10977   0.38327
  54   37753.5    264.9   0.003116675   0.02718   0.02421  -0.14701  -0.07056
  55   37936.8    263.6   0.025468103   0.22101  -0.02350   0.03206   0.46843
  56   38060.6    262.7   0.008296159   0.07176  -0.06095   0.00478   0.26081
  57   38343.5    260.8   0.392297650   3.36822   0.48740   0.15398  -1.76265
  58   38649.0    258.7   0.003757219   0.03200   0.06988   0.16439   0.00987
  59   38694.6    258.4   0.106144495   0.90307  -0.31232  -0.64940   0.61953
  60   38795.8    257.8   0.001951284   0.01656  -0.02286  -0.12463  -0.02243
  61   39272.6    254.6   0.114649910   0.96108  -0.27357  -0.18930   0.92217
  62   39498.5    253.2   0.118651619   0.98894  -0.28202  -0.15083   0.94162
  63   39896.7    250.6   0.007906759   0.06524  -0.13345  -0.12042  -0.18148
  64   40073.9    249.5   0.033522605   0.27539   0.13455   0.01803  -0.50691
  65   40237.6    248.5   0.002448248   0.02003   0.07615   0.08095  -0.08764

FINAL SINGLE POINT ENERGY     -2958.661889139826

DIPOLE MOMENT
-------------
                                X             Y             Z
Electronic contribution:      0.88573      14.01868      -1.93768
Nuclear contribution   :     -0.96250     -16.07644       1.08771
                        -----------------------------------------
Total Dipole Moment    :     -0.07677      -2.05775      -0.84997
                        -----------------------------------------
Magnitude (a.u.)       :      2.22771
Magnitude (Debye)      :      5.66239

Rotational constants in cm-1:     0.002957     0.000337     0.000306
Rotational constants in MHz :    88.637482    10.092871     9.167688

                             ****ORCA TERMINATED NORMALLY****
TOTAL RUN TIME: 0 days 0 hours 6 minutes 52 seconds 971 msec
