                         Program Version 4.2.0 -  RELEASE  -
|  1> # ORCA input file
|  2> # SCF done       -184.939886206418          0.000906072802
|  3> ! CAM-B3LYP def2-SVP def2/J RIJCOSX Grid4 TightSCF
|  4> %maxcore 5000
|  5> %tddft
|  6>     Mode sTDDFT
|  7>     Ethresh 5.0
|  8>     maxcore 5000
|  9> end
| 10>
| 11> %pal
| 12>   nprocs 6
| 13>   end
| 14> * xyz 0 1
| 15>    C        1.98807        -2.17869         0.42753
| 16>    O        2.77060        -2.92291        -0.10244
| 17>    C        0.58221        -2.41407         0.82601
| 18>    C        0.10654        -1.26653         1.46655
| 19>    C       -1.18273        -1.20130         1.95243
| 20>    C       -1.99290        -2.31986         1.78179
| 21>    C       -1.52115        -3.45804         1.14567
| 22>    C       -0.22018        -3.52317         0.65621
| 23>    C        1.19386        -0.26123         1.49179
| 24>    O        1.20741         0.84587         1.95916
| 25>    N        2.26392        -0.86370         0.82117
| 26>    C        3.51533        -0.25557         0.66611
| 27>    C        4.23189         0.35631         1.63521
| 28>    C        5.51195         0.74302         1.05659
| 29>    C        6.50941         1.44425         1.74344
| 30>    N        7.33735         2.01062         2.30245
| 31>    C        5.57194         0.30360        -0.23637
| 32>    C        4.30913        -0.30477        -0.56497
| 33>    C        3.88367        -0.71656        -1.80391
| 34>    C        4.73561        -1.01502        -2.98034
| 35>    C        3.90335        -1.18402        -4.05197
| 36>    C        2.54135        -1.02534        -3.60581
| 37>    C        2.52859        -0.78560        -2.25323
| 38>    C        1.41774        -1.11655        -4.43742
| 39>    N        0.49973        -1.19619        -5.12244
| 40>    C        6.13807        -1.24700        -2.91091
| 41>    C        6.97285        -1.25642        -3.97760
| 42>    C        8.38829        -1.48857        -3.93519
| 43>    C        9.14269        -1.23099        -5.06927
| 44>    C       10.53445        -1.39729        -5.05035
| 45>    C       11.49964        -1.17702        -6.03507
| 46>    C       11.25623        -0.76720        -7.44404
| 47>    C       11.92379         0.58522        -7.78221
| 48>    N       11.22134         1.19563        -8.88388
| 49>    C       11.70283        -1.87857        -8.41439
| 50>    N       11.27195        -1.57745        -9.76721
| 51>    C       12.77694        -1.47045        -5.43162
| 52>    C       14.03674        -1.34177        -5.89045
| 53>    C       15.22021        -1.72159        -5.06865
| 54>    C       14.89159        -2.23420        -3.70904
| 55>    C       13.63053        -2.31259        -3.24092
| 56>    C       12.54082        -1.92589        -4.05587
| 57>    C       11.17669        -1.86219        -3.83173
| 58>    C       10.38701        -2.15115        -2.69817
| 59>    C        9.04238        -1.96631        -2.75336
| 60>    C       16.01762        -2.72355        -5.88291
| 61>    C       16.81807        -2.34897        -6.87913
| 62>    C       17.56614        -3.23747        -7.73648
| 63>    C       18.20106        -4.38915        -7.39891
| 64>    C       18.96352        -4.84672        -8.55003
| 65>    C       19.75275        -6.00048        -8.58089
| 66>    N       20.42778        -6.93012        -8.60127
| 67>    C       18.81506        -3.94990        -9.57530
| 68>    C       17.91396        -2.92496        -9.13538
| 69>    C       17.36178        -1.91492        -9.89135
| 70>    C       17.86409        -1.33942       -11.15255
| 71>    C       16.92347        -0.44379       -11.59441
| 72>    C       15.82220        -0.43099       -10.66730
| 73>    C       16.10433        -1.28831        -9.62955
| 74>    C       14.66198         0.34336       -10.78358
| 75>    N       13.71056         0.98415       -10.84609
| 76>    C       19.16145        -1.58567       -11.68769
| 77>    C       19.58820        -1.17532       -12.90560
| 78>    C       20.89408        -1.37483       -13.43866
| 79>    C       21.79546        -2.36146       -13.17367
| 80>    C       21.54574        -3.62723       -12.43995
| 81>    O       20.46341        -4.13647       -12.26757
| 82>    O       22.69407        -4.18113       -12.04361
| 83>    C       22.60333        -5.45113       -11.41302
| 84>    C       23.08007        -2.26421       -13.75205
| 85>    N       24.11843        -2.16604       -14.22997
| 86>    H       -1.54188        -0.31209         2.44627
| 87>    H       -3.00691        -2.30060         2.15173
| 88>    H       -2.17456        -4.30924         1.02766
| 89>    H        0.15447        -4.40422         0.15928
| 90>    H        3.93799         0.54139         2.65026
| 91>    H        6.36940         0.49759        -0.92731
| 92>    H        4.17675        -1.44750        -5.05605
| 93>    H        1.65487        -0.57181        -1.66760
| 94>    H        6.53052        -1.43212        -1.92235
| 95>    H        6.56809        -1.01650        -4.95227
| 96>    H        8.65535        -0.87298        -5.96480
| 97>    H       10.18153        -0.61748        -7.58520
| 98>    H       12.99267         0.42046        -7.98994
| 99>    H       11.84710         1.24704        -6.91205
|100>    H       11.30933         0.60102        -9.70365
|101>    H       11.60646         2.10601        -9.10420
|102>    H       11.31450        -2.84177        -8.03700
|103>    H       12.79371        -1.94640        -8.42256
|104>    H       10.25901        -1.58885        -9.82567
|105>    H       11.63165        -2.26478       -10.41965
|106>    H       14.24745        -0.96130        -6.87859
|107>    H       15.84759        -0.82326        -4.95835
|108>    H       15.73160        -2.54041        -3.10403
|109>    H       13.43472        -2.67302        -2.24176
|110>    H       10.85857        -2.51364        -1.79690
|111>    H        8.44260        -2.19795        -1.88769
|112>    H       15.83600        -3.76505        -5.66614
|113>    H       16.94226        -1.29256        -7.09002
|114>    H       18.20107        -4.87738        -6.44251
|115>    H       19.19629        -4.07117       -10.57096
|116>    H       16.98154         0.18934       -12.45952
|117>    H       15.43846        -1.54955        -8.82972
|118>    H       19.85522        -2.09974       -11.04096
|119>    H       18.92241        -0.59070       -13.52694
|120>    H       21.21243        -0.62857       -14.16061
|121>    H       22.06856        -6.15528       -12.05355
|122>    H       22.07382        -5.37469       -10.46051
|123>    H       23.62638        -5.77979       -11.25241
|124> *
|125>
|126>                          ****END OF INPUT****

CARTESIAN COORDINATES (ANGSTROEM)
---------------------------------
  C      1.988070   -2.178690    0.427530
  O      2.770600   -2.922910   -0.102440
  C      0.582210   -2.414070    0.826010
  C      0.106540   -1.266530    1.466550
  C     -1.182730   -1.201300    1.952430
  C     -1.992900   -2.319860    1.781790
  C     -1.521150   -3.458040    1.145670
  C     -0.220180   -3.523170    0.656210
  C      1.193860   -0.261230    1.491790
  O      1.207410    0.845870    1.959160
  N      2.263920   -0.863700    0.821170
  C      3.515330   -0.255570    0.666110
  C      4.231890    0.356310    1.635210
  C      5.511950    0.743020    1.056590
  C      6.509410    1.444250    1.743440
  N      7.337350    2.010620    2.302450
  C      5.571940    0.303600   -0.236370
  C      4.309130   -0.304770   -0.564970
  C      3.883670   -0.716560   -1.803910
  C      4.735610   -1.015020   -2.980340
  C      3.903350   -1.184020   -4.051970
  C      2.541350   -1.025340   -3.605810
  C      2.528590   -0.785600   -2.253230
  C      1.417740   -1.116550   -4.437420
  N      0.499730   -1.196190   -5.122440
  C      6.138070   -1.247000   -2.910910
  C      6.972850   -1.256420   -3.977600
  C      8.388290   -1.488570   -3.935190
  C      9.142690   -1.230990   -5.069270
  C     10.534450   -1.397290   -5.050350
  C     11.499640   -1.177020   -6.035070
  C     11.256230   -0.767200   -7.444040
  C     11.923790    0.585220   -7.782210
  N     11.221340    1.195630   -8.883880
  C     11.702830   -1.878570   -8.414390
  N     11.271950   -1.577450   -9.767210
  C     12.776940   -1.470450   -5.431620
  C     14.036740   -1.341770   -5.890450
  C     15.220210   -1.721590   -5.068650
  C     14.891590   -2.234200   -3.709040
  C     13.630530   -2.312590   -3.240920
  C     12.540820   -1.925890   -4.055870
  C     11.176690   -1.862190   -3.831730
  C     10.387010   -2.151150   -2.698170
  C      9.042380   -1.966310   -2.753360
  C     16.017620   -2.723550   -5.882910
  C     16.818070   -2.348970   -6.879130
  C     17.566140   -3.237470   -7.736480
  C     18.201060   -4.389150   -7.398910
  C     18.963520   -4.846720   -8.550030
  C     19.752750   -6.000480   -8.580890
  N     20.427780   -6.930120   -8.601270
  C     18.815060   -3.949900   -9.575300
  C     17.913960   -2.924960   -9.135380
  C     17.361780   -1.914920   -9.891350
  C     17.864090   -1.339420  -11.152550
  C     16.923470   -0.443790  -11.594410
  C     15.822200   -0.430990  -10.667300
  C     16.104330   -1.288310   -9.629550
  C     14.661980    0.343360  -10.783580
  N     13.710560    0.984150  -10.846090
  C     19.161450   -1.585670  -11.687690
  C     19.588200   -1.175320  -12.905600
  C     20.894080   -1.374830  -13.438660
  C     21.795460   -2.361460  -13.173670
  C     21.545740   -3.627230  -12.439950
  O     20.463410   -4.136470  -12.267570
  O     22.694070   -4.181130  -12.043610
  C     22.603330   -5.451130  -11.413020
  C     23.080070   -2.264210  -13.752050
  N     24.118430   -2.166040  -14.229970
  H     -1.541880   -0.312090    2.446270
  H     -3.006910   -2.300600    2.151730
  H     -2.174560   -4.309240    1.027660
  H      0.154470   -4.404220    0.159280
  H      3.937990    0.541390    2.650260
  H      6.369400    0.497590   -0.927310
  H      4.176750   -1.447500   -5.056050
  H      1.654870   -0.571810   -1.667600
  H      6.530520   -1.432120   -1.922350
  H      6.568090   -1.016500   -4.952270
  H      8.655350   -0.872980   -5.964800
  H     10.181530   -0.617480   -7.585200
  H     12.992670    0.420460   -7.989940
  H     11.847100    1.247040   -6.912050
  H     11.309330    0.601020   -9.703650
  H     11.606460    2.106010   -9.104200
  H     11.314500   -2.841770   -8.037000
  H     12.793710   -1.946400   -8.422560
  H     10.259010   -1.588850   -9.825670
  H     11.631650   -2.264780  -10.419650
  H     14.247450   -0.961300   -6.878590
  H     15.847590   -0.823260   -4.958350
  H     15.731600   -2.540410   -3.104030
  H     13.434720   -2.673020   -2.241760
  H     10.858570   -2.513640   -1.796900
  H      8.442600   -2.197950   -1.887690
  H     15.836000   -3.765050   -5.666140
  H     16.942260   -1.292560   -7.090020
  H     18.201070   -4.877380   -6.442510
  H     19.196290   -4.071170  -10.570960
  H     16.981540    0.189340  -12.459520
  H     15.438460   -1.549550   -8.829720
  H     19.855220   -2.099740  -11.040960
  H     18.922410   -0.590700  -13.526940
  H     21.212430   -0.628570  -14.160610
  H     22.068560   -6.155280  -12.053550
  H     22.073820   -5.374690  -10.460510
  H     23.626380   -5.779790  -11.252410

 Total Charge           Charge          ....    0
 Multiplicity           Mult            ....    1
 Number of Electrons    NEL             ....  480
 Basis Dimension        Dim             .... 1184

ORBITAL ENERGIES
----------------

  NO   OCC          E(Eh)            E(eV)
   0   2.0000     -19.277239      -524.5603
   1   2.0000     -19.225944      -523.1645
   2   2.0000     -19.223594      -523.1006
   3   2.0000     -19.223082      -523.0867
   4   2.0000     -14.475421      -393.8962
   5   2.0000     -14.427254      -392.5855
   6   2.0000     -14.426487      -392.5647
   7   2.0000     -14.409353      -392.0984
   8   2.0000     -14.406635      -392.0245
   9   2.0000     -14.403746      -391.9459
  10   2.0000     -14.387604      -391.5066
  11   2.0000     -14.346128      -390.3780
  12   2.0000     -10.425755      -283.6992
  13   2.0000     -10.404511      -283.1212
  14   2.0000     -10.404102      -283.1100
  15   2.0000     -10.340685      -281.3843
  16   2.0000     -10.339511      -281.3524
  17   2.0000     -10.337901      -281.3086
  18   2.0000     -10.336575      -281.2725
  19   2.0000     -10.330943      -281.1192
  20   2.0000     -10.328738      -281.0593
  21   2.0000     -10.328714      -281.0586
  22   2.0000     -10.328209      -281.0448
  23   2.0000     -10.325061      -280.9592
  24   2.0000     -10.324570      -280.9458
  25   2.0000     -10.320975      -280.8480
  26   2.0000     -10.319379      -280.8046
  27   2.0000     -10.319217      -280.8002
  28   2.0000     -10.318290      -280.7749
  29   2.0000     -10.317085      -280.7422
  30   2.0000     -10.316344      -280.7220
  31   2.0000     -10.315891      -280.7097
  32   2.0000     -10.315162      -280.6898
  33   2.0000     -10.310133      -280.5530
  34   2.0000     -10.308592      -280.5110
  35   2.0000     -10.308495      -280.5084
  36   2.0000     -10.307525      -280.4820
  37   2.0000     -10.305602      -280.4297
  38   2.0000     -10.305548      -280.4282
  39   2.0000     -10.305197      -280.4187
  40   2.0000     -10.304411      -280.3973
  41   2.0000     -10.303718      -280.3784
  42   2.0000     -10.303432      -280.3706
  43   2.0000     -10.303355      -280.3685
  44   2.0000     -10.303020      -280.3594
  45   2.0000     -10.302962      -280.3579
  46   2.0000     -10.302694      -280.3506
  47   2.0000     -10.300375      -280.2874
  48   2.0000     -10.299971      -280.2765
  49   2.0000     -10.298892      -280.2471
  50   2.0000     -10.296908      -280.1931
  51   2.0000     -10.295743      -280.1614
  52   2.0000     -10.292026      -280.0603
  53   2.0000     -10.291379      -280.0426
  54   2.0000     -10.288173      -279.9554
  55   2.0000     -10.284894      -279.8662
  56   2.0000     -10.281735      -279.7802
  57   2.0000     -10.280197      -279.7384
  58   2.0000     -10.278996      -279.7057
  59   2.0000     -10.278522      -279.6928
  60   2.0000     -10.277596      -279.6676
  61   2.0000     -10.274200      -279.5752
  62   2.0000     -10.273150      -279.5466
  63   2.0000     -10.271735      -279.5081
  64   2.0000     -10.270006      -279.4611
  65   2.0000     -10.269135      -279.4374
  66   2.0000     -10.266159      -279.3564
  67   2.0000     -10.265593      -279.3410
  68   2.0000     -10.265398      -279.3357
  69   2.0000     -10.265051      -279.3262
  70   2.0000     -10.262151      -279.2473
  71   2.0000      -1.211358       -32.9627
  72   2.0000      -1.171231       -31.8708
  73   2.0000      -1.146654       -31.2020
  74   2.0000      -1.117317       -30.4038
  75   2.0000      -1.066684       -29.0259
  76   2.0000      -1.030498       -28.0413
  77   2.0000      -1.016822       -27.6691
  78   2.0000      -1.009832       -27.4789
  79   2.0000      -1.004239       -27.3267
  80   2.0000      -0.998622       -27.1739
  81   2.0000      -0.993973       -27.0474
  82   2.0000      -0.992054       -26.9952
  83   2.0000      -0.987170       -26.8623
  84   2.0000      -0.986799       -26.8522
  85   2.0000      -0.980819       -26.6894
  86   2.0000      -0.971023       -26.4229
  87   2.0000      -0.969884       -26.3919
  88   2.0000      -0.952428       -25.9169
  89   2.0000      -0.946471       -25.7548
  90   2.0000      -0.932242       -25.3676
  91   2.0000      -0.925160       -25.1749
  92   2.0000      -0.906597       -24.6698
  93   2.0000      -0.901601       -24.5338
  94   2.0000      -0.897049       -24.4099
  95   2.0000      -0.891626       -24.2624
  96   2.0000      -0.885488       -24.0954
  97   2.0000      -0.875102       -23.8127
  98   2.0000      -0.868188       -23.6246
  99   2.0000      -0.867310       -23.6007
 100   2.0000      -0.854186       -23.2436
 101   2.0000      -0.844132       -22.9700
 102   2.0000      -0.837477       -22.7889
 103   2.0000      -0.830514       -22.5994
 104   2.0000      -0.827908       -22.5285
 105   2.0000      -0.821637       -22.3579
 106   2.0000      -0.816572       -22.2201
 107   2.0000      -0.811995       -22.0955
 108   2.0000      -0.796497       -21.6738
 109   2.0000      -0.787654       -21.4332
 110   2.0000      -0.774485       -21.0748
 111   2.0000      -0.766400       -20.8548
 112   2.0000      -0.759926       -20.6786
 113   2.0000      -0.756815       -20.5940
 114   2.0000      -0.746435       -20.3115
 115   2.0000      -0.738701       -20.1011
 116   2.0000      -0.724622       -19.7180
 117   2.0000      -0.721134       -19.6230
 118   2.0000      -0.719111       -19.5680
 119   2.0000      -0.714154       -19.4331
 120   2.0000      -0.707026       -19.2391
 121   2.0000      -0.699869       -19.0444
 122   2.0000      -0.689450       -18.7609
 123   2.0000      -0.684340       -18.6218
 124   2.0000      -0.678493       -18.4627
 125   2.0000      -0.673948       -18.3391
 126   2.0000      -0.667813       -18.1721
 127   2.0000      -0.661664       -18.0048
 128   2.0000      -0.659593       -17.9484
 129   2.0000      -0.650010       -17.6877
 130   2.0000      -0.648407       -17.6441
 131   2.0000      -0.644214       -17.5300
 132   2.0000      -0.639473       -17.4009
 133   2.0000      -0.637358       -17.3434
 134   2.0000      -0.633422       -17.2363
 135   2.0000      -0.629124       -17.1193
 136   2.0000      -0.614866       -16.7314
 137   2.0000      -0.610029       -16.5997
 138   2.0000      -0.605967       -16.4892
 139   2.0000      -0.599831       -16.3222
 140   2.0000      -0.594796       -16.1852
 141   2.0000      -0.592826       -16.1316
 142   2.0000      -0.586234       -15.9522
 143   2.0000      -0.582859       -15.8604
 144   2.0000      -0.579234       -15.7618
 145   2.0000      -0.575946       -15.6723
 146   2.0000      -0.572745       -15.5852
 147   2.0000      -0.570445       -15.5226
 148   2.0000      -0.564337       -15.3564
 149   2.0000      -0.563972       -15.3465
 150   2.0000      -0.560959       -15.2645
 151   2.0000      -0.557376       -15.1670
 152   2.0000      -0.555610       -15.1189
 153   2.0000      -0.547000       -14.8846
 154   2.0000      -0.541395       -14.7321
 155   2.0000      -0.541134       -14.7250
 156   2.0000      -0.540346       -14.7036
 157   2.0000      -0.537972       -14.6390
 158   2.0000      -0.535053       -14.5595
 159   2.0000      -0.532555       -14.4915
 160   2.0000      -0.528525       -14.3819
 161   2.0000      -0.527048       -14.3417
 162   2.0000      -0.525598       -14.3023
 163   2.0000      -0.524423       -14.2703
 164   2.0000      -0.522764       -14.2251
 165   2.0000      -0.516821       -14.0634
 166   2.0000      -0.516515       -14.0551
 167   2.0000      -0.515257       -14.0209
 168   2.0000      -0.513833       -13.9821
 169   2.0000      -0.510264       -13.8850
 170   2.0000      -0.509612       -13.8672
 171   2.0000      -0.507909       -13.8209
 172   2.0000      -0.504658       -13.7324
 173   2.0000      -0.502976       -13.6867
 174   2.0000      -0.499836       -13.6012
 175   2.0000      -0.498921       -13.5763
 176   2.0000      -0.497248       -13.5308
 177   2.0000      -0.492453       -13.4003
 178   2.0000      -0.491574       -13.3764
 179   2.0000      -0.490090       -13.3360
 180   2.0000      -0.488768       -13.3001
 181   2.0000      -0.485299       -13.2057
 182   2.0000      -0.482168       -13.1205
 183   2.0000      -0.480081       -13.0637
 184   2.0000      -0.478544       -13.0219
 185   2.0000      -0.470724       -12.8090
 186   2.0000      -0.470183       -12.7943
 187   2.0000      -0.468458       -12.7474
 188   2.0000      -0.464650       -12.6438
 189   2.0000      -0.463317       -12.6075
 190   2.0000      -0.460927       -12.5425
 191   2.0000      -0.459797       -12.5117
 192   2.0000      -0.455906       -12.4058
 193   2.0000      -0.455122       -12.3845
 194   2.0000      -0.454162       -12.3584
 195   2.0000      -0.453027       -12.3275
 196   2.0000      -0.451987       -12.2992
 197   2.0000      -0.446746       -12.1566
 198   2.0000      -0.444430       -12.0936
 199   2.0000      -0.443231       -12.0609
 200   2.0000      -0.438827       -11.9411
 201   2.0000      -0.437052       -11.8928
 202   2.0000      -0.436775       -11.8853
 203   2.0000      -0.435300       -11.8451
 204   2.0000      -0.434255       -11.8167
 205   2.0000      -0.433504       -11.7962
 206   2.0000      -0.427986       -11.6461
 207   2.0000      -0.426667       -11.6102
 208   2.0000      -0.422739       -11.5033
 209   2.0000      -0.419037       -11.4026
 210   2.0000      -0.414221       -11.2715
 211   2.0000      -0.410900       -11.1812
 212   2.0000      -0.409425       -11.1410
 213   2.0000      -0.408549       -11.1172
 214   2.0000      -0.407566       -11.0904
 215   2.0000      -0.405800       -11.0424
 216   2.0000      -0.397993       -10.8299
 217   2.0000      -0.393022       -10.6947
 218   2.0000      -0.390241       -10.6190
 219   2.0000      -0.380372       -10.3504
 220   2.0000      -0.379474       -10.3260
 221   2.0000      -0.377475       -10.2716
 222   2.0000      -0.370927       -10.0934
 223   2.0000      -0.370429       -10.0799
 224   2.0000      -0.368073       -10.0158
 225   2.0000      -0.357414        -9.7257
 226   2.0000      -0.354843        -9.6558
 227   2.0000      -0.350794        -9.5456
 228   2.0000      -0.350328        -9.5329
 229   2.0000      -0.341053        -9.2805
 230   2.0000      -0.334594        -9.1048
 231   2.0000      -0.322695        -8.7810
 232   2.0000      -0.315975        -8.5981
 233   2.0000      -0.307060        -8.3555
 234   2.0000      -0.302770        -8.2388
 235   2.0000      -0.297827        -8.1043
 236   2.0000      -0.291966        -7.9448
 237   2.0000      -0.276932        -7.5357
 238   2.0000      -0.266769        -7.2591
 239   2.0000      -0.222181        -6.0459
 240   0.0000      -0.143272        -3.8986
 241   0.0000      -0.120527        -3.2797
 242   0.0000      -0.075005        -2.0410
 243   0.0000      -0.073051        -1.9878
 244   0.0000      -0.055833        -1.5193

MULLIKEN ATOMIC CHARGES
-----------------------
   0 C :    0.181612
   1 O :   -0.138260
   2 C :    0.008070
   3 C :   -0.007221
   4 C :   -0.031301
   5 C :    0.041333
   6 C :    0.038269
   7 C :   -0.027818
   8 C :    0.195354
   9 O :   -0.136666
  10 N :   -0.261255
  11 C :    0.154132
  12 C :    0.003756
  13 C :   -0.109393
  14 C :   -0.136287
  15 N :    0.138384
  16 C :   -0.035971
  17 C :    0.062814
  18 C :    0.056801
  19 C :    0.092370
  20 C :   -0.033333
  21 C :   -0.093167
  22 C :   -0.009734
  23 C :   -0.135532
  24 N :    0.137930
  25 C :   -0.024476
  26 C :   -0.002230
  27 C :    0.120977
  28 C :   -0.104056
  29 C :    0.057802
  30 C :   -0.013148
  31 C :   -0.058734
  32 C :    0.151558
  33 N :   -0.219017
  34 C :    0.148141
  35 N :   -0.210816
  36 C :    0.094219
  37 C :   -0.108387
  38 C :    0.152324
  39 C :   -0.061062
  40 C :    0.028667
  41 C :   -0.003753
  42 C :    0.038460
  43 C :    0.002639
  44 C :   -0.011069
  45 C :   -0.058426
  46 C :   -0.021902
  47 C :    0.086346
  48 C :   -0.013078
  49 C :   -0.118254
  50 C :   -0.102136
  51 N :    0.129178
  52 C :   -0.030829
  53 C :    0.051119
  54 C :    0.055195
  55 C :    0.066076
  56 C :   -0.011660
  57 C :   -0.104059
  58 C :   -0.039583
  59 C :   -0.107375
  60 N :    0.145901
  61 C :    0.051731
  62 C :   -0.005095
  63 C :    0.081825
  64 C :   -0.170780
  65 C :    0.213664
  66 O :   -0.216699
  67 O :   -0.275256
  68 C :    0.183700
  69 C :   -0.132119
  70 N :    0.092765
  71 H :    0.004258
  72 H :    0.004877
  73 H :    0.005937
  74 H :    0.004262
  75 H :   -0.005674
  76 H :    0.012311
  77 H :   -0.011359
  78 H :   -0.013610
  79 H :   -0.000540
  80 H :   -0.019110
  81 H :   -0.034523
  82 H :   -0.028098
  83 H :   -0.037738
  84 H :   -0.003028
  85 H :    0.093552
  86 H :    0.085285
  87 H :   -0.004034
  88 H :   -0.034960
  89 H :    0.102784
  90 H :    0.094641
  91 H :   -0.034907
  92 H :    0.042677
  93 H :   -0.012162
  94 H :   -0.033764
  95 H :   -0.036642
  96 H :   -0.026884
  97 H :    0.016528
  98 H :    0.016111
  99 H :   -0.004481
 100 H :    0.010202
 101 H :   -0.000472
 102 H :    0.003121
 103 H :    0.004759
 104 H :    0.003795
 105 H :    0.031441
 106 H :    0.041457
 107 H :    0.033636
 108 H :    0.047178
Sum of atomic charges:   -0.0000000

LOEWDIN ATOMIC CHARGES
----------------------
   0 C :    0.093197
   1 O :   -0.140882
   2 C :   -0.053188
   3 C :   -0.052977
   4 C :    0.013827
   5 C :   -0.000060
   6 C :   -0.000470
   7 C :    0.015313
   8 C :    0.094735
   9 O :   -0.139613
  10 N :   -0.031437
  11 C :    0.009578
  12 C :    0.018061
  13 C :   -0.057604
  14 C :   -0.031146
  15 N :   -0.045724
  16 C :    0.004795
  17 C :    0.025028
  18 C :    0.058696
  19 C :   -0.017334
  20 C :   -0.006034
  21 C :   -0.041611
  22 C :   -0.011921
  23 C :   -0.028794
  24 N :   -0.044608
  25 C :   -0.038230
  26 C :    0.008060
  27 C :   -0.029915
  28 C :   -0.001788
  29 C :   -0.022693
  30 C :   -0.020614
  31 C :   -0.040522
  32 C :    0.031517
  33 N :   -0.120513
  34 C :    0.025495
  35 N :   -0.098521
  36 C :   -0.015108
  37 C :    0.063080
  38 C :   -0.030977
  39 C :   -0.044153
  40 C :   -0.010954
  41 C :   -0.038412
  42 C :   -0.027511
  43 C :   -0.005818
  44 C :   -0.024401
  45 C :    0.015492
  46 C :   -0.040464
  47 C :   -0.027906
  48 C :    0.012158
  49 C :   -0.045666
  50 C :   -0.024926
  51 N :   -0.042483
  52 C :   -0.003528
  53 C :    0.051513
  54 C :    0.030833
  55 C :   -0.034197
  56 C :    0.026490
  57 C :   -0.054130
  58 C :    0.003872
  59 C :   -0.027967
  60 N :   -0.030592
  61 C :    0.034899
  62 C :   -0.036068
  63 C :    0.067665
  64 C :   -0.118588
  65 C :    0.098402
  66 O :   -0.176738
  67 O :   -0.067444
  68 C :    0.085604
  69 C :   -0.037084
  70 N :   -0.055774
  71 H :    0.041688
  72 H :    0.036301
  73 H :    0.036472
  74 H :    0.042013
  75 H :    0.038755
  76 H :    0.038302
  77 H :    0.030309
  78 H :    0.028857
  79 H :    0.028085
  80 H :    0.029228
  81 H :    0.026443
  82 H :    0.024547
  83 H :   -0.011750
  84 H :    0.016673
  85 H :    0.035530
  86 H :    0.049711
  87 H :    0.002868
  88 H :    0.007642
  89 H :    0.057667
  90 H :    0.055957
  91 H :    0.019747
  92 H :    0.060852
  93 H :    0.024359
  94 H :    0.031081
  95 H :    0.027968
  96 H :    0.025850
  97 H :    0.031545
  98 H :    0.031348
  99 H :    0.034817
 100 H :    0.033354
 101 H :    0.034725
 102 H :    0.032300
 103 H :    0.034169
 104 H :    0.034247
 105 H :    0.052318
 106 H :    0.028031
 107 H :    0.023816
 108 H :    0.032954

  Mayer bond orders larger than 0.100000
B(  0-C ,  1-O ) :   2.2389 B(  0-C ,  2-C ) :   0.8994 B(  0-C , 10-N ) :   1.0044
B(  2-C ,  3-C ) :   1.3642 B(  2-C ,  7-C ) :   1.4111 B(  3-C ,  4-C ) :   1.4137
B(  3-C ,  8-C ) :   0.8850 B(  4-C ,  5-C ) :   1.3492 B(  4-C , 71-H ) :   1.0063
B(  5-C ,  6-C ) :   1.4014 B(  5-C , 72-H ) :   0.9891 B(  6-C ,  7-C ) :   1.3483
B(  6-C , 73-H ) :   0.9890 B(  7-C , 74-H ) :   1.0075 B(  8-C ,  9-O ) :   2.2583
B(  8-C , 10-N ) :   1.0071 B( 10-N , 11-C ) :   0.9177 B( 11-C , 12-C ) :   1.6749
B( 11-C , 17-C ) :   1.1112 B( 12-C , 13-C ) :   1.0535 B( 12-C , 75-H ) :   1.0272
B( 13-C , 14-C ) :   1.0704 B( 13-C , 16-C ) :   1.6528 B( 14-C , 15-N ) :   3.0375
B( 16-C , 17-C ) :   1.0794 B( 16-C , 76-H ) :   1.0141 B( 17-C , 18-C ) :   1.4644
B( 18-C , 19-C ) :   1.0367 B( 18-C , 22-C ) :   1.0999 B( 19-C , 20-C ) :   1.6035
B( 19-C , 25-C ) :   1.0904 B( 20-C , 21-C ) :   1.0995 B( 20-C , 77-H ) :   1.0139
B( 21-C , 22-C ) :   1.6269 B( 21-C , 23-C ) :   1.0558 B( 22-C , 78-H ) :   1.0034
B( 23-C , 24-N ) :   3.0394 B( 25-C , 26-C ) :   1.6563 B( 25-C , 79-H ) :   0.9565
B( 26-C , 27-C ) :   1.0922 B( 26-C , 80-H ) :   0.9898 B( 27-C , 28-C ) :   1.4791
B( 27-C , 44-C ) :   1.1201 B( 28-C , 29-C ) :   1.1393 B( 28-C , 81-H ) :   1.0038
B( 29-C , 30-C ) :   1.4807 B( 29-C , 42-C ) :   1.1128 B( 30-C , 31-C ) :   1.0328
B( 30-C , 36-C ) :   1.0843 B( 31-C , 32-C ) :   1.0193 B( 31-C , 34-C ) :   1.0419
B( 31-C , 82-H ) :   0.8761 B( 32-C , 33-N ) :   1.1289 B( 32-C , 83-H ) :   0.9137
B( 32-C , 84-H ) :   0.9465 B( 33-N , 85-H ) :   0.9454 B( 33-N , 86-H ) :   0.9667
B( 34-C , 35-N ) :   1.0941 B( 34-C , 87-H ) :   0.9436 B( 34-C , 88-H ) :   0.9282
B( 35-N , 89-H ) :   0.9630 B( 35-N , 90-H ) :   0.9670 B( 36-C , 37-C ) :   1.6793
B( 36-C , 41-C ) :   1.0464 B( 37-C , 38-C ) :   0.9748 B( 37-C , 91-H ) :   0.9578
B( 38-C , 39-C ) :   0.9760 B( 38-C , 45-C ) :   0.9523 B( 38-C , 92-H ) :   0.8647
B( 39-C , 40-C ) :   1.7170 B( 39-C , 93-H ) :   0.9785 B( 40-C , 41-C ) :   1.1347
B( 40-C , 94-H ) :   0.9891 B( 41-C , 42-C ) :   1.4417 B( 42-C , 43-C ) :   1.1402
B( 43-C , 44-C ) :   1.6217 B( 43-C , 95-H ) :   0.9891 B( 44-C , 96-H ) :   0.9816
B( 45-C , 46-C ) :   1.8302 B( 45-C , 97-H ) :   0.9844 B( 46-C , 47-C ) :   1.0180
B( 46-C , 98-H ) :   0.9514 B( 47-C , 48-C ) :   1.6585 B( 47-C , 53-C ) :   1.0527
B( 48-C , 49-C ) :   1.0585 B( 48-C , 99-H ) :   1.0191 B( 49-C , 50-C ) :   1.0734
B( 49-C , 52-C ) :   1.6523 B( 50-C , 51-N ) :   2.9846 B( 52-C , 53-C ) :   1.0691
B( 52-C ,100-H ) :   0.9969 B( 53-C , 54-C ) :   1.4690 B( 54-C , 55-C ) :   1.0484
B( 54-C , 58-C ) :   1.1011 B( 55-C , 56-C ) :   1.5710 B( 55-C , 61-C ) :   1.1265
B( 56-C , 57-C ) :   1.1137 B( 56-C ,101-H ) :   1.0119 B( 57-C , 58-C ) :   1.6061
B( 57-C , 59-C ) :   1.0611 B( 58-C ,102-H ) :   1.0155 B( 59-C , 60-N ) :   2.9805
B( 61-C , 62-C ) :   1.7023 B( 61-C ,103-H ) :   0.9511 B( 62-C , 63-C ) :   1.1357
B( 62-C ,104-H ) :   0.9576 B( 63-C , 64-C ) :   1.7492 B( 63-C ,105-H ) :   0.9477
B( 64-C , 65-C ) :   0.9322 B( 64-C , 69-C ) :   1.0734 B( 65-C , 66-O ) :   2.0033
B( 65-C , 67-O ) :   1.2700 B( 67-O , 68-C ) :   0.9042 B( 68-C ,106-H ) :   0.9743
B( 68-C ,107-H ) :   0.9774 B( 68-C ,108-H ) :   0.9789 B( 69-C , 70-N ) :   3.0328

-----------------------------------------------------------------------------
         ABSORPTION SPECTRUM VIA TRANSITION ELECTRIC DIPOLE MOMENTS
-----------------------------------------------------------------------------
State   Energy  Wavelength   fosc         T2         TX        TY        TZ
        (cm-1)    (nm)                  (au**2)     (au)      (au)      (au)
-----------------------------------------------------------------------------
   0    4459.8   2242.3   0.017274814   1.27519   0.85549  -0.11159  -0.72861
   1    8123.9   1230.9   0.118660973   4.80861   1.80745  -0.30437  -1.20379
   2   13004.1    769.0   0.071389667   1.80730   0.88256   0.21752  -0.99049
   3   13266.7    753.8   0.015705178   0.38972   0.27958  -0.34565   0.43828
   4   14015.3    713.5   0.003181724   0.07474  -0.07878   0.12033  -0.23249
   5   14391.0    694.9   0.000300223   0.00687  -0.04523   0.06943   0.00096
   6   14833.4    674.2   0.040902353   0.90779   0.19670  -0.17212   0.91623
   7   17020.2    587.5   0.003224757   0.06237  -0.24593   0.04218   0.01074
   8   17421.5    574.0   0.013178409   0.24903  -0.24430   0.02395   0.43448
   9   20135.2    496.6   0.001497848   0.02449  -0.14640   0.05528  -0.00156
  10   22376.2    446.9   0.000499021   0.00734  -0.04870   0.06447  -0.02852
  11   22658.3    441.3   0.016707668   0.24275  -0.37582  -0.11536   0.29699
  12   25152.3    397.6   0.446486541   5.84394  -2.02199   0.08723   1.32208
  13   25638.5    390.0   0.009174183   0.11780   0.30373   0.04879  -0.15221
  14   25775.1    388.0   0.249556933   3.18746  -0.17791  -1.17102   1.33586
  15   25910.0    386.0   0.073561470   0.93467  -0.24247   0.54420  -0.76139
  16   26045.6    383.9   0.019772581   0.24992  -0.37372   0.01778  -0.33157
  17   26706.1    374.4   0.005883912   0.07253  -0.05384  -0.26385   0.00392
  18   27296.2    366.4   0.001369374   0.01652   0.02013  -0.10295  -0.07425
  19   27434.4    364.5   0.422838912   5.07404  -0.05767   0.82820   2.09399
  20   27859.9    358.9   0.144202770   1.70400   0.96389   0.25396  -0.84287
  21   29344.0    340.8   0.009232703   0.10358  -0.22275   0.00903   0.23213
  22   29508.4    338.9   0.589413720   6.57582   2.27674  -0.68741  -0.95902
  23   29788.8    335.7   0.082040576   0.90667   0.47098   0.18561  -0.80647
  24   29891.1    334.5   0.086403670   0.95162  -0.80975   0.52071   0.15746
  25   30399.8    328.9   0.079149156   0.85714  -0.83128   0.39396  -0.10442
  26   30576.9    327.0   0.195087055   2.10044   0.96783  -1.04838  -0.25425
  27   31025.2    322.3   0.336566217   3.57134  -1.80721   0.46751  -0.29453
  28   31311.1    319.4   0.069927295   0.73523  -0.57153  -0.59017  -0.24552
  29   31381.5    318.7   0.215055255   2.25606  -1.45815  -0.35338  -0.07054
  30   31551.9    316.9   0.093284266   0.97333   0.21316   0.96276   0.03140
  31   31776.4    314.7   0.931311491   9.64863   2.83657  -0.78581   0.99249
  32   32195.0    310.6   0.004847408   0.04957   0.12679   0.13525   0.12329
  33   32219.2    310.4   0.003276007   0.03347   0.18011  -0.01309   0.02938
  34   32494.6    307.7   0.005011884   0.05078   0.16847  -0.14868  -0.01699
  35   32752.4    305.3   0.074918372   0.75304   0.65877  -0.51901  -0.22292
  36   32893.8    304.0   0.035902673   0.35933   0.49208  -0.33921  -0.04606
  37   33207.3    301.1   0.002664953   0.02642  -0.09702  -0.12844   0.02261
  38   33481.5    298.7   0.022142515   0.21772   0.10868   0.12986  -0.43479
  39   33829.2    295.6   0.010006811   0.09738   0.12784  -0.09219  -0.26933
  40   34099.5    293.3   0.096482130   0.93148   0.92651  -0.23153  -0.13950
  41   34207.1    292.3   0.003464207   0.03334  -0.16999   0.05388  -0.03925
  42   34404.2    290.7   0.001144869   0.01096   0.04299  -0.06966   0.06523
  43   34970.8    286.0   0.016224510   0.15274   0.26034   0.15181   0.24882
  44   35501.1    281.7   0.001543568   0.01431   0.03114   0.01459  -0.11459
  45   35557.3    281.2   0.033845244   0.31336  -0.43189  -0.06447  -0.35025
  46   35799.4    279.3   0.009954972   0.09155   0.24301  -0.09659   0.15219
  47   36000.2    277.8   0.008680585   0.07938   0.26242  -0.00809  -0.10224
  48   36267.7    275.7   0.021337931   0.19369  -0.20759  -0.02222   0.38743
  49   36323.1    275.3   0.009604154   0.08705   0.24860  -0.13967   0.07575
  50   36801.6    271.7   0.049267834   0.44073  -0.64075  -0.06340   0.16170
  51   37155.9    269.1   0.016628320   0.14733  -0.35375  -0.10439  -0.10629
  52   37418.8    267.2   0.066802631   0.58773  -0.60184  -0.09890   0.46447
  53   37846.8    264.2   0.054273543   0.47210   0.21342   0.04164   0.65178
  54   38467.2    260.0   0.001129112   0.00966   0.05880   0.03058  -0.07260
  55   38569.0    259.3   0.000718180   0.00613  -0.05262   0.03622   0.04527
  56   38640.3    258.8   0.007939559   0.06764  -0.21880   0.13796  -0.02720
  57   38869.9    257.3   0.064556568   0.54677   0.57292  -0.44836  -0.13230
  58   39513.2    253.1   0.001890078   0.01575  -0.06453   0.08981  -0.05931
  59   39878.9    250.8   0.000028230   0.00023  -0.01408   0.00265   0.00528
  60   39882.7    250.7   0.693141999   5.72155  -2.38446   0.07370   0.17449
  61   40055.3    249.7   0.004015675   0.03300  -0.16422   0.02902   0.07207
  62   40224.4    248.6   0.003575294   0.02926  -0.01826  -0.12556   0.11473
  63   40294.0    248.2   0.009349889   0.07639  -0.08595   0.22895  -0.12878

FINAL SINGLE POINT ENERGY     -3005.965233497259

DIPOLE MOMENT
-------------
                                X             Y             Z
Electronic contribution:    -24.54249       2.32729      24.82382
Nuclear contribution   :     24.14242      -3.76689     -24.45858
                        -----------------------------------------
Total Dipole Moment    :     -0.40007      -1.43959       0.36524
                        -----------------------------------------
Magnitude (a.u.)       :      1.53814
Magnitude (Debye)      :      3.90965

Rotational constants in cm-1:     0.002911     0.000232     0.000226
Rotational constants in MHz :    87.269263     6.946581     6.788165

                             ****ORCA TERMINATED NORMALLY****
TOTAL RUN TIME: 0 days 0 hours 11 minutes 28 seconds 447 msec
