                         Program Version 4.2.0 -  RELEASE  -
|  1> # ORCA input file
|  2> # SCF done       -194.568324547795          0.000419354467
|  3> ! CAM-B3LYP def2-SVP def2/J RIJCOSX Grid4 TightSCF
|  4> %maxcore 5000
|  5> %tddft
|  6>     Mode sTDDFT
|  7>     Ethresh 5.0
|  8>     maxcore 5000
|  9> end
| 10>
| 11> %pal
| 12>   nprocs 6
| 13>   end
| 14> * xyz 0 1
| 15>    C       -1.79754        10.20071        -8.96093
| 16>    C       -0.47225        10.19379        -8.57812
| 17>    C        0.47382        11.14443        -8.99861
| 18>    N        1.27633        11.91923        -9.27530
| 19>    C        0.09332         9.15496        -7.81549
| 20>    N        0.59011         8.29552        -7.23673
| 21>    C       -2.35161        11.01616       -10.03987
| 22>    C       -3.57784        10.42406       -10.46015
| 23>    C       -4.30381        10.93800       -11.49333
| 24>    C       -3.83569        12.09652       -12.15666
| 25>    C       -2.61980        12.70206       -11.73001
| 26>    C       -1.88191        12.13983       -10.66117
| 27>    C       -2.16718        13.85859       -12.39537
| 28>    C       -2.87788        14.39161       -13.43653
| 29>    C       -4.07410        13.79357       -13.85754
| 30>    C       -4.54256        12.67033       -13.23087
| 31>    C       -3.86499         9.25395        -9.60549
| 32>    O       -4.80145         8.48539        -9.68793
| 33>    C       -2.79708         9.24322        -8.58152
| 34>    C       -2.94969         8.43826        -7.47547
| 35>    C       -2.39573         8.52638        -6.19844
| 36>    N       -1.66366         9.58527        -5.68325
| 37>    C       -1.34186         9.39720        -4.38716
| 38>    C       -1.85418         8.17377        -3.98605
| 39>    C       -2.51881         7.63379        -5.11991
| 40>    N       -3.01665         6.42267        -4.79104
| 41>    C       -2.68610         6.16333        -3.48430
| 42>    C       -1.97377         7.20392        -2.93180
| 43>    C       -1.44890         7.30291        -1.58586
| 44>    C       -1.06897         8.51766        -1.07658
| 45>    C       -0.53258         8.61564         0.22658
| 46>    C       -0.05945         9.69540         0.95250
| 47>    C       -0.00170        11.13728         0.56228
| 48>    C        0.93484        11.35707        -0.63957
| 49>    N        1.41134        12.72811        -0.64219
| 50>    C       -1.41487        11.68811         0.30485
| 51>    N       -1.39007        13.13480         0.13356
| 52>    C        0.42383         9.17246         2.20879
| 53>    C        1.04209         9.77323         3.24088
| 54>    C        1.51719         9.00188         4.42734
| 55>    C        1.16632         7.55040         4.40451
| 56>    C        0.55986         6.96138         3.35753
| 57>    C        0.18508         7.72241         2.22467
| 58>    C       -0.39146         7.39585         1.01570
| 59>    C       -0.80793         6.15922         0.46838
| 60>    C       -1.31780         6.11873        -0.78686
| 61>    C        1.08916         9.71827         5.68506
| 62>    C        0.15308         9.27186         6.52666
| 63>    C       -0.26310         9.91673         7.73577
| 64>    N        0.20322        11.13337         8.18032
| 65>    C       -0.33497        11.48739         9.37757
| 66>    C       -1.18894        10.47521         9.75053
| 67>    C       -1.14564         9.49598         8.72123
| 68>    N       -1.98694         8.47427         9.07932
| 69>    C       -2.54729         8.75952        10.27461
| 70>    C       -2.09791         9.98819        10.75972
| 71>    C       -2.36534        10.69891        11.94297
| 72>    C       -3.14505        10.42072        13.03742
| 73>    C       -3.25419        11.30508        14.18309
| 74>    C       -2.65655        12.53046        14.35800
| 75>    C       -2.81504        13.32952        15.50876
| 76>    N       -2.89214        14.03700        16.41078
| 77>    C       -1.80586        13.19423        13.45142
| 78>    N       -1.10481        13.82098        12.78873
| 79>    C       -4.13127        10.66705        15.16042
| 80>    C       -4.56731         9.42290        14.62667
| 81>    C       -3.97714         9.22913        13.28856
| 82>    O       -4.16559         8.26427        12.56945
| 83>    C       -5.40154         8.59225        15.31583
| 84>    C       -5.84700         8.97414        16.60167
| 85>    C       -5.41444        10.21706        17.14493
| 86>    C       -4.55098        11.05734        16.40414
| 87>    C       -5.86120        10.58882        18.42905
| 88>    C       -6.69528         9.77312        19.14413
| 89>    C       -7.12110         8.54918        18.60779
| 90>    C       -6.70606         8.15855        17.36345
| 91>    H       -5.22415        10.46734       -11.80599
| 92>    H       -0.96469        12.61990       -10.35668
| 93>    H       -1.24298        14.31350       -12.06965
| 94>    H       -2.52053        15.27652       -13.94190
| 95>    H       -4.62290        14.22630       -14.68083
| 96>    H       -5.46364        12.20520       -13.55114
| 97>    H       -3.70610         7.66832        -7.59304
| 98>    H       -1.43522        10.41121        -6.21241
| 99>    H       -0.77269        10.13378        -3.85486
|100>    H       -3.53014         5.80103        -5.39302
|101>    H       -3.00791         5.24762        -3.02840
|102>    H       -1.18421         9.40479        -1.67650
|103>    H        0.42852        11.70834         1.39117
|104>    H        0.40913        11.07224        -1.56540
|105>    H        1.80359        10.69792        -0.53729
|106>    H        0.60796        13.34924        -0.69321
|107>    H        1.99829        12.89599        -1.45250
|108>    H       -2.06457        11.36585         1.13704
|109>    H       -1.82081        11.25663        -0.61298
|110>    H       -1.07745        13.57824         0.99211
|111>    H       -2.32319        13.47894        -0.06811
|112>    H        1.24146        10.83658         3.24910
|113>    H        2.62051         9.06510         4.40374
|114>    H        1.47104         6.97985         5.26933
|115>    H        0.35380         5.90040         3.36643
|116>    H       -0.70333         5.25751         1.05453
|117>    H       -1.61558         5.17587        -1.21844
|118>    H        1.58985        10.66130         5.85792
|119>    H       -0.34022         8.33226         6.31805
|120>    H        0.86361        11.69531         7.67034
|121>    H       -0.07803        12.40773         9.86149
|122>    H       -2.16859         7.63980         8.54576
|123>    H       -3.24153         8.09029        10.74451
|124>    H       -1.82935        11.63872        11.97755
|125>    H       -5.71764         7.65302        14.88620
|126>    H       -4.24322        11.99107        16.84653
|127>    H       -5.53025        11.53262        18.83743
|128>    H       -7.03142        10.06678        20.12746
|129>    H       -7.77937         7.91719        19.18539
|130>    H       -7.03080         7.21666        16.94534
|131> *
|132>
|133>                          ****END OF INPUT****

CARTESIAN COORDINATES (ANGSTROEM)
---------------------------------
  C     -1.797540   10.200710   -8.960930
  C     -0.472250   10.193790   -8.578120
  C      0.473820   11.144430   -8.998610
  N      1.276330   11.919230   -9.275300
  C      0.093320    9.154960   -7.815490
  N      0.590110    8.295520   -7.236730
  C     -2.351610   11.016160  -10.039870
  C     -3.577840   10.424060  -10.460150
  C     -4.303810   10.938000  -11.493330
  C     -3.835690   12.096520  -12.156660
  C     -2.619800   12.702060  -11.730010
  C     -1.881910   12.139830  -10.661170
  C     -2.167180   13.858590  -12.395370
  C     -2.877880   14.391610  -13.436530
  C     -4.074100   13.793570  -13.857540
  C     -4.542560   12.670330  -13.230870
  C     -3.864990    9.253950   -9.605490
  O     -4.801450    8.485390   -9.687930
  C     -2.797080    9.243220   -8.581520
  C     -2.949690    8.438260   -7.475470
  C     -2.395730    8.526380   -6.198440
  N     -1.663660    9.585270   -5.683250
  C     -1.341860    9.397200   -4.387160
  C     -1.854180    8.173770   -3.986050
  C     -2.518810    7.633790   -5.119910
  N     -3.016650    6.422670   -4.791040
  C     -2.686100    6.163330   -3.484300
  C     -1.973770    7.203920   -2.931800
  C     -1.448900    7.302910   -1.585860
  C     -1.068970    8.517660   -1.076580
  C     -0.532580    8.615640    0.226580
  C     -0.059450    9.695400    0.952500
  C     -0.001700   11.137280    0.562280
  C      0.934840   11.357070   -0.639570
  N      1.411340   12.728110   -0.642190
  C     -1.414870   11.688110    0.304850
  N     -1.390070   13.134800    0.133560
  C      0.423830    9.172460    2.208790
  C      1.042090    9.773230    3.240880
  C      1.517190    9.001880    4.427340
  C      1.166320    7.550400    4.404510
  C      0.559860    6.961380    3.357530
  C      0.185080    7.722410    2.224670
  C     -0.391460    7.395850    1.015700
  C     -0.807930    6.159220    0.468380
  C     -1.317800    6.118730   -0.786860
  C      1.089160    9.718270    5.685060
  C      0.153080    9.271860    6.526660
  C     -0.263100    9.916730    7.735770
  N      0.203220   11.133370    8.180320
  C     -0.334970   11.487390    9.377570
  C     -1.188940   10.475210    9.750530
  C     -1.145640    9.495980    8.721230
  N     -1.986940    8.474270    9.079320
  C     -2.547290    8.759520   10.274610
  C     -2.097910    9.988190   10.759720
  C     -2.365340   10.698910   11.942970
  C     -3.145050   10.420720   13.037420
  C     -3.254190   11.305080   14.183090
  C     -2.656550   12.530460   14.358000
  C     -2.815040   13.329520   15.508760
  N     -2.892140   14.037000   16.410780
  C     -1.805860   13.194230   13.451420
  N     -1.104810   13.820980   12.788730
  C     -4.131270   10.667050   15.160420
  C     -4.567310    9.422900   14.626670
  C     -3.977140    9.229130   13.288560
  O     -4.165590    8.264270   12.569450
  C     -5.401540    8.592250   15.315830
  C     -5.847000    8.974140   16.601670
  C     -5.414440   10.217060   17.144930
  C     -4.550980   11.057340   16.404140
  C     -5.861200   10.588820   18.429050
  C     -6.695280    9.773120   19.144130
  C     -7.121100    8.549180   18.607790
  C     -6.706060    8.158550   17.363450
  H     -5.224150   10.467340  -11.805990
  H     -0.964690   12.619900  -10.356680
  H     -1.242980   14.313500  -12.069650
  H     -2.520530   15.276520  -13.941900
  H     -4.622900   14.226300  -14.680830
  H     -5.463640   12.205200  -13.551140
  H     -3.706100    7.668320   -7.593040
  H     -1.435220   10.411210   -6.212410
  H     -0.772690   10.133780   -3.854860
  H     -3.530140    5.801030   -5.393020
  H     -3.007910    5.247620   -3.028400
  H     -1.184210    9.404790   -1.676500
  H      0.428520   11.708340    1.391170
  H      0.409130   11.072240   -1.565400
  H      1.803590   10.697920   -0.537290
  H      0.607960   13.349240   -0.693210
  H      1.998290   12.895990   -1.452500
  H     -2.064570   11.365850    1.137040
  H     -1.820810   11.256630   -0.612980
  H     -1.077450   13.578240    0.992110
  H     -2.323190   13.478940   -0.068110
  H      1.241460   10.836580    3.249100
  H      2.620510    9.065100    4.403740
  H      1.471040    6.979850    5.269330
  H      0.353800    5.900400    3.366430
  H     -0.703330    5.257510    1.054530
  H     -1.615580    5.175870   -1.218440
  H      1.589850   10.661300    5.857920
  H     -0.340220    8.332260    6.318050
  H      0.863610   11.695310    7.670340
  H     -0.078030   12.407730    9.861490
  H     -2.168590    7.639800    8.545760
  H     -3.241530    8.090290   10.744510
  H     -1.829350   11.638720   11.977550
  H     -5.717640    7.653020   14.886200
  H     -4.243220   11.991070   16.846530
  H     -5.530250   11.532620   18.837430
  H     -7.031420   10.066780   20.127460
  H     -7.779370    7.917190   19.185390
  H     -7.030800    7.216660   16.945340

 Total Charge           Charge          ....    0
 Multiplicity           Mult            ....    1
 Number of Electrons    NEL             ....  510
 Basis Dimension        Dim             .... 1264

ORBITAL ENERGIES
----------------

  NO   OCC          E(Eh)            E(eV)
   0   2.0000     -19.205387      -522.6052
   1   2.0000     -19.197678      -522.3954
   2   2.0000     -14.481930      -394.0734
   3   2.0000     -14.478858      -393.9898
   4   2.0000     -14.474885      -393.8816
   5   2.0000     -14.467166      -393.6716
   6   2.0000     -14.405602      -391.9964
   7   2.0000     -14.402618      -391.9151
   8   2.0000     -14.400628      -391.8610
   9   2.0000     -14.399927      -391.8419
  10   2.0000     -14.389528      -391.5590
  11   2.0000     -14.355856      -390.6427
  12   2.0000     -10.355458      -281.7864
  13   2.0000     -10.349959      -281.6367
  14   2.0000     -10.330974      -281.1201
  15   2.0000     -10.329762      -281.0871
  16   2.0000     -10.327131      -281.0155
  17   2.0000     -10.325815      -280.9797
  18   2.0000     -10.324242      -280.9369
  19   2.0000     -10.323145      -280.9071
  20   2.0000     -10.317651      -280.7576
  21   2.0000     -10.314972      -280.6847
  22   2.0000     -10.312715      -280.6233
  23   2.0000     -10.310124      -280.5527
  24   2.0000     -10.309922      -280.5472
  25   2.0000     -10.307064      -280.4695
  26   2.0000     -10.305672      -280.4316
  27   2.0000     -10.305204      -280.4189
  28   2.0000     -10.304405      -280.3971
  29   2.0000     -10.303878      -280.3828
  30   2.0000     -10.299378      -280.2603
  31   2.0000     -10.298432      -280.2346
  32   2.0000     -10.298272      -280.2302
  33   2.0000     -10.294676      -280.1324
  34   2.0000     -10.291798      -280.0541
  35   2.0000     -10.290455      -280.0175
  36   2.0000     -10.287905      -279.9481
  37   2.0000     -10.287795      -279.9451
  38   2.0000     -10.287503      -279.9372
  39   2.0000     -10.287310      -279.9319
  40   2.0000     -10.286079      -279.8984
  41   2.0000     -10.285751      -279.8895
  42   2.0000     -10.285749      -279.8895
  43   2.0000     -10.285644      -279.8866
  44   2.0000     -10.285312      -279.8776
  45   2.0000     -10.284687      -279.8606
  46   2.0000     -10.281547      -279.7751
  47   2.0000     -10.279081      -279.7080
  48   2.0000     -10.278567      -279.6940
  49   2.0000     -10.278112      -279.6816
  50   2.0000     -10.278090      -279.6810
  51   2.0000     -10.277920      -279.6764
  52   2.0000     -10.277653      -279.6691
  53   2.0000     -10.277433      -279.6632
  54   2.0000     -10.277415      -279.6627
  55   2.0000     -10.277402      -279.6623
  56   2.0000     -10.276939      -279.6497
  57   2.0000     -10.276875      -279.6480
  58   2.0000     -10.276752      -279.6446
  59   2.0000     -10.276740      -279.6443
  60   2.0000     -10.276739      -279.6443
  61   2.0000     -10.276545      -279.6390
  62   2.0000     -10.272143      -279.5192
  63   2.0000     -10.272094      -279.5179
  64   2.0000     -10.270397      -279.4717
  65   2.0000     -10.268885      -279.4306
  66   2.0000     -10.268636      -279.4238
  67   2.0000     -10.267668      -279.3974
  68   2.0000     -10.265359      -279.3346
  69   2.0000     -10.261949      -279.2418
  70   2.0000     -10.260968      -279.2151
  71   2.0000     -10.259757      -279.1822
  72   2.0000     -10.259329      -279.1705
  73   2.0000     -10.259116      -279.1647
  74   2.0000     -10.258703      -279.1535
  75   2.0000     -10.254189      -279.0307
  76   2.0000      -1.118337       -30.4315
  77   2.0000      -1.111970       -30.2582
  78   2.0000      -1.105502       -30.0822
  79   2.0000      -1.099055       -29.9068
  80   2.0000      -1.074253       -29.2319
  81   2.0000      -1.067954       -29.0605
  82   2.0000      -1.005712       -27.3668
  83   2.0000      -1.004958       -27.3463
  84   2.0000      -0.987518       -26.8717
  85   2.0000      -0.986360       -26.8402
  86   2.0000      -0.980787       -26.6886
  87   2.0000      -0.980642       -26.6846
  88   2.0000      -0.980434       -26.6790
  89   2.0000      -0.969767       -26.3887
  90   2.0000      -0.960656       -26.1408
  91   2.0000      -0.960427       -26.1346
  92   2.0000      -0.943289       -25.6682
  93   2.0000      -0.936550       -25.4848
  94   2.0000      -0.920231       -25.0407
  95   2.0000      -0.917584       -24.9687
  96   2.0000      -0.914006       -24.8714
  97   2.0000      -0.904965       -24.6254
  98   2.0000      -0.897655       -24.4264
  99   2.0000      -0.889247       -24.1976
 100   2.0000      -0.882215       -24.0063
 101   2.0000      -0.878493       -23.9050
 102   2.0000      -0.873974       -23.7820
 103   2.0000      -0.870681       -23.6924
 104   2.0000      -0.869581       -23.6625
 105   2.0000      -0.866305       -23.5734
 106   2.0000      -0.861933       -23.4544
 107   2.0000      -0.849959       -23.1286
 108   2.0000      -0.835667       -22.7397
 109   2.0000      -0.833398       -22.6779
 110   2.0000      -0.824758       -22.4428
 111   2.0000      -0.820496       -22.3268
 112   2.0000      -0.818205       -22.2645
 113   2.0000      -0.818114       -22.2620
 114   2.0000      -0.809638       -22.0314
 115   2.0000      -0.783332       -21.3155
 116   2.0000      -0.777194       -21.1485
 117   2.0000      -0.776800       -21.1378
 118   2.0000      -0.753693       -20.5090
 119   2.0000      -0.750424       -20.4201
 120   2.0000      -0.747740       -20.3470
 121   2.0000      -0.741828       -20.1862
 122   2.0000      -0.738702       -20.1011
 123   2.0000      -0.732904       -19.9433
 124   2.0000      -0.720175       -19.5970
 125   2.0000      -0.719398       -19.5758
 126   2.0000      -0.709459       -19.3054
 127   2.0000      -0.696172       -18.9438
 128   2.0000      -0.694157       -18.8890
 129   2.0000      -0.692433       -18.8421
 130   2.0000      -0.689411       -18.7598
 131   2.0000      -0.688112       -18.7245
 132   2.0000      -0.685006       -18.6400
 133   2.0000      -0.672003       -18.2861
 134   2.0000      -0.669487       -18.2177
 135   2.0000      -0.664964       -18.0946
 136   2.0000      -0.663078       -18.0433
 137   2.0000      -0.661143       -17.9906
 138   2.0000      -0.655147       -17.8275
 139   2.0000      -0.650296       -17.6955
 140   2.0000      -0.639314       -17.3966
 141   2.0000      -0.635942       -17.3049
 142   2.0000      -0.626463       -17.0469
 143   2.0000      -0.622168       -16.9300
 144   2.0000      -0.619024       -16.8445
 145   2.0000      -0.607533       -16.5318
 146   2.0000      -0.605032       -16.4638
 147   2.0000      -0.602989       -16.4082
 148   2.0000      -0.597142       -16.2491
 149   2.0000      -0.596665       -16.2361
 150   2.0000      -0.596474       -16.2309
 151   2.0000      -0.591682       -16.1005
 152   2.0000      -0.590872       -16.0785
 153   2.0000      -0.575256       -15.6535
 154   2.0000      -0.574009       -15.6196
 155   2.0000      -0.573196       -15.5974
 156   2.0000      -0.568698       -15.4751
 157   2.0000      -0.559699       -15.2302
 158   2.0000      -0.559264       -15.2183
 159   2.0000      -0.553311       -15.0564
 160   2.0000      -0.549768       -14.9600
 161   2.0000      -0.549054       -14.9405
 162   2.0000      -0.547052       -14.8860
 163   2.0000      -0.541975       -14.7479
 164   2.0000      -0.541912       -14.7462
 165   2.0000      -0.540080       -14.6963
 166   2.0000      -0.537212       -14.6183
 167   2.0000      -0.536930       -14.6106
 168   2.0000      -0.536146       -14.5893
 169   2.0000      -0.533614       -14.5204
 170   2.0000      -0.528823       -14.3900
 171   2.0000      -0.524015       -14.2592
 172   2.0000      -0.522319       -14.2130
 173   2.0000      -0.521740       -14.1973
 174   2.0000      -0.520261       -14.1570
 175   2.0000      -0.519357       -14.1324
 176   2.0000      -0.514415       -13.9980
 177   2.0000      -0.511804       -13.9269
 178   2.0000      -0.510934       -13.9032
 179   2.0000      -0.508268       -13.8307
 180   2.0000      -0.507086       -13.7985
 181   2.0000      -0.506282       -13.7766
 182   2.0000      -0.504990       -13.7415
 183   2.0000      -0.500979       -13.6323
 184   2.0000      -0.499743       -13.5987
 185   2.0000      -0.497190       -13.5292
 186   2.0000      -0.494772       -13.4634
 187   2.0000      -0.494259       -13.4495
 188   2.0000      -0.493705       -13.4344
 189   2.0000      -0.488052       -13.2806
 190   2.0000      -0.486748       -13.2451
 191   2.0000      -0.485312       -13.2060
 192   2.0000      -0.482653       -13.1337
 193   2.0000      -0.481930       -13.1140
 194   2.0000      -0.480186       -13.0665
 195   2.0000      -0.475354       -12.9350
 196   2.0000      -0.474872       -12.9219
 197   2.0000      -0.469134       -12.7658
 198   2.0000      -0.468360       -12.7447
 199   2.0000      -0.465782       -12.6746
 200   2.0000      -0.463288       -12.6067
 201   2.0000      -0.458859       -12.4862
 202   2.0000      -0.455204       -12.3867
 203   2.0000      -0.453701       -12.3458
 204   2.0000      -0.453656       -12.3446
 205   2.0000      -0.441312       -12.0087
 206   2.0000      -0.439335       -11.9549
 207   2.0000      -0.437899       -11.9158
 208   2.0000      -0.437567       -11.9068
 209   2.0000      -0.433327       -11.7914
 210   2.0000      -0.433069       -11.7844
 211   2.0000      -0.432520       -11.7695
 212   2.0000      -0.431926       -11.7533
 213   2.0000      -0.429707       -11.6929
 214   2.0000      -0.428276       -11.6540
 215   2.0000      -0.423805       -11.5323
 216   2.0000      -0.423172       -11.5151
 217   2.0000      -0.422508       -11.4970
 218   2.0000      -0.419325       -11.4104
 219   2.0000      -0.418657       -11.3922
 220   2.0000      -0.415660       -11.3107
 221   2.0000      -0.414911       -11.2903
 222   2.0000      -0.409343       -11.1388
 223   2.0000      -0.409178       -11.1343
 224   2.0000      -0.407667       -11.0932
 225   2.0000      -0.407126       -11.0785
 226   2.0000      -0.404544       -11.0082
 227   2.0000      -0.401259       -10.9188
 228   2.0000      -0.392736       -10.6869
 229   2.0000      -0.392556       -10.6820
 230   2.0000      -0.391186       -10.6447
 231   2.0000      -0.385912       -10.5012
 232   2.0000      -0.381359       -10.3773
 233   2.0000      -0.371537       -10.1100
 234   2.0000      -0.370531       -10.0827
 235   2.0000      -0.364027        -9.9057
 236   2.0000      -0.361281        -9.8310
 237   2.0000      -0.355987        -9.6869
 238   2.0000      -0.343432        -9.3453
 239   2.0000      -0.328105        -8.9282
 240   2.0000      -0.324578        -8.8322
 241   2.0000      -0.322162        -8.7665
 242   2.0000      -0.313911        -8.5419
 243   2.0000      -0.311649        -8.4804
 244   2.0000      -0.310648        -8.4532
 245   2.0000      -0.306824        -8.3491
 246   2.0000      -0.305407        -8.3106
 247   2.0000      -0.293914        -7.9978
 248   2.0000      -0.289357        -7.8738
 249   2.0000      -0.285048        -7.7565
 250   2.0000      -0.282964        -7.6998
 251   2.0000      -0.281167        -7.6509
 252   2.0000      -0.248845        -6.7714
 253   2.0000      -0.240611        -6.5474
 254   2.0000      -0.218371        -5.9422
 255   0.0000      -0.078985        -2.1493
 256   0.0000      -0.074061        -2.0153
 257   0.0000      -0.061132        -1.6635
 258   0.0000      -0.044890        -1.2215
 259   0.0000      -0.042897        -1.1673

MULLIKEN ATOMIC CHARGES
-----------------------
   0 C :    0.268691
   1 C :   -0.398736
   2 C :   -0.162076
   3 N :    0.134313
   4 C :   -0.223621
   5 N :    0.158649
   6 C :    0.033559
   7 C :    0.016055
   8 C :   -0.084978
   9 C :    0.092335
  10 C :    0.092298
  11 C :   -0.084869
  12 C :   -0.018264
  13 C :    0.034498
  14 C :    0.032310
  15 C :   -0.015167
  16 C :    0.137994
  17 O :   -0.163207
  18 C :   -0.171584
  19 C :    0.015772
  20 C :    0.002021
  21 N :   -0.036136
  22 C :    0.006561
  23 C :    0.038606
  24 C :    0.068253
  25 N :   -0.014298
  26 C :   -0.000172
  27 C :    0.046417
  28 C :    0.151779
  29 C :   -0.113851
  30 C :    0.056020
  31 C :   -0.031922
  32 C :   -0.055973
  33 C :    0.164513
  34 N :   -0.226532
  35 C :    0.138528
  36 N :   -0.218084
  37 C :    0.094750
  38 C :   -0.123309
  39 C :    0.181796
  40 C :   -0.065203
  41 C :    0.015124
  42 C :    0.014020
  43 C :    0.027138
  44 C :   -0.000724
  45 C :   -0.035372
  46 C :   -0.160563
  47 C :    0.081808
  48 C :   -0.049695
  49 N :   -0.040701
  50 C :   -0.049252
  51 C :    0.061787
  52 C :    0.058160
  53 N :   -0.011349
  54 C :    0.046109
  55 C :    0.010239
  56 C :   -0.022877
  57 C :   -0.087128
  58 C :    0.338746
  59 C :   -0.380321
  60 C :   -0.188112
  61 N :    0.137303
  62 C :   -0.180159
  63 N :    0.132008
  64 C :    0.039698
  65 C :    0.002738
  66 C :    0.157058
  67 O :   -0.179367
  68 C :   -0.088918
  69 C :    0.100983
  70 C :    0.092128
  71 C :   -0.083204
  72 C :   -0.017080
  73 C :    0.035699
  74 C :    0.031584
  75 C :   -0.017605
  76 H :   -0.017998
  77 H :   -0.011848
  78 H :   -0.013990
  79 H :   -0.008694
  80 H :   -0.008682
  81 H :   -0.021526
  82 H :    0.000907
  83 H :    0.143182
  84 H :    0.012195
  85 H :    0.133160
  86 H :   -0.003053
  87 H :   -0.078970
  88 H :   -0.037811
  89 H :   -0.036993
  90 H :   -0.000198
  91 H :    0.078144
  92 H :    0.081569
  93 H :   -0.003329
  94 H :   -0.012399
  95 H :    0.100548
  96 H :    0.096271
  97 H :   -0.011051
  98 H :    0.044632
  99 H :   -0.012696
 100 H :   -0.040287
 101 H :   -0.041171
 102 H :   -0.040466
 103 H :   -0.027815
 104 H :   -0.022339
 105 H :    0.126300
 106 H :    0.012458
 107 H :    0.133436
 108 H :    0.032983
 109 H :   -0.009154
 110 H :   -0.021179
 111 H :   -0.011050
 112 H :   -0.011506
 113 H :   -0.008818
 114 H :   -0.007916
 115 H :   -0.022487
Sum of atomic charges:   -0.0000000

LOEWDIN ATOMIC CHARGES
----------------------
   0 C :    0.064113
   1 C :   -0.179883
   2 C :   -0.023827
   3 N :   -0.069687
   4 C :   -0.034959
   5 N :   -0.061822
   6 C :   -0.022916
   7 C :   -0.053524
   8 C :    0.026638
   9 C :   -0.010851
  10 C :   -0.008105
  11 C :    0.010770
  12 C :   -0.008012
  13 C :   -0.017149
  14 C :   -0.017038
  15 C :   -0.011015
  16 C :    0.079070
  17 O :   -0.166140
  18 C :   -0.135868
  19 C :    0.059270
  20 C :   -0.058290
  21 N :    0.118367
  22 C :    0.055633
  23 C :   -0.077472
  24 C :    0.022419
  25 N :    0.082220
  26 C :    0.012278
  27 C :   -0.055815
  28 C :   -0.015093
  29 C :   -0.031532
  30 C :   -0.017259
  31 C :   -0.038227
  32 C :   -0.039841
  33 C :    0.031887
  34 N :   -0.132641
  35 C :    0.026774
  36 N :   -0.105638
  37 C :   -0.018734
  38 C :    0.063339
  39 C :   -0.030004
  40 C :   -0.038752
  41 C :   -0.017773
  42 C :   -0.038221
  43 C :   -0.028923
  44 C :   -0.007994
  45 C :   -0.027909
  46 C :   -0.043136
  47 C :   -0.029436
  48 C :   -0.056807
  49 N :    0.104095
  50 C :   -0.009495
  51 C :   -0.073065
  52 C :   -0.026938
  53 N :    0.094557
  54 C :    0.084262
  55 C :   -0.097179
  56 C :    0.084703
  57 C :   -0.119671
  58 C :    0.081456
  59 C :   -0.157975
  60 C :   -0.017119
  61 N :   -0.068139
  62 C :   -0.018828
  63 N :   -0.072202
  64 C :   -0.025736
  65 C :   -0.052436
  66 C :    0.086806
  67 O :   -0.165719
  68 C :    0.025221
  69 C :   -0.009731
  70 C :   -0.008475
  71 C :    0.017562
  72 C :   -0.005912
  73 C :   -0.017364
  74 C :   -0.016132
  75 C :   -0.011947
  76 H :    0.037092
  77 H :    0.037013
  78 H :    0.032930
  79 H :    0.031426
  80 H :    0.031094
  81 H :    0.030267
  82 H :    0.045209
  83 H :    0.093500
  84 H :    0.029208
  85 H :    0.095693
  86 H :    0.022253
  87 H :    0.015213
  88 H :    0.020003
  89 H :   -0.007318
  90 H :    0.018410
  91 H :    0.033974
  92 H :    0.049558
  93 H :    0.004485
  94 H :    0.014187
  95 H :    0.055751
  96 H :    0.057237
  97 H :    0.027973
  98 H :    0.064598
  99 H :    0.023209
 100 H :    0.028125
 101 H :    0.025818
 102 H :    0.022069
 103 H :    0.012979
 104 H :    0.031357
 105 H :    0.089209
 106 H :    0.027696
 107 H :    0.096828
 108 H :    0.027924
 109 H :    0.047279
 110 H :    0.035700
 111 H :    0.038276
 112 H :    0.033916
 113 H :    0.031579
 114 H :    0.031224
 115 H :    0.029969

  Mayer bond orders larger than 0.100000
B(  0-C ,  1-C ) :   1.5628 B(  0-C ,  6-C ) :   0.9985 B(  0-C , 18-C ) :   1.1043
B(  1-C ,  2-C ) :   1.1355 B(  1-C ,  4-C ) :   1.1720 B(  2-C ,  3-N ) :   2.9762
B(  4-C ,  5-N ) :   2.9980 B(  6-C ,  7-C ) :   1.2183 B(  6-C , 11-C ) :   1.4679
B(  7-C ,  8-C ) :   1.4896 B(  7-C , 16-C ) :   0.9173 B(  8-C ,  9-C ) :   1.1723
B(  8-C , 76-H ) :   1.0153 B(  9-C , 10-C ) :   1.2653 B(  9-C , 15-C ) :   1.2504
B( 10-C , 11-C ) :   1.1949 B( 10-C , 12-C ) :   1.2444 B( 11-C , 77-H ) :   0.9926
B( 12-C , 13-C ) :   1.4862 B( 12-C , 78-H ) :   0.9968 B( 13-C , 14-C ) :   1.2646
B( 13-C , 79-H ) :   0.9886 B( 14-C , 15-C ) :   1.4851 B( 14-C , 80-H ) :   0.9889
B( 15-C , 81-H ) :   0.9967 B( 16-C , 17-O ) :   2.2480 B( 16-C , 18-C ) :   0.9688
B( 18-C , 19-C ) :   1.4574 B( 19-C , 20-C ) :   1.2640 B( 19-C , 82-H ) :   0.9448
B( 20-C , 21-N ) :   1.1474 B( 20-C , 24-C ) :   1.1903 B( 21-N , 22-C ) :   1.3219
B( 21-N , 83-H ) :   0.9222 B( 22-C , 23-C ) :   1.3177 B( 22-C , 84-H ) :   0.9846
B( 23-C , 24-C ) :   1.3221 B( 23-C , 27-C ) :   1.1189 B( 24-C , 25-N ) :   1.2441
B( 25-N , 26-C ) :   1.1547 B( 25-N , 85-H ) :   0.9345 B( 26-C , 27-C ) :   1.5549
B( 26-C , 86-H ) :   0.9786 B( 27-C , 28-C ) :   1.0196 B( 28-C , 29-C ) :   1.5597
B( 28-C , 45-C ) :   1.1193 B( 29-C , 30-C ) :   1.1136 B( 29-C , 87-H ) :   0.9853
B( 30-C , 31-C ) :   1.4795 B( 30-C , 43-C ) :   1.1212 B( 31-C , 32-C ) :   1.0237
B( 31-C , 37-C ) :   1.1141 B( 32-C , 33-C ) :   1.0292 B( 32-C , 35-C ) :   1.0466
B( 32-C , 88-H ) :   0.8764 B( 33-C , 34-N ) :   1.1051 B( 33-C , 89-H ) :   0.9257
B( 33-C , 90-H ) :   0.9442 B( 34-N , 91-H ) :   0.9429 B( 34-N , 92-H ) :   0.9670
B( 35-C , 36-N ) :   1.0754 B( 35-C , 93-H ) :   0.9468 B( 35-C , 94-H ) :   0.9336
B( 36-N , 91-H ) :   0.1019 B( 36-N , 95-H ) :   0.9625 B( 36-N , 96-H ) :   0.9673
B( 37-C , 38-C ) :   1.6904 B( 37-C , 42-C ) :   1.0433 B( 38-C , 39-C ) :   0.9629
B( 38-C , 97-H ) :   0.9643 B( 39-C , 40-C ) :   1.0106 B( 39-C , 46-C ) :   0.9489
B( 39-C , 98-H ) :   0.8417 B( 40-C , 41-C ) :   1.7081 B( 40-C , 99-H ) :   0.9671
B( 41-C , 42-C ) :   1.1247 B( 41-C ,100-H ) :   0.9910 B( 42-C , 43-C ) :   1.4417
B( 43-C , 44-C ) :   1.1406 B( 44-C , 45-C ) :   1.6095 B( 44-C ,101-H ) :   0.9904
B( 45-C ,102-H ) :   0.9857 B( 46-C , 47-C ) :   1.7985 B( 46-C ,103-H ) :   0.9798
B( 47-C , 48-C ) :   1.1084 B( 47-C ,104-H ) :   0.9460 B( 48-C , 49-N ) :   1.2347
B( 48-C , 50-C ) :   0.1198 B( 48-C , 52-C ) :   1.2867 B( 49-N , 50-C ) :   1.2399
B( 49-N ,105-H ) :   0.9319 B( 50-C , 51-C ) :   1.4138 B( 50-C ,106-H ) :   0.9856
B( 51-C , 52-C ) :   1.3120 B( 51-C , 55-C ) :   1.0697 B( 52-C , 53-N ) :   1.1297
B( 53-N , 54-C ) :   1.2784 B( 53-N ,107-H ) :   0.9359 B( 54-C , 55-C ) :   1.3885
B( 54-C ,108-H ) :   0.9545 B( 55-C , 56-C ) :   1.2625 B( 56-C , 57-C ) :   1.4788
B( 56-C ,109-H ) :   0.9350 B( 57-C , 58-C ) :   1.0999 B( 57-C , 66-C ) :   0.9549
B( 58-C , 59-C ) :   1.5889 B( 58-C , 64-C ) :   0.9731 B( 59-C , 60-C ) :   1.1565
B( 59-C , 62-C ) :   1.1463 B( 60-C , 61-N ) :   2.9573 B( 62-C , 63-N ) :   2.9620
B( 64-C , 65-C ) :   1.2187 B( 64-C , 71-C ) :   1.4554 B( 65-C , 66-C ) :   0.9545
B( 65-C , 68-C ) :   1.4734 B( 66-C , 67-O ) :   2.1474 B( 68-C , 69-C ) :   1.1709
B( 68-C ,110-H ) :   1.0162 B( 69-C , 70-C ) :   1.2641 B( 69-C , 75-C ) :   1.2446
B( 70-C , 71-C ) :   1.1988 B( 70-C , 72-C ) :   1.2422 B( 71-C ,111-H ) :   0.9890
B( 72-C , 73-C ) :   1.4865 B( 72-C ,112-H ) :   0.9970 B( 73-C , 74-C ) :   1.2623
B( 73-C ,113-H ) :   0.9884 B( 74-C , 75-C ) :   1.4868 B( 74-C ,114-H ) :   0.9885
B( 75-C ,115-H ) :   0.9975

-----------------------------------------------------------------------------
         ABSORPTION SPECTRUM VIA TRANSITION ELECTRIC DIPOLE MOMENTS
-----------------------------------------------------------------------------
State   Energy  Wavelength   fosc         T2         TX        TY        TZ
        (cm-1)    (nm)                  (au**2)     (au)      (au)      (au)
-----------------------------------------------------------------------------
   0   15351.3    651.4   0.028231632   0.60543   0.09365  -0.75604  -0.15832
   1   17340.1    576.7   0.477884463   9.07290   0.01413   0.88595  -2.87885
   2   19659.4    508.7   0.784900762  13.14376  -1.02872   0.97768   3.33611
   3   20659.6    484.0   0.289084479   4.60658  -0.17905  -0.79719   1.98469
   4   22813.3    438.3   0.026605334   0.38393   0.15447  -0.31349  -0.51166
   5   23923.1    418.0   0.025105004   0.34548  -0.03283  -0.01768   0.58659
   6   25566.3    391.1   0.358161609   4.61198   0.96168   0.32362   1.89273
   7   25870.2    386.5   0.095532038   1.21569   0.87547   0.51263  -0.43181
   8   26318.1    380.0   0.021495627   0.26889   0.14819   0.44577  -0.21958
   9   28126.7    355.5   0.136216198   1.59435   0.79402  -0.45831   0.86824
  10   28452.6    351.5   0.134529881   1.55658   0.75493   0.77183  -0.62525
  11   28918.5    345.8   0.098743920   1.12411   0.35335   0.68336  -0.72958
  12   29023.4    344.5   0.036131635   0.40984  -0.19750  -0.48267   0.37130
  13   29368.5    340.5   0.005733424   0.06427  -0.08524   0.19275  -0.14090
  14   29687.0    336.8   0.005146759   0.05707   0.00388   0.14851  -0.18709
  15   29960.3    333.8   0.002055845   0.02259   0.14558  -0.01037   0.03589
  16   30202.5    331.1   0.103387500   1.12694   0.00342   0.57624   0.89156
  17   30534.6    327.5   0.212583568   2.29199  -0.50535   0.72650  -1.22833
  18   30580.9    327.0   0.000632984   0.00681   0.01272   0.07697   0.02700
  19   31216.2    320.3   0.050891482   0.53671   0.29064  -0.43878   0.50962
  20   31326.1    319.2   0.149083377   1.56674   0.42609  -0.25914  -1.14806
  21   31681.8    315.6   0.036408012   0.37832  -0.30641   0.21801  -0.48674
  22   31793.6    314.5   0.004354461   0.04509  -0.02905   0.01287  -0.20995
  23   32196.5    310.6   0.206857426   2.11513   0.72880  -0.12709   1.25213
  24   32662.9    306.2   0.024632825   0.24828   0.36581  -0.33259   0.06200
  25   32914.2    303.8   0.001482937   0.01483   0.11927   0.01648   0.01832
  26   33030.5    302.8   0.105872528   1.05522   0.08113  -0.59831  -0.83106
  27   33253.2    300.7   0.035027463   0.34678   0.29019   0.14084  -0.49267
  28   33691.4    296.8   0.000237138   0.00232  -0.00417  -0.02143   0.04290
  29   34442.8    290.3   0.705813611   6.74633  -0.61299   0.39364  -2.49312
  30   34819.3    287.2   0.638724676   6.03905  -2.09086  -0.28016   1.26050
  31   35000.9    285.7   0.619008855   5.82227   0.20025  -1.75909   1.63945
  32   35454.3    282.1   0.006330333   0.05878  -0.20825  -0.11002  -0.05749
  33   35621.5    280.7   0.372964804   3.44692  -1.13197  -1.45435   0.22455
  34   36264.3    275.8   0.009952925   0.09035  -0.01987   0.11387   0.27748
  35   36443.1    274.4   0.307637709   2.77907  -0.81419  -0.46909  -1.37700
  36   36977.2    270.4   0.027362109   0.24361  -0.38815   0.21365  -0.21749
  37   37177.3    269.0   0.084575797   0.74893  -0.14723   0.49525   0.69425
  38   37313.2    268.0   0.015237915   0.13444  -0.06996  -0.10772  -0.34343
  39   37419.1    267.2   0.053664866   0.47214   0.06036   0.20479   0.65312
  40   38394.2    260.5   0.316068544   2.71013  -0.50570  -0.45759  -1.49834
  41   38426.9    260.2   0.204482487   1.75185   0.40820   0.37027   1.20338
  42   38589.9    259.1   0.025808792   0.22018  -0.18349  -0.09777  -0.42065
  43   38763.8    258.0   0.026203193   0.22254  -0.13607   0.40813   0.19353
  44   38961.4    256.7   0.036127079   0.30526  -0.02536   0.20747   0.51145
  45   39079.1    255.9   0.003247600   0.02736  -0.06308  -0.05983  -0.14071
  46   39128.9    255.6   0.006965911   0.05861   0.00185  -0.11323  -0.21397
  47   39147.3    255.4   0.003466589   0.02915  -0.00659   0.04159   0.16547
  48   39806.1    251.2   0.097121280   0.80323   0.59961   0.66434  -0.04862
  49   39950.1    250.3   0.298619258   2.46079  -0.17598   0.86169   1.29897
  50   40145.9    249.1   0.100597094   0.82493   0.28852  -0.09979  -0.85542
  51   40320.5    248.0   0.005874947   0.04797   0.08648   0.15369  -0.12988

FINAL SINGLE POINT ENERGY     -3156.716381707239

DIPOLE MOMENT
-------------
                                X             Y             Z
Electronic contribution:     -9.31296      -8.42811       8.83638
Nuclear contribution   :      7.11282       6.71767      -9.06361
                        -----------------------------------------
Total Dipole Moment    :     -2.20014      -1.71044      -0.22723
                        -----------------------------------------
Magnitude (a.u.)       :      2.79605
Magnitude (Debye)      :      7.10699

Rotational constants in cm-1:     0.002034     0.000165     0.000165
Rotational constants in MHz :    60.985211     4.958289     4.946952

                             ****ORCA TERMINATED NORMALLY****
TOTAL RUN TIME: 0 days 0 hours 11 minutes 31 seconds 640 msec
