                         Program Version 4.2.0 -  RELEASE  -
|  1> # ORCA input file
|  2> # SCF done       -178.952380659105          0.000386003304
|  3> ! CAM-B3LYP def2-SVP def2/J RIJCOSX Grid4 TightSCF
|  4> %maxcore 5000
|  5> %tddft
|  6>     Mode sTDDFT
|  7>     Ethresh 5.0
|  8>     maxcore 5000
|  9> end
| 10>
| 11> %pal
| 12>   nprocs 6
| 13>   end
| 14> * xyz 0 1
| 15>    C       -1.67623        -0.82661         0.56885
| 16>    C       -1.73730        -1.67755        -0.50704
| 17>    C       -0.85617        -2.76200        -0.68954
| 18>    N       -0.14535        -3.64391        -0.87735
| 19>    C       -2.68754        -1.58377        -1.54302
| 20>    N       -3.42595        -1.54448        -2.42212
| 21>    C       -0.71259        -0.90602         1.66120
| 22>    C       -1.08770         0.02308         2.66275
| 23>    C       -0.32297         0.25532         3.77931
| 24>    C        0.88539        -0.44190         3.90038
| 25>    C        1.23989        -1.38002         2.90272
| 26>    C        0.45193        -1.63732         1.78723
| 27>    S        2.78836        -2.09830         3.22046
| 28>    C        2.93018        -1.15176         4.67893
| 29>    C        1.88058        -0.33028         4.91005
| 30>   Br        4.44405        -1.36124         5.74954
| 31>    C       -2.31891         0.71633         2.23482
| 32>    O       -2.95058         1.53305         2.88102
| 33>    C       -2.56401         0.27534         0.85786
| 34>    C       -3.33647         0.94392        -0.06907
| 35>    C       -4.21743         2.00567         0.11592
| 36>    C       -4.81583         2.74611        -0.94374
| 37>    C       -5.75056         3.71165        -0.48846
| 38>    N       -6.42830         4.53039        -1.29388
| 39>    C       -6.19868         4.42539        -2.58161
| 40>    C       -5.30545         3.50405        -3.14511
| 41>    C       -4.60539         2.64876        -2.32512
| 42>    C       -5.93550         3.66702         0.92539
| 43>    S       -4.82682         2.54698         1.65241
| 44>    C       -6.95164         4.32969         1.60037
| 45>    C       -7.37020         4.03982         2.88892
| 46>    C       -8.59305         4.40749         3.49263
| 47>    C       -8.89599         3.69183         4.62134
| 48>    C       -7.90332         2.75971         4.97075
| 49>    S       -6.53420         2.88679         3.89307
| 50>    C       -7.92779         1.67568         5.84476
| 51>    C       -9.00582         1.07152         6.51239
| 52>    C       -8.72773        -0.19703         6.95176
| 53>    C       -7.41609        -0.63123         6.66729
| 54>    S       -6.50390         0.66613         5.93939
| 55>    C       -6.93132        -1.92830         6.72716
| 56>    C       -5.65645        -2.33720         6.35909
| 57>    C       -5.25398        -3.65578         6.01095
| 58>    C       -3.89820        -3.73053         5.58756
| 59>    N       -3.31048        -4.87097         5.21357
| 60>    C       -4.04517        -5.95577         5.20467
| 61>    C       -5.39738        -5.99066         5.56982
| 62>    C       -6.01074        -4.83154         5.98765
| 63>    C       -3.21405        -2.48991         5.68780
| 64>    S       -4.30868        -1.24822         6.21110
| 65>    C       -1.84337        -2.25816         5.61487
| 66>    C       -0.89731        -3.06078         5.01086
| 67>    C       -1.00560        -3.95819         3.90043
| 68>    C       -1.96608        -3.90217         2.91554
| 69>    C       -2.05535        -4.79834         1.83608
| 70>    N       -2.20647        -5.52099         0.95602
| 71>    C       -2.95078        -2.90353         2.86281
| 72>    N       -3.73566        -2.07188         2.73588
| 73>    C        0.20470        -4.77176         3.86865
| 74>    C        1.08443        -4.30893         4.87953
| 75>    C        0.45994        -3.16441         5.57508
| 76>    O        0.95299        -2.47490         6.44578
| 77>    C        2.32177        -4.86338         5.09428
| 78>    C        2.71302        -5.92076         4.26501
| 79>    C        1.83271        -6.36775         3.25194
| 80>    C        0.57821        -5.80691         3.03614
| 81>    S        2.52018        -7.67785         2.34243
| 82>    C        3.96132        -7.60653         3.32143
| 83>    C        3.93232        -6.65144         4.28064
| 84>   Br        5.36639        -8.80283         2.98815
| 85>    H       -0.62851         0.97574         4.52182
| 86>    H        0.77471        -2.35181         1.04813
| 87>    H        1.80140         0.31205         5.76743
| 88>    H       -3.22187         0.63463        -1.10100
| 89>    H       -6.75620         5.10556        -3.21151
| 90>    H       -5.17583         3.46995        -4.21515
| 91>    H       -3.91887         1.92398        -2.73659
| 92>    H       -7.54074         5.02109         1.01229
| 93>    H       -9.24394         5.13820         3.04614
| 94>    H       -9.81093         3.79407         5.17694
| 95>    H       -9.96885         1.54284         6.59330
| 96>    H       -9.44407        -0.84065         7.43126
| 97>    H       -7.63931        -2.69944         7.00064
| 98>    H       -3.53654        -6.85690         4.88857
| 99>    H       -5.94015        -6.92131         5.52837
|100>    H       -7.04675        -4.82851         6.29261
|101>    H       -1.45560        -1.42903         6.19798
|102>    H        2.97540        -4.49130         5.86830
|103>    H       -0.06086        -6.17807         2.25192
|104>    H        4.73519        -6.46691         4.97089
|105> *
|106>
|107>                          ****END OF INPUT****

CARTESIAN COORDINATES (ANGSTROEM)
---------------------------------
  C     -1.676230   -0.826610    0.568850
  C     -1.737300   -1.677550   -0.507040
  C     -0.856170   -2.762000   -0.689540
  N     -0.145350   -3.643910   -0.877350
  C     -2.687540   -1.583770   -1.543020
  N     -3.425950   -1.544480   -2.422120
  C     -0.712590   -0.906020    1.661200
  C     -1.087700    0.023080    2.662750
  C     -0.322970    0.255320    3.779310
  C      0.885390   -0.441900    3.900380
  C      1.239890   -1.380020    2.902720
  C      0.451930   -1.637320    1.787230
  S      2.788360   -2.098300    3.220460
  C      2.930180   -1.151760    4.678930
  C      1.880580   -0.330280    4.910050
  Br     4.444050   -1.361240    5.749540
  C     -2.318910    0.716330    2.234820
  O     -2.950580    1.533050    2.881020
  C     -2.564010    0.275340    0.857860
  C     -3.336470    0.943920   -0.069070
  C     -4.217430    2.005670    0.115920
  C     -4.815830    2.746110   -0.943740
  C     -5.750560    3.711650   -0.488460
  N     -6.428300    4.530390   -1.293880
  C     -6.198680    4.425390   -2.581610
  C     -5.305450    3.504050   -3.145110
  C     -4.605390    2.648760   -2.325120
  C     -5.935500    3.667020    0.925390
  S     -4.826820    2.546980    1.652410
  C     -6.951640    4.329690    1.600370
  C     -7.370200    4.039820    2.888920
  C     -8.593050    4.407490    3.492630
  C     -8.895990    3.691830    4.621340
  C     -7.903320    2.759710    4.970750
  S     -6.534200    2.886790    3.893070
  C     -7.927790    1.675680    5.844760
  C     -9.005820    1.071520    6.512390
  C     -8.727730   -0.197030    6.951760
  C     -7.416090   -0.631230    6.667290
  S     -6.503900    0.666130    5.939390
  C     -6.931320   -1.928300    6.727160
  C     -5.656450   -2.337200    6.359090
  C     -5.253980   -3.655780    6.010950
  C     -3.898200   -3.730530    5.587560
  N     -3.310480   -4.870970    5.213570
  C     -4.045170   -5.955770    5.204670
  C     -5.397380   -5.990660    5.569820
  C     -6.010740   -4.831540    5.987650
  C     -3.214050   -2.489910    5.687800
  S     -4.308680   -1.248220    6.211100
  C     -1.843370   -2.258160    5.614870
  C     -0.897310   -3.060780    5.010860
  C     -1.005600   -3.958190    3.900430
  C     -1.966080   -3.902170    2.915540
  C     -2.055350   -4.798340    1.836080
  N     -2.206470   -5.520990    0.956020
  C     -2.950780   -2.903530    2.862810
  N     -3.735660   -2.071880    2.735880
  C      0.204700   -4.771760    3.868650
  C      1.084430   -4.308930    4.879530
  C      0.459940   -3.164410    5.575080
  O      0.952990   -2.474900    6.445780
  C      2.321770   -4.863380    5.094280
  C      2.713020   -5.920760    4.265010
  C      1.832710   -6.367750    3.251940
  C      0.578210   -5.806910    3.036140
  S      2.520180   -7.677850    2.342430
  C      3.961320   -7.606530    3.321430
  C      3.932320   -6.651440    4.280640
  Br     5.366390   -8.802830    2.988150
  H     -0.628510    0.975740    4.521820
  H      0.774710   -2.351810    1.048130
  H      1.801400    0.312050    5.767430
  H     -3.221870    0.634630   -1.101000
  H     -6.756200    5.105560   -3.211510
  H     -5.175830    3.469950   -4.215150
  H     -3.918870    1.923980   -2.736590
  H     -7.540740    5.021090    1.012290
  H     -9.243940    5.138200    3.046140
  H     -9.810930    3.794070    5.176940
  H     -9.968850    1.542840    6.593300
  H     -9.444070   -0.840650    7.431260
  H     -7.639310   -2.699440    7.000640
  H     -3.536540   -6.856900    4.888570
  H     -5.940150   -6.921310    5.528370
  H     -7.046750   -4.828510    6.292610
  H     -1.455600   -1.429030    6.197980
  H      2.975400   -4.491300    5.868300
  H     -0.060860   -6.178070    2.251920
  H      4.735190   -6.466910    4.970890

 Total Charge           Charge          ....    0
 Multiplicity           Mult            ....    1
 Number of Electrons    NEL             ....  568
 Basis Dimension        Dim             .... 1140

ORBITAL ENERGIES
----------------

  NO   OCC          E(Eh)            E(eV)
   0   2.0000    -482.872449    -13139.6273
   1   2.0000    -482.871977    -13139.6145
   2   2.0000     -88.978219     -2421.2204
   3   2.0000     -88.973625     -2421.0954
   4   2.0000     -88.965389     -2420.8713
   5   2.0000     -88.963792     -2420.8279
   6   2.0000     -88.961005     -2420.7520
   7   2.0000     -88.959342     -2420.7068
   8   2.0000     -62.550194     -1702.0773
   9   2.0000     -62.549587     -1702.0608
  10   2.0000     -56.384122     -1534.2900
  11   2.0000     -56.383483     -1534.2726
  12   2.0000     -56.381447     -1534.2172
  13   2.0000     -56.381404     -1534.2160
  14   2.0000     -56.380884     -1534.2019
  15   2.0000     -56.380802     -1534.1996
  16   2.0000     -19.206854      -522.6451
  17   2.0000     -19.196388      -522.3603
  18   2.0000     -14.411646      -392.1608
  19   2.0000     -14.410258      -392.1230
  20   2.0000     -14.399803      -391.8386
  21   2.0000     -14.396619      -391.7519
  22   2.0000     -14.395989      -391.7348
  23   2.0000     -14.390167      -391.5764
  24   2.0000     -10.355479      -281.7869
  25   2.0000     -10.345322      -281.5105
  26   2.0000     -10.342747      -281.4405
  27   2.0000     -10.340574      -281.3813
  28   2.0000     -10.332920      -281.1731
  29   2.0000     -10.331616      -281.1376
  30   2.0000     -10.331016      -281.1212
  31   2.0000     -10.328421      -281.0506
  32   2.0000     -10.323426      -280.9147
  33   2.0000     -10.323217      -280.9090
  34   2.0000     -10.322819      -280.8982
  35   2.0000     -10.319946      -280.8200
  36   2.0000     -10.318000      -280.7671
  37   2.0000     -10.314704      -280.6774
  38   2.0000     -10.313957      -280.6570
  39   2.0000     -10.313663      -280.6490
  40   2.0000     -10.311510      -280.5904
  41   2.0000     -10.311252      -280.5834
  42   2.0000     -10.311166      -280.5811
  43   2.0000     -10.310342      -280.5587
  44   2.0000     -10.308436      -280.5068
  45   2.0000     -10.307832      -280.4904
  46   2.0000     -10.307191      -280.4729
  47   2.0000     -10.307154      -280.4719
  48   2.0000     -10.306274      -280.4480
  49   2.0000     -10.305431      -280.4250
  50   2.0000     -10.304173      -280.3908
  51   2.0000     -10.303484      -280.3721
  52   2.0000     -10.302446      -280.3438
  53   2.0000     -10.302024      -280.3323
  54   2.0000     -10.301854      -280.3277
  55   2.0000     -10.301274      -280.3119
  56   2.0000     -10.300101      -280.2800
  57   2.0000     -10.298890      -280.2471
  58   2.0000     -10.298869      -280.2465
  59   2.0000     -10.297468      -280.2084
  60   2.0000     -10.295750      -280.1616
  61   2.0000     -10.293652      -280.1045
  62   2.0000     -10.292149      -280.0636
  63   2.0000     -10.291900      -280.0568
  64   2.0000     -10.290226      -280.0113
  65   2.0000     -10.288859      -279.9741
  66   2.0000     -10.288051      -279.9521
  67   2.0000     -10.287042      -279.9247
  68   2.0000     -10.286299      -279.9044
  69   2.0000     -10.285678      -279.8875
  70   2.0000     -10.285363      -279.8789
  71   2.0000     -10.283571      -279.8302
  72   2.0000     -10.282121      -279.7907
  73   2.0000     -10.281599      -279.7765
  74   2.0000     -10.279230      -279.7121
  75   2.0000     -10.278447      -279.6907
  76   2.0000     -10.272557      -279.5305
  77   2.0000     -10.271983      -279.5149
  78   2.0000      -8.779635      -238.9060
  79   2.0000      -8.779024      -238.8894
  80   2.0000      -8.073157      -219.6818
  81   2.0000      -8.066325      -219.4959
  82   2.0000      -8.061720      -219.3706
  83   2.0000      -8.060086      -219.3261
  84   2.0000      -8.056079      -219.2170
  85   2.0000      -8.055358      -219.1974
  86   2.0000      -6.615852      -180.0265
  87   2.0000      -6.615137      -180.0070
  88   2.0000      -6.601391      -179.6330
  89   2.0000      -6.601253      -179.6292
  90   2.0000      -6.600901      -179.6197
  91   2.0000      -6.600632      -179.6123
  92   2.0000      -6.042144      -164.4151
  93   2.0000      -6.038080      -164.3045
  94   2.0000      -6.035797      -164.2424
  95   2.0000      -6.035372      -164.2308
  96   2.0000      -6.031392      -164.1225
  97   2.0000      -6.030846      -164.1077
  98   2.0000      -6.029712      -164.0768
  99   2.0000      -6.029314      -164.0660
 100   2.0000      -6.027093      -164.0055
 101   2.0000      -6.025838      -163.9714
 102   2.0000      -6.025323      -163.9574
 103   2.0000      -6.025050      -163.9500
 104   2.0000      -6.022850      -163.8901
 105   2.0000      -6.021531      -163.8542
 106   2.0000      -6.021359      -163.8495
 107   2.0000      -6.020777      -163.8337
 108   2.0000      -6.017371      -163.7410
 109   2.0000      -6.016570      -163.7192
 110   2.0000      -2.731739       -74.3344
 111   2.0000      -2.731070       -74.3162
 112   2.0000      -2.727694       -74.2243
 113   2.0000      -2.727544       -74.2203
 114   2.0000      -2.727050       -74.2068
 115   2.0000      -2.726903       -74.2028
 116   2.0000      -2.716080       -73.9083
 117   2.0000      -2.716054       -73.9076
 118   2.0000      -2.715542       -73.8936
 119   2.0000      -2.715539       -73.8936
 120   2.0000      -1.122059       -30.5328
 121   2.0000      -1.110037       -30.2056
 122   2.0000      -1.054554       -28.6959
 123   2.0000      -1.050904       -28.5966
 124   2.0000      -1.017909       -27.6987
 125   2.0000      -1.008011       -27.4294
 126   2.0000      -1.003411       -27.3042
 127   2.0000      -0.998535       -27.1715
 128   2.0000      -0.996835       -27.1253
 129   2.0000      -0.992930       -27.0190
 130   2.0000      -0.984845       -26.7990
 131   2.0000      -0.979238       -26.6464
 132   2.0000      -0.977119       -26.5888
 133   2.0000      -0.974781       -26.5251
 134   2.0000      -0.970991       -26.4220
 135   2.0000      -0.968469       -26.3534
 136   2.0000      -0.929841       -25.3023
 137   2.0000      -0.929572       -25.2949
 138   2.0000      -0.920340       -25.0437
 139   2.0000      -0.915367       -24.9084
 140   2.0000      -0.902446       -24.5568
 141   2.0000      -0.893580       -24.3155
 142   2.0000      -0.889465       -24.2036
 143   2.0000      -0.887967       -24.1628
 144   2.0000      -0.883044       -24.0289
 145   2.0000      -0.873504       -23.7692
 146   2.0000      -0.870395       -23.6847
 147   2.0000      -0.867973       -23.6187
 148   2.0000      -0.866982       -23.5918
 149   2.0000      -0.854476       -23.2515
 150   2.0000      -0.852358       -23.1938
 151   2.0000      -0.844731       -22.9863
 152   2.0000      -0.842033       -22.9129
 153   2.0000      -0.836580       -22.7645
 154   2.0000      -0.826604       -22.4930
 155   2.0000      -0.813966       -22.1491
 156   2.0000      -0.810977       -22.0678
 157   2.0000      -0.802162       -21.8279
 158   2.0000      -0.783832       -21.3291
 159   2.0000      -0.766659       -20.8618
 160   2.0000      -0.750488       -20.4218
 161   2.0000      -0.744794       -20.2669
 162   2.0000      -0.739297       -20.1173
 163   2.0000      -0.737202       -20.0603
 164   2.0000      -0.734147       -19.9772
 165   2.0000      -0.731679       -19.9100
 166   2.0000      -0.712161       -19.3789
 167   2.0000      -0.703684       -19.1482
 168   2.0000      -0.702505       -19.1161
 169   2.0000      -0.683311       -18.5938
 170   2.0000      -0.680123       -18.5071
 171   2.0000      -0.677523       -18.4363
 172   2.0000      -0.673999       -18.3405
 173   2.0000      -0.671615       -18.2756
 174   2.0000      -0.665705       -18.1147
 175   2.0000      -0.650260       -17.6945
 176   2.0000      -0.647159       -17.6101
 177   2.0000      -0.645100       -17.5541
 178   2.0000      -0.641295       -17.4505
 179   2.0000      -0.637971       -17.3601
 180   2.0000      -0.634533       -17.2665
 181   2.0000      -0.622468       -16.9382
 182   2.0000      -0.617692       -16.8083
 183   2.0000      -0.610558       -16.6141
 184   2.0000      -0.605264       -16.4701
 185   2.0000      -0.601647       -16.3716
 186   2.0000      -0.598708       -16.2917
 187   2.0000      -0.588567       -16.0157
 188   2.0000      -0.587260       -15.9802
 189   2.0000      -0.584882       -15.9155
 190   2.0000      -0.580286       -15.7904
 191   2.0000      -0.576386       -15.6843
 192   2.0000      -0.575048       -15.6479
 193   2.0000      -0.568530       -15.4705
 194   2.0000      -0.562605       -15.3093
 195   2.0000      -0.556372       -15.1397
 196   2.0000      -0.547262       -14.8918
 197   2.0000      -0.541761       -14.7421
 198   2.0000      -0.537731       -14.6324
 199   2.0000      -0.536508       -14.5991
 200   2.0000      -0.534461       -14.5434
 201   2.0000      -0.530117       -14.4252
 202   2.0000      -0.529579       -14.4106
 203   2.0000      -0.527398       -14.3512
 204   2.0000      -0.525875       -14.3098
 205   2.0000      -0.524962       -14.2849
 206   2.0000      -0.521145       -14.1811
 207   2.0000      -0.518481       -14.1086
 208   2.0000      -0.515480       -14.0269
 209   2.0000      -0.511934       -13.9304
 210   2.0000      -0.508253       -13.8303
 211   2.0000      -0.507656       -13.8140
 212   2.0000      -0.505952       -13.7677
 213   2.0000      -0.504671       -13.7328
 214   2.0000      -0.500786       -13.6271
 215   2.0000      -0.500005       -13.6058
 216   2.0000      -0.496390       -13.5075
 217   2.0000      -0.494701       -13.4615
 218   2.0000      -0.491014       -13.3612
 219   2.0000      -0.487174       -13.2567
 220   2.0000      -0.485590       -13.2136
 221   2.0000      -0.484128       -13.1738
 222   2.0000      -0.481387       -13.0992
 223   2.0000      -0.480251       -13.0683
 224   2.0000      -0.478967       -13.0334
 225   2.0000      -0.475756       -12.9460
 226   2.0000      -0.474214       -12.9040
 227   2.0000      -0.466683       -12.6991
 228   2.0000      -0.464662       -12.6441
 229   2.0000      -0.461841       -12.5673
 230   2.0000      -0.459506       -12.5038
 231   2.0000      -0.457946       -12.4614
 232   2.0000      -0.454901       -12.3785
 233   2.0000      -0.451266       -12.2796
 234   2.0000      -0.447290       -12.1714
 235   2.0000      -0.443898       -12.0791
 236   2.0000      -0.441380       -12.0106
 237   2.0000      -0.440603       -11.9894
 238   2.0000      -0.435943       -11.8626
 239   2.0000      -0.433471       -11.7953
 240   2.0000      -0.433012       -11.7829
 241   2.0000      -0.431895       -11.7525
 242   2.0000      -0.429596       -11.6899
 243   2.0000      -0.428665       -11.6646
 244   2.0000      -0.427081       -11.6215
 245   2.0000      -0.423664       -11.5285
 246   2.0000      -0.421328       -11.4649
 247   2.0000      -0.421166       -11.4605
 248   2.0000      -0.419685       -11.4202
 249   2.0000      -0.413484       -11.2515
 250   2.0000      -0.412190       -11.2163
 251   2.0000      -0.407663       -11.0931
 252   2.0000      -0.405733       -11.0405
 253   2.0000      -0.396345       -10.7851
 254   2.0000      -0.393964       -10.7203
 255   2.0000      -0.391429       -10.6513
 256   2.0000      -0.390209       -10.6181
 257   2.0000      -0.388714       -10.5774
 258   2.0000      -0.387112       -10.5338
 259   2.0000      -0.381760       -10.3882
 260   2.0000      -0.379048       -10.3144
 261   2.0000      -0.366138        -9.9631
 262   2.0000      -0.362178        -9.8554
 263   2.0000      -0.361164        -9.8278
 264   2.0000      -0.359736        -9.7889
 265   2.0000      -0.359067        -9.7707
 266   2.0000      -0.354805        -9.6547
 267   2.0000      -0.351458        -9.5636
 268   2.0000      -0.341232        -9.2854
 269   2.0000      -0.339644        -9.2422
 270   2.0000      -0.337722        -9.1899
 271   2.0000      -0.329533        -8.9670
 272   2.0000      -0.326392        -8.8816
 273   2.0000      -0.322497        -8.7756
 274   2.0000      -0.320506        -8.7214
 275   2.0000      -0.316806        -8.6207
 276   2.0000      -0.311092        -8.4652
 277   2.0000      -0.307370        -8.3640
 278   2.0000      -0.291859        -7.9419
 279   2.0000      -0.289292        -7.8720
 280   2.0000      -0.275212        -7.4889
 281   2.0000      -0.270113        -7.3501
 282   2.0000      -0.249990        -6.8026
 283   2.0000      -0.218699        -5.9511
 284   0.0000      -0.122675        -3.3381
 285   0.0000      -0.084510        -2.2996
 286   0.0000      -0.059000        -1.6055
 287   0.0000      -0.044007        -1.1975
 288   0.0000      -0.038477        -1.0470

MULLIKEN ATOMIC CHARGES
-----------------------
   0 C :    0.286346
   1 C :   -0.344600
   2 C :   -0.186884
   3 N :    0.151115
   4 C :   -0.196677
   5 N :    0.146729
   6 C :    0.015394
   7 C :    0.011702
   8 C :   -0.109121
   9 C :    0.129607
  10 C :   -0.122951
  11 C :   -0.012688
  12 S :    0.174554
  13 C :   -0.127480
  14 C :    0.081283
  15 Br:    0.014174
  16 C :    0.172083
  17 O :   -0.188689
  18 C :   -0.077055
  19 C :   -0.040841
  20 C :   -0.072079
  21 C :    0.099758
  22 C :    0.010474
  23 N :   -0.038031
  24 C :    0.028376
  25 C :    0.006181
  26 C :    0.020387
  27 C :   -0.097160
  28 S :    0.208814
  29 C :    0.014046
  30 C :   -0.042089
  31 C :    0.044124
  32 C :    0.028233
  33 C :   -0.028516
  34 S :    0.102493
  35 C :   -0.040404
  36 C :    0.043571
  37 C :    0.023743
  38 C :   -0.048591
  39 S :    0.101133
  40 C :   -0.006184
  41 C :   -0.074095
  42 C :    0.087259
  43 C :    0.039330
  44 N :   -0.044301
  45 C :    0.053040
  46 C :   -0.000389
  47 C :    0.022043
  48 C :   -0.130260
  49 S :    0.183765
  50 C :    0.035885
  51 C :   -0.142059
  52 C :    0.376703
  53 C :   -0.362789
  54 C :   -0.201452
  55 N :    0.153341
  56 C :   -0.199609
  57 N :    0.137923
  58 C :   -0.005208
  59 C :    0.024471
  60 C :    0.114666
  61 O :   -0.166365
  62 C :   -0.088032
  63 C :    0.114710
  64 C :   -0.085893
  65 C :   -0.036940
  66 S :    0.180979
  67 C :   -0.125476
  68 C :    0.036629
  69 Br:    0.010720
  70 H :   -0.019388
  71 H :   -0.011134
  72 H :   -0.009040
  73 H :    0.007849
  74 H :    0.006084
  75 H :    0.004484
  76 H :    0.008844
  77 H :    0.009403
  78 H :    0.001898
  79 H :   -0.006341
  80 H :   -0.004008
  81 H :   -0.002915
  82 H :   -0.005998
  83 H :    0.012795
  84 H :    0.001689
  85 H :   -0.010108
  86 H :    0.008420
  87 H :   -0.021155
  88 H :   -0.006791
  89 H :   -0.007465
Sum of atomic charges:   -0.0000000

LOEWDIN ATOMIC CHARGES
----------------------
   0 C :    0.076032
   1 C :   -0.147147
   2 C :   -0.018127
   3 N :   -0.055658
   4 C :   -0.018599
   5 N :   -0.064774
   6 C :   -0.017583
   7 C :   -0.044159
   8 C :    0.013393
   9 C :   -0.035305
  10 C :   -0.151190
  11 C :   -0.011461
  12 S :    0.442156
  13 C :   -0.274190
  14 C :   -0.058691
  15 Br:    0.134702
  16 C :    0.087709
  17 O :   -0.174013
  18 C :   -0.088357
  19 C :    0.031333
  20 C :   -0.182981
  21 C :   -0.043908
  22 C :   -0.024293
  23 N :   -0.068485
  24 C :    0.025974
  25 C :   -0.038890
  26 C :    0.022605
  27 C :   -0.178266
  28 S :    0.557067
  29 C :   -0.037498
  30 C :   -0.154517
  31 C :   -0.014625
  32 C :   -0.042516
  33 C :   -0.161898
  34 S :    0.419197
  35 C :   -0.178298
  36 C :   -0.022984
  37 C :   -0.036929
  38 C :   -0.139376
  39 S :    0.406829
  40 C :   -0.076880
  41 C :   -0.141098
  42 C :   -0.058975
  43 C :   -0.006702
  44 N :   -0.058106
  45 C :    0.047031
  46 C :   -0.048266
  47 C :    0.026888
  48 C :   -0.194202
  49 S :    0.499463
  50 C :    0.033462
  51 C :   -0.098328
  52 C :    0.077882
  53 C :   -0.156567
  54 C :   -0.025941
  55 N :   -0.063399
  56 C :   -0.010272
  57 N :   -0.082050
  58 C :   -0.015160
  59 C :   -0.056752
  60 C :    0.077301
  61 O :   -0.157288
  62 C :    0.010875
  63 C :   -0.039449
  64 C :   -0.145552
  65 C :   -0.015513
  66 S :    0.429218
  67 C :   -0.277366
  68 C :   -0.071450
  69 Br:    0.127030
  70 H :    0.036459
  71 H :    0.039586
  72 H :    0.037334
  73 H :    0.046782
  74 H :    0.023413
  75 H :    0.036760
  76 H :    0.039028
  77 H :    0.046571
  78 H :    0.038395
  79 H :    0.034370
  80 H :    0.035887
  81 H :    0.035758
  82 H :    0.040307
  83 H :    0.027510
  84 H :    0.035625
  85 H :    0.033017
  86 H :    0.038327
  87 H :    0.034324
  88 H :    0.041486
  89 H :    0.036948

  Mayer bond orders larger than 0.100000
B(  0-C ,  1-C ) :   1.6268 B(  0-C ,  6-C ) :   0.9927 B(  0-C , 18-C ) :   1.0930
B(  1-C ,  2-C ) :   1.1520 B(  1-C ,  4-C ) :   1.1441 B(  2-C ,  3-N ) :   2.9433
B(  4-C ,  5-N ) :   2.9955 B(  6-C ,  7-C ) :   1.2776 B(  6-C , 11-C ) :   1.4194
B(  7-C ,  8-C ) :   1.4152 B(  7-C , 16-C ) :   0.9544 B(  8-C ,  9-C ) :   1.2256
B(  8-C , 70-H ) :   1.0228 B(  9-C , 10-C ) :   1.3057 B(  9-C , 14-C ) :   1.1730
B( 10-C , 11-C ) :   1.3108 B( 10-C , 12-S ) :   1.0933 B( 11-C , 71-H ) :   0.9863
B( 12-S , 13-C ) :   1.0861 B( 13-C , 14-C ) :   1.6088 B( 13-C , 15-Br) :   1.0138
B( 14-C , 72-H ) :   0.9994 B( 16-C , 17-O ) :   2.1222 B( 16-C , 18-C ) :   0.9805
B( 18-C , 19-C ) :   1.4744 B( 19-C , 20-C ) :   1.3391 B( 19-C , 73-H ) :   0.9427
B( 20-C , 21-C ) :   1.1796 B( 20-C , 28-S ) :   1.1247 B( 21-C , 22-C ) :   1.2653
B( 21-C , 26-C ) :   1.2908 B( 22-C , 23-N ) :   1.4812 B( 22-C , 27-C ) :   1.1836
B( 23-N , 24-C ) :   1.6267 B( 24-C , 25-C ) :   1.2635 B( 24-C , 74-H ) :   0.9786
B( 25-C , 26-C ) :   1.5196 B( 25-C , 75-H ) :   0.9707 B( 26-C , 76-H ) :   0.9769
B( 27-C , 28-S ) :   1.1326 B( 27-C , 29-C ) :   1.3176 B( 29-C , 30-C ) :   1.4212
B( 29-C , 77-H ) :   0.9720 B( 30-C , 31-C ) :   1.1942 B( 30-C , 34-S ) :   1.0756
B( 31-C , 32-C ) :   1.5341 B( 31-C , 78-H ) :   0.9993 B( 32-C , 33-C ) :   1.2338
B( 32-C , 79-H ) :   0.9966 B( 33-C , 34-S ) :   1.0766 B( 33-C , 35-C ) :   1.4122
B( 35-C , 36-C ) :   1.2407 B( 35-C , 39-S ) :   1.0650 B( 36-C , 37-C ) :   1.5305
B( 36-C , 80-H ) :   0.9941 B( 37-C , 38-C ) :   1.2007 B( 37-C , 81-H ) :   0.9985
B( 38-C , 39-S ) :   1.0808 B( 38-C , 40-C ) :   1.4540 B( 40-C , 41-C ) :   1.3036
B( 40-C , 82-H ) :   0.9628 B( 41-C , 42-C ) :   1.1983 B( 41-C , 49-S ) :   1.1624
B( 42-C , 43-C ) :   1.2516 B( 42-C , 47-C ) :   1.2984 B( 43-C , 44-N ) :   1.4451
B( 43-C , 48-C ) :   1.2322 B( 44-N , 45-C ) :   1.6117 B( 45-C , 46-C ) :   1.2612
B( 45-C , 83-H ) :   0.9782 B( 46-C , 47-C ) :   1.5060 B( 46-C , 84-H ) :   0.9721
B( 47-C , 85-H ) :   0.9787 B( 48-C , 49-S ) :   1.1050 B( 48-C , 50-C ) :   1.2833
B( 50-C , 51-C ) :   1.5065 B( 50-C , 86-H ) :   0.9276 B( 51-C , 52-C ) :   1.1130
B( 51-C , 60-C ) :   0.9767 B( 52-C , 53-C ) :   1.5672 B( 52-C , 58-C ) :   1.0072
B( 53-C , 54-C ) :   1.1593 B( 53-C , 56-C ) :   1.1870 B( 54-C , 55-N ) :   2.9446
B( 56-C , 57-N ) :   2.9621 B( 58-C , 59-C ) :   1.2717 B( 58-C , 65-C ) :   1.4234
B( 59-C , 60-C ) :   0.9228 B( 59-C , 62-C ) :   1.4086 B( 60-C , 61-O ) :   2.1994
B( 62-C , 63-C ) :   1.2372 B( 62-C , 87-H ) :   1.0213 B( 63-C , 64-C ) :   1.3196
B( 63-C , 68-C ) :   1.1618 B( 64-C , 65-C ) :   1.3059 B( 64-C , 66-S ) :   1.0838
B( 65-C , 88-H ) :   0.9855 B( 66-S , 67-C ) :   1.0857 B( 67-C , 68-C ) :   1.6182
B( 67-C , 69-Br) :   1.0111 B( 68-C , 89-H ) :   1.0004

-----------------------------------------------------------------------------
         ABSORPTION SPECTRUM VIA TRANSITION ELECTRIC DIPOLE MOMENTS
-----------------------------------------------------------------------------
State   Energy  Wavelength   fosc         T2         TX        TY        TZ
        (cm-1)    (nm)                  (au**2)     (au)      (au)      (au)
-----------------------------------------------------------------------------
   0    6719.5   1488.2   0.232683585  11.39992   0.28496  -2.47438   2.27951
   1   11907.3    839.8   0.006575751   0.18181  -0.34759   0.23888   0.06264
   2   16012.8    624.5   1.474536059  30.31549  -4.49598   2.49685   1.96658
   3   17726.5    564.1   0.166246269   3.08748  -1.30395   0.90762   0.75061
   4   19383.6    515.9   0.062809193   1.06676   0.40625  -0.94459   0.09730
   5   19794.0    505.2   0.060510443   1.00640   0.98377  -0.19185   0.04241
   6   20642.2    484.4   0.259365456   4.13650  -0.83490   1.66115  -0.82463
   7   21987.4    454.8   0.263487920   3.94513  -0.16923   1.57926  -1.19265
   8   22512.2    444.2   0.023066113   0.33731   0.23573  -0.09641   0.52197
   9   22639.2    441.7   0.020689847   0.30087   0.41753   0.10448   0.34003
  10   23129.3    432.4   0.023251915   0.33096  -0.47452  -0.18121   0.27010
  11   24255.8    412.3   0.414833305   5.63033  -0.72902   1.70318  -1.48258
  12   24564.3    407.1   0.094237536   1.26297  -0.23847   0.85976  -0.68332
  13   25394.4    393.8   0.153820113   1.99412   0.78334   1.00126  -0.61479
  14   25597.8    390.7   0.048030229   0.61771   0.71264  -0.20869   0.25749
  15   25805.4    387.5   0.036270973   0.46273  -0.50353  -0.03086   0.45632
  16   26127.9    382.7   0.009974047   0.12567  -0.19354   0.19952  -0.22002
  17   26753.9    373.8   0.022037650   0.27118   0.14742   0.49939   0.00752
  18   26962.7    370.9   0.025448107   0.31072   0.32958   0.11148  -0.43551
  19   27090.4    369.1   0.018189897   0.22105  -0.40314   0.23587   0.05383
  20   27827.4    359.4   0.041378562   0.48953   0.32760  -0.61794  -0.01905
  21   28281.2    353.6   0.012865205   0.14976   0.31643   0.08273   0.20686
  22   28481.4    351.1   0.039255640   0.45375   0.36654  -0.06296   0.56164
  23   29032.8    344.4   0.025220321   0.28598  -0.26890  -0.27809   0.36924
  24   29216.8    342.3   0.012443853   0.14022  -0.01198  -0.36625   0.07702
  25   29527.3    338.7   0.037617809   0.41942  -0.50558   0.38276  -0.13151
  26   29725.0    336.4   0.010203066   0.11300  -0.18726  -0.12805   0.24807
  27   29962.0    333.8   0.008042229   0.08837  -0.26713   0.04498  -0.12242
  28   30101.7    332.2   0.067874452   0.74232   0.19621   0.03874  -0.83805
  29   30273.9    330.3   0.021706568   0.23605  -0.26702   0.03855  -0.40405
  30   30561.9    327.2   0.118070405   1.27185   0.87120  -0.67081  -0.25075
  31   30835.5    324.3   0.308556999   3.29428   1.45867  -0.46084   0.97682
  32   30998.8    322.6   0.143724843   1.52638  -0.87856   0.64785  -0.57862
  33   31460.9    317.9   0.048720784   0.50982   0.68947   0.05207   0.17815
  34   31847.0    314.0   0.042661062   0.44100  -0.36204   0.33766  -0.44261
  35   32058.6    311.9   0.069959312   0.71842   0.77800   0.05965   0.33103
  36   32280.0    309.8   0.142135878   1.44959   0.11910   0.34415   1.14759
  37   32478.5    307.9   0.037702083   0.38216   0.02624  -0.31002  -0.53419
  38   32990.2    303.1   0.051857422   0.51749   0.15936   0.68961  -0.12857
  39   33062.8    302.5   0.112851854   1.12369  -0.28323   0.03677  -1.02084
  40   33232.0    300.9   0.015685796   0.15539   0.01241   0.01672   0.39365
  41   33673.0    297.0   0.076847297   0.75132  -0.23350  -0.47327  -0.68761
  42   33780.8    296.0   0.176972899   1.72470   0.90440  -0.28002   0.91013
  43   34204.2    292.4   0.063089420   0.60723   0.45069   0.19979   0.60348
  44   34298.4    291.6   0.084685112   0.81285   0.56027  -0.65669  -0.26019
  45   34586.6    289.1   0.022052875   0.20991  -0.41376   0.18189  -0.07502
  46   34994.9    285.8   0.023580102   0.22183  -0.05836  -0.14543   0.44415
  47   35250.3    283.7   0.038676369   0.36121  -0.26778   0.53768  -0.02013
  48   35324.5    283.1   0.085694595   0.79864  -0.40107   0.32599  -0.72905
  49   35442.4    282.1   0.127463149   1.18396   0.39074   0.62668   0.79909
  50   35514.7    281.6   0.045179355   0.41880  -0.61229   0.20031  -0.06147
  51   35763.7    279.6   0.021138802   0.19459   0.08895   0.29110  -0.31928
  52   36218.1    276.1   0.168162735   1.52855   0.18758  -0.96502  -0.74974
  53   36437.0    274.4   0.051677130   0.46691  -0.29019   0.61222  -0.08877
  54   36521.0    273.8   0.056328202   0.50776  -0.47562   0.51302  -0.13550
  55   36742.2    272.2   0.037668943   0.33752   0.57851  -0.05152   0.01361
  56   36852.8    271.3   0.045846342   0.40955  -0.54490   0.01502  -0.33528
  57   37075.0    269.7   0.032614268   0.28960  -0.46963   0.08052  -0.25012
  58   37170.3    269.0   0.020730940   0.18361   0.11298  -0.34835   0.22249
  59   37498.0    266.7   0.009509927   0.08349   0.20743  -0.07695  -0.18586
  60   37801.2    264.5   0.007414366   0.06457   0.16833   0.14237  -0.12637
  61   37957.1    263.5   0.014626480   0.12686  -0.30189   0.18615  -0.03270
  62   38394.6    260.5   0.044130918   0.37840  -0.55607  -0.06383  -0.25516
  63   38464.6    260.0   0.006319956   0.05409   0.18541   0.13363   0.04311
  64   38586.7    259.2   0.001725244   0.01472   0.01552   0.09638  -0.07204
  65   38625.9    258.9   0.010429080   0.08889   0.26057   0.08546   0.11699
  66   39019.3    256.3   0.049829340   0.42042  -0.44163   0.14478  -0.45213
  67   39150.4    255.4   0.057531215   0.48377  -0.64574   0.14228  -0.21577
  68   39470.2    253.4   0.028265274   0.23575   0.46263  -0.10558  -0.10284
  69   39555.6    252.8   0.013091778   0.10896  -0.30560   0.09417  -0.08183
  70   39666.8    252.1   0.036031212   0.29904   0.05824   0.35058  -0.41562
  71   39950.1    250.3   0.012206956   0.10059   0.27713  -0.15423  -0.00119
  72   40083.1    249.5   0.025839711   0.21223   0.14939   0.36193   0.24272
  73   40250.3    248.4   0.032944967   0.26946   0.39421   0.01403   0.33744

FINAL SINGLE POINT ENERGY    -10081.719584643673

DIPOLE MOMENT
-------------
                                X             Y             Z
Electronic contribution:    163.55250     -78.39207      22.52803
Nuclear contribution   :   -166.68167      80.36535     -19.68171
                        -----------------------------------------
Total Dipole Moment    :     -3.12917       1.97328       2.84632
                        -----------------------------------------
Magnitude (a.u.)       :      4.66767
Magnitude (Debye)      :     11.86426

Rotational constants in cm-1:     0.001337     0.000479     0.000440
Rotational constants in MHz :    40.095007    14.348696    13.183250

                             ****ORCA TERMINATED NORMALLY****
TOTAL RUN TIME: 0 days 0 hours 13 minutes 14 seconds 138 msec
