                         Program Version 4.2.0 -  RELEASE  -
|  1> # ORCA input file
|  2> # SCF done       -181.499690997243          0.000682692409
|  3> ! CAM-B3LYP def2-SVP def2/J RIJCOSX Grid4 TightSCF
|  4> %maxcore 5000
|  5> %tddft
|  6>     Mode sTDDFT
|  7>     Ethresh 5.0
|  8>     maxcore 5000
|  9> end
| 10>
| 11> %pal
| 12>   nprocs 6
| 13>   end
| 14> * xyz 0 1
| 15>    C      -19.58666        -7.31066        -1.52332
| 16>    C      -18.43669        -8.02247        -1.26736
| 17>    C      -18.37995        -9.42742        -1.18082
| 18>    N      -18.26253       -10.56753        -1.09956
| 19>    C      -17.15607        -7.47511        -1.05584
| 20>    N      -16.07770        -7.12300        -0.87016
| 21>    C      -20.90602        -7.90029        -1.74551
| 22>    C      -21.83306        -6.85820        -1.98892
| 23>    C      -23.16408        -7.09116        -2.22973
| 24>    C      -23.60486        -8.41945        -2.23025
| 25>    C      -22.67207        -9.45357        -1.98767
| 26>    C      -21.32400        -9.21697        -1.74443
| 27>    S      -23.42676       -11.01884        -2.03182
| 28>    C      -24.96466       -10.27073        -2.37019
| 29>    C      -24.91818        -8.92004        -2.44725
| 30>   Br      -26.48769       -11.34448        -2.58898
| 31>    C      -21.13051        -5.55834        -1.92934
| 32>    O      -21.63262        -4.46328        -2.09532
| 33>    C      -19.72323        -5.88077        -1.62581
| 34>    C      -18.72338        -4.94454        -1.45204
| 35>    C      -18.88663        -3.56733        -1.55775
| 36>    C      -17.85528        -2.67408        -1.33555
| 37>    C      -17.92895        -1.26416        -1.41106
| 38>    C      -16.75846        -0.62934        -1.11349
| 39>    C      -15.70414        -1.50982        -0.78979
| 40>    S      -16.23927        -3.17011        -0.88566
| 41>    C      -14.40872        -1.19649        -0.41220
| 42>    C      -13.83577         0.09041        -0.25861
| 43>    C      -12.54785         0.05756         0.17106
| 44>    C      -12.03072        -1.25563         0.36172
| 45>    S      -13.24815        -2.43911        -0.04437
| 46>    C      -10.80161        -1.53824         0.90302
| 47>    C      -10.21496        -2.80438         1.08954
| 48>    S       -9.01695        -2.98756         2.37761
| 49>    C      -10.38893        -4.02559         0.46159
| 50>    C      -11.08671        -4.57298        -0.71308
| 51>    O      -11.73071        -4.00488        -1.56395
| 52>    N      -10.81587        -5.93250        -0.69820
| 53>    C      -11.39586        -6.85964        -1.64747
| 54>    C      -12.76668        -7.33858        -1.18553
| 55>    C       -9.97574        -6.32954         0.33364
| 56>    O       -9.68924        -7.46640         0.60463
| 57>    C       -9.61469        -5.06888         1.01193
| 58>    C       -8.80211        -4.68895         2.05167
| 59>    C       -7.85905        -5.50869         2.72715
| 60>    O       -7.55702        -5.32225         4.03978
| 61>    C       -7.13515        -6.57838         2.25049
| 62>    C       -6.76262        -7.31253         1.03209
| 63>    O       -7.04437        -7.12944        -0.12149
| 64>    N       -5.87722        -8.27776         1.50203
| 65>    C       -5.57671        -8.20455         2.86172
| 66>    O       -4.80879        -8.93397         3.43867
| 67>    C       -6.37800        -7.07835         3.33588
| 68>    C       -6.66707        -6.27851         4.43581
| 69>    C       -6.22669        -6.30778         5.77259
| 70>    C       -5.35509        -7.25282         6.23981
| 71>    C       -4.91719        -7.31435         7.56726
| 72>    C       -4.04331        -8.26201         8.04768
| 73>    C       -3.57569        -8.37763         9.38232
| 74>    C       -2.71549        -9.41022         9.58498
| 75>    C       -2.45219       -10.17058         8.41867
| 76>    S       -3.34391        -9.52232         7.05472
| 77>    C       -1.62800       -11.26682         8.29909
| 78>    C       -0.85615       -11.88022         9.32773
| 79>    C       -0.13397       -12.94614         8.91963
| 80>    C       -0.28062       -13.26087         7.52676
| 81>    S       -1.39889       -12.10500         6.78313
| 82>    C        0.30670       -14.25293         6.84409
| 83>    H      -23.84581        -6.27506        -2.41096
| 84>    H      -20.65453       -10.04097        -1.56401
| 85>    H      -25.77287        -8.30031        -2.64799
| 86>    H      -17.72926        -5.29702        -1.20591
| 87>    H      -19.85831        -3.17126        -1.81519
| 88>    H      -18.84312        -0.76577        -1.68021
| 89>    H      -16.63045         0.43815        -1.11808
| 90>    H      -14.38765         0.99055        -0.46013
| 91>    H      -11.94221         0.92698         0.35627
| 92>    H      -10.23939        -0.69703         1.28895
| 93>    H      -10.70350        -7.69969        -1.73676
| 94>    H      -11.47568        -6.33985        -2.60513
| 95>    H      -12.68652        -7.83936        -0.22410
| 96>    H      -13.17526        -8.03948        -1.90729
| 97>    H      -13.45514        -6.50322        -1.09095
| 98>    H       -5.45127        -8.96145         0.89281
| 99>    H       -6.62091        -5.54527         6.42924
|100>    H       -4.98089        -8.00006         5.55147
|101>    H       -5.28594        -6.57790         8.26985
|102>    H       -3.89451        -7.69135        10.14702
|103>    H       -2.26571        -9.64551        10.53276
|104>    H       -0.86671       -11.50501        10.33553
|105>    H        0.50697       -13.53512         9.55135
|106>    H        0.98144       -14.93329         7.33315
|107>    H        0.12705       -14.39960         5.79484
|108> *
|109>
|110>                          ****END OF INPUT****

CARTESIAN COORDINATES (ANGSTROEM)
---------------------------------
  C    -19.586660   -7.310660   -1.523320
  C    -18.436690   -8.022470   -1.267360
  C    -18.379950   -9.427420   -1.180820
  N    -18.262530  -10.567530   -1.099560
  C    -17.156070   -7.475110   -1.055840
  N    -16.077700   -7.123000   -0.870160
  C    -20.906020   -7.900290   -1.745510
  C    -21.833060   -6.858200   -1.988920
  C    -23.164080   -7.091160   -2.229730
  C    -23.604860   -8.419450   -2.230250
  C    -22.672070   -9.453570   -1.987670
  C    -21.324000   -9.216970   -1.744430
  S    -23.426760  -11.018840   -2.031820
  C    -24.964660  -10.270730   -2.370190
  C    -24.918180   -8.920040   -2.447250
  Br   -26.487690  -11.344480   -2.588980
  C    -21.130510   -5.558340   -1.929340
  O    -21.632620   -4.463280   -2.095320
  C    -19.723230   -5.880770   -1.625810
  C    -18.723380   -4.944540   -1.452040
  C    -18.886630   -3.567330   -1.557750
  C    -17.855280   -2.674080   -1.335550
  C    -17.928950   -1.264160   -1.411060
  C    -16.758460   -0.629340   -1.113490
  C    -15.704140   -1.509820   -0.789790
  S    -16.239270   -3.170110   -0.885660
  C    -14.408720   -1.196490   -0.412200
  C    -13.835770    0.090410   -0.258610
  C    -12.547850    0.057560    0.171060
  C    -12.030720   -1.255630    0.361720
  S    -13.248150   -2.439110   -0.044370
  C    -10.801610   -1.538240    0.903020
  C    -10.214960   -2.804380    1.089540
  S     -9.016950   -2.987560    2.377610
  C    -10.388930   -4.025590    0.461590
  C    -11.086710   -4.572980   -0.713080
  O    -11.730710   -4.004880   -1.563950
  N    -10.815870   -5.932500   -0.698200
  C    -11.395860   -6.859640   -1.647470
  C    -12.766680   -7.338580   -1.185530
  C     -9.975740   -6.329540    0.333640
  O     -9.689240   -7.466400    0.604630
  C     -9.614690   -5.068880    1.011930
  C     -8.802110   -4.688950    2.051670
  C     -7.859050   -5.508690    2.727150
  O     -7.557020   -5.322250    4.039780
  C     -7.135150   -6.578380    2.250490
  C     -6.762620   -7.312530    1.032090
  O     -7.044370   -7.129440   -0.121490
  N     -5.877220   -8.277760    1.502030
  C     -5.576710   -8.204550    2.861720
  O     -4.808790   -8.933970    3.438670
  C     -6.378000   -7.078350    3.335880
  C     -6.667070   -6.278510    4.435810
  C     -6.226690   -6.307780    5.772590
  C     -5.355090   -7.252820    6.239810
  C     -4.917190   -7.314350    7.567260
  C     -4.043310   -8.262010    8.047680
  C     -3.575690   -8.377630    9.382320
  C     -2.715490   -9.410220    9.584980
  C     -2.452190  -10.170580    8.418670
  S     -3.343910   -9.522320    7.054720
  C     -1.628000  -11.266820    8.299090
  C     -0.856150  -11.880220    9.327730
  C     -0.133970  -12.946140    8.919630
  C     -0.280620  -13.260870    7.526760
  S     -1.398890  -12.105000    6.783130
  C      0.306700  -14.252930    6.844090
  H    -23.845810   -6.275060   -2.410960
  H    -20.654530  -10.040970   -1.564010
  H    -25.772870   -8.300310   -2.647990
  H    -17.729260   -5.297020   -1.205910
  H    -19.858310   -3.171260   -1.815190
  H    -18.843120   -0.765770   -1.680210
  H    -16.630450    0.438150   -1.118080
  H    -14.387650    0.990550   -0.460130
  H    -11.942210    0.926980    0.356270
  H    -10.239390   -0.697030    1.288950
  H    -10.703500   -7.699690   -1.736760
  H    -11.475680   -6.339850   -2.605130
  H    -12.686520   -7.839360   -0.224100
  H    -13.175260   -8.039480   -1.907290
  H    -13.455140   -6.503220   -1.090950
  H     -5.451270   -8.961450    0.892810
  H     -6.620910   -5.545270    6.429240
  H     -4.980890   -8.000060    5.551470
  H     -5.285940   -6.577900    8.269850
  H     -3.894510   -7.691350   10.147020
  H     -2.265710   -9.645510   10.532760
  H     -0.866710  -11.505010   10.335530
  H      0.506970  -13.535120    9.551350
  H      0.981440  -14.933290    7.333150
  H      0.127050  -14.399600    5.794840

 Total Charge           Charge          ....    0
 Multiplicity           Mult            ....    1
 Number of Electrons    NEL             ....  538
 Basis Dimension        Dim             .... 1119

ORBITAL ENERGIES
----------------

  NO   OCC          E(Eh)            E(eV)
   0   2.0000    -482.877583    -13139.7670
   1   2.0000     -88.975911     -2421.1576
   2   2.0000     -88.965375     -2420.8709
   3   2.0000     -88.959037     -2420.6985
   4   2.0000     -88.958951     -2420.6961
   5   2.0000     -88.943464     -2420.2747
   6   2.0000     -88.942086     -2420.2372
   7   2.0000     -62.555265     -1702.2153
   8   2.0000     -56.389208     -1534.4283
   9   2.0000     -56.386510     -1534.3549
  10   2.0000     -56.386475     -1534.3540
  11   2.0000     -19.304671      -525.3068
  12   2.0000     -19.201746      -522.5061
  13   2.0000     -19.200904      -522.4832
  14   2.0000     -19.200903      -522.4831
  15   2.0000     -19.197506      -522.3907
  16   2.0000     -19.196949      -522.3755
  17   2.0000     -14.442048      -392.9881
  18   2.0000     -14.440716      -392.9518
  19   2.0000     -14.404203      -391.9583
  20   2.0000     -14.399615      -391.8335
  21   2.0000     -10.388858      -282.6952
  22   2.0000     -10.386748      -282.6378
  23   2.0000     -10.383745      -282.5561
  24   2.0000     -10.380605      -282.4706
  25   2.0000     -10.356079      -281.8032
  26   2.0000     -10.354954      -281.7726
  27   2.0000     -10.352026      -281.6930
  28   2.0000     -10.349083      -281.6129
  29   2.0000     -10.332808      -281.1700
  30   2.0000     -10.332551      -281.1630
  31   2.0000     -10.332143      -281.1519
  32   2.0000     -10.327551      -281.0269
  33   2.0000     -10.326949      -281.0106
  34   2.0000     -10.325760      -280.9782
  35   2.0000     -10.323999      -280.9303
  36   2.0000     -10.323760      -280.9238
  37   2.0000     -10.316244      -280.7193
  38   2.0000     -10.313860      -280.6544
  39   2.0000     -10.311769      -280.5975
  40   2.0000     -10.309983      -280.5489
  41   2.0000     -10.309550      -280.5371
  42   2.0000     -10.308122      -280.4983
  43   2.0000     -10.307482      -280.4808
  44   2.0000     -10.306538      -280.4552
  45   2.0000     -10.304178      -280.3909
  46   2.0000     -10.303822      -280.3813
  47   2.0000     -10.303143      -280.3628
  48   2.0000     -10.299554      -280.2651
  49   2.0000     -10.296033      -280.1693
  50   2.0000     -10.294983      -280.1407
  51   2.0000     -10.294575      -280.1296
  52   2.0000     -10.293259      -280.0938
  53   2.0000     -10.292856      -280.0829
  54   2.0000     -10.292759      -280.0802
  55   2.0000     -10.292583      -280.0754
  56   2.0000     -10.291711      -280.0517
  57   2.0000     -10.290013      -280.0055
  58   2.0000     -10.288851      -279.9739
  59   2.0000     -10.287232      -279.9298
  60   2.0000     -10.285629      -279.8862
  61   2.0000     -10.284955      -279.8679
  62   2.0000     -10.284919      -279.8669
  63   2.0000     -10.282712      -279.8068
  64   2.0000     -10.278851      -279.7017
  65   2.0000     -10.278810      -279.7006
  66   2.0000     -10.278570      -279.6941
  67   2.0000     -10.276917      -279.6491
  68   2.0000     -10.275902      -279.6215
  69   2.0000     -10.275483      -279.6101
  70   2.0000     -10.274937      -279.5952
  71   2.0000     -10.231382      -278.4101
  72   2.0000      -8.784664      -239.0429
  73   2.0000      -8.071158      -219.6274
  74   2.0000      -8.061377      -219.3612
  75   2.0000      -8.055021      -219.1883
  76   2.0000      -8.054935      -219.1859
  77   2.0000      -8.039662      -218.7703
  78   2.0000      -8.038876      -218.7489
  79   2.0000      -6.620920      -180.1644
  80   2.0000      -6.606422      -179.7699
  81   2.0000      -6.606227      -179.7646
  82   2.0000      -6.040599      -164.3730
  83   2.0000      -6.036389      -164.2585
  84   2.0000      -6.032996      -164.1662
  85   2.0000      -6.031085      -164.1142
  86   2.0000      -6.026797      -163.9975
  87   2.0000      -6.024624      -163.9384
  88   2.0000      -6.024571      -163.9369
  89   2.0000      -6.022583      -163.8828
  90   2.0000      -6.020572      -163.8281
  91   2.0000      -6.020341      -163.8218
  92   2.0000      -6.016184      -163.7087
  93   2.0000      -6.016006      -163.7038
  94   2.0000      -6.009386      -163.5237
  95   2.0000      -6.008649      -163.5037
  96   2.0000      -6.005392      -163.4150
  97   2.0000      -6.004750      -163.3975
  98   2.0000      -6.000485      -163.2815
  99   2.0000      -5.999429      -163.2528
 100   2.0000      -2.736794       -74.4720
 101   2.0000      -2.732717       -74.3610
 102   2.0000      -2.732607       -74.3580
 103   2.0000      -2.721060       -74.0438
 104   2.0000      -2.721051       -74.0436
 105   2.0000      -1.219280       -33.1783
 106   2.0000      -1.146657       -31.2021
 107   2.0000      -1.143217       -31.1085
 108   2.0000      -1.124325       -30.5944
 109   2.0000      -1.120607       -30.4933
 110   2.0000      -1.115071       -30.3426
 111   2.0000      -1.039093       -28.2752
 112   2.0000      -1.030694       -28.0466
 113   2.0000      -1.012712       -27.5573
 114   2.0000      -1.010565       -27.4989
 115   2.0000      -1.001101       -27.2413
 116   2.0000      -0.999869       -27.2078
 117   2.0000      -0.995464       -27.0880
 118   2.0000      -0.987888       -26.8818
 119   2.0000      -0.981043       -26.6955
 120   2.0000      -0.975846       -26.5541
 121   2.0000      -0.972818       -26.4717
 122   2.0000      -0.932040       -25.3621
 123   2.0000      -0.924173       -25.1480
 124   2.0000      -0.918552       -24.9951
 125   2.0000      -0.910626       -24.7794
 126   2.0000      -0.901259       -24.5245
 127   2.0000      -0.896165       -24.3859
 128   2.0000      -0.894301       -24.3352
 129   2.0000      -0.883853       -24.0509
 130   2.0000      -0.875449       -23.8222
 131   2.0000      -0.873887       -23.7797
 132   2.0000      -0.865222       -23.5439
 133   2.0000      -0.862498       -23.4698
 134   2.0000      -0.848464       -23.0879
 135   2.0000      -0.847387       -23.0586
 136   2.0000      -0.838176       -22.8079
 137   2.0000      -0.832040       -22.6410
 138   2.0000      -0.821997       -22.3677
 139   2.0000      -0.817806       -22.2536
 140   2.0000      -0.815157       -22.1816
 141   2.0000      -0.811905       -22.0930
 142   2.0000      -0.793726       -21.5984
 143   2.0000      -0.778776       -21.1916
 144   2.0000      -0.764462       -20.8021
 145   2.0000      -0.757698       -20.6180
 146   2.0000      -0.754748       -20.5377
 147   2.0000      -0.746342       -20.3090
 148   2.0000      -0.741363       -20.1735
 149   2.0000      -0.734773       -19.9942
 150   2.0000      -0.728599       -19.8262
 151   2.0000      -0.719390       -19.5756
 152   2.0000      -0.704279       -19.1644
 153   2.0000      -0.694123       -18.8881
 154   2.0000      -0.689836       -18.7714
 155   2.0000      -0.684296       -18.6206
 156   2.0000      -0.679245       -18.4832
 157   2.0000      -0.677854       -18.4453
 158   2.0000      -0.670635       -18.2489
 159   2.0000      -0.657942       -17.9035
 160   2.0000      -0.654401       -17.8072
 161   2.0000      -0.647384       -17.6162
 162   2.0000      -0.646091       -17.5810
 163   2.0000      -0.636268       -17.3137
 164   2.0000      -0.635574       -17.2949
 165   2.0000      -0.632528       -17.2120
 166   2.0000      -0.620154       -16.8753
 167   2.0000      -0.619037       -16.8448
 168   2.0000      -0.616686       -16.7809
 169   2.0000      -0.611216       -16.6320
 170   2.0000      -0.608818       -16.5668
 171   2.0000      -0.601341       -16.3633
 172   2.0000      -0.588457       -16.0127
 173   2.0000      -0.587842       -15.9960
 174   2.0000      -0.584657       -15.9093
 175   2.0000      -0.582887       -15.8612
 176   2.0000      -0.579051       -15.7568
 177   2.0000      -0.577125       -15.7044
 178   2.0000      -0.570804       -15.5324
 179   2.0000      -0.564716       -15.3667
 180   2.0000      -0.558572       -15.1995
 181   2.0000      -0.554892       -15.0994
 182   2.0000      -0.550315       -14.9748
 183   2.0000      -0.542604       -14.7650
 184   2.0000      -0.539113       -14.6700
 185   2.0000      -0.538042       -14.6409
 186   2.0000      -0.535394       -14.5688
 187   2.0000      -0.533144       -14.5076
 188   2.0000      -0.531471       -14.4621
 189   2.0000      -0.526712       -14.3326
 190   2.0000      -0.526106       -14.3161
 191   2.0000      -0.524630       -14.2759
 192   2.0000      -0.518310       -14.1039
 193   2.0000      -0.517708       -14.0876
 194   2.0000      -0.513700       -13.9785
 195   2.0000      -0.510258       -13.8848
 196   2.0000      -0.508757       -13.8440
 197   2.0000      -0.506397       -13.7798
 198   2.0000      -0.503946       -13.7131
 199   2.0000      -0.502647       -13.6777
 200   2.0000      -0.498202       -13.5568
 201   2.0000      -0.497885       -13.5481
 202   2.0000      -0.497498       -13.5376
 203   2.0000      -0.496031       -13.4977
 204   2.0000      -0.495373       -13.4798
 205   2.0000      -0.492017       -13.3885
 206   2.0000      -0.491303       -13.3690
 207   2.0000      -0.489152       -13.3105
 208   2.0000      -0.484981       -13.1970
 209   2.0000      -0.483104       -13.1459
 210   2.0000      -0.481369       -13.0987
 211   2.0000      -0.480357       -13.0712
 212   2.0000      -0.476905       -12.9773
 213   2.0000      -0.476194       -12.9579
 214   2.0000      -0.472720       -12.8634
 215   2.0000      -0.469855       -12.7854
 216   2.0000      -0.467019       -12.7082
 217   2.0000      -0.465646       -12.6709
 218   2.0000      -0.464558       -12.6413
 219   2.0000      -0.460127       -12.5207
 220   2.0000      -0.457116       -12.4388
 221   2.0000      -0.451035       -12.2733
 222   2.0000      -0.449256       -12.2249
 223   2.0000      -0.447689       -12.1822
 224   2.0000      -0.447197       -12.1688
 225   2.0000      -0.443219       -12.0606
 226   2.0000      -0.437130       -11.8949
 227   2.0000      -0.436350       -11.8737
 228   2.0000      -0.432227       -11.7615
 229   2.0000      -0.431135       -11.7318
 230   2.0000      -0.430802       -11.7227
 231   2.0000      -0.428226       -11.6526
 232   2.0000      -0.424524       -11.5519
 233   2.0000      -0.421059       -11.4576
 234   2.0000      -0.420928       -11.4540
 235   2.0000      -0.416528       -11.3343
 236   2.0000      -0.414074       -11.2675
 237   2.0000      -0.411242       -11.1905
 238   2.0000      -0.408182       -11.1072
 239   2.0000      -0.402155       -10.9432
 240   2.0000      -0.399325       -10.8662
 241   2.0000      -0.397862       -10.8264
 242   2.0000      -0.394370       -10.7314
 243   2.0000      -0.386635       -10.5209
 244   2.0000      -0.379255       -10.3200
 245   2.0000      -0.374799       -10.1988
 246   2.0000      -0.367775       -10.0077
 247   2.0000      -0.367112        -9.9896
 248   2.0000      -0.361018        -9.8238
 249   2.0000      -0.358129        -9.7452
 250   2.0000      -0.356655        -9.7051
 251   2.0000      -0.351536        -9.5658
 252   2.0000      -0.347073        -9.4443
 253   2.0000      -0.343495        -9.3470
 254   2.0000      -0.341821        -9.3014
 255   2.0000      -0.339852        -9.2478
 256   2.0000      -0.334793        -9.1102
 257   2.0000      -0.333705        -9.0806
 258   2.0000      -0.327804        -8.9200
 259   2.0000      -0.323672        -8.8076
 260   2.0000      -0.322006        -8.7622
 261   2.0000      -0.320039        -8.7087
 262   2.0000      -0.313819        -8.5394
 263   2.0000      -0.304331        -8.2813
 264   2.0000      -0.294838        -8.0230
 265   2.0000      -0.282514        -7.6876
 266   2.0000      -0.272251        -7.4083
 267   2.0000      -0.230468        -6.2713
 268   2.0000      -0.215755        -5.8710
 269   0.0000      -0.112104        -3.0505
 270   0.0000      -0.080377        -2.1872
 271   0.0000      -0.061652        -1.6776
 272   0.0000      -0.046268        -1.2590
 273   0.0000      -0.036054        -0.9811

MULLIKEN ATOMIC CHARGES
-----------------------
   0 C :    0.330828
   1 C :   -0.361403
   2 C :   -0.190486
   3 N :    0.138435
   4 C :   -0.194520
   5 N :    0.149116
   6 C :    0.011676
   7 C :   -0.008918
   8 C :   -0.075041
   9 C :    0.116946
  10 C :   -0.092422
  11 C :   -0.023716
  12 S :    0.180348
  13 C :   -0.123317
  14 C :    0.037683
  15 Br:    0.015163
  16 C :    0.137651
  17 O :   -0.164751
  18 C :   -0.087467
  19 C :   -0.039609
  20 C :   -0.022158
  21 C :    0.003048
  22 C :    0.029885
  23 C :    0.040192
  24 C :   -0.049092
  25 S :    0.116002
  26 C :   -0.041953
  27 C :    0.034028
  28 C :    0.043055
  29 C :   -0.019853
  30 S :    0.174072
  31 C :    0.017921
  32 C :   -0.151692
  33 S :    0.177219
  34 C :   -0.003459
  35 C :    0.181195
  36 O :   -0.173777
  37 N :   -0.296344
  38 C :    0.134203
  39 C :   -0.002151
  40 C :    0.197986
  41 O :   -0.158244
  42 C :    0.033178
  43 C :   -0.181146
  44 C :    0.091820
  45 O :   -0.207061
  46 C :   -0.025981
  47 C :    0.180851
  48 O :   -0.141650
  49 N :   -0.162206
  50 C :    0.189395
  51 O :   -0.160256
  52 C :   -0.103522
  53 C :    0.158321
  54 C :   -0.037798
  55 C :    0.008064
  56 C :   -0.023541
  57 C :   -0.010168
  58 C :    0.030715
  59 C :    0.035942
  60 C :   -0.053182
  61 S :    0.103867
  62 C :   -0.062211
  63 C :    0.029167
  64 C :    0.056782
  65 C :   -0.069860
  66 S :    0.099718
  67 C :   -0.022350
  68 H :   -0.014983
  69 H :   -0.009398
  70 H :   -0.006466
  71 H :    0.016512
  72 H :    0.017145
  73 H :    0.000465
  74 H :   -0.003290
  75 H :   -0.007016
  76 H :   -0.002817
  77 H :   -0.002228
  78 H :    0.032128
  79 H :    0.026239
  80 H :    0.019351
  81 H :    0.019557
  82 H :    0.032758
  83 H :    0.136851
  84 H :   -0.018565
  85 H :    0.030688
  86 H :   -0.019035
  87 H :   -0.012414
  88 H :   -0.012421
  89 H :   -0.010295
  90 H :   -0.007728
  91 H :    0.024024
  92 H :    0.027777
Sum of atomic charges:   -0.0000000

LOEWDIN ATOMIC CHARGES
----------------------
   0 C :    0.073908
   1 C :   -0.155467
   2 C :   -0.018992
   3 N :   -0.066460
   4 C :   -0.015283
   5 N :   -0.059971
   6 C :   -0.018414
   7 C :   -0.048734
   8 C :    0.017691
   9 C :   -0.035405
  10 C :   -0.145407
  11 C :   -0.012798
  12 S :    0.428136
  13 C :   -0.274260
  14 C :   -0.070925
  15 Br:    0.130473
  16 C :    0.082328
  17 O :   -0.157478
  18 C :   -0.105861
  19 C :    0.049980
  20 C :   -0.069531
  21 C :   -0.103533
  22 C :   -0.038150
  23 C :   -0.008042
  24 C :   -0.185155
  25 S :    0.417446
  26 C :   -0.153317
  27 C :   -0.032075
  28 C :   -0.013916
  29 C :   -0.136233
  30 S :    0.465664
  31 C :   -0.065233
  32 C :   -0.140674
  33 S :    0.453128
  34 C :   -0.094384
  35 C :    0.075999
  36 O :   -0.173111
  37 N :   -0.023344
  38 C :    0.042603
  39 C :   -0.058448
  40 C :    0.090759
  41 O :   -0.150222
  42 C :   -0.071966
  43 C :   -0.155738
  44 C :    0.028330
  45 O :    0.008701
  46 C :   -0.069078
  47 C :    0.089019
  48 O :   -0.150025
  49 N :   -0.001494
  50 C :    0.087800
  51 O :   -0.166966
  52 C :   -0.112592
  53 C :    0.079247
  54 C :   -0.065812
  55 C :    0.014704
  56 C :   -0.074795
  57 C :   -0.126054
  58 C :   -0.040657
  59 C :   -0.019980
  60 C :   -0.186667
  61 S :    0.394593
  62 C :   -0.166969
  63 C :   -0.027840
  64 C :   -0.024060
  65 C :   -0.140914
  66 S :    0.367202
  67 C :   -0.065029
  68 H :    0.038976
  69 H :    0.040234
  70 H :    0.037543
  71 H :    0.031596
  72 H :    0.038843
  73 H :    0.039135
  74 H :    0.035780
  75 H :    0.034395
  76 H :    0.037074
  77 H :    0.038031
  78 H :    0.032681
  79 H :    0.030600
  80 H :    0.027044
  81 H :    0.030168
  82 H :    0.026316
  83 H :    0.094209
  84 H :    0.034194
  85 H :    0.029536
  86 H :    0.030831
  87 H :    0.033469
  88 H :    0.032065
  89 H :    0.032796
  90 H :    0.034877
  91 H :    0.030407
  92 H :    0.028948

  Mayer bond orders larger than 0.100000
B(  0-C ,  1-C ) :   1.5803 B(  0-C ,  6-C ) :   0.9902 B(  0-C , 18-C ) :   1.1138
B(  1-C ,  2-C ) :   1.1514 B(  1-C ,  4-C ) :   1.1500 B(  2-C ,  3-N ) :   2.9612
B(  4-C ,  5-N ) :   2.9571 B(  6-C ,  7-C ) :   1.2779 B(  6-C , 11-C ) :   1.4204
B(  7-C ,  8-C ) :   1.4310 B(  7-C , 16-C ) :   0.9356 B(  8-C ,  9-C ) :   1.2412
B(  8-C , 68-H ) :   1.0154 B(  9-C , 10-C ) :   1.3153 B(  9-C , 14-C ) :   1.1600
B( 10-C , 11-C ) :   1.3226 B( 10-C , 12-S ) :   1.0826 B( 11-C , 69-H ) :   0.9784
B( 12-S , 13-C ) :   1.0856 B( 13-C , 14-C ) :   1.6205 B( 13-C , 15-Br) :   1.0133
B( 14-C , 70-H ) :   1.0001 B( 16-C , 17-O ) :   2.1879 B( 16-C , 18-C ) :   0.9636
B( 18-C , 19-C ) :   1.4843 B( 19-C , 20-C ) :   1.2559 B( 19-C , 71-H ) :   0.9423
B( 20-C , 21-C ) :   1.4191 B( 20-C , 72-H ) :   0.9790 B( 21-C , 22-C ) :   1.1749
B( 21-C , 25-S ) :   1.0879 B( 22-C , 23-C ) :   1.5454 B( 22-C , 73-H ) :   1.0018
B( 23-C , 24-C ) :   1.2103 B( 23-C , 74-H ) :   0.9956 B( 24-C , 25-S ) :   1.0506
B( 24-C , 26-C ) :   1.4683 B( 26-C , 27-C ) :   1.1717 B( 26-C , 30-S ) :   1.1130
B( 27-C , 28-C ) :   1.6070 B( 27-C , 75-H ) :   0.9933 B( 28-C , 29-C ) :   1.1292
B( 28-C , 76-H ) :   0.9982 B( 29-C , 30-S ) :   1.0692 B( 29-C , 31-C ) :   1.6011
B( 31-C , 32-C ) :   1.1531 B( 31-C , 77-H ) :   0.9483 B( 32-C , 33-S ) :   1.0972
B( 32-C , 34-C ) :   1.4872 B( 33-S , 43-C ) :   1.1213 B( 34-C , 35-C ) :   0.8994
B( 34-C , 42-C ) :   1.2615 B( 35-C , 36-O ) :   2.1436 B( 35-C , 37-N ) :   1.0846
B( 37-N , 38-C ) :   0.9125 B( 37-N , 40-C ) :   1.0693 B( 38-C , 39-C ) :   1.1201
B( 38-C , 78-H ) :   0.9389 B( 38-C , 79-H ) :   0.9394 B( 39-C , 80-H ) :   0.9682
B( 39-C , 81-H ) :   0.9705 B( 39-C , 82-H ) :   0.9656 B( 40-C , 41-O ) :   2.1812
B( 40-C , 42-C ) :   0.8828 B( 42-C , 43-C ) :   1.5702 B( 43-C , 44-C ) :   1.0837
B( 44-C , 45-O ) :   1.1624 B( 44-C , 46-C ) :   1.4923 B( 45-O , 53-C ) :   1.1295
B( 46-C , 47-C ) :   0.8691 B( 46-C , 52-C ) :   1.2782 B( 47-C , 48-O ) :   2.2444
B( 47-C , 49-N ) :   1.0814 B( 49-N , 50-C ) :   1.0963 B( 49-N , 83-H ) :   0.9164
B( 50-C , 51-O ) :   2.1637 B( 50-C , 52-C ) :   0.8952 B( 52-C , 53-C ) :   1.3852
B( 53-C , 54-C ) :   1.1796 B( 54-C , 55-C ) :   1.5637 B( 54-C , 84-H ) :   0.9749
B( 55-C , 56-C ) :   1.1854 B( 55-C , 85-H ) :   0.9525 B( 56-C , 57-C ) :   1.5320
B( 56-C , 86-H ) :   0.9839 B( 57-C , 58-C ) :   1.1398 B( 57-C , 61-S ) :   1.0602
B( 58-C , 59-C ) :   1.5958 B( 58-C , 87-H ) :   0.9995 B( 59-C , 60-C ) :   1.1783
B( 59-C , 88-H ) :   0.9933 B( 60-C , 61-S ) :   1.0359 B( 60-C , 62-C ) :   1.5428
B( 62-C , 63-C ) :   1.1504 B( 62-C , 66-S ) :   1.0592 B( 63-C , 64-C ) :   1.6628
B( 63-C , 89-H ) :   0.9918 B( 64-C , 65-C ) :   1.0782 B( 64-C , 90-H ) :   0.9933
B( 65-C , 66-S ) :   1.0065 B( 65-C , 67-C ) :   1.8650 B( 67-C , 91-H ) :   0.9512
B( 67-C , 92-H ) :   0.9414

-----------------------------------------------------------------------------
         ABSORPTION SPECTRUM VIA TRANSITION ELECTRIC DIPOLE MOMENTS
-----------------------------------------------------------------------------
State   Energy  Wavelength   fosc         T2         TX        TY        TZ
        (cm-1)    (nm)                  (au**2)     (au)      (au)      (au)
-----------------------------------------------------------------------------
   0   11062.5    904.0   1.371382987  40.81137  -5.99401  -0.62307  -2.12014
   1   14652.4    682.5   0.448088137  10.06769  -0.19032   3.05591  -0.83240
   2   16501.2    606.0   1.024924481  20.44801   2.74644  -3.08576   1.83932
   3   21142.2    473.0   0.090612307   1.41095   0.64073  -0.94499   0.32774
   4   23030.4    434.2   0.387149849   5.53418   1.07713  -2.02525   0.52188
   5   23327.0    428.7   0.031080994   0.43864   0.25062  -0.37140   0.48775
   6   23688.5    422.1   0.010303605   0.14319  -0.30490   0.18736   0.12299
   7   24500.1    408.2   0.067807424   0.91114  -0.93207   0.19829   0.05539
   8   25146.9    397.7   0.019573799   0.25625   0.08757   0.49836  -0.01493
   9   25463.7    392.7   0.255377956   3.30170   1.04361   1.47045   0.22436
  10   26277.1    380.6   0.026235749   0.32869  -0.32671   0.41325   0.22623
  11   26772.0    373.5   0.000313713   0.00386   0.03821  -0.04874  -0.00470
  12   26999.5    370.4   0.090232166   1.10022  -0.78340   0.69394  -0.07037
  13   28067.1    356.3   0.042477724   0.49824   0.23271  -0.66467  -0.04799
  14   28322.4    353.1   0.005635300   0.06550   0.09205   0.07844   0.22556
  15   28698.4    348.5   0.207563861   2.38106   0.18305  -1.53102  -0.05947
  16   29624.3    337.6   0.509162151   5.65828  -0.10339   0.90886   2.19581
  17   30035.2    332.9   0.096374608   1.05635   0.21638   0.56462   0.83111
  18   30434.5    328.6   0.127072370   1.37455  -0.60685  -0.99365  -0.13764
  19   31106.3    321.5   0.011070571   0.11716  -0.27902   0.15490  -0.12376
  20   31730.7    315.2   0.318337589   3.30281  -1.62327  -0.74166  -0.34315
  21   32192.3    310.6   0.003411327   0.03489   0.17448   0.06443   0.01704
  22   32285.0    309.7   0.200799078   2.04756  -1.27251  -0.55403  -0.34830
  23   32612.3    306.6   0.126308183   1.27504  -1.12670   0.03490  -0.06615
  24   32777.8    305.1   0.021659308   0.21754  -0.42379  -0.17400   0.08753
  25   34114.5    293.1   0.035716400   0.34467   0.39403  -0.41793  -0.12144
  26   34218.7    292.2   0.038249599   0.36799   0.01941   0.30597   0.52345
  27   34638.2    288.7   0.020985442   0.19945   0.29417  -0.06384   0.32991
  28   35027.9    285.5   0.089531240   0.84147  -0.55576   0.65949  -0.31251
  29   35208.4    284.0   0.065560387   0.61301  -0.59361   0.50775   0.05329
  30   35407.3    282.4   0.048803941   0.45377  -0.56341   0.36282   0.06858
  31   35471.0    281.9   0.000271077   0.00252  -0.01354   0.03780   0.03006
  32   35549.7    281.3   0.023393675   0.21664  -0.11086   0.23685  -0.38504
  33   35792.5    279.4   0.022401699   0.20605   0.25038  -0.23343  -0.29810
  34   36164.6    276.5   0.003913619   0.03563   0.02505  -0.07184   0.17274
  35   36335.0    275.2   0.003905458   0.03539  -0.17353   0.05095  -0.05173
  36   36427.1    274.5   0.079908760   0.72218  -0.77418  -0.22638  -0.26755
  37   36629.9    273.0   0.003584287   0.03221  -0.16018   0.08051  -0.00858
  38   36918.4    270.9   0.014965173   0.13345   0.28240  -0.22428  -0.05831
  39   37088.1    269.6   0.005031687   0.04466   0.16243  -0.09390  -0.09728
  40   37536.3    266.4   0.034170334   0.29969  -0.22617  -0.47847  -0.14002
  41   37573.7    266.1   0.241093093   2.11240   1.10652  -0.93484   0.11863
  42   37941.1    263.6   0.004679175   0.04060   0.09540  -0.17723   0.00952
  43   38030.9    262.9   0.012212978   0.10572   0.18549  -0.13023   0.23314
  44   38580.3    259.2   0.038379632   0.32750  -0.35805  -0.00295  -0.44642
  45   38649.0    258.7   0.022225312   0.18931   0.03334  -0.39870   0.17101
  46   38844.0    257.4   0.033764861   0.28616  -0.26011   0.16625  -0.43688
  47   39151.1    255.4   0.052819156   0.44414   0.43356  -0.49932   0.08276
  48   39465.5    253.4   0.046084835   0.38443   0.00643   0.58813   0.19618
  49   39716.5    251.8   0.032314267   0.26785  -0.17785  -0.47987  -0.07714
  50   39923.7    250.5   0.039107995   0.32249  -0.48754   0.16680  -0.23868

FINAL SINGLE POINT ENERGY     -7587.875103089095

DIPOLE MOMENT
-------------
                                X             Y             Z
Electronic contribution:   -175.01385     -42.93641     -56.27746
Nuclear contribution   :    176.54270      45.82043      58.87927
                        -----------------------------------------
Total Dipole Moment    :      1.52886       2.88402       2.60181
                        -----------------------------------------
Magnitude (a.u.)       :      4.17425
Magnitude (Debye)      :     10.61011

Rotational constants in cm-1:     0.001073     0.000210     0.000183
Rotational constants in MHz :    32.180344     6.299144     5.484362

                             ****ORCA TERMINATED NORMALLY****
TOTAL RUN TIME: 0 days 0 hours 9 minutes 44 seconds 988 msec
