                         Program Version 4.2.0 -  RELEASE  -
|  1> # ORCA input file
|  2> # SCF done       -206.933139503226          0.000717535073
|  3> ! CAM-B3LYP def2-SVP def2/J RIJCOSX Grid4 TightSCF
|  4> %maxcore 5000
|  5> %tddft
|  6>     Mode sTDDFT
|  7>     Ethresh 5.0
|  8>     maxcore 5000
|  9> end
| 10>
| 11> %pal
| 12>   nprocs 6
| 13>   end
| 14> * xyz 0 1
| 15>    C       -6.01893        -0.82345         1.44043
| 16>    C       -6.68845        -0.21568         2.46872
| 17>    C       -6.86909        -0.79011         3.74539
| 18>    N       -7.04043        -1.20206         4.80236
| 19>    C       -7.30433         1.05214         2.39092
| 20>    N       -7.83655         2.06891         2.39593
| 21>    C       -5.44274        -2.16003         1.46450
| 22>    C       -4.93211        -2.46446         0.17761
| 23>    C       -4.32476        -3.66231        -0.11408
| 24>    C       -4.22205        -4.60862         0.91009
| 25>    C       -4.73482        -4.29612         2.19361
| 26>    C       -5.34436        -3.08389         2.48974
| 27>    S       -4.49698        -5.60305         3.31193
| 28>    C       -3.72427        -6.53972         2.06027
| 29>    C       -3.64733        -5.90761         0.86444
| 30>   Br       -3.09005        -8.25920         2.45089
| 31>    C       -5.14408        -1.32234        -0.72667
| 32>    O       -4.72807        -1.20533        -1.85496
| 33>    C       -5.83643        -0.28578         0.10232
| 34>    C       -6.06338         0.98846        -0.30611
| 35>    C       -6.06236         1.38951        -1.67238
| 36>    O       -5.74032         2.66619        -2.00110
| 37>    C       -6.43717         0.72531        -2.82386
| 38>    C       -6.98802        -0.53855        -3.34638
| 39>    O       -7.34147        -1.53900        -2.78416
| 40>    N       -7.07566        -0.30672        -4.71338
| 41>    C       -6.68947         0.96513        -5.13969
| 42>    O       -6.68906         1.34070        -6.27818
| 43>    C       -6.30976         1.64322        -3.88869
| 44>    C       -5.86418         2.83538        -3.34249
| 45>    C       -5.52667         4.07165        -3.95714
| 46>    C       -4.96487         5.09655        -3.27189
| 47>    C       -4.59083         6.31317        -3.91616
| 48>    O       -4.89023         6.44941        -5.21049
| 49>    C       -4.43716         7.64197        -5.63818
| 50>    C       -3.80920         8.32705        -4.58973
| 51>    C       -3.91399         7.45573        -3.46904
| 52>    C       -3.37660         7.66770        -2.09447
| 53>    F       -3.53381         6.60675        -1.29580
| 54>    F       -2.05421         7.92734        -2.09403
| 55>    F       -3.95899         8.69760        -1.45198
| 56>    O       -3.27702         9.52867        -4.79359
| 57>    C       -2.87494        10.35243        -3.71003
| 58>    C       -4.68505         7.99842        -6.98714
| 59>    O       -4.15447         9.10852        -7.53648
| 60>    C       -5.46235         7.35414        -7.93214
| 61>    C       -6.33504         6.19852        -8.16848
| 62>    O       -6.67133         5.30033        -7.44643
| 63>    N       -6.73213         6.36590        -9.49604
| 64>    C       -6.22591         7.49091       -10.14051
| 65>    O       -6.45001         7.80365       -11.27824
| 66>    C       -5.39880         8.13697        -9.10720
| 67>    C       -4.58063         9.21639        -8.83058
| 68>    C       -4.16765        10.31865        -9.62043
| 69>    C       -3.29596        11.24422        -9.14667
| 70>    C       -2.86421        12.37300        -9.88063
| 71>    C       -2.08358        13.38227        -9.40516
| 72>    C       -1.62037        13.66641        -8.06238
| 73>    C       -2.28283        13.39598        -6.89351
| 74>    C       -1.76805        13.67674        -5.61171
| 75>    N       -1.39045        13.82799        -4.53787
| 76>    C       -3.59968        12.89019        -6.81319
| 77>    N       -4.68547        12.54770        -6.67091
| 78>    C       -0.41589        14.47941        -8.18678
| 79>    C       -0.27820        14.88590        -9.53936
| 80>    C       -1.36215        14.28635       -10.34415
| 81>    O       -1.59064        14.44298       -11.51978
| 82>    C        0.74614        15.69707        -9.96356
| 83>    C        1.68310        16.11747        -9.01345
| 84>    C        1.54190        15.69806        -7.66797
| 85>    C        0.50105        14.88551        -7.23586
| 86>    S        2.81564        16.32332        -6.66664
| 87>    C        3.51015        17.13179        -8.04695
| 88>    C        2.82493        16.94305        -9.20019
| 89>   Br        5.07527        18.14183        -7.83575
| 90>    H       -3.94658        -3.86291        -1.10396
| 91>    H       -5.71270        -2.89069         3.48340
| 92>    H       -3.20286        -6.33822        -0.01409
| 93>    H       -6.25816         1.77701         0.40908
| 94>    H       -7.40709        -1.01019        -5.35867
| 95>    H       -5.72557         4.14611        -5.01723
| 96>    H       -4.77082         4.99601        -2.21660
| 97>    H       -2.63199        11.31534        -4.15538
| 98>    H       -1.98827         9.95812        -3.21124
| 99>    H       -3.68378        10.48863        -2.99093
|100>    H       -7.34780         5.71160        -9.95859
|101>    H       -4.60461        10.39277       -10.60535
|102>    H       -2.89168        11.08724        -8.15676
|103>    H       -3.10723        12.41390       -10.93645
|104>    H        0.82369        15.99782       -10.99650
|105>    H        0.43630        14.58625        -6.20263
|106>    H        3.11273        17.36673       -10.14492
|107> *
|108>
|109>                          ****END OF INPUT****

CARTESIAN COORDINATES (ANGSTROEM)
---------------------------------
  C     -6.018930   -0.823450    1.440430
  C     -6.688450   -0.215680    2.468720
  C     -6.869090   -0.790110    3.745390
  N     -7.040430   -1.202060    4.802360
  C     -7.304330    1.052140    2.390920
  N     -7.836550    2.068910    2.395930
  C     -5.442740   -2.160030    1.464500
  C     -4.932110   -2.464460    0.177610
  C     -4.324760   -3.662310   -0.114080
  C     -4.222050   -4.608620    0.910090
  C     -4.734820   -4.296120    2.193610
  C     -5.344360   -3.083890    2.489740
  S     -4.496980   -5.603050    3.311930
  C     -3.724270   -6.539720    2.060270
  C     -3.647330   -5.907610    0.864440
  Br    -3.090050   -8.259200    2.450890
  C     -5.144080   -1.322340   -0.726670
  O     -4.728070   -1.205330   -1.854960
  C     -5.836430   -0.285780    0.102320
  C     -6.063380    0.988460   -0.306110
  C     -6.062360    1.389510   -1.672380
  O     -5.740320    2.666190   -2.001100
  C     -6.437170    0.725310   -2.823860
  C     -6.988020   -0.538550   -3.346380
  O     -7.341470   -1.539000   -2.784160
  N     -7.075660   -0.306720   -4.713380
  C     -6.689470    0.965130   -5.139690
  O     -6.689060    1.340700   -6.278180
  C     -6.309760    1.643220   -3.888690
  C     -5.864180    2.835380   -3.342490
  C     -5.526670    4.071650   -3.957140
  C     -4.964870    5.096550   -3.271890
  C     -4.590830    6.313170   -3.916160
  O     -4.890230    6.449410   -5.210490
  C     -4.437160    7.641970   -5.638180
  C     -3.809200    8.327050   -4.589730
  C     -3.913990    7.455730   -3.469040
  C     -3.376600    7.667700   -2.094470
  F     -3.533810    6.606750   -1.295800
  F     -2.054210    7.927340   -2.094030
  F     -3.958990    8.697600   -1.451980
  O     -3.277020    9.528670   -4.793590
  C     -2.874940   10.352430   -3.710030
  C     -4.685050    7.998420   -6.987140
  O     -4.154470    9.108520   -7.536480
  C     -5.462350    7.354140   -7.932140
  C     -6.335040    6.198520   -8.168480
  O     -6.671330    5.300330   -7.446430
  N     -6.732130    6.365900   -9.496040
  C     -6.225910    7.490910  -10.140510
  O     -6.450010    7.803650  -11.278240
  C     -5.398800    8.136970   -9.107200
  C     -4.580630    9.216390   -8.830580
  C     -4.167650   10.318650   -9.620430
  C     -3.295960   11.244220   -9.146670
  C     -2.864210   12.373000   -9.880630
  C     -2.083580   13.382270   -9.405160
  C     -1.620370   13.666410   -8.062380
  C     -2.282830   13.395980   -6.893510
  C     -1.768050   13.676740   -5.611710
  N     -1.390450   13.827990   -4.537870
  C     -3.599680   12.890190   -6.813190
  N     -4.685470   12.547700   -6.670910
  C     -0.415890   14.479410   -8.186780
  C     -0.278200   14.885900   -9.539360
  C     -1.362150   14.286350  -10.344150
  O     -1.590640   14.442980  -11.519780
  C      0.746140   15.697070   -9.963560
  C      1.683100   16.117470   -9.013450
  C      1.541900   15.698060   -7.667970
  C      0.501050   14.885510   -7.235860
  S      2.815640   16.323320   -6.666640
  C      3.510150   17.131790   -8.046950
  C      2.824930   16.943050   -9.200190
  Br     5.075270   18.141830   -7.835750
  H     -3.946580   -3.862910   -1.103960
  H     -5.712700   -2.890690    3.483400
  H     -3.202860   -6.338220   -0.014090
  H     -6.258160    1.777010    0.409080
  H     -7.407090   -1.010190   -5.358670
  H     -5.725570    4.146110   -5.017230
  H     -4.770820    4.996010   -2.216600
  H     -2.631990   11.315340   -4.155380
  H     -1.988270    9.958120   -3.211240
  H     -3.683780   10.488630   -2.990930
  H     -7.347800    5.711600   -9.958590
  H     -4.604610   10.392770  -10.605350
  H     -2.891680   11.087240   -8.156760
  H     -3.107230   12.413900  -10.936450
  H      0.823690   15.997820  -10.996500
  H      0.436300   14.586250   -6.202630
  H      3.112730   17.366730  -10.144920

 Total Charge           Charge          ....    0
 Multiplicity           Mult            ....    1
 Number of Electrons    NEL             ....  580
 Basis Dimension        Dim             .... 1179

ORBITAL ENERGIES
----------------

  NO   OCC          E(Eh)            E(eV)
   0   2.0000    -482.889725    -13140.0974
   1   2.0000    -482.889046    -13140.0790
   2   2.0000     -88.980707     -2421.2881
   3   2.0000     -88.979744     -2421.2619
   4   2.0000     -62.567448     -1702.5468
   5   2.0000     -62.566760     -1702.5281
   6   2.0000     -56.401405     -1534.7603
   7   2.0000     -56.400713     -1534.7414
   8   2.0000     -56.398677     -1534.6860
   9   2.0000     -56.398646     -1534.6852
  10   2.0000     -56.397989     -1534.6673
  11   2.0000     -56.397962     -1534.6666
  12   2.0000     -24.819383      -675.3698
  13   2.0000     -24.812251      -675.1757
  14   2.0000     -24.811209      -675.1473
  15   2.0000     -19.323392      -525.8162
  16   2.0000     -19.322583      -525.7942
  17   2.0000     -19.321112      -525.7542
  18   2.0000     -19.275524      -524.5137
  19   2.0000     -19.222877      -523.0811
  20   2.0000     -19.220109      -523.0057
  21   2.0000     -19.216611      -522.9106
  22   2.0000     -19.216095      -522.8965
  23   2.0000     -19.215258      -522.8738
  24   2.0000     -19.213890      -522.8365
  25   2.0000     -14.458800      -393.4440
  26   2.0000     -14.458278      -393.4298
  27   2.0000     -14.427113      -392.5817
  28   2.0000     -14.422081      -392.4448
  29   2.0000     -14.421802      -392.4372
  30   2.0000     -14.419419      -392.3723
  31   2.0000     -10.540165      -286.8125
  32   2.0000     -10.406435      -283.1735
  33   2.0000     -10.405179      -283.1393
  34   2.0000     -10.404891      -283.1315
  35   2.0000     -10.403571      -283.0956
  36   2.0000     -10.381033      -282.4823
  37   2.0000     -10.377320      -282.3812
  38   2.0000     -10.376646      -282.3629
  39   2.0000     -10.375102      -282.3209
  40   2.0000     -10.374747      -282.3112
  41   2.0000     -10.370971      -282.2085
  42   2.0000     -10.370293      -282.1900
  43   2.0000     -10.367279      -282.1080
  44   2.0000     -10.363748      -282.0119
  45   2.0000     -10.363219      -281.9975
  46   2.0000     -10.356620      -281.8180
  47   2.0000     -10.351446      -281.6772
  48   2.0000     -10.351199      -281.6704
  49   2.0000     -10.349035      -281.6116
  50   2.0000     -10.348438      -281.5953
  51   2.0000     -10.331528      -281.1352
  52   2.0000     -10.330650      -281.1113
  53   2.0000     -10.329942      -281.0920
  54   2.0000     -10.329888      -281.0905
  55   2.0000     -10.328903      -281.0637
  56   2.0000     -10.324246      -280.9370
  57   2.0000     -10.323965      -280.9294
  58   2.0000     -10.321929      -280.8740
  59   2.0000     -10.320557      -280.8366
  60   2.0000     -10.319983      -280.8210
  61   2.0000     -10.316573      -280.7282
  62   2.0000     -10.315182      -280.6904
  63   2.0000     -10.314173      -280.6629
  64   2.0000     -10.314018      -280.6587
  65   2.0000     -10.313025      -280.6317
  66   2.0000     -10.312527      -280.6181
  67   2.0000     -10.312182      -280.6088
  68   2.0000     -10.310740      -280.5695
  69   2.0000     -10.310677      -280.5678
  70   2.0000     -10.308694      -280.5138
  71   2.0000     -10.306726      -280.4603
  72   2.0000     -10.306291      -280.4484
  73   2.0000     -10.305660      -280.4313
  74   2.0000     -10.304252      -280.3929
  75   2.0000     -10.302815      -280.3538
  76   2.0000     -10.301656      -280.3223
  77   2.0000     -10.301330      -280.3134
  78   2.0000     -10.300588      -280.2933
  79   2.0000     -10.300571      -280.2928
  80   2.0000     -10.298748      -280.2432
  81   2.0000     -10.297829      -280.2182
  82   2.0000     -10.296842      -280.1913
  83   2.0000      -8.796886      -239.3754
  84   2.0000      -8.796199      -239.3568
  85   2.0000      -8.076740      -219.7793
  86   2.0000      -8.075740      -219.7520
  87   2.0000      -6.633221      -180.4991
  88   2.0000      -6.632501      -180.4795
  89   2.0000      -6.618605      -180.1014
  90   2.0000      -6.618394      -180.0956
  91   2.0000      -6.617947      -180.0835
  92   2.0000      -6.617714      -180.0772
  93   2.0000      -6.046421      -164.5315
  94   2.0000      -6.045418      -164.5042
  95   2.0000      -6.042159      -164.4155
  96   2.0000      -6.041143      -164.3878
  97   2.0000      -6.037949      -164.3009
  98   2.0000      -6.036975      -164.2744
  99   2.0000      -2.749066       -74.8059
 100   2.0000      -2.748395       -74.7876
 101   2.0000      -2.744992       -74.6950
 102   2.0000      -2.744841       -74.6909
 103   2.0000      -2.744283       -74.6757
 104   2.0000      -2.744115       -74.6712
 105   2.0000      -2.733213       -74.3745
 106   2.0000      -2.733202       -74.3742
 107   2.0000      -2.732533       -74.3560
 108   2.0000      -2.732529       -74.3559
 109   2.0000      -1.406013       -38.2596
 110   2.0000      -1.309134       -35.6233
 111   2.0000      -1.303025       -35.4571
 112   2.0000      -1.251002       -34.0415
 113   2.0000      -1.240452       -33.7544
 114   2.0000      -1.238361       -33.6975
 115   2.0000      -1.179640       -32.0996
 116   2.0000      -1.161421       -31.6039
 117   2.0000      -1.160300       -31.5734
 118   2.0000      -1.143130       -31.1061
 119   2.0000      -1.140077       -31.0231
 120   2.0000      -1.137209       -30.9450
 121   2.0000      -1.135604       -30.9014
 122   2.0000      -1.048183       -28.5225
 123   2.0000      -1.047483       -28.5035
 124   2.0000      -1.029609       -28.0171
 125   2.0000      -1.028599       -27.9896
 126   2.0000      -1.020416       -27.7669
 127   2.0000      -1.018964       -27.7274
 128   2.0000      -1.002185       -27.2708
 129   2.0000      -1.000501       -27.2250
 130   2.0000      -0.996003       -27.1026
 131   2.0000      -0.995627       -27.0924
 132   2.0000      -0.957043       -26.0425
 133   2.0000      -0.952652       -25.9230
 134   2.0000      -0.949410       -25.8348
 135   2.0000      -0.943239       -25.6668
 136   2.0000      -0.938300       -25.5325
 137   2.0000      -0.933394       -25.3989
 138   2.0000      -0.931668       -25.3520
 139   2.0000      -0.922325       -25.0978
 140   2.0000      -0.914510       -24.8851
 141   2.0000      -0.913893       -24.8683
 142   2.0000      -0.906274       -24.6610
 143   2.0000      -0.891991       -24.2723
 144   2.0000      -0.891714       -24.2648
 145   2.0000      -0.890842       -24.2410
 146   2.0000      -0.877278       -23.8720
 147   2.0000      -0.864373       -23.5208
 148   2.0000      -0.842096       -22.9146
 149   2.0000      -0.838180       -22.8080
 150   2.0000      -0.834186       -22.6994
 151   2.0000      -0.833817       -22.6893
 152   2.0000      -0.811176       -22.0732
 153   2.0000      -0.803730       -21.8706
 154   2.0000      -0.792529       -21.5658
 155   2.0000      -0.781432       -21.2638
 156   2.0000      -0.776675       -21.1344
 157   2.0000      -0.771816       -21.0022
 158   2.0000      -0.771093       -20.9825
 159   2.0000      -0.767481       -20.8842
 160   2.0000      -0.764714       -20.8089
 161   2.0000      -0.759626       -20.6705
 162   2.0000      -0.743631       -20.2352
 163   2.0000      -0.734436       -19.9850
 164   2.0000      -0.723696       -19.6928
 165   2.0000      -0.712911       -19.3993
 166   2.0000      -0.710617       -19.3369
 167   2.0000      -0.709009       -19.2931
 168   2.0000      -0.701698       -19.0942
 169   2.0000      -0.699973       -19.0472
 170   2.0000      -0.695548       -18.9268
 171   2.0000      -0.691258       -18.8101
 172   2.0000      -0.687514       -18.7082
 173   2.0000      -0.680962       -18.5299
 174   2.0000      -0.672483       -18.2992
 175   2.0000      -0.672040       -18.2871
 176   2.0000      -0.664409       -18.0795
 177   2.0000      -0.661371       -17.9968
 178   2.0000      -0.651667       -17.7328
 179   2.0000      -0.637131       -17.3372
 180   2.0000      -0.631303       -17.1786
 181   2.0000      -0.629577       -17.1317
 182   2.0000      -0.627145       -17.0655
 183   2.0000      -0.620235       -16.8774
 184   2.0000      -0.613958       -16.7066
 185   2.0000      -0.609982       -16.5985
 186   2.0000      -0.608404       -16.5555
 187   2.0000      -0.607460       -16.5298
 188   2.0000      -0.601012       -16.3544
 189   2.0000      -0.600086       -16.3292
 190   2.0000      -0.599201       -16.3051
 191   2.0000      -0.597482       -16.2583
 192   2.0000      -0.593280       -16.1440
 193   2.0000      -0.590295       -16.0627
 194   2.0000      -0.585323       -15.9274
 195   2.0000      -0.581888       -15.8340
 196   2.0000      -0.579022       -15.7560
 197   2.0000      -0.572219       -15.5709
 198   2.0000      -0.567652       -15.4466
 199   2.0000      -0.563346       -15.3294
 200   2.0000      -0.562723       -15.3125
 201   2.0000      -0.560810       -15.2604
 202   2.0000      -0.556950       -15.1554
 203   2.0000      -0.556412       -15.1407
 204   2.0000      -0.555319       -15.1110
 205   2.0000      -0.551823       -15.0159
 206   2.0000      -0.550616       -14.9830
 207   2.0000      -0.548779       -14.9330
 208   2.0000      -0.546585       -14.8733
 209   2.0000      -0.545052       -14.8316
 210   2.0000      -0.543495       -14.7893
 211   2.0000      -0.541356       -14.7310
 212   2.0000      -0.540715       -14.7136
 213   2.0000      -0.530965       -14.4483
 214   2.0000      -0.530378       -14.4323
 215   2.0000      -0.529979       -14.4215
 216   2.0000      -0.522790       -14.2258
 217   2.0000      -0.521346       -14.1865
 218   2.0000      -0.520740       -14.1701
 219   2.0000      -0.519666       -14.1408
 220   2.0000      -0.518277       -14.1030
 221   2.0000      -0.516888       -14.0652
 222   2.0000      -0.515999       -14.0411
 223   2.0000      -0.513201       -13.9649
 224   2.0000      -0.512542       -13.9470
 225   2.0000      -0.511240       -13.9115
 226   2.0000      -0.508907       -13.8481
 227   2.0000      -0.501881       -13.6569
 228   2.0000      -0.500542       -13.6204
 229   2.0000      -0.500366       -13.6156
 230   2.0000      -0.499947       -13.6042
 231   2.0000      -0.499264       -13.5857
 232   2.0000      -0.493594       -13.4314
 233   2.0000      -0.488038       -13.2802
 234   2.0000      -0.486894       -13.2490
 235   2.0000      -0.485722       -13.2172
 236   2.0000      -0.483686       -13.1618
 237   2.0000      -0.482852       -13.1391
 238   2.0000      -0.479678       -13.0527
 239   2.0000      -0.475349       -12.9349
 240   2.0000      -0.471807       -12.8385
 241   2.0000      -0.465796       -12.6750
 242   2.0000      -0.463159       -12.6032
 243   2.0000      -0.462805       -12.5936
 244   2.0000      -0.456179       -12.4133
 245   2.0000      -0.454729       -12.3738
 246   2.0000      -0.454439       -12.3659
 247   2.0000      -0.451737       -12.2924
 248   2.0000      -0.451272       -12.2797
 249   2.0000      -0.450331       -12.2541
 250   2.0000      -0.449570       -12.2334
 251   2.0000      -0.449514       -12.2319
 252   2.0000      -0.444015       -12.0823
 253   2.0000      -0.443385       -12.0651
 254   2.0000      -0.435532       -11.8514
 255   2.0000      -0.433742       -11.8027
 256   2.0000      -0.432540       -11.7700
 257   2.0000      -0.431041       -11.7292
 258   2.0000      -0.430173       -11.7056
 259   2.0000      -0.421764       -11.4768
 260   2.0000      -0.421571       -11.4715
 261   2.0000      -0.416283       -11.3276
 262   2.0000      -0.415075       -11.2948
 263   2.0000      -0.409411       -11.1406
 264   2.0000      -0.396141       -10.7796
 265   2.0000      -0.393005       -10.6942
 266   2.0000      -0.389636       -10.6025
 267   2.0000      -0.388696       -10.5769
 268   2.0000      -0.384903       -10.4737
 269   2.0000      -0.379079       -10.3153
 270   2.0000      -0.378261       -10.2930
 271   2.0000      -0.377504       -10.2724
 272   2.0000      -0.375336       -10.2134
 273   2.0000      -0.374016       -10.1775
 274   2.0000      -0.368197       -10.0191
 275   2.0000      -0.365201        -9.9376
 276   2.0000      -0.364496        -9.9184
 277   2.0000      -0.356723        -9.7069
 278   2.0000      -0.349928        -9.5220
 279   2.0000      -0.349504        -9.5105
 280   2.0000      -0.347084        -9.4446
 281   2.0000      -0.344313        -9.3692
 282   2.0000      -0.340065        -9.2536
 283   2.0000      -0.320783        -8.7289
 284   2.0000      -0.319582        -8.6963
 285   2.0000      -0.318323        -8.6620
 286   2.0000      -0.299605        -8.1527
 287   2.0000      -0.298797        -8.1307
 288   2.0000      -0.291649        -7.9362
 289   2.0000      -0.256657        -6.9840
 290   0.0000      -0.109450        -2.9783
 291   0.0000      -0.102150        -2.7796
 292   0.0000      -0.075172        -2.0455
 293   0.0000      -0.067890        -1.8474
 294   0.0000      -0.064519        -1.7556

MULLIKEN ATOMIC CHARGES
-----------------------
   0 C :    0.300386
   1 C :   -0.335599
   2 C :   -0.182683
   3 N :    0.154500
   4 C :   -0.199550
   5 N :    0.166407
   6 C :    0.022549
   7 C :   -0.021257
   8 C :   -0.061932
   9 C :    0.118913
  10 C :   -0.089720
  11 C :   -0.020570
  12 S :    0.189960
  13 C :   -0.124373
  14 C :    0.041809
  15 Br:    0.028764
  16 C :    0.165661
  17 O :   -0.142822
  18 C :   -0.070942
  19 C :   -0.036646
  20 C :    0.115778
  21 O :   -0.195910
  22 C :   -0.022356
  23 C :    0.185687
  24 O :   -0.138691
  25 N :   -0.164149
  26 C :    0.172090
  27 O :   -0.122929
  28 C :   -0.035523
  29 C :    0.088882
  30 C :   -0.005785
  31 C :   -0.043713
  32 C :    0.146044
  33 O :   -0.166320
  34 C :    0.064807
  35 C :    0.160150
  36 C :   -0.180485
  37 C :    0.521307
  38 F :   -0.145877
  39 F :   -0.160912
  40 F :   -0.158583
  41 O :   -0.277606
  42 C :    0.178895
  43 C :    0.116708
  44 O :   -0.192918
  45 C :   -0.070237
  46 C :    0.172453
  47 O :   -0.128074
  48 N :   -0.168859
  49 C :    0.165782
  50 O :   -0.132663
  51 C :   -0.014299
  52 C :    0.079186
  53 C :   -0.001113
  54 C :    0.014262
  55 C :    0.035416
  56 C :   -0.099999
  57 C :    0.271820
  58 C :   -0.329030
  59 C :   -0.159368
  60 N :    0.126371
  61 C :   -0.228609
  62 N :    0.180099
  63 C :    0.014555
  64 C :   -0.007695
  65 C :    0.139146
  66 O :   -0.136106
  67 C :   -0.068651
  68 C :    0.113799
  69 C :   -0.087300
  70 C :   -0.024395
  71 S :    0.187044
  72 C :   -0.125768
  73 C :    0.042330
  74 Br:    0.027500
  75 H :   -0.008377
  76 H :   -0.005389
  77 H :   -0.002019
  78 H :    0.040152
  79 H :    0.141413
  80 H :    0.046096
  81 H :    0.027826
  82 H :    0.038942
  83 H :    0.040051
  84 H :    0.038872
  85 H :    0.142767
  86 H :    0.024980
  87 H :    0.038203
  88 H :    0.020769
  89 H :   -0.006677
  90 H :   -0.005174
  91 H :   -0.001482
Sum of atomic charges:   -0.0000000

LOEWDIN ATOMIC CHARGES
----------------------
   0 C :    0.072578
   1 C :   -0.129835
   2 C :   -0.017891
   3 N :   -0.045703
   4 C :   -0.022933
   5 N :   -0.043444
   6 C :   -0.019750
   7 C :   -0.046816
   8 C :    0.027279
   9 C :   -0.030173
  10 C :   -0.142136
  11 C :   -0.008766
  12 S :    0.435681
  13 C :   -0.270038
  14 C :   -0.069376
  15 Br:    0.141013
  16 C :    0.089989
  17 O :   -0.128197
  18 C :   -0.062952
  19 C :    0.045142
  20 C :    0.050209
  21 O :    0.025876
  22 C :   -0.054005
  23 C :    0.088070
  24 O :   -0.147779
  25 N :   -0.000785
  26 C :    0.086855
  27 O :   -0.141320
  28 C :   -0.087720
  29 C :    0.075928
  30 C :   -0.005510
  31 C :   -0.023088
  32 C :    0.068124
  33 O :    0.055685
  34 C :   -0.023927
  35 C :    0.051284
  36 C :   -0.155836
  37 C :    0.172569
  38 F :   -0.043465
  39 F :   -0.059587
  40 F :   -0.058288
  41 O :   -0.073496
  42 C :    0.080091
  43 C :    0.071817
  44 O :    0.034021
  45 C :   -0.105126
  46 C :    0.086573
  47 O :   -0.150273
  48 N :   -0.004928
  49 C :    0.084381
  50 O :   -0.151308
  51 C :   -0.072415
  52 C :    0.055957
  53 C :    0.015522
  54 C :   -0.019259
  55 C :    0.066519
  56 C :   -0.085580
  57 C :    0.072260
  58 C :   -0.141205
  59 C :   -0.016862
  60 N :   -0.058201
  61 C :   -0.028469
  62 N :   -0.044268
  63 C :   -0.018852
  64 C :   -0.052021
  65 C :    0.082008
  66 O :   -0.136964
  67 C :    0.023937
  68 C :   -0.032065
  69 C :   -0.143193
  70 C :   -0.013119
  71 S :    0.433304
  72 C :   -0.270985
  73 C :   -0.069295
  74 Br:    0.139845
  75 H :    0.042439
  76 H :    0.041451
  77 H :    0.039550
  78 H :    0.053090
  79 H :    0.096793
  80 H :    0.055058
  81 H :    0.039522
  82 H :    0.031558
  83 H :    0.018387
  84 H :    0.021387
  85 H :    0.097036
  86 H :    0.051633
  87 H :    0.037161
  88 H :    0.047135
  89 H :    0.042422
  90 H :    0.040435
  91 H :    0.039628

  Mayer bond orders larger than 0.100000
B(  0-C ,  1-C ) :   1.6488 B(  0-C ,  6-C ) :   1.0146 B(  0-C , 18-C ) :   1.0613
B(  1-C ,  2-C ) :   1.1388 B(  1-C ,  4-C ) :   1.1426 B(  2-C ,  3-N ) :   2.9711
B(  4-C ,  5-N ) :   2.9886 B(  6-C ,  7-C ) :   1.2720 B(  6-C , 11-C ) :   1.4008
B(  7-C ,  8-C ) :   1.4248 B(  7-C , 16-C ) :   0.9467 B(  8-C ,  9-C ) :   1.2482
B(  8-C , 75-H ) :   1.0159 B(  9-C , 10-C ) :   1.2987 B(  9-C , 14-C ) :   1.1650
B( 10-C , 11-C ) :   1.3377 B( 10-C , 12-S ) :   1.0879 B( 11-C , 76-H ) :   0.9795
B( 12-S , 13-C ) :   1.0865 B( 13-C , 14-C ) :   1.6164 B( 13-C , 15-Br) :   1.0223
B( 14-C , 77-H ) :   1.0001 B( 16-C , 17-O ) :   2.2184 B( 16-C , 18-C ) :   0.9224
B( 18-C , 19-C ) :   1.6425 B( 19-C , 20-C ) :   1.1410 B( 19-C , 78-H ) :   0.9359
B( 20-C , 21-O ) :   1.1321 B( 20-C , 22-C ) :   1.4481 B( 21-O , 29-C ) :   1.1698
B( 22-C , 23-C ) :   0.8607 B( 22-C , 28-C ) :   1.3173 B( 23-C , 24-O ) :   2.2491
B( 23-C , 25-N ) :   1.0912 B( 25-N , 26-C ) :   1.0707 B( 25-N , 79-H ) :   0.9140
B( 26-C , 27-O ) :   2.2860 B( 26-C , 28-C ) :   0.8685 B( 28-C , 29-C ) :   1.3748
B( 29-C , 30-C ) :   1.1535 B( 30-C , 31-C ) :   1.6082 B( 30-C , 80-H ) :   0.9628
B( 31-C , 32-C ) :   1.1393 B( 31-C , 81-H ) :   0.9711 B( 32-C , 33-O ) :   1.2020
B( 32-C , 34-C ) :   0.1369 B( 32-C , 36-C ) :   1.3968 B( 33-O , 34-C ) :   1.1655
B( 34-C , 35-C ) :   1.3822 B( 34-C , 43-C ) :   1.0663 B( 35-C , 36-C ) :   1.2111
B( 35-C , 41-O ) :   1.2978 B( 36-C , 37-C ) :   0.9418 B( 37-C , 38-F ) :   1.1540
B( 37-C , 39-F ) :   1.1592 B( 37-C , 40-F ) :   1.1609 B( 41-O , 42-C ) :   0.9030
B( 42-C , 82-H ) :   0.9736 B( 42-C , 83-H ) :   0.9640 B( 42-C , 84-H ) :   0.9650
B( 43-C , 44-O ) :   1.2275 B( 43-C , 45-C ) :   1.3931 B( 44-O , 52-C ) :   1.1186
B( 45-C , 46-C ) :   0.8709 B( 45-C , 51-C ) :   1.2840 B( 46-C , 47-O ) :   2.2491
B( 46-C , 48-N ) :   1.0751 B( 48-N , 49-C ) :   1.0865 B( 48-N , 85-H ) :   0.9129
B( 49-C , 50-O ) :   2.2785 B( 49-C , 51-C ) :   0.8648 B( 51-C , 52-C ) :   1.3956
B( 52-C , 53-C ) :   1.1752 B( 53-C , 54-C ) :   1.6131 B( 53-C , 86-H ) :   0.9715
B( 54-C , 55-C ) :   1.1137 B( 54-C , 87-H ) :   0.9622 B( 55-C , 56-C ) :   1.6166
B( 55-C , 88-H ) :   0.9650 B( 56-C , 57-C ) :   1.0422 B( 56-C , 65-C ) :   0.9345
B( 57-C , 58-C ) :   1.6289 B( 57-C , 63-C ) :   1.0233 B( 58-C , 59-C ) :   1.1421
B( 58-C , 61-C ) :   1.1558 B( 59-C , 60-N ) :   2.9179 B( 61-C , 62-N ) :   3.0112
B( 63-C , 64-C ) :   1.2703 B( 63-C , 70-C ) :   1.4094 B( 64-C , 65-C ) :   0.9203
B( 64-C , 67-C ) :   1.4284 B( 65-C , 66-O ) :   2.2770 B( 67-C , 68-C ) :   1.2511
B( 67-C , 89-H ) :   1.0160 B( 68-C , 69-C ) :   1.3051 B( 68-C , 73-C ) :   1.1640
B( 69-C , 70-C ) :   1.3304 B( 69-C , 71-S ) :   1.0852 B( 70-C , 90-H ) :   0.9833
B( 71-S , 72-C ) :   1.0871 B( 72-C , 73-C ) :   1.6184 B( 72-C , 74-Br) :   1.0212
B( 73-C , 91-H ) :   1.0003

-----------------------------------------------------------------------------
         ABSORPTION SPECTRUM VIA TRANSITION ELECTRIC DIPOLE MOMENTS
-----------------------------------------------------------------------------
State   Energy  Wavelength   fosc         T2         TX        TY        TZ
        (cm-1)    (nm)                  (au**2)     (au)      (au)      (au)
-----------------------------------------------------------------------------
   0   16760.1    596.7   1.449844182  28.47867  -1.60112  -4.50330   2.37389
   1   19539.8    511.8   0.329666328   5.55432  -0.62322   0.72066  -2.15559
   2   24120.9    414.6   0.044747848   0.61074   0.01234   0.76365  -0.16558
   3   25327.8    394.8   0.060735377   0.78944  -0.25477  -0.00198   0.85119
   4   25949.7    385.4   0.195344208   2.47824   0.69802  -1.26569   0.62372
   5   26249.2    381.0   0.122923676   1.54168  -0.40267  -1.11298   0.37525
   6   26800.7    373.1   0.144317637   1.77275   0.76583   0.24659  -1.06087
   7   27451.6    364.3   0.026095236   0.31295  -0.13624  -0.16475  -0.51695
   8   28185.4    354.8   0.272494089   3.18280  -1.58625  -0.70259  -0.41590
   9   28587.1    349.8   0.044410927   0.51144   0.26494  -0.61571  -0.24931
  10   28955.8    345.4   0.042821234   0.48685  -0.37058   0.55145  -0.21312
  11   29484.0    339.2   0.341913119   3.81772  -0.36067  -1.80916   0.64389
  12   29849.2    335.0   0.013392629   0.14771   0.10740  -0.36902  -0.00057
  13   31847.0    314.0   0.083305585   0.86115  -0.30206  -0.67615  -0.55923
  14   31958.6    312.9   0.037879756   0.39021  -0.10423   0.59951   0.14119
  15   32424.6    308.4   0.863625324   8.76851  -1.22247  -2.57715  -0.79523
  16   32688.7    305.9   0.358022644   3.60569  -1.23568   1.43343  -0.15509
  17   32801.3    304.9   0.235852061   2.36714   1.24868  -0.10527  -0.89267
  18   32905.9    303.9   0.083900092   0.83939  -0.81047   0.09213   0.41718
  19   33393.2    299.5   0.145347642   1.43293  -0.79860  -0.23476   0.86026
  20   33601.0    297.6   0.044355378   0.43458   0.64214   0.07790  -0.12716
  21   34426.2    290.5   0.002845998   0.02722  -0.15596  -0.04885   0.02246
  22   34679.4    288.4   0.120445481   1.14339   0.65408   0.78698  -0.31021
  23   35080.3    285.1   0.324387585   3.04423   1.24504   1.04744   0.63007
  24   35628.1    280.7   0.086338982   0.79779  -0.44930  -0.72430  -0.26704
  25   35701.5    280.1   0.068972907   0.63602   0.43434   0.33464   0.57912
  26   36240.0    275.9   0.046128967   0.41905   0.11235  -0.52550   0.36094
  27   36430.9    274.5   0.082720828   0.74752  -0.70142  -0.50316  -0.04853
  28   36503.3    273.9   0.000102525   0.00092  -0.02071   0.02147  -0.00592
  29   37168.9    269.0   0.007972875   0.07062  -0.20334  -0.09143   0.14460
  30   37651.2    265.6   0.000858828   0.00751   0.01764  -0.01960   0.08255
  31   37779.5    264.7   0.086103205   0.75031   0.31587   0.23377   0.77193
  32   38120.8    262.3   0.168159846   1.45223   0.10790   0.00891   1.20021
  33   38794.5    257.8   0.018568231   0.15757   0.02975  -0.13919   0.37056
  34   38870.2    257.3   0.105754155   0.89569  -0.39157   0.41152   0.75697
  35   39004.7    256.4   0.062563546   0.52806   0.44348   0.57533   0.01958
  36   39523.6    253.0   0.171135069   1.42547   0.18942   0.10765  -1.17388
  37   39780.2    251.4   0.182113863   1.50713  -0.14330  -0.16660   1.20783
  38   40103.6    249.4   0.004136807   0.03396   0.00883  -0.15958   0.09174
  39   40219.1    248.6   0.038505697   0.31519  -0.25983   0.10284  -0.48693

FINAL SINGLE POINT ENERGY     -9311.994104464342

DIPOLE MOMENT
-------------
                                X             Y             Z
Electronic contribution:     85.90881     -27.67525      48.01706
Nuclear contribution   :    -83.04939      27.24406     -49.35880
                        -----------------------------------------
Total Dipole Moment    :      2.85942      -0.43119      -1.34174
                        -----------------------------------------
Magnitude (a.u.)       :      3.18786
Magnitude (Debye)      :      8.10291

Rotational constants in cm-1:     0.001259     0.000168     0.000158
Rotational constants in MHz :    37.753170     5.023990     4.731010

                             ****ORCA TERMINATED NORMALLY****
TOTAL RUN TIME: 0 days 0 hours 10 minutes 1 seconds 423 msec
