                         Program Version 4.2.0 -  RELEASE  -
|  1> # ORCA input file
|  2> # SCF done       -190.062139266923          0.004097875373
|  3> ! CAM-B3LYP def2-SVP def2/J RIJCOSX Grid4 TightSCF
|  4> %maxcore 5000
|  5> %tddft
|  6>     Mode sTDDFT
|  7>     Ethresh 5.0
|  8>     maxcore 5000
|  9> end
| 10>
| 11> %pal
| 12>   nprocs 6
| 13>   end
| 14> * xyz 0 1
| 15>    C       -4.68379         3.13382         5.98836
| 16>    C       -3.38981         3.56028         6.14364
| 17>    C       -2.58664         3.25315         7.26111
| 18>    N       -1.88790         3.02936         8.14492
| 19>    C       -2.67565         4.30298         5.17995
| 20>    N       -2.02693         4.88553         4.43216
| 21>    C       -5.42097         2.27461         6.90205
| 22>    C       -6.63714         1.90008         6.28250
| 23>    C       -7.56273         1.09613         6.90001
| 24>    C       -7.27113         0.63717         8.18910
| 25>    C       -6.05073         1.01445         8.79823
| 26>    C       -5.11515         1.83046         8.17484
| 27>    S       -5.89269         0.33402        10.38957
| 28>    C       -7.44637        -0.43983        10.21623
| 29>    C       -8.05383        -0.20087         9.03010
| 30>   Br       -8.11812        -1.48927        11.61757
| 31>    C       -6.71258         2.49644         4.93420
| 32>    O       -7.57396         2.28463         4.10937
| 33>    C       -5.52357         3.37682         4.83145
| 34>    C       -5.36166         4.43746         3.98397
| 35>    C       -6.10963         4.77502         2.83931
| 36>    S       -6.32850         6.46176         2.50144
| 37>    C       -7.42069         6.17469         1.19369
| 38>    C       -7.53305         4.79077         0.94893
| 39>    C       -6.77144         4.00328         1.87029
| 40>    C       -6.66075         2.61216         1.69457
| 41>    C       -7.39397         2.01291         0.71004
| 42>    F       -7.32154         0.68618         0.52686
| 43>    C       -8.20439         2.77663        -0.15613
| 44>    F       -8.90611         2.15233        -1.11646
| 45>    C       -8.25268         4.13938        -0.06936
| 46>    C       -8.06723         7.31913         0.66292
| 47>    C       -9.09624         7.39292        -0.21587
| 48>    C       -9.75301         8.63602        -0.45724
| 49>    C      -10.88724         8.84112        -1.15150
| 50>    C      -11.64116         7.82138        -1.93575
| 51>    C      -11.49777        10.23099        -1.12950
| 52>    N      -10.66250        11.20300        -1.79547
| 53>    C       -9.69365        11.87651        -1.17642
| 54>    C       -8.82271        12.73397        -1.79620
| 55>    C       -7.77675        13.41233        -1.15731
| 56>    C       -7.20268        13.13964         0.06560
| 57>    C       -6.23296        13.93160         0.71715
| 58>    C       -5.81670        13.44419         1.92299
| 59>    C       -6.41641        12.21945         2.27737
| 60>    S       -7.52977        11.70971         1.04333
| 61>    C       -6.24580        11.49152         3.44710
| 62>    C       -5.60187        11.89092         4.62853
| 63>    C       -5.72353        10.98682         5.64618
| 64>    C       -6.47394         9.83730         5.32321
| 65>    S       -6.96562         9.90790         3.65621
| 66>    C       -6.68807         8.78249         6.20652
| 67>    C       -7.39608         7.60380         6.08310
| 68>    C       -8.32888         7.11371         5.16882
| 69>    C       -9.21939         7.70826         4.23547
| 70>    C       -9.62026         9.03748         4.18406
| 71>    C      -10.31754         9.60233         3.10943
| 72>    N      -10.81375        10.12846         2.21225
| 73>    C       -9.40963         9.92417         5.25411
| 74>    N       -9.29683        10.65257         6.13572
| 75>    C       -9.79949         6.63859         3.42066
| 76>    C       -9.35630         5.39345         3.92921
| 77>    C       -8.45690         5.64743         5.07383
| 78>    O       -7.89894         4.81821         5.77267
| 79>    C       -9.74339         4.19371         3.38999
| 80>    C      -10.59287         4.22411         2.27815
| 81>    C      -11.04909         5.46785         1.79548
| 82>    C      -10.67903         6.68441         2.35977
| 83>    S      -12.08960         5.26668         0.41773
| 84>    C      -11.88740         3.53429         0.50251
| 85>    C      -11.09104         3.12931         1.51706
| 86>   Br      -12.75034         2.44675        -0.76046
| 87>    H       -8.48328         0.82716         6.40642
| 88>    H       -4.20253         2.09940         8.68102
| 89>    H       -9.01500        -0.59735         8.75782
| 90>    H       -4.64302         5.19429         4.27994
| 91>    H       -6.00040         2.02332         2.30700
| 92>    H       -8.82009         4.68401        -0.80217
| 93>    H       -7.72531         8.25196         1.09880
| 94>    H       -9.50077         6.50895        -0.67824
| 95>    H       -9.31453         9.48161         0.05646
| 96>    H      -11.82765         8.18656        -2.94733
| 97>    H      -12.61129         7.63768        -1.46932
| 98>    H      -11.11138         6.87720        -2.00308
| 99>    H      -11.61868        10.54249        -0.08764
|100>    H      -12.47592        10.22102        -1.61523
|101>    H      -10.67185        11.20655        -2.80687
|102>    H       -9.68212        11.76800        -0.10153
|103>    H       -8.96980        12.94197        -2.84809
|104>    H       -7.33731        14.24251        -1.69678
|105>    H       -5.87928        14.85111         0.28433
|106>    H       -5.08652        13.92191         2.55043
|107>    H       -5.10292        12.83879         4.71675
|108>    H       -5.32274        11.13042         6.63346
|109>    H       -6.13287         8.88884         7.13173
|110>    H       -7.13544         6.84869         6.82159
|111>    H       -9.38640         3.25984         3.79032
|112>    H      -11.06101         7.60823         1.95955
|113>    H      -10.85382         2.10209         1.72311
|114> *
|115>
|116>                          ****END OF INPUT****

CARTESIAN COORDINATES (ANGSTROEM)
---------------------------------
  C     -4.683790    3.133820    5.988360
  C     -3.389810    3.560280    6.143640
  C     -2.586640    3.253150    7.261110
  N     -1.887900    3.029360    8.144920
  C     -2.675650    4.302980    5.179950
  N     -2.026930    4.885530    4.432160
  C     -5.420970    2.274610    6.902050
  C     -6.637140    1.900080    6.282500
  C     -7.562730    1.096130    6.900010
  C     -7.271130    0.637170    8.189100
  C     -6.050730    1.014450    8.798230
  C     -5.115150    1.830460    8.174840
  S     -5.892690    0.334020   10.389570
  C     -7.446370   -0.439830   10.216230
  C     -8.053830   -0.200870    9.030100
  Br    -8.118120   -1.489270   11.617570
  C     -6.712580    2.496440    4.934200
  O     -7.573960    2.284630    4.109370
  C     -5.523570    3.376820    4.831450
  C     -5.361660    4.437460    3.983970
  C     -6.109630    4.775020    2.839310
  S     -6.328500    6.461760    2.501440
  C     -7.420690    6.174690    1.193690
  C     -7.533050    4.790770    0.948930
  C     -6.771440    4.003280    1.870290
  C     -6.660750    2.612160    1.694570
  C     -7.393970    2.012910    0.710040
  F     -7.321540    0.686180    0.526860
  C     -8.204390    2.776630   -0.156130
  F     -8.906110    2.152330   -1.116460
  C     -8.252680    4.139380   -0.069360
  C     -8.067230    7.319130    0.662920
  C     -9.096240    7.392920   -0.215870
  C     -9.753010    8.636020   -0.457240
  C    -10.887240    8.841120   -1.151500
  C    -11.641160    7.821380   -1.935750
  C    -11.497770   10.230990   -1.129500
  N    -10.662500   11.203000   -1.795470
  C     -9.693650   11.876510   -1.176420
  C     -8.822710   12.733970   -1.796200
  C     -7.776750   13.412330   -1.157310
  C     -7.202680   13.139640    0.065600
  C     -6.232960   13.931600    0.717150
  C     -5.816700   13.444190    1.922990
  C     -6.416410   12.219450    2.277370
  S     -7.529770   11.709710    1.043330
  C     -6.245800   11.491520    3.447100
  C     -5.601870   11.890920    4.628530
  C     -5.723530   10.986820    5.646180
  C     -6.473940    9.837300    5.323210
  S     -6.965620    9.907900    3.656210
  C     -6.688070    8.782490    6.206520
  C     -7.396080    7.603800    6.083100
  C     -8.328880    7.113710    5.168820
  C     -9.219390    7.708260    4.235470
  C     -9.620260    9.037480    4.184060
  C    -10.317540    9.602330    3.109430
  N    -10.813750   10.128460    2.212250
  C     -9.409630    9.924170    5.254110
  N     -9.296830   10.652570    6.135720
  C     -9.799490    6.638590    3.420660
  C     -9.356300    5.393450    3.929210
  C     -8.456900    5.647430    5.073830
  O     -7.898940    4.818210    5.772670
  C     -9.743390    4.193710    3.389990
  C    -10.592870    4.224110    2.278150
  C    -11.049090    5.467850    1.795480
  C    -10.679030    6.684410    2.359770
  S    -12.089600    5.266680    0.417730
  C    -11.887400    3.534290    0.502510
  C    -11.091040    3.129310    1.517060
  Br   -12.750340    2.446750   -0.760460
  H     -8.483280    0.827160    6.406420
  H     -4.202530    2.099400    8.681020
  H     -9.015000   -0.597350    8.757820
  H     -4.643020    5.194290    4.279940
  H     -6.000400    2.023320    2.307000
  H     -8.820090    4.684010   -0.802170
  H     -7.725310    8.251960    1.098800
  H     -9.500770    6.508950   -0.678240
  H     -9.314530    9.481610    0.056460
  H    -11.827650    8.186560   -2.947330
  H    -12.611290    7.637680   -1.469320
  H    -11.111380    6.877200   -2.003080
  H    -11.618680   10.542490   -0.087640
  H    -12.475920   10.221020   -1.615230
  H    -10.671850   11.206550   -2.806870
  H     -9.682120   11.768000   -0.101530
  H     -8.969800   12.941970   -2.848090
  H     -7.337310   14.242510   -1.696780
  H     -5.879280   14.851110    0.284330
  H     -5.086520   13.921910    2.550430
  H     -5.102920   12.838790    4.716750
  H     -5.322740   11.130420    6.633460
  H     -6.132870    8.888840    7.131730
  H     -7.135440    6.848690    6.821590
  H     -9.386400    3.259840    3.790320
  H    -11.061010    7.608230    1.959550
  H    -10.853820    2.102090    1.723110

 Total Charge           Charge          ....    0
 Multiplicity           Mult            ....    1
 Number of Electrons    NEL             ....  582
 Basis Dimension        Dim             .... 1199

ORBITAL ENERGIES
----------------

  NO   OCC          E(Eh)            E(eV)
   0   2.0000    -482.877553    -13139.7662
   1   2.0000    -482.875978    -13139.7234
   2   2.0000     -88.975032     -2421.1337
   3   2.0000     -88.970719     -2421.0164
   4   2.0000     -88.966422     -2420.8994
   5   2.0000     -88.965424     -2420.8723
   6   2.0000     -88.963713     -2420.8257
   7   2.0000     -62.555282     -1702.2158
   8   2.0000     -62.553677     -1702.1721
   9   2.0000     -56.389222     -1534.4287
  10   2.0000     -56.387604     -1534.3847
  11   2.0000     -56.386525     -1534.3553
  12   2.0000     -56.386490     -1534.3544
  13   2.0000     -56.384926     -1534.3118
  14   2.0000     -56.384912     -1534.3115
  15   2.0000     -24.785215      -674.4400
  16   2.0000     -24.782951      -674.3784
  17   2.0000     -19.206071      -522.6238
  18   2.0000     -19.195363      -522.3324
  19   2.0000     -14.477287      -393.9470
  20   2.0000     -14.405185      -391.9850
  21   2.0000     -14.404129      -391.9563
  22   2.0000     -14.403148      -391.9296
  23   2.0000     -14.385312      -391.4442
  24   2.0000     -10.365489      -282.0593
  25   2.0000     -10.363820      -282.0139
  26   2.0000     -10.358402      -281.8664
  27   2.0000     -10.354315      -281.7552
  28   2.0000     -10.349360      -281.6204
  29   2.0000     -10.345471      -281.5146
  30   2.0000     -10.342950      -281.4460
  31   2.0000     -10.339628      -281.3556
  32   2.0000     -10.329209      -281.0721
  33   2.0000     -10.328032      -281.0400
  34   2.0000     -10.324236      -280.9368
  35   2.0000     -10.324188      -280.9354
  36   2.0000     -10.321393      -280.8594
  37   2.0000     -10.319208      -280.7999
  38   2.0000     -10.316081      -280.7148
  39   2.0000     -10.314414      -280.6695
  40   2.0000     -10.313222      -280.6370
  41   2.0000     -10.311626      -280.5936
  42   2.0000     -10.311319      -280.5853
  43   2.0000     -10.310690      -280.5681
  44   2.0000     -10.310464      -280.5620
  45   2.0000     -10.309263      -280.5293
  46   2.0000     -10.309163      -280.5266
  47   2.0000     -10.307713      -280.4871
  48   2.0000     -10.307448      -280.4799
  49   2.0000     -10.306650      -280.4582
  50   2.0000     -10.297513      -280.2096
  51   2.0000     -10.296909      -280.1931
  52   2.0000     -10.296572      -280.1840
  53   2.0000     -10.295404      -280.1522
  54   2.0000     -10.294255      -280.1209
  55   2.0000     -10.294149      -280.1180
  56   2.0000     -10.293100      -280.0895
  57   2.0000     -10.292152      -280.0637
  58   2.0000     -10.291222      -280.0384
  59   2.0000     -10.290284      -280.0129
  60   2.0000     -10.288953      -279.9766
  61   2.0000     -10.288781      -279.9720
  62   2.0000     -10.287811      -279.9456
  63   2.0000     -10.287311      -279.9320
  64   2.0000     -10.287149      -279.9276
  65   2.0000     -10.286779      -279.9175
  66   2.0000     -10.286524      -279.9106
  67   2.0000     -10.286461      -279.9088
  68   2.0000     -10.285584      -279.8850
  69   2.0000     -10.285006      -279.8692
  70   2.0000     -10.284666      -279.8600
  71   2.0000     -10.283457      -279.8271
  72   2.0000     -10.280417      -279.7444
  73   2.0000     -10.279911      -279.7306
  74   2.0000     -10.278463      -279.6912
  75   2.0000     -10.275860      -279.6204
  76   2.0000     -10.275071      -279.5989
  77   2.0000     -10.271871      -279.5118
  78   2.0000     -10.268886      -279.4306
  79   2.0000     -10.264550      -279.3126
  80   2.0000      -8.784719      -239.0444
  81   2.0000      -8.783072      -238.9996
  82   2.0000      -8.069549      -219.5836
  83   2.0000      -8.065997      -219.4869
  84   2.0000      -8.061755      -219.3715
  85   2.0000      -8.061500      -219.3646
  86   2.0000      -8.057840      -219.2650
  87   2.0000      -6.620992      -180.1664
  88   2.0000      -6.619288      -180.1200
  89   2.0000      -6.606465      -179.7711
  90   2.0000      -6.606277      -179.7659
  91   2.0000      -6.604801      -179.7258
  92   2.0000      -6.604710      -179.7233
  93   2.0000      -6.038494      -164.3158
  94   2.0000      -6.035633      -164.2379
  95   2.0000      -6.034320      -164.2022
  96   2.0000      -6.032502      -164.1527
  97   2.0000      -6.031473      -164.1247
  98   2.0000      -6.031398      -164.1227
  99   2.0000      -6.031170      -164.1165
 100   2.0000      -6.027467      -164.0157
 101   2.0000      -6.027248      -164.0098
 102   2.0000      -6.027196      -164.0083
 103   2.0000      -6.026944      -164.0015
 104   2.0000      -6.023119      -163.8974
 105   2.0000      -6.023114      -163.8973
 106   2.0000      -6.022695      -163.8859
 107   2.0000      -6.019835      -163.8080
 108   2.0000      -2.736833       -74.4730
 109   2.0000      -2.735183       -74.4281
 110   2.0000      -2.732786       -74.3629
 111   2.0000      -2.732692       -74.3603
 112   2.0000      -2.731093       -74.3168
 113   2.0000      -2.730998       -74.3142
 114   2.0000      -2.721113       -74.0453
 115   2.0000      -2.721098       -74.0448
 116   2.0000      -2.719496       -74.0013
 117   2.0000      -2.719483       -74.0009
 118   2.0000      -1.306044       -35.5393
 119   2.0000      -1.291046       -35.1311
 120   2.0000      -1.123684       -30.5770
 121   2.0000      -1.106705       -30.1150
 122   2.0000      -1.073539       -29.2125
 123   2.0000      -1.012100       -27.5406
 124   2.0000      -1.010566       -27.4989
 125   2.0000      -1.009448       -27.4685
 126   2.0000      -1.004653       -27.3380
 127   2.0000      -1.001790       -27.2601
 128   2.0000      -0.997402       -27.1407
 129   2.0000      -0.984818       -26.7982
 130   2.0000      -0.982351       -26.7311
 131   2.0000      -0.978186       -26.6178
 132   2.0000      -0.973541       -26.4914
 133   2.0000      -0.966047       -26.2875
 134   2.0000      -0.945662       -25.7328
 135   2.0000      -0.936517       -25.4839
 136   2.0000      -0.932027       -25.3618
 137   2.0000      -0.924005       -25.1434
 138   2.0000      -0.921514       -25.0757
 139   2.0000      -0.906951       -24.6794
 140   2.0000      -0.897857       -24.4319
 141   2.0000      -0.894266       -24.3342
 142   2.0000      -0.890009       -24.2184
 143   2.0000      -0.881068       -23.9751
 144   2.0000      -0.874824       -23.8052
 145   2.0000      -0.871870       -23.7248
 146   2.0000      -0.868272       -23.6269
 147   2.0000      -0.864035       -23.5116
 148   2.0000      -0.857869       -23.3438
 149   2.0000      -0.847861       -23.0715
 150   2.0000      -0.845857       -23.0169
 151   2.0000      -0.837418       -22.7873
 152   2.0000      -0.833017       -22.6676
 153   2.0000      -0.827224       -22.5099
 154   2.0000      -0.818739       -22.2790
 155   2.0000      -0.812425       -22.1072
 156   2.0000      -0.810834       -22.0639
 157   2.0000      -0.800367       -21.7791
 158   2.0000      -0.784594       -21.3499
 159   2.0000      -0.776061       -21.1177
 160   2.0000      -0.759663       -20.6715
 161   2.0000      -0.749786       -20.4027
 162   2.0000      -0.745428       -20.2841
 163   2.0000      -0.739584       -20.1251
 164   2.0000      -0.735234       -20.0067
 165   2.0000      -0.729091       -19.8396
 166   2.0000      -0.710728       -19.3399
 167   2.0000      -0.708471       -19.2785
 168   2.0000      -0.704563       -19.1721
 169   2.0000      -0.690795       -18.7975
 170   2.0000      -0.682958       -18.5842
 171   2.0000      -0.680759       -18.5244
 172   2.0000      -0.674953       -18.3664
 173   2.0000      -0.668474       -18.1901
 174   2.0000      -0.665970       -18.1220
 175   2.0000      -0.662925       -18.0391
 176   2.0000      -0.651681       -17.7331
 177   2.0000      -0.647695       -17.6247
 178   2.0000      -0.645234       -17.5577
 179   2.0000      -0.642397       -17.4805
 180   2.0000      -0.639089       -17.3905
 181   2.0000      -0.632789       -17.2191
 182   2.0000      -0.624972       -17.0064
 183   2.0000      -0.619187       -16.8489
 184   2.0000      -0.617402       -16.8004
 185   2.0000      -0.612898       -16.6778
 186   2.0000      -0.611057       -16.6277
 187   2.0000      -0.606821       -16.5124
 188   2.0000      -0.604804       -16.4576
 189   2.0000      -0.600701       -16.3459
 190   2.0000      -0.591047       -16.0832
 191   2.0000      -0.588075       -16.0023
 192   2.0000      -0.584160       -15.8958
 193   2.0000      -0.578259       -15.7352
 194   2.0000      -0.573668       -15.6103
 195   2.0000      -0.569958       -15.5093
 196   2.0000      -0.569052       -15.4847
 197   2.0000      -0.563280       -15.3276
 198   2.0000      -0.557257       -15.1637
 199   2.0000      -0.554717       -15.0946
 200   2.0000      -0.545656       -14.8481
 201   2.0000      -0.544893       -14.8273
 202   2.0000      -0.544365       -14.8129
 203   2.0000      -0.540494       -14.7076
 204   2.0000      -0.534642       -14.5484
 205   2.0000      -0.534189       -14.5360
 206   2.0000      -0.533375       -14.5139
 207   2.0000      -0.530749       -14.4424
 208   2.0000      -0.530487       -14.4353
 209   2.0000      -0.525381       -14.2964
 210   2.0000      -0.523516       -14.2456
 211   2.0000      -0.521271       -14.1845
 212   2.0000      -0.517990       -14.0952
 213   2.0000      -0.515325       -14.0227
 214   2.0000      -0.513387       -13.9700
 215   2.0000      -0.509679       -13.8691
 216   2.0000      -0.509614       -13.8673
 217   2.0000      -0.505379       -13.7521
 218   2.0000      -0.503078       -13.6894
 219   2.0000      -0.502315       -13.6687
 220   2.0000      -0.498676       -13.5697
 221   2.0000      -0.496924       -13.5220
 222   2.0000      -0.494432       -13.4542
 223   2.0000      -0.491600       -13.3771
 224   2.0000      -0.490343       -13.3429
 225   2.0000      -0.488723       -13.2988
 226   2.0000      -0.486227       -13.2309
 227   2.0000      -0.484734       -13.1903
 228   2.0000      -0.483594       -13.1593
 229   2.0000      -0.480106       -13.0643
 230   2.0000      -0.479331       -13.0433
 231   2.0000      -0.477306       -12.9882
 232   2.0000      -0.474495       -12.9117
 233   2.0000      -0.469045       -12.7634
 234   2.0000      -0.466535       -12.6951
 235   2.0000      -0.466214       -12.6863
 236   2.0000      -0.463810       -12.6209
 237   2.0000      -0.460542       -12.5320
 238   2.0000      -0.457784       -12.4569
 239   2.0000      -0.452139       -12.3033
 240   2.0000      -0.448441       -12.2027
 241   2.0000      -0.447922       -12.1886
 242   2.0000      -0.447575       -12.1791
 243   2.0000      -0.443617       -12.0714
 244   2.0000      -0.440856       -11.9963
 245   2.0000      -0.439624       -11.9628
 246   2.0000      -0.437855       -11.9147
 247   2.0000      -0.436782       -11.8854
 248   2.0000      -0.433968       -11.8089
 249   2.0000      -0.433424       -11.7941
 250   2.0000      -0.432257       -11.7623
 251   2.0000      -0.429115       -11.6768
 252   2.0000      -0.428509       -11.6603
 253   2.0000      -0.425896       -11.5892
 254   2.0000      -0.424725       -11.5574
 255   2.0000      -0.422810       -11.5052
 256   2.0000      -0.417701       -11.3662
 257   2.0000      -0.416173       -11.3246
 258   2.0000      -0.415235       -11.2991
 259   2.0000      -0.413122       -11.2416
 260   2.0000      -0.411580       -11.1997
 261   2.0000      -0.409146       -11.1334
 262   2.0000      -0.405115       -11.0237
 263   2.0000      -0.401718       -10.9313
 264   2.0000      -0.401441       -10.9238
 265   2.0000      -0.397562       -10.8182
 266   2.0000      -0.389547       -10.6001
 267   2.0000      -0.388474       -10.5709
 268   2.0000      -0.378272       -10.2933
 269   2.0000      -0.375891       -10.2285
 270   2.0000      -0.374002       -10.1771
 271   2.0000      -0.367101        -9.9893
 272   2.0000      -0.365723        -9.9518
 273   2.0000      -0.362264        -9.8577
 274   2.0000      -0.356504        -9.7010
 275   2.0000      -0.351040        -9.5523
 276   2.0000      -0.343961        -9.3597
 277   2.0000      -0.337346        -9.1797
 278   2.0000      -0.331603        -9.0234
 279   2.0000      -0.322020        -8.7626
 280   2.0000      -0.316342        -8.6081
 281   2.0000      -0.313174        -8.5219
 282   2.0000      -0.309994        -8.4354
 283   2.0000      -0.308101        -8.3839
 284   2.0000      -0.303829        -8.2676
 285   2.0000      -0.294913        -8.0250
 286   2.0000      -0.283104        -7.7037
 287   2.0000      -0.279189        -7.5971
 288   2.0000      -0.272227        -7.4077
 289   2.0000      -0.243997        -6.6395
 290   2.0000      -0.222779        -6.0621
 291   0.0000      -0.099296        -2.7020
 292   0.0000      -0.088807        -2.4166
 293   0.0000      -0.056410        -1.5350
 294   0.0000      -0.050930        -1.3859
 295   0.0000      -0.033291        -0.9059

MULLIKEN ATOMIC CHARGES
-----------------------
   0 C :    0.276157
   1 C :   -0.345943
   2 C :   -0.186790
   3 N :    0.143097
   4 C :   -0.207602
   5 N :    0.157332
   6 C :    0.024574
   7 C :    0.005220
   8 C :   -0.074484
   9 C :    0.115572
  10 C :   -0.086761
  11 C :   -0.026433
  12 S :    0.180440
  13 C :   -0.124195
  14 C :    0.039458
  15 Br:    0.017045
  16 C :    0.197877
  17 O :   -0.174359
  18 C :   -0.079724
  19 C :    0.024839
  20 C :   -0.189172
  21 S :    0.197710
  22 C :   -0.123909
  23 C :    0.136205
  24 C :    0.160517
  25 C :   -0.040757
  26 C :    0.197797
  27 F :   -0.177553
  28 C :    0.235959
  29 F :   -0.178800
  30 C :   -0.130050
  31 C :    0.064023
  32 C :    0.014220
  33 C :    0.016786
  34 C :   -0.215982
  35 C :    0.110776
  36 C :    0.196266
  37 N :   -0.117446
  38 C :    0.060481
  39 C :   -0.050373
  40 C :    0.053064
  41 C :   -0.070792
  42 C :    0.067911
  43 C :    0.000007
  44 C :    0.001069
  45 S :    0.073529
  46 C :   -0.072544
  47 C :    0.046828
  48 C :    0.036454
  49 C :   -0.018276
  50 S :    0.113187
  51 C :   -0.001646
  52 C :    0.003369
  53 C :   -0.128268
  54 C :    0.284223
  55 C :   -0.406050
  56 C :   -0.149718
  57 N :    0.098078
  58 C :   -0.223729
  59 N :    0.152012
  60 C :    0.030639
  61 C :   -0.015065
  62 C :    0.142702
  63 O :   -0.183227
  64 C :   -0.059600
  65 C :    0.103890
  66 C :   -0.104177
  67 C :   -0.020380
  68 S :    0.129632
  69 C :   -0.128905
  70 C :    0.051916
  71 Br:    0.012053
  72 H :   -0.018644
  73 H :   -0.007801
  74 H :   -0.006844
  75 H :    0.024998
  76 H :   -0.010267
  77 H :   -0.023131
  78 H :   -0.022186
  79 H :   -0.020516
  80 H :   -0.020579
  81 H :    0.013762
  82 H :    0.037678
  83 H :    0.014851
  84 H :    0.057743
  85 H :    0.005265
  86 H :    0.127802
  87 H :    0.065188
  88 H :   -0.012229
  89 H :    0.006798
  90 H :   -0.003311
  91 H :   -0.006316
  92 H :   -0.012084
  93 H :   -0.010008
  94 H :   -0.007645
  95 H :    0.015625
  96 H :   -0.016984
  97 H :   -0.029120
  98 H :   -0.002253
Sum of atomic charges:   -0.0000000

LOEWDIN ATOMIC CHARGES
----------------------
   0 C :    0.080956
   1 C :   -0.147433
   2 C :   -0.018536
   3 N :   -0.060199
   4 C :   -0.026373
   5 N :   -0.058592
   6 C :   -0.017130
   7 C :   -0.037653
   8 C :    0.021581
   9 C :   -0.032570
  10 C :   -0.144824
  11 C :   -0.010758
  12 S :    0.427572
  13 C :   -0.273366
  14 C :   -0.070158
  15 Br:    0.132063
  16 C :    0.093868
  17 O :   -0.140007
  18 C :   -0.093253
  19 C :    0.039582
  20 C :   -0.190155
  21 S :    0.529925
  22 C :   -0.146013
  23 C :   -0.045461
  24 C :   -0.019787
  25 C :   -0.012404
  26 C :    0.059849
  27 F :   -0.054629
  28 C :    0.063026
  29 F :   -0.056143
  30 C :   -0.043538
  31 C :   -0.047415
  32 C :   -0.009483
  33 C :   -0.036745
  34 C :   -0.040203
  35 C :   -0.052934
  36 C :    0.044736
  37 N :    0.054303
  38 C :    0.086012
  39 C :   -0.138571
  40 C :    0.024075
  41 C :   -0.196288
  42 C :    0.007504
  43 C :   -0.066486
  44 C :   -0.123505
  45 S :    0.415159
  46 C :   -0.222572
  47 C :   -0.011946
  48 C :   -0.050690
  49 C :   -0.107992
  50 S :    0.470955
  51 C :   -0.081051
  52 C :    0.027029
  53 C :   -0.133340
  54 C :    0.038473
  55 C :   -0.199516
  56 C :    0.001223
  57 N :   -0.114164
  58 C :   -0.038453
  59 N :   -0.076334
  60 C :   -0.013117
  61 C :   -0.059147
  62 C :    0.084693
  63 O :   -0.166157
  64 C :    0.026611
  65 C :   -0.045017
  66 C :   -0.150085
  67 C :   -0.024974
  68 S :    0.416727
  69 C :   -0.283516
  70 C :   -0.062014
  71 Br:    0.125557
  72 H :    0.038145
  73 H :    0.040212
  74 H :    0.037681
  75 H :    0.045061
  76 H :    0.042110
  77 H :    0.035539
  78 H :    0.022040
  79 H :    0.017962
  80 H :    0.021051
  81 H :    0.031109
  82 H :    0.035104
  83 H :    0.025089
  84 H :    0.043586
  85 H :    0.027771
  86 H :    0.086946
  87 H :    0.028638
  88 H :    0.028611
  89 H :    0.043570
  90 H :    0.037914
  91 H :    0.034388
  92 H :    0.033626
  93 H :    0.035164
  94 H :    0.039711
  95 H :    0.042078
  96 H :    0.034228
  97 H :    0.032461
  98 H :    0.039420

  Mayer bond orders larger than 0.100000
B(  0-C ,  1-C ) :   1.6362 B(  0-C ,  6-C ) :   1.0099 B(  0-C , 18-C ) :   1.0712
B(  1-C ,  2-C ) :   1.1379 B(  1-C ,  4-C ) :   1.1412 B(  2-C ,  3-N ) :   2.9768
B(  4-C ,  5-N ) :   3.0061 B(  6-C ,  7-C ) :   1.2742 B(  6-C , 11-C ) :   1.4073
B(  7-C ,  8-C ) :   1.4275 B(  7-C , 16-C ) :   0.9509 B(  8-C ,  9-C ) :   1.2455
B(  8-C , 72-H ) :   1.0170 B(  9-C , 10-C ) :   1.3105 B(  9-C , 14-C ) :   1.1606
B( 10-C , 11-C ) :   1.3280 B( 10-C , 12-S ) :   1.0816 B( 11-C , 73-H ) :   0.9820
B( 12-S , 13-C ) :   1.0865 B( 13-C , 14-C ) :   1.6193 B( 13-C , 15-Br) :   1.0148
B( 14-C , 74-H ) :   1.0003 B( 16-C , 17-O ) :   2.0938 B( 16-C , 18-C ) :   0.9547
B( 18-C , 19-C ) :   1.5846 B( 19-C , 20-C ) :   1.2142 B( 19-C , 75-H ) :   0.9293
B( 20-C , 21-S ) :   1.1379 B( 20-C , 22-C ) :   0.1028 B( 20-C , 24-C ) :   1.2990
B( 21-S , 22-C ) :   1.2070 B( 22-C , 23-C ) :   1.3023 B( 22-C , 31-C ) :   1.1358
B( 23-C , 24-C ) :   1.2375 B( 23-C , 30-C ) :   1.1561 B( 24-C , 25-C ) :   1.1958
B( 25-C , 26-C ) :   1.4969 B( 25-C , 30-C ) :   0.1095 B( 25-C , 76-H ) :   0.9862
B( 26-C , 27-F ) :   1.1256 B( 26-C , 28-C ) :   1.1737 B( 28-C , 29-F ) :   1.1323
B( 28-C , 30-C ) :   1.4821 B( 30-C , 77-H ) :   1.0064 B( 31-C , 32-C ) :   1.6623
B( 31-C , 78-H ) :   0.9520 B( 32-C , 33-C ) :   1.1449 B( 32-C , 79-H ) :   0.9747
B( 33-C , 34-C ) :   1.7497 B( 33-C , 80-H ) :   0.9638 B( 34-C , 35-C ) :   1.0941
B( 34-C , 36-C ) :   1.0144 B( 35-C , 81-H ) :   0.9415 B( 35-C , 82-H ) :   0.9403
B( 35-C , 83-H ) :   0.9541 B( 36-C , 37-N ) :   0.9911 B( 36-C , 84-H ) :   0.9155
B( 36-C , 85-H ) :   0.9395 B( 37-N , 38-C ) :   1.3641 B( 37-N , 86-H ) :   0.9371
B( 38-C , 39-C ) :   1.4343 B( 38-C , 87-H ) :   0.9444 B( 39-C , 40-C ) :   1.3121
B( 39-C , 88-H ) :   0.9594 B( 40-C , 41-C ) :   1.4798 B( 40-C , 89-H ) :   0.9627
B( 41-C , 42-C ) :   1.2183 B( 41-C , 45-S ) :   1.0122 B( 42-C , 43-C ) :   1.5060
B( 42-C , 90-H ) :   0.9973 B( 43-C , 44-C ) :   1.2552 B( 43-C , 91-H ) :   0.9959
B( 44-C , 45-S ) :   1.1217 B( 44-C , 46-C ) :   1.3672 B( 46-C , 47-C ) :   1.2702
B( 46-C , 50-S ) :   1.0433 B( 47-C , 48-C ) :   1.4892 B( 47-C , 92-H ) :   0.9911
B( 48-C , 49-C ) :   1.2447 B( 48-C , 93-H ) :   0.9974 B( 49-C , 50-S ) :   1.1319
B( 49-C , 51-C ) :   1.3392 B( 51-C , 52-C ) :   1.4469 B( 51-C , 94-H ) :   0.9506
B( 52-C , 53-C ) :   1.3399 B( 52-C , 95-H ) :   0.9301 B( 53-C , 54-C ) :   1.2060
B( 53-C , 62-C ) :   1.0017 B( 54-C , 55-C ) :   1.4580 B( 54-C , 60-C ) :   1.0078
B( 55-C , 56-C ) :   1.1688 B( 55-C , 58-C ) :   1.1663 B( 56-C , 57-N ) :   2.9061
B( 58-C , 59-N ) :   3.0144 B( 60-C , 61-C ) :   1.2747 B( 60-C , 67-C ) :   1.4361
B( 61-C , 62-C ) :   0.9201 B( 61-C , 64-C ) :   1.4293 B( 62-C , 63-O ) :   2.1434
B( 64-C , 65-C ) :   1.2345 B( 64-C , 96-H ) :   1.0033 B( 65-C , 66-C ) :   1.3365
B( 65-C , 70-C ) :   1.1611 B( 66-C , 67-C ) :   1.3032 B( 66-C , 68-S ) :   1.0708
B( 67-C , 97-H ) :   0.9736 B( 68-S , 69-C ) :   1.0693 B( 69-C , 70-C ) :   1.6236
B( 69-C , 71-Br) :   1.0119 B( 70-C , 98-H ) :   1.0003

-----------------------------------------------------------------------------
         ABSORPTION SPECTRUM VIA TRANSITION ELECTRIC DIPOLE MOMENTS
-----------------------------------------------------------------------------
State   Energy  Wavelength   fosc         T2         TX        TY        TZ
        (cm-1)    (nm)                  (au**2)     (au)      (au)      (au)
-----------------------------------------------------------------------------
   0   11006.3    908.6   0.284126608   8.49860   0.41329   1.97431  -2.10473
   1   14007.3    713.9   0.077256677   1.81575  -0.43873  -0.66964   1.08391
   2   16878.9    592.5   0.308823252   6.02340   0.55811  -1.73463   1.64408
   3   17925.6    557.9   0.625101485  11.48029  -1.46657   1.73263  -2.51544
   4   20347.3    491.5   0.119745464   1.93744   0.74209  -0.65329   0.97977
   5   22051.1    453.5   0.139357453   2.08054  -0.89723   0.45905  -1.03189
   6   23022.3    434.4   0.045826341   0.65530  -0.29462   0.37447  -0.65443
   7   23288.6    429.4   0.084005035   1.18751   0.77661  -0.00664   0.76442
   8   23606.1    423.6   0.018517665   0.25825   0.26926   0.24606  -0.35384
   9   24208.2    413.1   0.055118833   0.74957   0.27793   0.56897   0.59043
  10   24505.7    408.1   0.060933670   0.81859  -0.09190   0.90007  -0.00428
  11   25471.5    392.6   0.299573342   3.87191   1.38992   0.63739   1.23845
  12   26059.0    383.7   0.245476961   3.10119  -1.35693  -0.83965  -0.74494
  13   26430.1    378.4   0.190718897   2.37558  -0.95154  -0.15290  -1.20282
  14   27007.3    370.3   0.122738363   1.49615   1.12108   0.48726  -0.04370
  15   27473.8    364.0   0.175878076   2.10751   0.35285   0.89163  -1.08996
  16   28170.4    355.0   0.033854182   0.39564  -0.33143  -0.22726  -0.48388
  17   28484.0    351.1   0.056624189   0.65445   0.34958  -0.13695   0.71658
  18   28920.2    345.8   0.010622573   0.12092   0.10229   0.14407   0.29950
  19   29210.5    342.3   0.090080388   1.01524   0.00464   0.97164   0.26669
  20   29523.6    338.7   0.022513385   0.25104  -0.40603  -0.20168  -0.21331
  21   29842.9    335.1   0.043353417   0.47825   0.30590   0.61187   0.10147
  22   30119.4    332.0   0.104729694   1.14472  -0.57764  -0.79256  -0.42768
  23   30546.8    327.4   0.135527099   1.46061  -0.20134  -1.15481  -0.29409
  24   30574.0    327.1   0.067663641   0.72858   0.83588   0.16690  -0.04500
  25   30766.6    325.0   0.040132833   0.42943   0.18136  -0.62905  -0.02889
  26   30974.8    322.8   0.073298736   0.77905  -0.60245  -0.61844   0.18339
  27   31042.4    322.1   0.026696907   0.28313   0.27711   0.17896   0.41750
  28   31661.8    315.8   0.279355350   2.90467   0.12450   1.30427   1.08998
  29   31874.3    313.7   0.009620419   0.09936   0.21130   0.21716  -0.08693
  30   32208.1    310.5   0.158496175   1.62005   0.86100   0.87257  -0.34256
  31   32293.9    309.7   0.096552025   0.98428   0.75790   0.08403   0.63467
  32   32461.0    308.1   0.065106108   0.66029  -0.13432  -0.80056   0.03672
  33   32668.2    306.1   0.093694445   0.94420   0.10932   0.13488  -0.95606
  34   32853.4    304.4   0.412857663   4.13709  -1.41895  -1.04580   1.01488
  35   33169.9    301.5   0.070131914   0.69606   0.46815   0.64883   0.23646
  36   33350.1    299.8   0.024290613   0.23978   0.21945   0.43492   0.04966
  37   33816.0    295.7   0.020527424   0.19984   0.31789  -0.26394  -0.17066
  38   34219.0    292.2   0.075836422   0.72960  -0.26642   0.79586  -0.15885
  39   34325.8    291.3   0.139735675   1.34018  -0.24460   1.10679  -0.23528
  40   34544.9    289.5   0.035213341   0.33558   0.54143  -0.08854  -0.18601
  41   34987.1    285.8   0.089669359   0.84375  -0.16228  -0.27783   0.86036
  42   35187.6    284.2   0.006948093   0.06501   0.16317  -0.16045  -0.11242
  43   35374.4    282.7   0.049087608   0.45683  -0.59456   0.26731  -0.17854
  44   35536.1    281.4   0.051687559   0.47884   0.48777  -0.26311   0.41436
  45   35641.3    280.6   0.017304783   0.15984  -0.22842  -0.21920   0.24416
  46   35830.9    279.1   0.239051657   2.19639   0.00148   1.39507  -0.50016
  47   36062.2    277.3   0.078694229   0.71840   0.54167   0.59321  -0.27035
  48   36270.8    275.7   0.264803708   2.40349  -0.91857   0.95809  -0.80112
  49   36589.2    273.3   0.024099074   0.21683  -0.38987  -0.03059  -0.25278
  50   36870.3    271.2   0.018290681   0.16332   0.01822   0.36666   0.16895
  51   36970.4    270.5   0.148060435   1.31844  -0.67241  -0.24090  -0.89904
  52   37375.3    267.6   0.075717841   0.66694   0.02359  -0.81598   0.02366
  53   37496.0    266.7   0.020163879   0.17704   0.04930   0.31086  -0.27924
  54   37571.0    266.2   0.003052276   0.02675   0.06691  -0.10903  -0.10189
  55   37771.3    264.8   0.012219082   0.10650  -0.16970  -0.20143   0.19269
  56   37875.3    264.0   0.017946844   0.15599  -0.00430  -0.14850  -0.36596
  57   38373.5    260.6   0.216414225   1.85665  -0.06141   1.16602  -0.70233
  58   38483.0    259.9   0.002290071   0.01959  -0.00392  -0.12808   0.05631
  59   38541.6    259.5   0.038895771   0.33224   0.51975   0.09324  -0.23108
  60   38916.5    257.0   0.054292553   0.45929  -0.07022  -0.10038   0.66654
  61   39290.3    254.5   0.095066705   0.79656   0.81256   0.31406   0.19410
  62   39625.5    252.4   0.083137032   0.69071   0.53042   0.63137   0.10359
  63   39768.0    251.5   0.024910670   0.20622   0.23696  -0.02916   0.38629
  64   40034.5    249.8   0.003047217   0.02506   0.05234   0.13059  -0.07255
  65   40133.9    249.2   0.016768092   0.13755   0.20038   0.17459  -0.25867
  66   40233.3    248.6   0.047160627   0.38590   0.52394   0.04569   0.33059

FINAL SINGLE POINT ENERGY     -9908.734472306016

DIPOLE MOMENT
-------------
                                X             Y             Z
Electronic contribution:    -34.80775    -158.71769      66.76016
Nuclear contribution   :     32.77105     161.79613     -70.71164
                        -----------------------------------------
Total Dipole Moment    :     -2.03670       3.07844      -3.95148
                        -----------------------------------------
Magnitude (a.u.)       :      5.40732
Magnitude (Debye)      :     13.74432

Rotational constants in cm-1:     0.001071     0.000509     0.000407
Rotational constants in MHz :    32.098921    15.273130    12.206180

                             ****ORCA TERMINATED NORMALLY****
TOTAL RUN TIME: 0 days 0 hours 22 minutes 0 seconds 275 msec
