                         Program Version 4.2.0 -  RELEASE  -
|  1> # ORCA input file
|  2> # SCF done       -239.558555898703          0.000171748771
|  3> ! CAM-B3LYP def2-SVP def2/J RIJCOSX Grid4 TightSCF
|  4> %maxcore 5000
|  5> %tddft
|  6>     Mode sTDDFT
|  7>     Ethresh 5.0
|  8>     maxcore 5000
|  9> end
| 10>
| 11> %pal
| 12>   nprocs 6
| 13>   end
| 14> * xyz 0 1
| 15>    C        0.98308        -3.14647         4.10277
| 16>    C       -0.46263        -3.14558         3.96348
| 17>    C       -1.12235        -3.63145         2.82877
| 18>    C       -2.50746        -3.65859         2.74341
| 19>    C       -3.28062        -3.20640         3.80946
| 20>    C       -2.65251        -2.74436         4.96298
| 21>    C       -1.26637        -2.72825         5.02952
| 22>    F       -0.67574        -2.27996         6.14267
| 23>    F       -3.38357        -2.32035         5.99553
| 24>    F       -4.61109        -3.22585         3.72979
| 25>    F       -3.10138        -4.12630         1.64304
| 26>    F       -0.41380        -4.11995         1.80566
| 27>    C        1.87547        -2.80089         3.14661
| 28>    C        3.31650        -3.01346         3.40254
| 29>    C        3.79263        -4.23001         3.89444
| 30>    C        5.15002        -4.46700         4.08044
| 31>    C        6.07351        -3.46932         3.78552
| 32>    C        5.62325        -2.23848         3.31695
| 33>    C        4.26295        -2.02205         3.13521
| 34>    F        3.86730        -0.82203         2.70467
| 35>    F        6.49851        -1.27117         3.04030
| 36>    F        7.37670        -3.69085         3.94945
| 37>    F        5.56867        -5.65175         4.52902
| 38>    F        2.93529        -5.22208         4.15453
| 39>    C        1.54123        -2.15632         1.89883
| 40>    S        0.27168        -0.97461         1.81901
| 41>    C        0.65902        -0.63758         0.18263
| 42>    C        1.70300        -1.36577        -0.29362
| 43>    C        2.17822        -1.26288        -1.70408
| 44>    C        2.22925        -2.25433         0.69562
| 45>    C        3.28627        -3.21140         0.51053
| 46>    C        4.37586        -3.05980        -0.27968
| 47>    C        5.38900        -4.04033        -0.39313
| 48>    C        6.48069        -3.89701        -1.20048
| 49>    C        7.47979        -4.86733        -1.35506
| 50>    C        8.52937        -4.76187        -2.23631
| 51>    C        9.53956        -5.72263        -2.48021
| 52>    C       10.41889        -5.37473        -3.46119
| 53>    C       10.15750        -4.11471        -4.04283
| 54>    S        8.76438        -3.37546        -3.28889
| 55>    C       10.83388        -3.49922        -5.08001
| 56>    C       11.90863        -4.00939        -5.84037
| 57>    C       12.31998        -3.17657        -6.83582
| 58>    C       11.60470        -1.95471        -6.90964
| 59>    S       10.38308        -1.90756        -5.65399
| 60>    C       11.80802        -0.96878        -7.84409
| 61>    C       11.18082         0.28311        -7.92161
| 62>    S       10.25500         0.93917        -6.59644
| 63>    C       10.11885         2.45691        -7.39565
| 64>    C       10.72947         2.48785        -8.60808
| 65>    C       10.72694         3.68050        -9.50536
| 66>    C       11.32078         1.23257        -8.94899
| 67>    C       11.89616         1.00058       -10.23286
| 68>    C       11.93047        -0.17723       -10.90541
| 69>    C       12.41425        -0.27112       -12.23468
| 70>    C       12.30756        -1.38492       -12.99725
| 71>    C       12.70570        -1.47223       -14.37529
| 72>    C       13.12690        -2.82013       -14.83586
| 73>    C       14.40183        -3.03901       -15.35517
| 74>    C       14.81474        -4.29542       -15.78593
| 75>    C       13.93931        -5.37429       -15.70673
| 76>    C       12.66083        -5.18172       -15.19278
| 77>    C       12.27077        -3.91745       -14.76292
| 78>    F       11.03146        -3.76303       -14.28917
| 79>    F       11.81203        -6.20790       -15.11463
| 80>    F       14.32257        -6.58198       -16.11812
| 81>    F       16.04488        -4.46963       -16.27049
| 82>    F       15.26811        -2.02430       -15.42507
| 83>    C       12.77107        -0.45962       -15.27564
| 84>    C       12.26763         0.89376       -15.13600
| 85>    C       12.97183         1.95112       -15.72850
| 86>    C       12.53896         3.26809       -15.65862
| 87>    C       11.35469         3.56983       -14.99241
| 88>    C       10.61011         2.53674       -14.42888
| 89>    C       11.05387         1.22520       -14.51799
| 90>    F       10.27620         0.26364       -14.01166
| 91>    F        9.46190         2.81245       -13.80175
| 92>    F       10.93247         4.83240       -14.89990
| 93>    F       13.25555         4.24442       -16.22004
| 94>    F       14.11695         1.68507       -16.36650
| 95>    H        1.34270        -3.43710         5.07972
| 96>    H        0.07593         0.08907        -0.34872
| 97>    H        1.39881        -0.83398        -2.32919
| 98>    H        2.44349        -2.24529        -2.08854
| 99>    H        3.05385        -0.61735        -1.76797
|100>    H        3.19631        -4.12417         1.08647
|101>    H        4.52195        -2.14414        -0.83258
|102>    H        5.27269        -4.95212         0.17973
|103>    H        6.58323        -2.98873        -1.78204
|104>    H        7.41461        -5.77319        -0.76651
|105>    H        9.57799        -6.64508        -1.92808
|106>    H       11.24293        -5.98732        -3.77995
|107>    H       12.33758        -4.97544        -5.64400
|108>    H       13.11751        -3.39763        -7.52328
|109>    H       12.56498        -1.16869        -8.59128
|110>    H        9.58038         3.24970        -6.91452
|111>    H       10.21665         4.51092        -9.02520
|112>    H       10.21551         3.45171       -10.43967
|113>    H       11.74599         3.98775        -9.73837
|114>    H       12.25341         1.88429       -10.74796
|115>    H       11.48321        -1.06330       -10.47888
|116>    H       12.87302         0.61680       -12.65118
|117>    H       11.93968        -2.29167       -12.53848
|118>    H       13.24133        -0.65246       -16.23075
|119> *
|120>
|121>                          ****END OF INPUT****

CARTESIAN COORDINATES (ANGSTROEM)
---------------------------------
  C      0.983080   -3.146470    4.102770
  C     -0.462630   -3.145580    3.963480
  C     -1.122350   -3.631450    2.828770
  C     -2.507460   -3.658590    2.743410
  C     -3.280620   -3.206400    3.809460
  C     -2.652510   -2.744360    4.962980
  C     -1.266370   -2.728250    5.029520
  F     -0.675740   -2.279960    6.142670
  F     -3.383570   -2.320350    5.995530
  F     -4.611090   -3.225850    3.729790
  F     -3.101380   -4.126300    1.643040
  F     -0.413800   -4.119950    1.805660
  C      1.875470   -2.800890    3.146610
  C      3.316500   -3.013460    3.402540
  C      3.792630   -4.230010    3.894440
  C      5.150020   -4.467000    4.080440
  C      6.073510   -3.469320    3.785520
  C      5.623250   -2.238480    3.316950
  C      4.262950   -2.022050    3.135210
  F      3.867300   -0.822030    2.704670
  F      6.498510   -1.271170    3.040300
  F      7.376700   -3.690850    3.949450
  F      5.568670   -5.651750    4.529020
  F      2.935290   -5.222080    4.154530
  C      1.541230   -2.156320    1.898830
  S      0.271680   -0.974610    1.819010
  C      0.659020   -0.637580    0.182630
  C      1.703000   -1.365770   -0.293620
  C      2.178220   -1.262880   -1.704080
  C      2.229250   -2.254330    0.695620
  C      3.286270   -3.211400    0.510530
  C      4.375860   -3.059800   -0.279680
  C      5.389000   -4.040330   -0.393130
  C      6.480690   -3.897010   -1.200480
  C      7.479790   -4.867330   -1.355060
  C      8.529370   -4.761870   -2.236310
  C      9.539560   -5.722630   -2.480210
  C     10.418890   -5.374730   -3.461190
  C     10.157500   -4.114710   -4.042830
  S      8.764380   -3.375460   -3.288890
  C     10.833880   -3.499220   -5.080010
  C     11.908630   -4.009390   -5.840370
  C     12.319980   -3.176570   -6.835820
  C     11.604700   -1.954710   -6.909640
  S     10.383080   -1.907560   -5.653990
  C     11.808020   -0.968780   -7.844090
  C     11.180820    0.283110   -7.921610
  S     10.255000    0.939170   -6.596440
  C     10.118850    2.456910   -7.395650
  C     10.729470    2.487850   -8.608080
  C     10.726940    3.680500   -9.505360
  C     11.320780    1.232570   -8.948990
  C     11.896160    1.000580  -10.232860
  C     11.930470   -0.177230  -10.905410
  C     12.414250   -0.271120  -12.234680
  C     12.307560   -1.384920  -12.997250
  C     12.705700   -1.472230  -14.375290
  C     13.126900   -2.820130  -14.835860
  C     14.401830   -3.039010  -15.355170
  C     14.814740   -4.295420  -15.785930
  C     13.939310   -5.374290  -15.706730
  C     12.660830   -5.181720  -15.192780
  C     12.270770   -3.917450  -14.762920
  F     11.031460   -3.763030  -14.289170
  F     11.812030   -6.207900  -15.114630
  F     14.322570   -6.581980  -16.118120
  F     16.044880   -4.469630  -16.270490
  F     15.268110   -2.024300  -15.425070
  C     12.771070   -0.459620  -15.275640
  C     12.267630    0.893760  -15.136000
  C     12.971830    1.951120  -15.728500
  C     12.538960    3.268090  -15.658620
  C     11.354690    3.569830  -14.992410
  C     10.610110    2.536740  -14.428880
  C     11.053870    1.225200  -14.517990
  F     10.276200    0.263640  -14.011660
  F      9.461900    2.812450  -13.801750
  F     10.932470    4.832400  -14.899900
  F     13.255550    4.244420  -16.220040
  F     14.116950    1.685070  -16.366500
  H      1.342700   -3.437100    5.079720
  H      0.075930    0.089070   -0.348720
  H      1.398810   -0.833980   -2.329190
  H      2.443490   -2.245290   -2.088540
  H      3.053850   -0.617350   -1.767970
  H      3.196310   -4.124170    1.086470
  H      4.521950   -2.144140   -0.832580
  H      5.272690   -4.952120    0.179730
  H      6.583230   -2.988730   -1.782040
  H      7.414610   -5.773190   -0.766510
  H      9.577990   -6.645080   -1.928080
  H     11.242930   -5.987320   -3.779950
  H     12.337580   -4.975440   -5.644000
  H     13.117510   -3.397630   -7.523280
  H     12.564980   -1.168690   -8.591280
  H      9.580380    3.249700   -6.914520
  H     10.216650    4.510920   -9.025200
  H     10.215510    3.451710  -10.439670
  H     11.745990    3.987750   -9.738370
  H     12.253410    1.884290  -10.747960
  H     11.483210   -1.063300  -10.478880
  H     12.873020    0.616800  -12.651180
  H     11.939680   -2.291670  -12.538480
  H     13.241330   -0.652460  -16.230750

 Total Charge           Charge          ....    0
 Multiplicity           Mult            ....    1
 Number of Electrons    NEL             ....  604
 Basis Dimension        Dim             .... 1256

ORBITAL ENERGIES
----------------

  NO   OCC          E(Eh)            E(eV)
   0   2.0000     -88.953751     -2420.5546
   1   2.0000     -88.949480     -2420.4384
   2   2.0000     -88.945391     -2420.3271
   3   2.0000     -88.943332     -2420.2711
   4   2.0000     -24.811207      -675.1473
   5   2.0000     -24.810314      -675.1230
   6   2.0000     -24.809971      -675.1136
   7   2.0000     -24.808653      -675.0778
   8   2.0000     -24.808117      -675.0632
   9   2.0000     -24.807289      -675.0407
  10   2.0000     -24.806999      -675.0328
  11   2.0000     -24.806963      -675.0318
  12   2.0000     -24.806465      -675.0182
  13   2.0000     -24.806437      -675.0175
  14   2.0000     -24.806395      -675.0163
  15   2.0000     -24.805921      -675.0034
  16   2.0000     -24.805740      -674.9985
  17   2.0000     -24.805356      -674.9880
  18   2.0000     -24.804954      -674.9771
  19   2.0000     -24.803769      -674.9449
  20   2.0000     -24.803347      -674.9334
  21   2.0000     -24.802898      -674.9212
  22   2.0000     -24.802011      -674.8970
  23   2.0000     -24.801875      -674.8933
  24   2.0000     -10.392674      -282.7990
  25   2.0000     -10.392165      -282.7852
  26   2.0000     -10.391962      -282.7797
  27   2.0000     -10.389781      -282.7203
  28   2.0000     -10.388462      -282.6844
  29   2.0000     -10.388053      -282.6733
  30   2.0000     -10.387884      -282.6687
  31   2.0000     -10.387717      -282.6642
  32   2.0000     -10.387710      -282.6640
  33   2.0000     -10.387238      -282.6511
  34   2.0000     -10.386947      -282.6432
  35   2.0000     -10.386857      -282.6408
  36   2.0000     -10.386740      -282.6376
  37   2.0000     -10.386132      -282.6210
  38   2.0000     -10.385825      -282.6127
  39   2.0000     -10.384974      -282.5895
  40   2.0000     -10.384586      -282.5789
  41   2.0000     -10.384222      -282.5691
  42   2.0000     -10.383674      -282.5541
  43   2.0000     -10.382472      -282.5214
  44   2.0000     -10.319949      -280.8201
  45   2.0000     -10.318310      -280.7755
  46   2.0000     -10.317619      -280.7567
  47   2.0000     -10.315652      -280.7032
  48   2.0000     -10.313345      -280.6404
  49   2.0000     -10.310857      -280.5727
  50   2.0000     -10.310474      -280.5623
  51   2.0000     -10.309082      -280.5244
  52   2.0000     -10.307074      -280.4697
  53   2.0000     -10.306477      -280.4535
  54   2.0000     -10.301799      -280.3262
  55   2.0000     -10.298466      -280.2355
  56   2.0000     -10.297594      -280.2118
  57   2.0000     -10.297025      -280.1963
  58   2.0000     -10.287965      -279.9498
  59   2.0000     -10.287629      -279.9406
  60   2.0000     -10.286196      -279.9016
  61   2.0000     -10.284628      -279.8590
  62   2.0000     -10.284625      -279.8589
  63   2.0000     -10.284461      -279.8544
  64   2.0000     -10.284333      -279.8509
  65   2.0000     -10.284258      -279.8489
  66   2.0000     -10.283313      -279.8232
  67   2.0000     -10.280031      -279.7339
  68   2.0000     -10.279641      -279.7232
  69   2.0000     -10.277871      -279.6751
  70   2.0000     -10.277558      -279.6666
  71   2.0000     -10.277118      -279.6546
  72   2.0000     -10.276920      -279.6492
  73   2.0000     -10.276751      -279.6446
  74   2.0000     -10.276207      -279.6298
  75   2.0000     -10.276016      -279.6246
  76   2.0000     -10.275601      -279.6133
  77   2.0000     -10.275125      -279.6004
  78   2.0000     -10.268202      -279.4120
  79   2.0000     -10.265650      -279.3425
  80   2.0000      -8.048968      -219.0236
  81   2.0000      -8.045297      -218.9237
  82   2.0000      -8.041432      -218.8185
  83   2.0000      -8.039814      -218.7745
  84   2.0000      -6.018262      -163.7652
  85   2.0000      -6.014612      -163.6659
  86   2.0000      -6.014039      -163.6503
  87   2.0000      -6.011302      -163.5758
  88   2.0000      -6.011178      -163.5725
  89   2.0000      -6.010266      -163.5476
  90   2.0000      -6.009506      -163.5270
  91   2.0000      -6.007489      -163.4721
  92   2.0000      -6.007078      -163.4609
  93   2.0000      -6.005565      -163.4197
  94   2.0000      -6.002391      -163.3334
  95   2.0000      -6.000670      -163.2865
  96   2.0000      -1.337851       -36.4048
  97   2.0000      -1.337231       -36.3879
  98   2.0000      -1.336784       -36.3757
  99   2.0000      -1.334328       -36.3089
 100   2.0000      -1.331050       -36.2197
 101   2.0000      -1.329936       -36.1894
 102   2.0000      -1.329194       -36.1692
 103   2.0000      -1.326827       -36.1048
 104   2.0000      -1.325124       -36.0585
 105   2.0000      -1.324030       -36.0287
 106   2.0000      -1.323397       -36.0115
 107   2.0000      -1.321294       -35.9542
 108   2.0000      -1.315561       -35.7982
 109   2.0000      -1.314447       -35.7679
 110   2.0000      -1.313808       -35.7505
 111   2.0000      -1.311691       -35.6929
 112   2.0000      -1.311310       -35.6826
 113   2.0000      -1.310487       -35.6602
 114   2.0000      -1.309431       -35.6314
 115   2.0000      -1.307304       -35.5736
 116   2.0000      -1.001542       -27.2534
 117   2.0000      -0.999844       -27.2071
 118   2.0000      -0.995913       -27.1002
 119   2.0000      -0.995372       -27.0855
 120   2.0000      -0.992779       -27.0149
 121   2.0000      -0.983063       -26.7505
 122   2.0000      -0.982951       -26.7474
 123   2.0000      -0.970269       -26.4024
 124   2.0000      -0.943207       -25.6660
 125   2.0000      -0.931022       -25.3344
 126   2.0000      -0.917251       -24.9597
 127   2.0000      -0.908075       -24.7100
 128   2.0000      -0.896261       -24.3885
 129   2.0000      -0.890949       -24.2439
 130   2.0000      -0.889616       -24.2077
 131   2.0000      -0.881591       -23.9893
 132   2.0000      -0.867271       -23.5997
 133   2.0000      -0.864005       -23.5108
 134   2.0000      -0.863971       -23.5098
 135   2.0000      -0.862538       -23.4709
 136   2.0000      -0.861476       -23.4420
 137   2.0000      -0.860291       -23.4097
 138   2.0000      -0.855490       -23.2791
 139   2.0000      -0.844080       -22.9686
 140   2.0000      -0.841911       -22.9096
 141   2.0000      -0.834156       -22.6985
 142   2.0000      -0.830035       -22.5864
 143   2.0000      -0.820858       -22.3367
 144   2.0000      -0.810091       -22.0437
 145   2.0000      -0.795289       -21.6409
 146   2.0000      -0.781703       -21.2712
 147   2.0000      -0.775100       -21.0916
 148   2.0000      -0.769903       -20.9501
 149   2.0000      -0.760874       -20.7044
 150   2.0000      -0.752037       -20.4640
 151   2.0000      -0.748953       -20.3800
 152   2.0000      -0.747555       -20.3420
 153   2.0000      -0.747037       -20.3279
 154   2.0000      -0.744011       -20.2456
 155   2.0000      -0.741910       -20.1884
 156   2.0000      -0.738290       -20.0899
 157   2.0000      -0.730907       -19.8890
 158   2.0000      -0.718021       -19.5383
 159   2.0000      -0.702661       -19.1204
 160   2.0000      -0.695540       -18.9266
 161   2.0000      -0.686850       -18.6901
 162   2.0000      -0.684974       -18.6391
 163   2.0000      -0.684756       -18.6332
 164   2.0000      -0.682655       -18.5760
 165   2.0000      -0.681914       -18.5558
 166   2.0000      -0.677305       -18.4304
 167   2.0000      -0.675994       -18.3947
 168   2.0000      -0.674293       -18.3484
 169   2.0000      -0.671628       -18.2759
 170   2.0000      -0.670736       -18.2517
 171   2.0000      -0.662112       -18.0170
 172   2.0000      -0.658876       -17.9289
 173   2.0000      -0.655091       -17.8259
 174   2.0000      -0.652862       -17.7653
 175   2.0000      -0.647693       -17.6246
 176   2.0000      -0.646019       -17.5791
 177   2.0000      -0.636407       -17.3175
 178   2.0000      -0.630632       -17.1604
 179   2.0000      -0.629033       -17.1169
 180   2.0000      -0.628331       -17.0978
 181   2.0000      -0.627377       -17.0718
 182   2.0000      -0.626624       -17.0513
 183   2.0000      -0.625456       -17.0195
 184   2.0000      -0.624907       -17.0046
 185   2.0000      -0.624517       -16.9940
 186   2.0000      -0.623647       -16.9703
 187   2.0000      -0.621746       -16.9186
 188   2.0000      -0.619146       -16.8478
 189   2.0000      -0.614548       -16.7227
 190   2.0000      -0.613546       -16.6954
 191   2.0000      -0.612818       -16.6756
 192   2.0000      -0.610688       -16.6177
 193   2.0000      -0.607709       -16.5366
 194   2.0000      -0.606941       -16.5157
 195   2.0000      -0.605551       -16.4779
 196   2.0000      -0.603660       -16.4264
 197   2.0000      -0.601360       -16.3638
 198   2.0000      -0.599267       -16.3069
 199   2.0000      -0.596252       -16.2248
 200   2.0000      -0.590668       -16.0729
 201   2.0000      -0.585328       -15.9276
 202   2.0000      -0.583135       -15.8679
 203   2.0000      -0.582543       -15.8518
 204   2.0000      -0.581807       -15.8318
 205   2.0000      -0.580656       -15.8004
 206   2.0000      -0.579599       -15.7717
 207   2.0000      -0.574497       -15.6329
 208   2.0000      -0.571888       -15.5619
 209   2.0000      -0.570711       -15.5298
 210   2.0000      -0.568205       -15.4616
 211   2.0000      -0.564560       -15.3625
 212   2.0000      -0.553394       -15.0586
 213   2.0000      -0.552359       -15.0305
 214   2.0000      -0.551451       -15.0057
 215   2.0000      -0.550984       -14.9931
 216   2.0000      -0.548956       -14.9379
 217   2.0000      -0.547379       -14.8950
 218   2.0000      -0.546349       -14.8669
 219   2.0000      -0.546160       -14.8618
 220   2.0000      -0.543918       -14.8008
 221   2.0000      -0.543801       -14.7976
 222   2.0000      -0.541197       -14.7267
 223   2.0000      -0.537289       -14.6204
 224   2.0000      -0.534845       -14.5539
 225   2.0000      -0.529054       -14.3963
 226   2.0000      -0.527275       -14.3479
 227   2.0000      -0.526179       -14.3181
 228   2.0000      -0.526073       -14.3152
 229   2.0000      -0.523977       -14.2581
 230   2.0000      -0.521743       -14.1973
 231   2.0000      -0.521414       -14.1884
 232   2.0000      -0.521228       -14.1833
 233   2.0000      -0.519946       -14.1485
 234   2.0000      -0.517025       -14.0690
 235   2.0000      -0.514219       -13.9926
 236   2.0000      -0.511690       -13.9238
 237   2.0000      -0.507166       -13.8007
 238   2.0000      -0.505658       -13.7597
 239   2.0000      -0.501940       -13.6585
 240   2.0000      -0.497913       -13.5489
 241   2.0000      -0.497229       -13.5303
 242   2.0000      -0.496289       -13.5047
 243   2.0000      -0.495759       -13.4903
 244   2.0000      -0.494639       -13.4598
 245   2.0000      -0.493062       -13.4169
 246   2.0000      -0.491435       -13.3726
 247   2.0000      -0.490553       -13.3486
 248   2.0000      -0.487678       -13.2704
 249   2.0000      -0.485754       -13.2180
 250   2.0000      -0.484022       -13.1709
 251   2.0000      -0.481034       -13.0896
 252   2.0000      -0.476230       -12.9589
 253   2.0000      -0.475329       -12.9344
 254   2.0000      -0.471575       -12.8322
 255   2.0000      -0.466511       -12.6944
 256   2.0000      -0.466397       -12.6913
 257   2.0000      -0.464986       -12.6529
 258   2.0000      -0.463336       -12.6080
 259   2.0000      -0.462956       -12.5977
 260   2.0000      -0.457625       -12.4526
 261   2.0000      -0.456036       -12.4094
 262   2.0000      -0.454109       -12.3569
 263   2.0000      -0.453310       -12.3352
 264   2.0000      -0.452159       -12.3039
 265   2.0000      -0.449539       -12.2326
 266   2.0000      -0.447965       -12.1898
 267   2.0000      -0.446145       -12.1402
 268   2.0000      -0.440878       -11.9969
 269   2.0000      -0.440547       -11.9879
 270   2.0000      -0.438644       -11.9361
 271   2.0000      -0.437657       -11.9093
 272   2.0000      -0.436839       -11.8870
 273   2.0000      -0.429788       -11.6951
 274   2.0000      -0.423360       -11.5202
 275   2.0000      -0.421170       -11.4606
 276   2.0000      -0.419339       -11.4108
 277   2.0000      -0.417624       -11.3641
 278   2.0000      -0.413494       -11.2518
 279   2.0000      -0.407544       -11.0898
 280   2.0000      -0.391475       -10.6526
 281   2.0000      -0.388797       -10.5797
 282   2.0000      -0.387620       -10.5477
 283   2.0000      -0.386191       -10.5088
 284   2.0000      -0.362556        -9.8657
 285   2.0000      -0.349015        -9.4972
 286   2.0000      -0.343072        -9.3355
 287   2.0000      -0.338406        -9.2085
 288   2.0000      -0.335821        -9.1381
 289   2.0000      -0.329856        -8.9758
 290   2.0000      -0.327107        -8.9010
 291   2.0000      -0.326647        -8.8885
 292   2.0000      -0.324983        -8.8432
 293   2.0000      -0.323714        -8.8087
 294   2.0000      -0.321762        -8.7556
 295   2.0000      -0.317072        -8.6280
 296   2.0000      -0.306724        -8.3464
 297   2.0000      -0.297117        -8.0850
 298   2.0000      -0.278296        -7.5728
 299   2.0000      -0.270669        -7.3653
 300   2.0000      -0.253809        -6.9065
 301   2.0000      -0.203687        -5.5426
 302   0.0000      -0.086805        -2.3621
 303   0.0000      -0.056889        -1.5480
 304   0.0000      -0.046254        -1.2586
 305   0.0000      -0.019841        -0.5399
 306   0.0000       0.002744         0.0747

MULLIKEN ATOMIC CHARGES
-----------------------
   0 C :    0.000545
   1 C :   -0.112366
   2 C :    0.203738
   3 C :    0.181207
   4 C :    0.123499
   5 C :    0.176434
   6 C :    0.173656
   7 F :   -0.161996
   8 F :   -0.158643
   9 F :   -0.154271
  10 F :   -0.160240
  11 F :   -0.156654
  12 C :    0.073178
  13 C :   -0.145480
  14 C :    0.179897
  15 C :    0.166282
  16 C :    0.131813
  17 C :    0.167598
  18 C :    0.223587
  19 F :   -0.154573
  20 F :   -0.156850
  21 F :   -0.153291
  22 F :   -0.159610
  23 F :   -0.161801
  24 C :   -0.211759
  25 S :    0.121435
  26 C :   -0.111288
  27 C :   -0.089651
  28 C :    0.107604
  29 C :    0.140934
  30 C :   -0.038219
  31 C :    0.012463
  32 C :    0.007527
  33 C :    0.011202
  34 C :   -0.011425
  35 C :   -0.018641
  36 C :    0.037152
  37 C :    0.024954
  38 C :   -0.046259
  39 S :    0.073352
  40 C :   -0.042459
  41 C :    0.029887
  42 C :    0.029175
  43 C :   -0.039991
  44 S :    0.076576
  45 C :   -0.023964
  46 C :   -0.130505
  47 S :    0.103946
  48 C :   -0.117245
  49 C :   -0.071027
  50 C :    0.115005
  51 C :    0.127317
  52 C :   -0.044089
  53 C :   -0.000566
  54 C :    0.027633
  55 C :   -0.011126
  56 C :    0.054496
  57 C :   -0.106094
  58 C :    0.175574
  59 C :    0.173081
  60 C :    0.129185
  61 C :    0.173254
  62 C :    0.181135
  63 F :   -0.160502
  64 F :   -0.158551
  65 F :   -0.154505
  66 F :   -0.157371
  67 F :   -0.160278
  68 C :   -0.011661
  69 C :   -0.098974
  70 C :    0.165042
  71 C :    0.175441
  72 C :    0.123849
  73 C :    0.185931
  74 C :    0.170223
  75 F :   -0.152676
  76 F :   -0.161911
  77 F :   -0.156163
  78 F :   -0.158254
  79 F :   -0.160443
  80 H :    0.013336
  81 H :    0.014708
  82 H :    0.009461
  83 H :    0.032020
  84 H :    0.036988
  85 H :   -0.002823
  86 H :   -0.013690
  87 H :   -0.017006
  88 H :   -0.000961
  89 H :   -0.015674
  90 H :   -0.012425
  91 H :   -0.013195
  92 H :   -0.015575
  93 H :   -0.013592
  94 H :   -0.003408
  95 H :    0.014636
  96 H :    0.009725
  97 H :    0.031429
  98 H :    0.028708
  99 H :   -0.018302
 100 H :    0.003162
 101 H :    0.005713
 102 H :   -0.004098
 103 H :    0.017427
Sum of atomic charges:   -0.0000000

LOEWDIN ATOMIC CHARGES
----------------------
   0 C :   -0.012503
   1 C :   -0.091167
   2 C :    0.060437
   3 C :    0.026429
   4 C :    0.040804
   5 C :    0.024101
   6 C :    0.065761
   7 F :   -0.042038
   8 F :   -0.038743
   9 F :   -0.032375
  10 F :   -0.039264
  11 F :   -0.032377
  12 C :   -0.022575
  13 C :   -0.072596
  14 C :    0.060642
  15 C :    0.022544
  16 C :    0.041933
  17 C :    0.028364
  18 C :    0.072888
  19 F :   -0.030744
  20 F :   -0.036392
  21 F :   -0.031155
  22 F :   -0.039277
  23 F :   -0.038634
  24 C :   -0.184850
  25 S :    0.448534
  26 C :   -0.185685
  27 C :   -0.052929
  28 C :   -0.045315
  29 C :   -0.051223
  30 C :   -0.027542
  31 C :   -0.022872
  32 C :   -0.025870
  33 C :   -0.028834
  34 C :   -0.057008
  35 C :   -0.142706
  36 C :   -0.033204
  37 C :   -0.031451
  38 C :   -0.177003
  39 S :    0.370820
  40 C :   -0.179758
  41 C :   -0.036203
  42 C :   -0.033297
  43 C :   -0.153895
  44 S :    0.370985
  45 C :   -0.074478
  46 C :   -0.162521
  47 S :    0.428485
  48 C :   -0.193884
  49 C :   -0.054324
  50 C :   -0.044963
  51 C :   -0.067987
  52 C :   -0.005790
  53 C :   -0.030113
  54 C :    0.000827
  55 C :   -0.040243
  56 C :   -0.004543
  57 C :   -0.065855
  58 C :    0.061732
  59 C :    0.025943
  60 C :    0.037878
  61 C :    0.026148
  62 C :    0.060843
  63 F :   -0.037683
  64 F :   -0.037740
  65 F :   -0.032228
  66 F :   -0.037221
  67 F :   -0.038750
  68 C :   -0.017749
  69 C :   -0.081131
  70 C :    0.062946
  71 C :    0.024359
  72 C :    0.037169
  73 C :    0.024880
  74 C :    0.062691
  75 F :   -0.027452
  76 F :   -0.040748
  77 F :   -0.034391
  78 F :   -0.038515
  79 F :   -0.040371
  80 H :    0.036907
  81 H :    0.021945
  82 H :    0.033026
  83 H :    0.036210
  84 H :    0.035011
  85 H :    0.029715
  86 H :    0.029083
  87 H :    0.026136
  88 H :    0.023104
  89 H :    0.032858
  90 H :    0.033743
  91 H :    0.031936
  92 H :    0.031346
  93 H :    0.032853
  94 H :    0.039413
  95 H :    0.021352
  96 H :    0.033948
  97 H :    0.036593
  98 H :    0.033717
  99 H :    0.027470
 100 H :    0.030793
 101 H :    0.029296
 102 H :    0.027079
 103 H :    0.036490

  Mayer bond orders larger than 0.100000
B(  0-C ,  1-C ) :   1.0264 B(  0-C , 12-C ) :   1.7879 B(  0-C , 80-H ) :   0.9578
B(  1-C ,  2-C ) :   1.3073 B(  1-C ,  4-C ) :   0.1107 B(  1-C ,  6-C ) :   1.3180
B(  2-C ,  3-C ) :   1.2916 B(  2-C , 11-F ) :   1.1600 B(  3-C ,  4-C ) :   1.2763
B(  3-C , 10-F ) :   1.1706 B(  4-C ,  5-C ) :   1.2700 B(  4-C ,  9-F ) :   1.1746
B(  5-C ,  6-C ) :   1.2820 B(  5-C ,  8-F ) :   1.1725 B(  6-C ,  7-F ) :   1.1824
B( 12-C , 13-C ) :   0.9770 B( 12-C , 24-C ) :   1.0596 B( 13-C , 14-C ) :   1.3384
B( 13-C , 16-C ) :   0.1078 B( 13-C , 18-C ) :   1.3198 B( 14-C , 15-C ) :   1.2844
B( 14-C , 23-F ) :   1.1593 B( 15-C , 16-C ) :   1.2763 B( 15-C , 22-F ) :   1.1699
B( 16-C , 17-C ) :   1.2745 B( 16-C , 21-F ) :   1.1777 B( 17-C , 18-C ) :   1.2942
B( 17-C , 20-F ) :   1.1750 B( 18-C , 19-F ) :   1.1663 B( 24-C , 25-S ) :   1.1416
B( 24-C , 29-C ) :   1.4736 B( 25-S , 26-C ) :   1.1419 B( 26-C , 27-C ) :   1.5951
B( 26-C , 81-H ) :   0.9672 B( 27-C , 28-C ) :   1.0927 B( 27-C , 29-C ) :   1.2424
B( 28-C , 82-H ) :   0.9466 B( 28-C , 83-H ) :   0.9455 B( 28-C , 84-H ) :   0.9421
B( 29-C , 30-C ) :   1.0752 B( 30-C , 31-C ) :   1.6607 B( 30-C , 85-H ) :   0.9518
B( 31-C , 32-C ) :   1.1369 B( 31-C , 86-H ) :   0.9833 B( 32-C , 33-C ) :   1.6048
B( 32-C , 87-H ) :   0.9923 B( 33-C , 34-C ) :   1.1547 B( 33-C , 88-H ) :   0.9751
B( 34-C , 35-C ) :   1.5556 B( 34-C , 89-H ) :   0.9817 B( 35-C , 36-C ) :   1.1497
B( 35-C , 39-S ) :   1.0335 B( 36-C , 37-C ) :   1.5816 B( 36-C , 90-H ) :   0.9992
B( 37-C , 38-C ) :   1.1940 B( 37-C , 91-H ) :   0.9943 B( 38-C , 39-S ) :   1.0471
B( 38-C , 40-C ) :   1.5015 B( 40-C , 41-C ) :   1.1896 B( 40-C , 44-S ) :   1.0426
B( 41-C , 42-C ) :   1.5858 B( 41-C , 92-H ) :   0.9931 B( 42-C , 43-C ) :   1.1471
B( 42-C , 93-H ) :   1.0004 B( 43-C , 44-S ) :   1.0381 B( 43-C , 45-C ) :   1.5627
B( 45-C , 46-C ) :   1.1994 B( 45-C , 94-H ) :   0.9598 B( 46-C , 47-S ) :   1.1238
B( 46-C , 51-C ) :   1.3900 B( 47-S , 48-C ) :   1.1279 B( 48-C , 49-C ) :   1.5968
B( 48-C , 95-H ) :   0.9654 B( 49-C , 50-C ) :   1.0950 B( 49-C , 51-C ) :   1.2376
B( 50-C , 96-H ) :   0.9498 B( 50-C , 97-H ) :   0.9432 B( 50-C , 98-H ) :   0.9418
B( 51-C , 52-C ) :   1.1057 B( 52-C , 53-C ) :   1.6470 B( 52-C , 99-H ) :   0.9579
B( 53-C , 54-C ) :   1.1463 B( 53-C ,100-H ) :   0.9860 B( 54-C , 55-C ) :   1.6897
B( 54-C ,101-H ) :   0.9709 B( 55-C , 56-C ) :   1.0848 B( 55-C ,102-H ) :   0.9632
B( 56-C , 57-C ) :   0.9326 B( 56-C , 68-C ) :   1.7739 B( 57-C , 58-C ) :   1.3621
B( 57-C , 60-C ) :   0.1050 B( 57-C , 62-C ) :   1.3554 B( 58-C , 59-C ) :   1.2756
B( 58-C , 67-F ) :   1.1677 B( 59-C , 60-C ) :   1.2752 B( 59-C , 66-F ) :   1.1731
B( 60-C , 61-C ) :   1.2756 B( 60-C , 65-F ) :   1.1744 B( 61-C , 62-C ) :   1.2760
B( 61-C , 64-F ) :   1.1715 B( 62-C , 63-F ) :   1.1641 B( 68-C , 69-C ) :   1.0405
B( 68-C ,103-H ) :   0.9538 B( 69-C , 70-C ) :   1.3218 B( 69-C , 72-C ) :   0.1092
B( 69-C , 74-C ) :   1.3034 B( 70-C , 71-C ) :   1.2797 B( 70-C , 79-F ) :   1.1805
B( 71-C , 72-C ) :   1.2721 B( 71-C , 78-F ) :   1.1741 B( 72-C , 73-C ) :   1.2708
B( 72-C , 77-F ) :   1.1730 B( 73-C , 74-C ) :   1.2939 B( 73-C , 76-F ) :   1.1639
B( 74-C , 75-F ) :   1.1608

-----------------------------------------------------------------------------
         ABSORPTION SPECTRUM VIA TRANSITION ELECTRIC DIPOLE MOMENTS
-----------------------------------------------------------------------------
State   Energy  Wavelength   fosc         T2         TX        TY        TZ
        (cm-1)    (nm)                  (au**2)     (au)      (au)      (au)
-----------------------------------------------------------------------------
   0   12713.7    786.6   1.721886213  44.58709   3.54414   2.04403  -5.27713
   1   19224.2    520.2   0.092387865   1.58213   1.20793  -0.32413   0.13405
   2   22258.3    449.3   0.079678734   1.17849   0.39981  -1.00772  -0.05610
   3   22654.0    441.4   0.229370715   3.33326   1.63812  -0.64341   0.48566
   4   26022.3    384.3   0.144034087   1.82220   0.08853  -0.10376   1.34298
   5   27333.4    365.9   0.476255303   5.73617   1.82229  -0.95890  -1.22308
   6   28657.7    348.9   0.253653571   2.91390   0.77332  -1.49315  -0.29390
   7   29926.0    334.2   0.095916034   1.05516  -0.13527  -0.10410   1.01293
   8   30411.7    328.8   0.127744778   1.38286   0.51247   0.06548  -1.05638
   9   31440.4    318.1   0.054727909   0.57306   0.71320   0.08149  -0.24035
  10   31940.4    313.1   0.003922620   0.04043  -0.09449  -0.14778  -0.09830
  11   32211.5    310.4   0.083571574   0.85413  -0.57036   0.57358   0.44702
  12   32284.6    309.7   0.016903421   0.17237   0.21601   0.04368  -0.35185
  13   33112.6    302.0   0.075500363   0.75064   0.34707   0.78178  -0.13784
  14   33455.2    298.9   0.085438769   0.84075   0.67587   0.16155  -0.59821
  15   34321.2    291.4   0.016719198   0.16037   0.19569  -0.32132   0.13723
  16   34487.4    290.0   0.143569441   1.37049  -0.71426   0.92746  -0.01240
  17   35036.7    285.4   0.020979203   0.19712  -0.02212   0.38532   0.21947
  18   35757.4    279.7   0.009345250   0.08604  -0.14829   0.24825   0.04922
  19   35875.9    278.7   0.013352744   0.12253   0.34026   0.03149  -0.07592
  20   36352.8    275.1   0.069228817   0.62694  -0.76073  -0.18452  -0.11908
  21   36632.6    273.0   0.014581110   0.13104  -0.27845   0.01767  -0.23064
  22   37039.9    270.0   0.132982082   1.18195  -0.82811   0.46098   0.53262
  23   37157.9    269.1   0.004261516   0.03776  -0.10644   0.14083   0.08120
  24   37231.0    268.6   0.019323877   0.17087  -0.10710   0.39332  -0.06856
  25   37687.7    265.3   0.026657676   0.23286   0.07991   0.41980  -0.22415
  26   37923.4    263.7   0.042843579   0.37192   0.52102   0.02002   0.31633
  27   38156.6    262.1   0.042030744   0.36264   0.24593  -0.08353  -0.54330
  28   39121.3    255.6   0.074796339   0.62942   0.35467  -0.45767  -0.54237
  29   39279.5    254.6   0.056476126   0.47334   0.16445  -0.52591  -0.41196
  30   39897.9    250.6   0.086468198   0.71348  -0.18387   0.80494  -0.17818
  31   40162.3    249.0   0.282244265   2.31357  -0.84516   1.22477   0.31497

FINAL SINGLE POINT ENERGY     -5732.493845488607

DIPOLE MOMENT
-------------
                                X             Y             Z
Electronic contribution:    -24.73679     -13.17260      -5.38779
Nuclear contribution   :     25.40920      13.11166       5.22355
                        -----------------------------------------
Total Dipole Moment    :      0.67241      -0.06094      -0.16424
                        -----------------------------------------
Magnitude (a.u.)       :      0.69486
Magnitude (Debye)      :      1.76618

Rotational constants in cm-1:     0.001193     0.000152     0.000147
Rotational constants in MHz :    35.777570     4.562938     4.406474

                             ****ORCA TERMINATED NORMALLY****
TOTAL RUN TIME: 0 days 0 hours 11 minutes 36 seconds 192 msec
