                         Program Version 4.2.0 -  RELEASE  -
|  1> # ORCA input file
|  2> # SCF done       -206.045990827570          0.000613879238
|  3> ! CAM-B3LYP def2-SVP def2/J RIJCOSX Grid4 TightSCF
|  4> %maxcore 5000
|  5> %tddft
|  6>     Mode sTDDFT
|  7>     Ethresh 5.0
|  8>     maxcore 5000
|  9> end
| 10>
| 11> %pal
| 12>   nprocs 6
| 13>   end
| 14> * xyz 0 1
| 15>    C        5.96521        -5.88741        -5.69702
| 16>    C        5.06728        -6.24440        -6.66441
| 17>    F        4.97608        -7.53445        -7.04014
| 18>    C        4.22608        -5.31466        -7.28905
| 19>    C        4.30408        -4.00039        -6.91928
| 20>    C        5.21113        -3.57753        -5.92698
| 21>    C        6.05900        -4.53849        -5.30466
| 22>    C        6.98218        -4.13743        -4.30891
| 23>    C        7.04919        -2.82042        -3.94726
| 24>    C        6.18779        -1.86747        -4.56291
| 25>    C        5.29483        -2.22320        -5.53049
| 26>    C        6.42859        -0.54129        -3.96105
| 27>    O        5.90297         0.51247        -4.25052
| 28>    C        7.41585        -0.77340        -2.88047
| 29>    C        7.90170        -2.11890        -2.98420
| 30>    C        9.06600        -2.62738        -2.45234
| 31>    C       10.02462        -1.86733        -1.75535
| 32>    N       10.86108        -1.29296        -1.21636
| 33>    C        9.49821        -3.95467        -2.63624
| 34>    N        9.89195        -5.02983        -2.73078
| 35>    C        7.62322         0.22131        -1.94530
| 36>    C        8.15105         0.10528        -0.66777
| 37>    C        8.34005         1.18639         0.17911
| 38>    C        8.81579         1.14895         1.50372
| 39>    C        8.89223         2.37805         2.10308
| 40>    C        8.48961         3.43441         1.26930
| 41>    S        8.01115         2.83415        -0.29668
| 42>    C        8.44580         4.79582         1.56819
| 43>    C        8.75730         5.43583         2.77613
| 44>    C        8.58600         6.79555         2.73426
| 45>    C        8.15849         7.29211         1.48891
| 46>    S        7.95145         5.96265         0.37116
| 47>    C        7.81887         8.62353         1.26380
| 48>    C        7.44125         9.30523         0.11914
| 49>    S        6.56951        10.80438         0.34778
| 50>    C        6.31942        11.06488        -1.35975
| 51>    C        6.91274         9.99818        -2.09766
| 52>    C        7.59087         9.05355        -1.27704
| 53>    C        8.38266         8.06610        -1.87280
| 54>    C        8.39230         7.93972        -3.23901
| 55>    F        9.15808         7.00212        -3.81198
| 56>    C        7.60089         8.77634        -4.03960
| 57>    F        7.56812         8.59199        -5.36748
| 58>    C        6.87644         9.80087        -3.48366
| 59>    C        5.64483        12.21425        -1.74021
| 60>    C        5.55404        12.76718        -3.01070
| 61>    C        4.79765        13.86746        -3.37606
| 62>    C        3.85170        14.59072        -2.65243
| 63>    C        3.15078        15.69787        -3.16234
| 64>    C        2.25108        16.25234        -2.28925
| 65>    C        2.20301        15.60267        -1.04744
| 66>    S        3.32334        14.26771        -1.01771
| 67>    C        1.41528        15.92900         0.05608
| 68>    C        0.47650        16.96920         0.15355
| 69>    C       -0.13197        17.04527         1.37758
| 70>    C        0.30257        16.06980         2.29437
| 71>    S        1.50948        15.04485         1.55760
| 72>    C       -0.11747        15.93790         3.60837
| 73>    C        0.32288        14.95177         4.47801
| 74>    C       -0.00503        14.81791         5.81402
| 75>    C        0.13083        13.50263         6.47843
| 76>    O        0.70812        12.52522         6.05014
| 77>    C       -0.62815        13.62360         7.74082
| 78>    C       -0.90639        12.66932         8.67470
| 79>    C       -1.69789        13.01058         9.79579
| 80>    C       -2.18822        14.34202         9.92327
| 81>    C       -2.98625        14.67321        11.03477
| 82>    C       -3.27094        13.71384        11.96649
| 83>    C       -2.79620        12.40025        11.86118
| 84>    C       -2.02003        12.06207        10.78713
| 85>    F       -4.03546        14.02856        13.02944
| 86>    C       -1.87286        15.31458         8.94404
| 87>    C       -1.10102        14.96109         7.87249
| 88>    C       -0.60348        15.73877         6.73631
| 89>    C       -0.54560        17.11459         6.69038
| 90>    C        0.20139        17.84548         5.74659
| 91>    N        0.82991        18.49243         5.03467
| 92>    C       -1.13400        17.95693         7.65226
| 93>    N       -1.61458        18.69650         8.38856
| 94>    H        6.59961        -6.63060        -5.23971
| 95>    H        3.53704        -5.65454        -8.04590
| 96>    H        3.66637        -3.26469        -7.38604
| 97>    H        7.60617        -4.88927        -3.85261
| 98>    H        4.65673        -1.48165        -5.98733
| 99>    H        7.23069         1.19279        -2.23380
|100>    H        8.40234        -0.86702        -0.27000
|101>    H        9.09176         0.22323         1.97583
|102>    H        9.22922         2.53855         3.11117
|103>    H        9.08698         4.89618         3.64491
|104>    H        8.76680         7.45051         3.56812
|105>    H        7.75882         9.21205         2.17348
|106>    H        9.00658         7.41397        -1.28811
|107>    H        6.27960        10.41889        -4.13082
|108>    H        5.19710        12.76526        -0.92360
|109>    H        6.17037        12.34963        -3.79192
|110>    H        4.93177        14.22168        -4.39112
|111>    H        3.32420        16.06362        -4.15900
|112>    H        1.63543        17.10250        -2.51898
|113>    H        0.26753        17.63322        -0.66538
|114>    H       -0.86887        17.78058         1.64633
|115>    H       -0.85699        16.65224         3.94177
|116>    H        0.91858        14.14250         4.06654
|117>    H       -0.53086        11.66341         8.56053
|118>    H       -3.36633        15.67633        11.14978
|119>    H       -3.05284        11.68576        12.62719
|120>    H       -1.64282        11.05566        10.68393
|121>    H       -2.26126        16.31338         9.06484
|122> *
|123>
|124>                          ****END OF INPUT****

CARTESIAN COORDINATES (ANGSTROEM)
---------------------------------
  C      5.965210   -5.887410   -5.697020
  C      5.067280   -6.244400   -6.664410
  F      4.976080   -7.534450   -7.040140
  C      4.226080   -5.314660   -7.289050
  C      4.304080   -4.000390   -6.919280
  C      5.211130   -3.577530   -5.926980
  C      6.059000   -4.538490   -5.304660
  C      6.982180   -4.137430   -4.308910
  C      7.049190   -2.820420   -3.947260
  C      6.187790   -1.867470   -4.562910
  C      5.294830   -2.223200   -5.530490
  C      6.428590   -0.541290   -3.961050
  O      5.902970    0.512470   -4.250520
  C      7.415850   -0.773400   -2.880470
  C      7.901700   -2.118900   -2.984200
  C      9.066000   -2.627380   -2.452340
  C     10.024620   -1.867330   -1.755350
  N     10.861080   -1.292960   -1.216360
  C      9.498210   -3.954670   -2.636240
  N      9.891950   -5.029830   -2.730780
  C      7.623220    0.221310   -1.945300
  C      8.151050    0.105280   -0.667770
  C      8.340050    1.186390    0.179110
  C      8.815790    1.148950    1.503720
  C      8.892230    2.378050    2.103080
  C      8.489610    3.434410    1.269300
  S      8.011150    2.834150   -0.296680
  C      8.445800    4.795820    1.568190
  C      8.757300    5.435830    2.776130
  C      8.586000    6.795550    2.734260
  C      8.158490    7.292110    1.488910
  S      7.951450    5.962650    0.371160
  C      7.818870    8.623530    1.263800
  C      7.441250    9.305230    0.119140
  S      6.569510   10.804380    0.347780
  C      6.319420   11.064880   -1.359750
  C      6.912740    9.998180   -2.097660
  C      7.590870    9.053550   -1.277040
  C      8.382660    8.066100   -1.872800
  C      8.392300    7.939720   -3.239010
  F      9.158080    7.002120   -3.811980
  C      7.600890    8.776340   -4.039600
  F      7.568120    8.591990   -5.367480
  C      6.876440    9.800870   -3.483660
  C      5.644830   12.214250   -1.740210
  C      5.554040   12.767180   -3.010700
  C      4.797650   13.867460   -3.376060
  C      3.851700   14.590720   -2.652430
  C      3.150780   15.697870   -3.162340
  C      2.251080   16.252340   -2.289250
  C      2.203010   15.602670   -1.047440
  S      3.323340   14.267710   -1.017710
  C      1.415280   15.929000    0.056080
  C      0.476500   16.969200    0.153550
  C     -0.131970   17.045270    1.377580
  C      0.302570   16.069800    2.294370
  S      1.509480   15.044850    1.557600
  C     -0.117470   15.937900    3.608370
  C      0.322880   14.951770    4.478010
  C     -0.005030   14.817910    5.814020
  C      0.130830   13.502630    6.478430
  O      0.708120   12.525220    6.050140
  C     -0.628150   13.623600    7.740820
  C     -0.906390   12.669320    8.674700
  C     -1.697890   13.010580    9.795790
  C     -2.188220   14.342020    9.923270
  C     -2.986250   14.673210   11.034770
  C     -3.270940   13.713840   11.966490
  C     -2.796200   12.400250   11.861180
  C     -2.020030   12.062070   10.787130
  F     -4.035460   14.028560   13.029440
  C     -1.872860   15.314580    8.944040
  C     -1.101020   14.961090    7.872490
  C     -0.603480   15.738770    6.736310
  C     -0.545600   17.114590    6.690380
  C      0.201390   17.845480    5.746590
  N      0.829910   18.492430    5.034670
  C     -1.134000   17.956930    7.652260
  N     -1.614580   18.696500    8.388560
  H      6.599610   -6.630600   -5.239710
  H      3.537040   -5.654540   -8.045900
  H      3.666370   -3.264690   -7.386040
  H      7.606170   -4.889270   -3.852610
  H      4.656730   -1.481650   -5.987330
  H      7.230690    1.192790   -2.233800
  H      8.402340   -0.867020   -0.270000
  H      9.091760    0.223230    1.975830
  H      9.229220    2.538550    3.111170
  H      9.086980    4.896180    3.644910
  H      8.766800    7.450510    3.568120
  H      7.758820    9.212050    2.173480
  H      9.006580    7.413970   -1.288110
  H      6.279600   10.418890   -4.130820
  H      5.197100   12.765260   -0.923600
  H      6.170370   12.349630   -3.791920
  H      4.931770   14.221680   -4.391120
  H      3.324200   16.063620   -4.159000
  H      1.635430   17.102500   -2.518980
  H      0.267530   17.633220   -0.665380
  H     -0.868870   17.780580    1.646330
  H     -0.856990   16.652240    3.941770
  H      0.918580   14.142500    4.066540
  H     -0.530860   11.663410    8.560530
  H     -3.366330   15.676330   11.149780
  H     -3.052840   11.685760   12.627190
  H     -1.642820   11.055660   10.683930
  H     -2.261260   16.313380    9.064840

 Total Charge           Charge          ....    0
 Multiplicity           Mult            ....    1
 Number of Electrons    NEL             ....  572
 Basis Dimension        Dim             .... 1266

ORBITAL ENERGIES
----------------

  NO   OCC          E(Eh)            E(eV)
   0   2.0000     -88.986652     -2421.4499
   1   2.0000     -88.976837     -2421.1828
   2   2.0000     -88.974954     -2421.1316
   3   2.0000     -88.968650     -2420.9600
   4   2.0000     -88.966138     -2420.8917
   5   2.0000     -24.802820      -674.9190
   6   2.0000     -24.801095      -674.8721
   7   2.0000     -24.778262      -674.2508
   8   2.0000     -24.776319      -674.1979
   9   2.0000     -19.199768      -522.4523
  10   2.0000     -19.197131      -522.3805
  11   2.0000     -14.403043      -391.9267
  12   2.0000     -14.401699      -391.8901
  13   2.0000     -14.400817      -391.8662
  14   2.0000     -14.399627      -391.8338
  15   2.0000     -10.386269      -282.6247
  16   2.0000     -10.385359      -282.6000
  17   2.0000     -10.361016      -281.9376
  18   2.0000     -10.358966      -281.8818
  19   2.0000     -10.351248      -281.6718
  20   2.0000     -10.348232      -281.5897
  21   2.0000     -10.340448      -281.3779
  22   2.0000     -10.339657      -281.3564
  23   2.0000     -10.338285      -281.3190
  24   2.0000     -10.337376      -281.2943
  25   2.0000     -10.335410      -281.2408
  26   2.0000     -10.332394      -281.1587
  27   2.0000     -10.331788      -281.1422
  28   2.0000     -10.330907      -281.1183
  29   2.0000     -10.330447      -281.1057
  30   2.0000     -10.329711      -281.0857
  31   2.0000     -10.328056      -281.0407
  32   2.0000     -10.327204      -281.0175
  33   2.0000     -10.325811      -280.9796
  34   2.0000     -10.325188      -280.9626
  35   2.0000     -10.320163      -280.8259
  36   2.0000     -10.319556      -280.8094
  37   2.0000     -10.318938      -280.7926
  38   2.0000     -10.312100      -280.6065
  39   2.0000     -10.310340      -280.5586
  40   2.0000     -10.309905      -280.5468
  41   2.0000     -10.309395      -280.5329
  42   2.0000     -10.308954      -280.5209
  43   2.0000     -10.308871      -280.5187
  44   2.0000     -10.308009      -280.4952
  45   2.0000     -10.307677      -280.4861
  46   2.0000     -10.306702      -280.4596
  47   2.0000     -10.306314      -280.4491
  48   2.0000     -10.306198      -280.4459
  49   2.0000     -10.305239      -280.4198
  50   2.0000     -10.304458      -280.3986
  51   2.0000     -10.303405      -280.3699
  52   2.0000     -10.303384      -280.3693
  53   2.0000     -10.303071      -280.3608
  54   2.0000     -10.300420      -280.2887
  55   2.0000     -10.298700      -280.2419
  56   2.0000     -10.297125      -280.1990
  57   2.0000     -10.296290      -280.1763
  58   2.0000     -10.294585      -280.1299
  59   2.0000     -10.294170      -280.1186
  60   2.0000     -10.292464      -280.0722
  61   2.0000     -10.291427      -280.0440
  62   2.0000     -10.289527      -279.9923
  63   2.0000     -10.289221      -279.9839
  64   2.0000     -10.289219      -279.9839
  65   2.0000     -10.289154      -279.9821
  66   2.0000     -10.287429      -279.9352
  67   2.0000     -10.286768      -279.9172
  68   2.0000     -10.286747      -279.9166
  69   2.0000     -10.286551      -279.9113
  70   2.0000     -10.286302      -279.9045
  71   2.0000     -10.284617      -279.8587
  72   2.0000     -10.284246      -279.8486
  73   2.0000     -10.281424      -279.7718
  74   2.0000     -10.280648      -279.7507
  75   2.0000     -10.278903      -279.7032
  76   2.0000     -10.278679      -279.6971
  77   2.0000     -10.278608      -279.6952
  78   2.0000     -10.276047      -279.6254
  79   2.0000      -8.082173      -219.9271
  80   2.0000      -8.072538      -219.6649
  81   2.0000      -8.071046      -219.6243
  82   2.0000      -8.064960      -219.4587
  83   2.0000      -8.062345      -219.3876
  84   2.0000      -6.051226      -164.6622
  85   2.0000      -6.047288      -164.5551
  86   2.0000      -6.044516      -164.4796
  87   2.0000      -6.042110      -164.4142
  88   2.0000      -6.040661      -164.3748
  89   2.0000      -6.037976      -164.3017
  90   2.0000      -6.036475      -164.2608
  91   2.0000      -6.034529      -164.2079
  92   2.0000      -6.033967      -164.1926
  93   2.0000      -6.032271      -164.1464
  94   2.0000      -6.031881      -164.1358
  95   2.0000      -6.030470      -164.0974
  96   2.0000      -6.027878      -164.0269
  97   2.0000      -6.026194      -163.9811
  98   2.0000      -6.023622      -163.9111
  99   2.0000      -1.324525       -36.0422
 100   2.0000      -1.309909       -35.6444
 101   2.0000      -1.292807       -35.1791
 102   2.0000      -1.290835       -35.1254
 103   2.0000      -1.113854       -30.3095
 104   2.0000      -1.111666       -30.2500
 105   2.0000      -1.026531       -27.9333
 106   2.0000      -1.020290       -27.7635
 107   2.0000      -1.018448       -27.7134
 108   2.0000      -1.006132       -27.3782
 109   2.0000      -1.003762       -27.3137
 110   2.0000      -0.997502       -27.1434
 111   2.0000      -0.996137       -27.1063
 112   2.0000      -0.989350       -26.9216
 113   2.0000      -0.987158       -26.8619
 114   2.0000      -0.981229       -26.7006
 115   2.0000      -0.979091       -26.6424
 116   2.0000      -0.965567       -26.2744
 117   2.0000      -0.964748       -26.2521
 118   2.0000      -0.963143       -26.2085
 119   2.0000      -0.940951       -25.6046
 120   2.0000      -0.924507       -25.1571
 121   2.0000      -0.920651       -25.0522
 122   2.0000      -0.915173       -24.9031
 123   2.0000      -0.907415       -24.6920
 124   2.0000      -0.902366       -24.5546
 125   2.0000      -0.889085       -24.1932
 126   2.0000      -0.884061       -24.0565
 127   2.0000      -0.878933       -23.9170
 128   2.0000      -0.876996       -23.8643
 129   2.0000      -0.872259       -23.7354
 130   2.0000      -0.871866       -23.7247
 131   2.0000      -0.867060       -23.5939
 132   2.0000      -0.863168       -23.4880
 133   2.0000      -0.858644       -23.3649
 134   2.0000      -0.852963       -23.2103
 135   2.0000      -0.846495       -23.0343
 136   2.0000      -0.845428       -23.0053
 137   2.0000      -0.841002       -22.8848
 138   2.0000      -0.827733       -22.5238
 139   2.0000      -0.824092       -22.4247
 140   2.0000      -0.821781       -22.3618
 141   2.0000      -0.812095       -22.0982
 142   2.0000      -0.797682       -21.7060
 143   2.0000      -0.785454       -21.3733
 144   2.0000      -0.768320       -20.9070
 145   2.0000      -0.756583       -20.5877
 146   2.0000      -0.754382       -20.5278
 147   2.0000      -0.749866       -20.4049
 148   2.0000      -0.745665       -20.2906
 149   2.0000      -0.739285       -20.1170
 150   2.0000      -0.723628       -19.6909
 151   2.0000      -0.717631       -19.5277
 152   2.0000      -0.709464       -19.3055
 153   2.0000      -0.704507       -19.1706
 154   2.0000      -0.699899       -19.0452
 155   2.0000      -0.698463       -19.0061
 156   2.0000      -0.697212       -18.9721
 157   2.0000      -0.688135       -18.7251
 158   2.0000      -0.686085       -18.6693
 159   2.0000      -0.677325       -18.4310
 160   2.0000      -0.673462       -18.3258
 161   2.0000      -0.668908       -18.2019
 162   2.0000      -0.666342       -18.1321
 163   2.0000      -0.661259       -17.9938
 164   2.0000      -0.652878       -17.7657
 165   2.0000      -0.648061       -17.6346
 166   2.0000      -0.644263       -17.5313
 167   2.0000      -0.639808       -17.4101
 168   2.0000      -0.637732       -17.3536
 169   2.0000      -0.631129       -17.1739
 170   2.0000      -0.629698       -17.1350
 171   2.0000      -0.628321       -17.0975
 172   2.0000      -0.624063       -16.9816
 173   2.0000      -0.621902       -16.9228
 174   2.0000      -0.621312       -16.9068
 175   2.0000      -0.619851       -16.8670
 176   2.0000      -0.618691       -16.8354
 177   2.0000      -0.611633       -16.6434
 178   2.0000      -0.609095       -16.5743
 179   2.0000      -0.599129       -16.3031
 180   2.0000      -0.589912       -16.0523
 181   2.0000      -0.588579       -16.0161
 182   2.0000      -0.585137       -15.9224
 183   2.0000      -0.580692       -15.8014
 184   2.0000      -0.578009       -15.7284
 185   2.0000      -0.570834       -15.5332
 186   2.0000      -0.568565       -15.4714
 187   2.0000      -0.564339       -15.3565
 188   2.0000      -0.557459       -15.1692
 189   2.0000      -0.555073       -15.1043
 190   2.0000      -0.552387       -15.0312
 191   2.0000      -0.551043       -14.9946
 192   2.0000      -0.550867       -14.9899
 193   2.0000      -0.550498       -14.9798
 194   2.0000      -0.548781       -14.9331
 195   2.0000      -0.548325       -14.9207
 196   2.0000      -0.544957       -14.8290
 197   2.0000      -0.539285       -14.6747
 198   2.0000      -0.536745       -14.6056
 199   2.0000      -0.534181       -14.5358
 200   2.0000      -0.528531       -14.3821
 201   2.0000      -0.525183       -14.2909
 202   2.0000      -0.524555       -14.2739
 203   2.0000      -0.523397       -14.2424
 204   2.0000      -0.521609       -14.1937
 205   2.0000      -0.519952       -14.1486
 206   2.0000      -0.519682       -14.1413
 207   2.0000      -0.519040       -14.1238
 208   2.0000      -0.515757       -14.0345
 209   2.0000      -0.514507       -14.0004
 210   2.0000      -0.514369       -13.9967
 211   2.0000      -0.512464       -13.9448
 212   2.0000      -0.512381       -13.9426
 213   2.0000      -0.507965       -13.8224
 214   2.0000      -0.505931       -13.7671
 215   2.0000      -0.502852       -13.6833
 216   2.0000      -0.501269       -13.6402
 217   2.0000      -0.494436       -13.4543
 218   2.0000      -0.491420       -13.3722
 219   2.0000      -0.490312       -13.3421
 220   2.0000      -0.488085       -13.2815
 221   2.0000      -0.487778       -13.2731
 222   2.0000      -0.485893       -13.2218
 223   2.0000      -0.485489       -13.2108
 224   2.0000      -0.483241       -13.1497
 225   2.0000      -0.482770       -13.1368
 226   2.0000      -0.482127       -13.1193
 227   2.0000      -0.478003       -13.0071
 228   2.0000      -0.474517       -12.9123
 229   2.0000      -0.472287       -12.8516
 230   2.0000      -0.470688       -12.8081
 231   2.0000      -0.468368       -12.7450
 232   2.0000      -0.465187       -12.6584
 233   2.0000      -0.460709       -12.5365
 234   2.0000      -0.457542       -12.4504
 235   2.0000      -0.456481       -12.4215
 236   2.0000      -0.454137       -12.3577
 237   2.0000      -0.452978       -12.3262
 238   2.0000      -0.449527       -12.2323
 239   2.0000      -0.447316       -12.1721
 240   2.0000      -0.445548       -12.1240
 241   2.0000      -0.443732       -12.0746
 242   2.0000      -0.441995       -12.0273
 243   2.0000      -0.438692       -11.9374
 244   2.0000      -0.437545       -11.9062
 245   2.0000      -0.436790       -11.8857
 246   2.0000      -0.435095       -11.8395
 247   2.0000      -0.432363       -11.7652
 248   2.0000      -0.430369       -11.7109
 249   2.0000      -0.429462       -11.6863
 250   2.0000      -0.427744       -11.6395
 251   2.0000      -0.424805       -11.5595
 252   2.0000      -0.420975       -11.4553
 253   2.0000      -0.420505       -11.4425
 254   2.0000      -0.417352       -11.3567
 255   2.0000      -0.416087       -11.3223
 256   2.0000      -0.415147       -11.2967
 257   2.0000      -0.413098       -11.2410
 258   2.0000      -0.410659       -11.1746
 259   2.0000      -0.407590       -11.0911
 260   2.0000      -0.404477       -11.0064
 261   2.0000      -0.400866       -10.9081
 262   2.0000      -0.393401       -10.7050
 263   2.0000      -0.391036       -10.6406
 264   2.0000      -0.381596       -10.3837
 265   2.0000      -0.374053       -10.1785
 266   2.0000      -0.369453       -10.0533
 267   2.0000      -0.368101       -10.0165
 268   2.0000      -0.358322        -9.7504
 269   2.0000      -0.357978        -9.7411
 270   2.0000      -0.355762        -9.6808
 271   2.0000      -0.347936        -9.4678
 272   2.0000      -0.343359        -9.3433
 273   2.0000      -0.341493        -9.2925
 274   2.0000      -0.333654        -9.0792
 275   2.0000      -0.326805        -8.8928
 276   2.0000      -0.323735        -8.8093
 277   2.0000      -0.320172        -8.7123
 278   2.0000      -0.309791        -8.4299
 279   2.0000      -0.302677        -8.2363
 280   2.0000      -0.299703        -8.1553
 281   2.0000      -0.289547        -7.8790
 282   2.0000      -0.286943        -7.8081
 283   2.0000      -0.275161        -7.4875
 284   2.0000      -0.242238        -6.5916
 285   2.0000      -0.210821        -5.7367
 286   0.0000      -0.141047        -3.8381
 287   0.0000      -0.104718        -2.8495
 288   0.0000      -0.076545        -2.0829
 289   0.0000      -0.058010        -1.5785
 290   0.0000      -0.049065        -1.3351

MULLIKEN ATOMIC CHARGES
-----------------------
   0 C :   -0.097373
   1 C :    0.299981
   2 F :   -0.194590
   3 C :   -0.034366
   4 C :   -0.011390
   5 C :    0.101467
   6 C :    0.101404
   7 C :   -0.088680
   8 C :    0.041681
   9 C :    0.001714
  10 C :   -0.083209
  11 C :    0.138343
  12 O :   -0.156164
  13 C :   -0.129791
  14 C :    0.295767
  15 C :   -0.351279
  16 C :   -0.220513
  17 N :    0.159580
  18 C :   -0.176433
  19 N :    0.135761
  20 C :    0.015239
  21 C :    0.007384
  22 C :   -0.020819
  23 C :    0.038375
  24 C :    0.035454
  25 C :   -0.053784
  26 S :    0.114176
  27 C :   -0.035928
  28 C :    0.028216
  29 C :    0.039365
  30 C :   -0.049045
  31 S :    0.110997
  32 C :    0.013594
  33 C :   -0.120994
  34 S :    0.168555
  35 C :   -0.103815
  36 C :    0.116248
  37 C :    0.139344
  38 C :   -0.120436
  39 C :    0.224323
  40 F :   -0.167935
  41 C :    0.227391
  42 F :   -0.171423
  43 C :   -0.123842
  44 C :    0.042114
  45 C :   -0.017421
  46 C :    0.024032
  47 C :   -0.043720
  48 C :    0.045114
  49 C :    0.018386
  50 C :   -0.025723
  51 S :    0.095013
  52 C :   -0.048801
  53 C :    0.032773
  54 C :    0.039813
  55 C :   -0.018188
  56 S :    0.117558
  57 C :    0.002271
  58 C :    0.023347
  59 C :   -0.132843
  60 C :    0.140045
  61 O :   -0.157364
  62 C :    0.005641
  63 C :   -0.085943
  64 C :    0.102229
  65 C :    0.102048
  66 C :   -0.099457
  67 C :    0.302233
  68 C :   -0.033037
  69 C :   -0.011691
  70 F :   -0.193775
  71 C :   -0.091198
  72 C :    0.044909
  73 C :    0.284708
  74 C :   -0.348171
  75 C :   -0.222848
  76 N :    0.158240
  77 C :   -0.174469
  78 N :    0.135387
  79 H :   -0.004657
  80 H :   -0.000113
  81 H :   -0.012235
  82 H :   -0.008299
  83 H :   -0.016888
  84 H :    0.016012
  85 H :    0.010016
  86 H :    0.003372
  87 H :   -0.004054
  88 H :   -0.004852
  89 H :    0.000062
  90 H :    0.004629
  91 H :    0.005193
  92 H :   -0.005125
  93 H :   -0.000412
  94 H :   -0.003108
  95 H :   -0.003720
  96 H :   -0.003136
  97 H :   -0.005627
  98 H :   -0.003113
  99 H :    0.003398
 100 H :    0.012191
 101 H :    0.011818
 102 H :   -0.018050
 103 H :   -0.004751
 104 H :    0.000044
 105 H :   -0.013666
 106 H :   -0.008689
Sum of atomic charges:   -0.0000000

LOEWDIN ATOMIC CHARGES
----------------------
   0 C :   -0.043127
   1 C :    0.090537
   2 F :   -0.068653
   3 C :   -0.041332
   4 C :    0.002442
   5 C :   -0.020390
   6 C :    0.002142
   7 C :    0.006023
   8 C :   -0.014394
   9 C :   -0.056731
  10 C :    0.028449
  11 C :    0.076630
  12 O :   -0.158500
  13 C :   -0.101546
  14 C :    0.066111
  15 C :   -0.152561
  16 C :   -0.024128
  17 N :   -0.063464
  18 C :   -0.019414
  19 N :   -0.065012
  20 C :    0.045100
  21 C :   -0.057782
  22 C :   -0.106188
  23 C :   -0.032290
  24 C :   -0.012448
  25 C :   -0.186242
  26 S :    0.411945
  27 C :   -0.157275
  28 C :   -0.038592
  29 C :   -0.018009
  30 C :   -0.160859
  31 S :    0.427720
  32 C :   -0.060763
  33 C :   -0.165383
  34 S :    0.477484
  35 C :   -0.154917
  36 C :   -0.036158
  37 C :   -0.040488
  38 C :   -0.042070
  39 C :    0.067326
  40 F :   -0.046357
  41 C :    0.068137
  42 F :   -0.049771
  43 C :   -0.036828
  44 C :   -0.042275
  45 C :   -0.041830
  46 C :   -0.033816
  47 C :   -0.154681
  48 C :   -0.016540
  49 C :   -0.042200
  50 C :   -0.156970
  51 S :    0.416905
  52 C :   -0.183592
  53 C :   -0.012735
  54 C :   -0.030708
  55 C :   -0.107385
  56 S :    0.409215
  57 C :   -0.057343
  58 C :    0.045362
  59 C :   -0.101038
  60 C :    0.076424
  61 O :   -0.160407
  62 C :   -0.056729
  63 C :    0.028049
  64 C :   -0.020507
  65 C :    0.002175
  66 C :   -0.043086
  67 C :    0.090760
  68 C :   -0.041224
  69 C :    0.002471
  70 F :   -0.068231
  71 C :    0.005851
  72 C :   -0.014578
  73 C :    0.065688
  74 C :   -0.153502
  75 C :   -0.024591
  76 N :   -0.063878
  77 C :   -0.019841
  78 N :   -0.064701
  79 H :    0.042200
  80 H :    0.040134
  81 H :    0.034237
  82 H :    0.038024
  83 H :    0.037556
  84 H :    0.033915
  85 H :    0.039028
  86 H :    0.040860
  87 H :    0.036008
  88 H :    0.035900
  89 H :    0.038081
  90 H :    0.040864
  91 H :    0.028391
  92 H :    0.041346
  93 H :    0.015062
  94 H :    0.032453
  95 H :    0.040932
  96 H :    0.037657
  97 H :    0.035120
  98 H :    0.036336
  99 H :    0.040916
 100 H :    0.039567
 101 H :    0.034741
 102 H :    0.037194
 103 H :    0.042261
 104 H :    0.040290
 105 H :    0.033999
 106 H :    0.038046

  Mayer bond orders larger than 0.100000
B(  0-C ,  1-C ) :   1.4382 B(  0-C ,  6-C ) :   1.2061 B(  0-C , 79-H ) :   1.0062
B(  1-C ,  2-F ) :   1.0842 B(  1-C ,  3-C ) :   1.2590 B(  3-C ,  4-C ) :   1.4565
B(  3-C , 80-H ) :   0.9933 B(  4-C ,  5-C ) :   1.2372 B(  4-C , 81-H ) :   0.9967
B(  5-C ,  6-C ) :   1.2599 B(  5-C , 10-C ) :   1.1835 B(  6-C ,  7-C ) :   1.1961
B(  7-C ,  8-C ) :   1.4723 B(  7-C , 82-H ) :   0.9920 B(  8-C ,  9-C ) :   1.2164
B(  8-C , 14-C ) :   0.9863 B(  9-C , 10-C ) :   1.4821 B(  9-C , 11-C ) :   0.9208
B( 10-C , 83-H ) :   1.0145 B( 11-C , 12-O ) :   2.2454 B( 11-C , 13-C ) :   0.9638
B( 13-C , 14-C ) :   1.0949 B( 13-C , 20-C ) :   1.5090 B( 14-C , 15-C ) :   1.5917
B( 15-C , 16-C ) :   1.1699 B( 15-C , 18-C ) :   1.1392 B( 16-C , 17-N ) :   3.0086
B( 18-C , 19-N ) :   2.9697 B( 20-C , 21-C ) :   1.2433 B( 20-C , 84-H ) :   0.9363
B( 21-C , 22-C ) :   1.4718 B( 21-C , 85-H ) :   0.9637 B( 22-C , 23-C ) :   1.2034
B( 22-C , 26-S ) :   1.0842 B( 23-C , 24-C ) :   1.5139 B( 23-C , 86-H ) :   1.0013
B( 24-C , 25-C ) :   1.2502 B( 24-C , 87-H ) :   0.9945 B( 25-C , 26-S ) :   1.0605
B( 25-C , 27-C ) :   1.4047 B( 27-C , 28-C ) :   1.2457 B( 27-C , 31-S ) :   1.0786
B( 28-C , 29-C ) :   1.5150 B( 28-C , 88-H ) :   0.9936 B( 29-C , 30-C ) :   1.2116
B( 29-C , 89-H ) :   0.9991 B( 30-C , 31-S ) :   1.0462 B( 30-C , 32-C ) :   1.4775
B( 32-C , 33-C ) :   1.3003 B( 32-C , 90-H ) :   0.9407 B( 33-C , 34-S ) :   1.1303
B( 33-C , 37-C ) :   1.2220 B( 34-S , 35-C ) :   1.1362 B( 35-C , 36-C ) :   1.2249
B( 35-C , 44-C ) :   1.3399 B( 36-C , 37-C ) :   1.2647 B( 36-C , 43-C ) :   1.2101
B( 37-C , 38-C ) :   1.2083 B( 38-C , 39-C ) :   1.4698 B( 38-C , 43-C ) :   0.1033
B( 38-C , 91-H ) :   0.9762 B( 39-C , 40-F ) :   1.1391 B( 39-C , 41-C ) :   1.1957
B( 41-C , 42-F ) :   1.1368 B( 41-C , 43-C ) :   1.4534 B( 43-C , 92-H ) :   0.9960
B( 44-C , 45-C ) :   1.4430 B( 44-C , 93-H ) :   0.9190 B( 45-C , 46-C ) :   1.3394
B( 45-C , 94-H ) :   0.9637 B( 46-C , 47-C ) :   1.4403 B( 46-C , 95-H ) :   0.9599
B( 47-C , 48-C ) :   1.2188 B( 47-C , 51-S ) :   1.0554 B( 48-C , 49-C ) :   1.5099
B( 48-C , 96-H ) :   0.9999 B( 49-C , 50-C ) :   1.2495 B( 49-C , 97-H ) :   0.9954
B( 50-C , 51-S ) :   1.0770 B( 50-C , 52-C ) :   1.4020 B( 52-C , 53-C ) :   1.2495
B( 52-C , 56-S ) :   1.0601 B( 53-C , 54-C ) :   1.5112 B( 53-C , 98-H ) :   0.9951
B( 54-C , 55-C ) :   1.2064 B( 54-C , 99-H ) :   1.0014 B( 55-C , 56-S ) :   1.0832
B( 55-C , 57-C ) :   1.4709 B( 57-C , 58-C ) :   1.2447 B( 57-C ,100-H ) :   0.9612
B( 58-C , 59-C ) :   1.5009 B( 58-C ,101-H ) :   0.9441 B( 59-C , 60-C ) :   0.9643
B( 59-C , 73-C ) :   1.1035 B( 60-C , 61-O ) :   2.2524 B( 60-C , 62-C ) :   0.9171
B( 62-C , 63-C ) :   1.4805 B( 62-C , 72-C ) :   1.2162 B( 63-C , 64-C ) :   1.1824
B( 63-C ,102-H ) :   1.0146 B( 64-C , 65-C ) :   1.2620 B( 64-C , 69-C ) :   1.2374
B( 65-C , 66-C ) :   1.2048 B( 65-C , 71-C ) :   1.1945 B( 66-C , 67-C ) :   1.4379
B( 66-C ,103-H ) :   1.0065 B( 67-C , 68-C ) :   1.2600 B( 67-C , 70-F ) :   1.0850
B( 68-C , 69-C ) :   1.4564 B( 68-C ,104-H ) :   0.9923 B( 69-C ,105-H ) :   0.9964
B( 71-C , 72-C ) :   1.4709 B( 71-C ,106-H ) :   0.9928 B( 72-C , 73-C ) :   0.9879
B( 73-C , 74-C ) :   1.5887 B( 74-C , 75-C ) :   1.1664 B( 74-C , 77-C ) :   1.1398
B( 75-C , 76-N ) :   3.0134 B( 77-C , 78-N ) :   2.9700

-----------------------------------------------------------------------------
         ABSORPTION SPECTRUM VIA TRANSITION ELECTRIC DIPOLE MOMENTS
-----------------------------------------------------------------------------
State   Energy  Wavelength   fosc         T2         TX        TY        TZ
        (cm-1)    (nm)                  (au**2)     (au)      (au)      (au)
-----------------------------------------------------------------------------
   0    4020.9   2487.0   0.717784600  58.76908   3.30437  -6.47720  -2.42820
   1   10269.1    973.8   0.000816121   0.02616  -0.09503  -0.12853   0.02474
   2   11832.1    845.2   0.691881394  19.25069  -2.14615  -3.06765   2.28785
   3   15853.9    630.8   0.044511865   0.92430   0.02445   0.25671   0.92618
   4   18672.8    535.5   1.200847594  21.17161   0.33869   0.38558   4.57255
   5   19503.5    512.7   0.172577631   2.91304  -0.47200   0.55218  -1.54446
   6   20563.3    486.3   0.016237279   0.25995   0.10084  -0.18722  -0.46340
   7   21507.0    465.0   0.005248207   0.08034   0.00205  -0.12902  -0.25236
   8   22061.8    453.3   0.050577593   0.75473  -0.64276   0.05059   0.58227
   9   23103.6    432.8   0.055274869   0.78763  -0.30792   0.16154  -0.81653
  10   23281.7    429.5   0.030073334   0.42525   0.52339   0.20793  -0.32875
  11   24002.3    416.6   0.023220266   0.31849  -0.10657   0.05032   0.55190
  12   24044.6    415.9   0.128957430   1.76565  -0.60174   0.49753  -1.07518
  13   24620.4    406.2   0.030906917   0.41327   0.17987  -0.37759  -0.48821
  14   25215.4    396.6   0.070098442   0.91520  -0.31194   0.64946  -0.62936
  15   25452.9    392.9   0.012582401   0.16274   0.02992   0.34135   0.21291
  16   25557.0    391.3   0.043120741   0.55546   0.33213  -0.39716  -0.53610
  17   25707.1    389.0   0.018113550   0.23197   0.22299   0.42689  -0.00314
  18   26058.5    383.8   0.137094577   1.73199   0.30566   1.26821   0.17383
  19   27601.3    362.3   0.097717672   1.16552  -0.43784   0.46384  -0.87102
  20   28026.4    356.8   0.071663624   0.84180   0.09501  -0.41162  -0.81446
  21   28397.2    352.1   0.139759750   1.62025   0.07595   0.01472  -1.27054
  22   28579.7    349.9   0.058219392   0.67063   0.36323   0.15393   0.71764
  23   29128.4    343.3   0.050493179   0.57068  -0.14131  -0.54306   0.50576
  24   29474.8    339.3   0.014214043   0.15876   0.07931   0.18040  -0.34631
  25   29917.7    334.3   0.078839986   0.86755   0.26622   0.47362   0.75655
  26   30136.7    331.8   0.069258262   0.75657   0.44120   0.73266  -0.15852
  27   30634.0    326.4   0.007700519   0.08275  -0.20978  -0.10624  -0.16572
  28   30799.3    324.7   0.051945264   0.55524   0.10868  -0.43149  -0.59770
  29   31095.1    321.6   0.062485102   0.66155  -0.45348  -0.60034  -0.30901
  30   31292.0    319.6   0.022150345   0.23304   0.26719  -0.24744  -0.31689
  31   31590.4    316.6   0.004485583   0.04675  -0.07205   0.17696  -0.10119
  32   31702.9    315.4   0.047749616   0.49585  -0.18807  -0.12724  -0.66655
  33   32136.3    311.2   0.070687287   0.72414  -0.13450  -0.78073   0.31065
  34   32609.7    306.7   0.012331600   0.12449  -0.19060   0.06107  -0.29058
  35   32817.2    304.7   0.011783242   0.11821   0.15271   0.17728  -0.25191
  36   33243.5    300.8   0.124029048   1.22826  -0.78373  -0.72205  -0.30444
  37   33425.9    299.2   0.066159024   0.65160   0.31335   0.69251  -0.27174
  38   33666.0    297.0   0.094037328   0.91957  -0.32862   0.44882  -0.78111
  39   33782.2    296.0   0.009212873   0.08978   0.18747  -0.23352   0.01029
  40   34021.2    293.9   0.033412235   0.32332   0.47652   0.27821   0.13728
  41   34281.7    291.7   0.082579725   0.79302  -0.06487   0.05941  -0.88616
  42   34355.5    291.1   0.117324416   1.12426  -0.32412   0.14390  -0.99925
  43   34464.7    290.2   0.055348002   0.52869   0.12498  -0.61130   0.37334
  44   34593.0    289.1   0.053190236   0.50620   0.09584   0.17266   0.68352
  45   34965.8    286.0   0.189010670   1.77958   0.37083   0.65201  -1.10315
  46   35087.0    285.0   0.103746438   0.97343   0.52226   0.81396   0.19531
  47   35104.3    284.9   0.112260716   1.05279   0.89962   0.33045   0.36644
  48   35350.2    282.9   0.016129851   0.15022  -0.22952  -0.22074  -0.22092
  49   35751.2    279.7   0.029224493   0.26911  -0.50536  -0.08829   0.07702
  50   36149.5    276.6   0.009479359   0.08633  -0.27788  -0.09023  -0.03118
  51   36352.4    275.1   0.046609145   0.42210  -0.07850  -0.61658   0.18912
  52   36445.8    274.4   0.038980303   0.35211  -0.28229  -0.01101  -0.52182
  53   36826.9    271.5   0.006905366   0.06173  -0.05094   0.24316   0.00255
  54   37068.3    269.8   0.005823570   0.05172  -0.20631  -0.09515   0.01008
  55   37533.7    266.4   0.119104744   1.04468   0.34070  -0.58233   0.76778
  56   37619.5    265.8   0.047285973   0.41380  -0.44102   0.24309  -0.40026
  57   37990.7    263.2   0.214629139   1.85989   1.01912   0.86716   0.26328
  58   38213.5    261.7   0.120883585   1.04142  -0.25847  -0.94174   0.29622
  59   38515.9    259.6   0.248330699   2.12259   0.80005  -0.70691   0.99136
  60   38568.7    259.3   0.069435570   0.59268   0.54917  -0.08519   0.53277
  61   38769.2    257.9   0.017167130   0.14578  -0.05931   0.34043  -0.16237
  62   39152.0    255.4   0.012546150   0.10550  -0.06386   0.25256  -0.19398
  63   39290.6    254.5   0.018833640   0.15781  -0.16681   0.36049  -0.00555
  64   39476.5    253.3   0.053054922   0.44245  -0.38410  -0.45281   0.29980
  65   39694.6    251.9   0.029748392   0.24672  -0.35831  -0.11288  -0.32495
  66   40204.6    248.7   0.025503616   0.20883  -0.06910   0.42529  -0.15228
  67   40304.5    248.1   0.049348414   0.40308  -0.45499   0.33634   0.28800

FINAL SINGLE POINT ENERGY     -5210.659244757559

DIPOLE MOMENT
-------------
                                X             Y             Z
Electronic contribution:     10.62853     -11.81176      -7.98088
Nuclear contribution   :    -11.45288      13.91329       6.80199
                        -----------------------------------------
Total Dipole Moment    :     -0.82436       2.10154      -1.17890
                        -----------------------------------------
Magnitude (a.u.)       :      2.54673
Magnitude (Debye)      :      6.47326

Rotational constants in cm-1:     0.000805     0.000173     0.000157
Rotational constants in MHz :    24.135100     5.183213     4.719153

                             ****ORCA TERMINATED NORMALLY****
TOTAL RUN TIME: 0 days 0 hours 13 minutes 21 seconds 681 msec
