                         Program Version 4.2.0 -  RELEASE  -
|  1> # ORCA input file
|  2> # SCF done       -193.924569033506          0.000472768442
|  3> ! CAM-B3LYP def2-SVP def2/J RIJCOSX Grid4 TightSCF
|  4> %maxcore 5000
|  5> %tddft
|  6>     Mode sTDDFT
|  7>     Ethresh 5.0
|  8>     maxcore 5000
|  9> end
| 10>
| 11> %pal
| 12>   nprocs 6
| 13>   end
| 14> * xyz 0 1
| 15>    C       -7.82644        -0.07767         2.04582
| 16>    C       -9.18624        -0.07181         1.85986
| 17>    C      -10.12169         0.09640         2.90030
| 18>    N      -10.92400         0.21465         3.71332
| 19>    C       -9.82206        -0.28689         0.61983
| 20>    N      -10.39958        -0.47682        -0.35423
| 21>    C       -7.14448         0.05181         3.32964
| 22>    C       -5.75854        -0.15463         3.12738
| 23>    C       -4.84169        -0.09345         4.14870
| 24>    C       -5.31507         0.19301         5.43396
| 25>    C       -6.70277         0.39113         5.62929
| 26>    C       -7.62952         0.32269         4.59576
| 27>    S       -7.06600         0.74750         7.29105
| 28>    C       -5.37450         0.62947         7.69767
| 29>    C       -4.57816         0.33589         6.64130
| 30>   Br       -4.82699         0.91962         9.45960
| 31>    C       -5.50483        -0.42568         1.70067
| 32>    O       -4.42180        -0.58063         1.17691
| 33>    C       -6.82963        -0.36125         1.03468
| 34>    C       -7.01726        -0.40065        -0.32777
| 35>    C       -6.15932        -1.01821        -1.26157
| 36>    S       -6.07019        -0.44434        -2.90205
| 37>    C       -4.90992        -1.64489        -3.28924
| 38>    C       -4.60411        -2.47497        -2.25107
| 39>    C       -3.64704        -3.61341        -2.34982
| 40>    C       -5.33176        -2.14030        -1.07825
| 41>    C       -5.38743        -2.82371         0.17223
| 42>    C       -4.40964        -3.42374         0.89050
| 43>    C       -4.58176        -3.65473         2.28931
| 44>    C       -5.77485        -3.59688         2.93759
| 45>    C       -5.91987        -3.41986         4.33119
| 46>    O       -7.17878        -3.24519         4.82623
| 47>    C       -5.02005        -3.21626         5.36268
| 48>    C       -3.59885        -3.16789         5.70147
| 49>    O       -2.61587        -3.36093         5.03140
| 50>    N       -3.59379        -2.81198         7.04864
| 51>    C       -4.85257        -2.61962         7.61345
| 52>    O       -5.05417        -2.27915         8.75405
| 53>    C       -5.77433        -2.89103         6.51514
| 54>    C       -7.11428        -2.91233         6.14683
| 55>    C       -8.29465        -2.62014         6.85498
| 56>    C       -8.26522        -2.17108         8.14698
| 57>    C       -9.39226        -1.78956         8.88040
| 58>    C       -9.30823        -1.20256        10.12383
| 59>    C      -10.37788        -0.77932        10.94853
| 60>    C       -9.98134        -0.19008        12.11147
| 61>    C       -8.57727        -0.10995        12.25647
| 62>    S       -7.77635        -0.82665        10.88608
| 63>    C       -7.86482         0.46031        13.30017
| 64>    C       -8.37944         1.06629        14.46654
| 65>    C       -7.41521         1.54550        15.30285
| 66>    C       -6.09622         1.34770        14.83243
| 67>    S       -6.11844         0.51367        13.29914
| 68>    C       -4.93722         1.72854        15.47992
| 69>    C       -3.65970         1.55682        14.95580
| 70>    C       -2.46108         1.84786        15.56974
| 71>    C       -2.13473         2.12642        16.94151
| 72>    C       -2.80772         1.68997        18.05984
| 73>    C       -2.39748         1.96330        19.37897
| 74>    N       -2.12175         2.17146        20.47457
| 75>    C       -3.91863         0.82413        18.03499
| 76>    N       -4.79787         0.08675        18.08663
| 77>    C       -0.82125         2.77054        16.95583
| 78>    C       -0.26865         2.69868        15.65285
| 79>    C       -1.24689         2.05590        14.74780
| 80>    O       -1.10442         1.79317        13.57387
| 81>    C        0.97655         3.19170        15.35174
| 82>    C        1.70663         3.79570        16.38207
| 83>    C        1.14019         3.87416        17.67533
| 84>    C       -0.11705         3.36616        17.98307
| 85>    S        2.20602         4.67012        18.79340
| 86>    C        3.38364         4.88190        17.52494
| 87>    C        3.00078         4.38309        16.32612
| 88>   Br        5.00764         5.74084        17.90445
| 89>    H       -3.79280        -0.26022         3.95998
| 90>    H       -8.67435         0.49109         4.79573
| 91>    H       -3.50985         0.23733         6.70624
| 92>    H       -7.89143         0.08635        -0.74401
| 93>    H       -4.50581        -1.67706        -4.28280
| 94>    H       -3.44914        -3.85567        -3.39076
| 95>    H       -4.04983        -4.49030        -1.84705
| 96>    H       -2.70358        -3.35027        -1.87293
| 97>    H       -6.33482        -2.67231         0.67466
| 98>    H       -3.41765        -3.54426         0.48587
| 99>    H       -3.67960        -3.75078         2.87875
|100>    H       -6.71202        -3.60130         2.39841
|101>    H       -2.74224        -2.71200         7.58293
|102>    H       -9.22709        -2.71895         6.31846
|103>    H       -7.30363        -2.07990         8.63665
|104>    H      -10.37483        -1.93110         8.45067
|105>    H      -11.40305        -0.92371        10.65686
|106>    H      -10.65520         0.19083        12.85730
|107>    H       -9.43487         1.13224        14.65950
|108>    H       -7.60747         2.03006        16.24326
|109>    H       -5.06055         2.21785        16.43556
|110>    H       -3.58102         1.24447        13.91857
|111>    H        1.37628         3.11700        14.35265
|112>    H       -0.50876         3.45387        18.98289
|113>    H        3.60361         4.42685        15.43744
|114> *
|115>
|116>                          ****END OF INPUT****

CARTESIAN COORDINATES (ANGSTROEM)
---------------------------------
  C     -7.826440   -0.077670    2.045820
  C     -9.186240   -0.071810    1.859860
  C    -10.121690    0.096400    2.900300
  N    -10.924000    0.214650    3.713320
  C     -9.822060   -0.286890    0.619830
  N    -10.399580   -0.476820   -0.354230
  C     -7.144480    0.051810    3.329640
  C     -5.758540   -0.154630    3.127380
  C     -4.841690   -0.093450    4.148700
  C     -5.315070    0.193010    5.433960
  C     -6.702770    0.391130    5.629290
  C     -7.629520    0.322690    4.595760
  S     -7.066000    0.747500    7.291050
  C     -5.374500    0.629470    7.697670
  C     -4.578160    0.335890    6.641300
  Br    -4.826990    0.919620    9.459600
  C     -5.504830   -0.425680    1.700670
  O     -4.421800   -0.580630    1.176910
  C     -6.829630   -0.361250    1.034680
  C     -7.017260   -0.400650   -0.327770
  C     -6.159320   -1.018210   -1.261570
  S     -6.070190   -0.444340   -2.902050
  C     -4.909920   -1.644890   -3.289240
  C     -4.604110   -2.474970   -2.251070
  C     -3.647040   -3.613410   -2.349820
  C     -5.331760   -2.140300   -1.078250
  C     -5.387430   -2.823710    0.172230
  C     -4.409640   -3.423740    0.890500
  C     -4.581760   -3.654730    2.289310
  C     -5.774850   -3.596880    2.937590
  C     -5.919870   -3.419860    4.331190
  O     -7.178780   -3.245190    4.826230
  C     -5.020050   -3.216260    5.362680
  C     -3.598850   -3.167890    5.701470
  O     -2.615870   -3.360930    5.031400
  N     -3.593790   -2.811980    7.048640
  C     -4.852570   -2.619620    7.613450
  O     -5.054170   -2.279150    8.754050
  C     -5.774330   -2.891030    6.515140
  C     -7.114280   -2.912330    6.146830
  C     -8.294650   -2.620140    6.854980
  C     -8.265220   -2.171080    8.146980
  C     -9.392260   -1.789560    8.880400
  C     -9.308230   -1.202560   10.123830
  C    -10.377880   -0.779320   10.948530
  C     -9.981340   -0.190080   12.111470
  C     -8.577270   -0.109950   12.256470
  S     -7.776350   -0.826650   10.886080
  C     -7.864820    0.460310   13.300170
  C     -8.379440    1.066290   14.466540
  C     -7.415210    1.545500   15.302850
  C     -6.096220    1.347700   14.832430
  S     -6.118440    0.513670   13.299140
  C     -4.937220    1.728540   15.479920
  C     -3.659700    1.556820   14.955800
  C     -2.461080    1.847860   15.569740
  C     -2.134730    2.126420   16.941510
  C     -2.807720    1.689970   18.059840
  C     -2.397480    1.963300   19.378970
  N     -2.121750    2.171460   20.474570
  C     -3.918630    0.824130   18.034990
  N     -4.797870    0.086750   18.086630
  C     -0.821250    2.770540   16.955830
  C     -0.268650    2.698680   15.652850
  C     -1.246890    2.055900   14.747800
  O     -1.104420    1.793170   13.573870
  C      0.976550    3.191700   15.351740
  C      1.706630    3.795700   16.382070
  C      1.140190    3.874160   17.675330
  C     -0.117050    3.366160   17.983070
  S      2.206020    4.670120   18.793400
  C      3.383640    4.881900   17.524940
  C      3.000780    4.383090   16.326120
  Br     5.007640    5.740840   17.904450
  H     -3.792800   -0.260220    3.959980
  H     -8.674350    0.491090    4.795730
  H     -3.509850    0.237330    6.706240
  H     -7.891430    0.086350   -0.744010
  H     -4.505810   -1.677060   -4.282800
  H     -3.449140   -3.855670   -3.390760
  H     -4.049830   -4.490300   -1.847050
  H     -2.703580   -3.350270   -1.872930
  H     -6.334820   -2.672310    0.674660
  H     -3.417650   -3.544260    0.485870
  H     -3.679600   -3.750780    2.878750
  H     -6.712020   -3.601300    2.398410
  H     -2.742240   -2.712000    7.582930
  H     -9.227090   -2.718950    6.318460
  H     -7.303630   -2.079900    8.636650
  H    -10.374830   -1.931100    8.450670
  H    -11.403050   -0.923710   10.656860
  H    -10.655200    0.190830   12.857300
  H     -9.434870    1.132240   14.659500
  H     -7.607470    2.030060   16.243260
  H     -5.060550    2.217850   16.435560
  H     -3.581020    1.244470   13.918570
  H      1.376280    3.117000   14.352650
  H     -0.508760    3.453870   18.982890
  H      3.603610    4.426850   15.437440

 Total Charge           Charge          ....    0
 Multiplicity           Mult            ....    1
 Number of Electrons    NEL             ....  592
 Basis Dimension        Dim             .... 1217

ORBITAL ENERGIES
----------------

  NO   OCC          E(Eh)            E(eV)
   0   2.0000    -482.879619    -13139.8225
   1   2.0000    -482.878382    -13139.7888
   2   2.0000     -88.976068     -2421.1619
   3   2.0000     -88.971996     -2421.0511
   4   2.0000     -88.966745     -2420.9082
   5   2.0000     -88.963771     -2420.8273
   6   2.0000     -88.963473     -2420.8192
   7   2.0000     -62.557098     -1702.2652
   8   2.0000     -62.556114     -1702.2384
   9   2.0000     -56.391103     -1534.4799
  10   2.0000     -56.390052     -1534.4513
  11   2.0000     -56.388334     -1534.4046
  12   2.0000     -56.388275     -1534.4030
  13   2.0000     -56.387360     -1534.3781
  14   2.0000     -56.387319     -1534.3769
  15   2.0000     -19.312719      -525.5258
  16   2.0000     -19.217530      -522.9356
  17   2.0000     -19.217164      -522.9256
  18   2.0000     -19.215301      -522.8749
  19   2.0000     -19.200465      -522.4712
  20   2.0000     -14.460508      -393.4904
  21   2.0000     -14.420040      -392.3892
  22   2.0000     -14.418896      -392.3581
  23   2.0000     -14.402912      -391.9231
  24   2.0000     -14.400441      -391.8559
  25   2.0000     -10.404839      -283.1301
  26   2.0000     -10.404421      -283.1187
  27   2.0000     -10.365555      -282.0611
  28   2.0000     -10.365074      -282.0480
  29   2.0000     -10.364537      -282.0334
  30   2.0000     -10.358112      -281.8586
  31   2.0000     -10.351282      -281.6727
  32   2.0000     -10.349900      -281.6351
  33   2.0000     -10.345704      -281.5209
  34   2.0000     -10.344862      -281.4980
  35   2.0000     -10.335645      -281.2472
  36   2.0000     -10.329629      -281.0835
  37   2.0000     -10.328030      -281.0400
  38   2.0000     -10.327486      -281.0252
  39   2.0000     -10.327019      -281.0125
  40   2.0000     -10.326421      -280.9962
  41   2.0000     -10.326281      -280.9924
  42   2.0000     -10.325149      -280.9616
  43   2.0000     -10.323276      -280.9106
  44   2.0000     -10.321610      -280.8653
  45   2.0000     -10.320108      -280.8244
  46   2.0000     -10.315497      -280.6989
  47   2.0000     -10.313661      -280.6490
  48   2.0000     -10.308511      -280.5089
  49   2.0000     -10.308440      -280.5069
  50   2.0000     -10.306900      -280.4650
  51   2.0000     -10.306725      -280.4602
  52   2.0000     -10.306538      -280.4552
  53   2.0000     -10.306471      -280.4533
  54   2.0000     -10.306015      -280.4409
  55   2.0000     -10.305967      -280.4396
  56   2.0000     -10.304197      -280.3915
  57   2.0000     -10.303857      -280.3822
  58   2.0000     -10.302195      -280.3370
  59   2.0000     -10.301015      -280.3049
  60   2.0000     -10.300367      -280.2872
  61   2.0000     -10.299153      -280.2542
  62   2.0000     -10.297293      -280.2036
  63   2.0000     -10.297044      -280.1968
  64   2.0000     -10.296974      -280.1949
  65   2.0000     -10.296480      -280.1815
  66   2.0000     -10.296413      -280.1796
  67   2.0000     -10.295365      -280.1511
  68   2.0000     -10.294773      -280.1350
  69   2.0000     -10.294291      -280.1219
  70   2.0000     -10.293434      -280.0986
  71   2.0000     -10.293384      -280.0972
  72   2.0000     -10.293113      -280.0898
  73   2.0000     -10.292938      -280.0851
  74   2.0000     -10.291815      -280.0545
  75   2.0000     -10.290432      -280.0169
  76   2.0000     -10.289669      -279.9961
  77   2.0000     -10.288350      -279.9602
  78   2.0000     -10.284592      -279.8580
  79   2.0000     -10.280745      -279.7533
  80   2.0000     -10.280149      -279.7371
  81   2.0000     -10.279548      -279.7207
  82   2.0000      -8.786472      -239.0920
  83   2.0000      -8.785551      -239.0670
  84   2.0000      -8.071272      -219.6305
  85   2.0000      -8.068172      -219.5461
  86   2.0000      -8.062685      -219.3968
  87   2.0000      -8.059805      -219.3185
  88   2.0000      -8.059753      -219.3170
  89   2.0000      -6.622895      -180.2181
  90   2.0000      -6.621808      -180.1886
  91   2.0000      -6.608099      -179.8155
  92   2.0000      -6.607960      -179.8117
  93   2.0000      -6.607284      -179.7933
  94   2.0000      -6.607142      -179.7895
  95   2.0000      -6.040990      -164.3837
  96   2.0000      -6.037414      -164.2864
  97   2.0000      -6.036678      -164.2664
  98   2.0000      -6.033175      -164.1710
  99   2.0000      -6.032604      -164.1555
 100   2.0000      -6.032389      -164.1497
 101   2.0000      -6.030364      -164.0945
 102   2.0000      -6.029431      -164.0691
 103   2.0000      -6.029336      -164.0666
 104   2.0000      -6.028109      -164.0332
 105   2.0000      -6.025361      -163.9584
 106   2.0000      -6.025327      -163.9575
 107   2.0000      -6.023921      -163.9192
 108   2.0000      -6.020908      -163.8372
 109   2.0000      -6.020872      -163.8362
 110   2.0000      -2.738782       -74.5260
 111   2.0000      -2.737684       -74.4962
 112   2.0000      -2.734577       -74.4116
 113   2.0000      -2.734470       -74.4087
 114   2.0000      -2.733620       -74.3856
 115   2.0000      -2.733473       -74.3816
 116   2.0000      -2.722705       -74.0886
 117   2.0000      -2.722703       -74.0885
 118   2.0000      -2.721952       -74.0681
 119   2.0000      -2.721936       -74.0677
 120   2.0000      -1.227357       -33.3981
 121   2.0000      -1.160960       -31.5913
 122   2.0000      -1.140445       -31.0331
 123   2.0000      -1.131082       -30.7783
 124   2.0000      -1.115184       -30.3457
 125   2.0000      -1.048068       -28.5194
 126   2.0000      -1.024727       -27.8842
 127   2.0000      -1.015467       -27.6323
 128   2.0000      -1.014896       -27.6167
 129   2.0000      -1.011799       -27.5324
 130   2.0000      -1.005940       -27.3730
 131   2.0000      -1.001243       -27.2452
 132   2.0000      -0.998173       -27.1617
 133   2.0000      -0.992541       -27.0084
 134   2.0000      -0.990588       -26.9553
 135   2.0000      -0.980600       -26.6835
 136   2.0000      -0.977145       -26.5895
 137   2.0000      -0.943781       -25.6816
 138   2.0000      -0.943081       -25.6625
 139   2.0000      -0.934757       -25.4360
 140   2.0000      -0.932793       -25.3826
 141   2.0000      -0.921059       -25.0633
 142   2.0000      -0.912242       -24.8234
 143   2.0000      -0.910848       -24.7854
 144   2.0000      -0.906983       -24.6803
 145   2.0000      -0.900323       -24.4990
 146   2.0000      -0.897177       -24.4134
 147   2.0000      -0.886341       -24.1186
 148   2.0000      -0.882949       -24.0263
 149   2.0000      -0.876347       -23.8466
 150   2.0000      -0.875273       -23.8174
 151   2.0000      -0.870541       -23.6886
 152   2.0000      -0.865132       -23.5414
 153   2.0000      -0.853581       -23.2271
 154   2.0000      -0.841891       -22.9090
 155   2.0000      -0.839320       -22.8391
 156   2.0000      -0.830480       -22.5985
 157   2.0000      -0.827210       -22.5095
 158   2.0000      -0.818988       -22.2858
 159   2.0000      -0.808446       -21.9989
 160   2.0000      -0.793952       -21.6045
 161   2.0000      -0.785982       -21.3877
 162   2.0000      -0.774683       -21.0802
 163   2.0000      -0.768437       -20.9102
 164   2.0000      -0.763350       -20.7718
 165   2.0000      -0.762460       -20.7476
 166   2.0000      -0.754799       -20.5391
 167   2.0000      -0.749117       -20.3845
 168   2.0000      -0.738652       -20.0997
 169   2.0000      -0.724074       -19.7031
 170   2.0000      -0.711762       -19.3680
 171   2.0000      -0.709698       -19.3119
 172   2.0000      -0.703906       -19.1542
 173   2.0000      -0.694369       -18.8947
 174   2.0000      -0.690111       -18.7789
 175   2.0000      -0.683538       -18.6000
 176   2.0000      -0.681105       -18.5338
 177   2.0000      -0.676804       -18.4168
 178   2.0000      -0.663416       -18.0525
 179   2.0000      -0.660914       -17.9844
 180   2.0000      -0.660217       -17.9654
 181   2.0000      -0.649923       -17.6853
 182   2.0000      -0.644994       -17.5512
 183   2.0000      -0.643682       -17.5155
 184   2.0000      -0.638304       -17.3691
 185   2.0000      -0.630209       -17.1489
 186   2.0000      -0.624715       -16.9994
 187   2.0000      -0.623671       -16.9709
 188   2.0000      -0.621288       -16.9061
 189   2.0000      -0.614170       -16.7124
 190   2.0000      -0.611952       -16.6521
 191   2.0000      -0.603017       -16.4089
 192   2.0000      -0.600610       -16.3434
 193   2.0000      -0.598708       -16.2917
 194   2.0000      -0.595819       -16.2131
 195   2.0000      -0.590998       -16.0819
 196   2.0000      -0.589488       -16.0408
 197   2.0000      -0.584692       -15.9103
 198   2.0000      -0.581913       -15.8347
 199   2.0000      -0.573073       -15.5941
 200   2.0000      -0.564036       -15.3482
 201   2.0000      -0.561576       -15.2813
 202   2.0000      -0.556539       -15.1442
 203   2.0000      -0.554936       -15.1006
 204   2.0000      -0.550089       -14.9687
 205   2.0000      -0.547785       -14.9060
 206   2.0000      -0.544089       -14.8054
 207   2.0000      -0.543094       -14.7783
 208   2.0000      -0.540172       -14.6988
 209   2.0000      -0.536287       -14.5931
 210   2.0000      -0.534768       -14.5518
 211   2.0000      -0.531278       -14.4568
 212   2.0000      -0.527522       -14.3546
 213   2.0000      -0.526196       -14.3185
 214   2.0000      -0.525293       -14.2940
 215   2.0000      -0.524112       -14.2618
 216   2.0000      -0.521704       -14.1963
 217   2.0000      -0.518225       -14.1016
 218   2.0000      -0.515852       -14.0371
 219   2.0000      -0.513794       -13.9810
 220   2.0000      -0.512317       -13.9408
 221   2.0000      -0.511129       -13.9085
 222   2.0000      -0.508427       -13.8350
 223   2.0000      -0.507526       -13.8105
 224   2.0000      -0.503949       -13.7131
 225   2.0000      -0.500282       -13.6134
 226   2.0000      -0.498296       -13.5593
 227   2.0000      -0.496648       -13.5145
 228   2.0000      -0.495016       -13.4701
 229   2.0000      -0.491555       -13.3759
 230   2.0000      -0.488758       -13.2998
 231   2.0000      -0.487067       -13.2538
 232   2.0000      -0.486374       -13.2349
 233   2.0000      -0.485207       -13.2032
 234   2.0000      -0.484159       -13.1746
 235   2.0000      -0.481905       -13.1133
 236   2.0000      -0.480119       -13.0647
 237   2.0000      -0.475691       -12.9442
 238   2.0000      -0.473722       -12.8906
 239   2.0000      -0.471120       -12.8198
 240   2.0000      -0.466629       -12.6976
 241   2.0000      -0.464944       -12.6518
 242   2.0000      -0.460120       -12.5205
 243   2.0000      -0.458863       -12.4863
 244   2.0000      -0.455515       -12.3952
 245   2.0000      -0.453072       -12.3287
 246   2.0000      -0.451074       -12.2743
 247   2.0000      -0.449458       -12.2304
 248   2.0000      -0.448341       -12.2000
 249   2.0000      -0.448110       -12.1937
 250   2.0000      -0.445170       -12.1137
 251   2.0000      -0.442406       -12.0385
 252   2.0000      -0.438635       -11.9359
 253   2.0000      -0.436648       -11.8818
 254   2.0000      -0.435867       -11.8606
 255   2.0000      -0.435277       -11.8445
 256   2.0000      -0.433652       -11.8003
 257   2.0000      -0.431515       -11.7421
 258   2.0000      -0.431496       -11.7416
 259   2.0000      -0.428975       -11.6730
 260   2.0000      -0.426964       -11.6183
 261   2.0000      -0.423592       -11.5265
 262   2.0000      -0.417281       -11.3548
 263   2.0000      -0.415665       -11.3108
 264   2.0000      -0.413668       -11.2565
 265   2.0000      -0.412162       -11.2155
 266   2.0000      -0.409893       -11.1538
 267   2.0000      -0.408021       -11.1028
 268   2.0000      -0.397367       -10.8129
 269   2.0000      -0.395243       -10.7551
 270   2.0000      -0.387639       -10.5482
 271   2.0000      -0.383092       -10.4245
 272   2.0000      -0.378001       -10.2859
 273   2.0000      -0.375267       -10.2115
 274   2.0000      -0.371775       -10.1165
 275   2.0000      -0.370009       -10.0685
 276   2.0000      -0.369558       -10.0562
 277   2.0000      -0.368000       -10.0138
 278   2.0000      -0.367494       -10.0000
 279   2.0000      -0.358906        -9.7663
 280   2.0000      -0.352361        -9.5882
 281   2.0000      -0.350467        -9.5367
 282   2.0000      -0.348469        -9.4823
 283   2.0000      -0.346084        -9.4174
 284   2.0000      -0.339210        -9.2304
 285   2.0000      -0.336580        -9.1588
 286   2.0000      -0.326741        -8.8911
 287   2.0000      -0.322172        -8.7667
 288   2.0000      -0.310737        -8.4556
 289   2.0000      -0.305295        -8.3075
 290   2.0000      -0.299777        -8.1573
 291   2.0000      -0.294066        -8.0019
 292   2.0000      -0.286922        -7.8076
 293   2.0000      -0.283919        -7.7258
 294   2.0000      -0.263602        -7.1730
 295   2.0000      -0.225126        -6.1260
 296   0.0000      -0.116248        -3.1633
 297   0.0000      -0.098507        -2.6805
 298   0.0000      -0.066940        -1.8215
 299   0.0000      -0.063055        -1.7158
 300   0.0000      -0.058511        -1.5922

MULLIKEN ATOMIC CHARGES
-----------------------
   0 C :    0.307289
   1 C :   -0.341430
   2 C :   -0.181018
   3 N :    0.145625
   4 C :   -0.209647
   5 N :    0.160328
   6 C :    0.022227
   7 C :   -0.004484
   8 C :   -0.082554
   9 C :    0.115343
  10 C :   -0.096336
  11 C :   -0.033977
  12 S :    0.177845
  13 C :   -0.134360
  14 C :    0.048096
  15 Br:    0.048642
  16 C :    0.139939
  17 O :   -0.140288
  18 C :   -0.173701
  19 C :    0.040359
  20 C :   -0.154207
  21 S :    0.153283
  22 C :   -0.101656
  23 C :   -0.089767
  24 C :    0.113984
  25 C :    0.173671
  26 C :   -0.033974
  27 C :    0.029946
  28 C :   -0.005322
  29 C :   -0.020183
  30 C :    0.141959
  31 O :   -0.208670
  32 C :   -0.070840
  33 C :    0.165720
  34 O :   -0.152154
  35 N :   -0.167119
  36 C :    0.199301
  37 O :   -0.154164
  38 C :   -0.076817
  39 C :    0.142966
  40 C :   -0.028285
  41 C :    0.000961
  42 C :    0.001683
  43 C :   -0.024426
  44 C :    0.046830
  45 C :    0.029121
  46 C :   -0.032176
  47 S :    0.116669
  48 C :   -0.056309
  49 C :    0.037551
  50 C :    0.043084
  51 C :   -0.016118
  52 S :    0.113855
  53 C :   -0.005299
  54 C :    0.028633
  55 C :   -0.128025
  56 C :    0.282498
  57 C :   -0.346688
  58 C :   -0.181276
  59 N :    0.140258
  60 C :   -0.220938
  61 N :    0.162930
  62 C :    0.006921
  63 C :   -0.004028
  64 C :    0.137318
  65 O :   -0.153640
  66 C :   -0.079583
  67 C :    0.117235
  68 C :   -0.089116
  69 C :   -0.027759
  70 S :    0.179885
  71 C :   -0.124466
  72 C :    0.036934
  73 Br:    0.015928
  74 H :   -0.008800
  75 H :   -0.012915
  76 H :   -0.007816
  77 H :    0.038069
  78 H :    0.028166
  79 H :    0.013744
  80 H :    0.031040
  81 H :    0.044451
  82 H :    0.020946
  83 H :   -0.010642
  84 H :    0.025282
  85 H :    0.002920
  86 H :    0.139467
  87 H :   -0.006503
  88 H :    0.040193
  89 H :   -0.001764
  90 H :    0.000397
  91 H :   -0.003872
  92 H :   -0.003110
  93 H :    0.002325
  94 H :    0.010579
  95 H :    0.010373
  96 H :   -0.014468
  97 H :   -0.006277
  98 H :   -0.005804
Sum of atomic charges:   -0.0000000

LOEWDIN ATOMIC CHARGES
----------------------
   0 C :    0.074368
   1 C :   -0.143042
   2 C :   -0.016554
   3 N :   -0.059362
   4 C :   -0.025400
   5 N :   -0.051024
   6 C :   -0.026981
   7 C :   -0.047367
   8 C :    0.017467
   9 C :   -0.032419
  10 C :   -0.149867
  11 C :   -0.014061
  12 S :    0.447120
  13 C :   -0.266144
  14 C :   -0.080901
  15 Br:    0.158066
  16 C :    0.072942
  17 O :   -0.135671
  18 C :   -0.101255
  19 C :    0.048675
  20 C :   -0.172959
  21 S :    0.458605
  22 C :   -0.160262
  23 C :   -0.053441
  24 C :   -0.042923
  25 C :   -0.012349
  26 C :    0.011379
  27 C :   -0.017793
  28 C :    0.022045
  29 C :   -0.055190
  30 C :    0.075273
  31 O :    0.014607
  32 C :   -0.102980
  33 C :    0.083975
  34 O :   -0.163359
  35 N :    0.001055
  36 C :    0.085232
  37 O :   -0.164156
  38 C :   -0.099898
  39 C :    0.064874
  40 C :   -0.040294
  41 C :   -0.009640
  42 C :   -0.036774
  43 C :   -0.141072
  44 C :   -0.016383
  45 C :   -0.029032
  46 C :   -0.154724
  47 S :    0.417930
  48 C :   -0.185937
  49 C :   -0.008982
  50 C :   -0.031920
  51 C :   -0.103132
  52 S :    0.405899
  53 C :   -0.065438
  54 C :    0.050485
  55 C :   -0.104024
  56 C :    0.067845
  57 C :   -0.152594
  58 C :   -0.020045
  59 N :   -0.063612
  60 C :   -0.024807
  61 N :   -0.060672
  62 C :   -0.016023
  63 C :   -0.051136
  64 C :    0.078133
  65 O :   -0.155369
  66 C :    0.018424
  67 C :   -0.036467
  68 C :   -0.144863
  69 C :   -0.015998
  70 S :    0.427723
  71 C :   -0.275000
  72 C :   -0.070683
  73 Br:    0.130591
  74 H :    0.041093
  75 H :    0.038552
  76 H :    0.035788
  77 H :    0.045786
  78 H :    0.027880
  79 H :    0.034844
  80 H :    0.037755
  81 H :    0.040284
  82 H :    0.031335
  83 H :    0.031437
  84 H :    0.038944
  85 H :    0.035577
  86 H :    0.095058
  87 H :    0.039594
  88 H :    0.024132
  89 H :    0.037920
  90 H :    0.038916
  91 H :    0.035475
  92 H :    0.036319
  93 H :    0.040529
  94 H :    0.038715
  95 H :    0.034307
  96 H :    0.039372
  97 H :    0.039954
  98 H :    0.037699

  Mayer bond orders larger than 0.100000
B(  0-C ,  1-C ) :   1.6311 B(  0-C ,  6-C ) :   1.0017 B(  0-C , 18-C ) :   1.0670
B(  1-C ,  2-C ) :   1.1438 B(  1-C ,  4-C ) :   1.1424 B(  2-C ,  3-N ) :   2.9699
B(  4-C ,  5-N ) :   2.9935 B(  6-C ,  7-C ) :   1.2745 B(  6-C , 11-C ) :   1.4000
B(  7-C ,  8-C ) :   1.4158 B(  7-C , 16-C ) :   0.9339 B(  8-C ,  9-C ) :   1.2322
B(  8-C , 74-H ) :   1.0237 B(  9-C , 10-C ) :   1.3092 B(  9-C , 14-C ) :   1.1800
B( 10-C , 11-C ) :   1.3201 B( 10-C , 12-S ) :   1.0847 B( 11-C , 75-H ) :   0.9829
B( 12-S , 13-C ) :   1.0934 B( 13-C , 14-C ) :   1.5931 B( 13-C , 15-Br) :   1.0376
B( 14-C , 76-H ) :   0.9984 B( 16-C , 17-O ) :   2.2101 B( 16-C , 18-C ) :   0.9653
B( 18-C , 19-C ) :   1.5503 B( 19-C , 20-C ) :   1.2238 B( 19-C , 77-H ) :   0.9337
B( 20-C , 21-S ) :   1.1157 B( 20-C , 25-C ) :   1.3669 B( 21-S , 22-C ) :   1.1701
B( 22-C , 23-C ) :   1.5523 B( 22-C , 78-H ) :   0.9660 B( 23-C , 24-C ) :   1.0959
B( 23-C , 25-C ) :   1.2658 B( 24-C , 79-H ) :   0.9476 B( 24-C , 80-H ) :   0.9436
B( 24-C , 81-H ) :   0.9439 B( 25-C , 26-C ) :   1.1459 B( 26-C , 27-C ) :   1.6821
B( 26-C , 82-H ) :   0.9216 B( 27-C , 28-C ) :   1.1398 B( 27-C , 83-H ) :   0.9814
B( 28-C , 29-C ) :   1.6353 B( 28-C , 84-H ) :   0.9592 B( 29-C , 30-C ) :   1.1836
B( 29-C , 85-H ) :   0.9477 B( 30-C , 31-O ) :   1.1377 B( 30-C , 32-C ) :   1.3948
B( 31-O , 39-C ) :   1.1269 B( 32-C , 33-C ) :   0.8891 B( 32-C , 38-C ) :   1.2879
B( 33-C , 34-O ) :   2.1933 B( 33-C , 35-N ) :   1.0881 B( 35-N , 36-C ) :   1.0887
B( 35-N , 86-H ) :   0.9161 B( 36-C , 37-O ) :   2.1434 B( 36-C , 38-C ) :   0.9040
B( 38-C , 39-C ) :   1.3878 B( 39-C , 40-C ) :   1.1818 B( 40-C , 41-C ) :   1.5575
B( 40-C , 87-H ) :   0.9788 B( 41-C , 42-C ) :   1.1799 B( 41-C , 88-H ) :   0.9460
B( 42-C , 43-C ) :   1.5289 B( 42-C , 89-H ) :   0.9880 B( 43-C , 44-C ) :   1.1481
B( 43-C , 47-S ) :   1.0461 B( 44-C , 45-C ) :   1.5764 B( 44-C , 90-H ) :   1.0011
B( 45-C , 46-C ) :   1.1950 B( 45-C , 91-H ) :   0.9949 B( 46-C , 47-S ) :   1.0801
B( 46-C , 48-C ) :   1.4654 B( 48-C , 49-C ) :   1.2146 B( 48-C , 52-S ) :   1.0472
B( 49-C , 50-C ) :   1.5491 B( 49-C , 92-H ) :   0.9948 B( 50-C , 51-C ) :   1.1777
B( 50-C , 93-H ) :   1.0003 B( 51-C , 52-S ) :   1.0809 B( 51-C , 53-C ) :   1.5063
B( 53-C , 54-C ) :   1.2184 B( 53-C , 94-H ) :   0.9600 B( 54-C , 55-C ) :   1.5352
B( 54-C , 95-H ) :   0.9412 B( 55-C , 56-C ) :   1.0884 B( 55-C , 64-C ) :   0.9620
B( 56-C , 57-C ) :   1.6004 B( 56-C , 62-C ) :   1.0033 B( 57-C , 58-C ) :   1.1358
B( 57-C , 60-C ) :   1.1664 B( 58-C , 59-N ) :   2.9779 B( 60-C , 61-N ) :   3.0149
B( 62-C , 63-C ) :   1.2784 B( 62-C , 69-C ) :   1.4205 B( 63-C , 64-C ) :   0.9171
B( 63-C , 66-C ) :   1.4319 B( 64-C , 65-O ) :   2.2521 B( 66-C , 67-C ) :   1.2419
B( 66-C , 96-H ) :   1.0171 B( 67-C , 68-C ) :   1.3182 B( 67-C , 72-C ) :   1.1608
B( 68-C , 69-C ) :   1.3172 B( 68-C , 70-S ) :   1.0833 B( 69-C , 97-H ) :   0.9824
B( 70-S , 71-C ) :   1.0854 B( 71-C , 72-C ) :   1.6213 B( 71-C , 73-Br) :   1.0142
B( 72-C , 98-H ) :   1.0003

-----------------------------------------------------------------------------
         ABSORPTION SPECTRUM VIA TRANSITION ELECTRIC DIPOLE MOMENTS
-----------------------------------------------------------------------------
State   Energy  Wavelength   fosc         T2         TX        TY        TZ
        (cm-1)    (nm)                  (au**2)     (au)      (au)      (au)
-----------------------------------------------------------------------------
   0   10455.9    956.4   1.331202890  41.91395  -2.33023  -2.14148  -5.64783
   1   14812.4    675.1   0.111782668   2.48441  -0.81232  -1.26995  -0.46018
   2   18638.2    536.5   0.060336038   1.06573  -0.69492  -0.76169  -0.05143
   3   20132.8    496.7   0.197755353   3.23371   1.78545  -0.09113  -0.19380
   4   21022.7    475.7   0.322658105   5.05276   2.05927  -0.89063  -0.13766
   5   21615.2    462.6   0.125738187   1.91506  -0.82474  -0.08545   1.10795
   6   22843.8    437.8   0.040861411   0.58887  -0.50755  -0.14763  -0.55630
   7   23390.2    427.5   0.050270746   0.70755   0.83228   0.11870  -0.02770
   8   23551.9    424.6   0.012544770   0.17535  -0.37034   0.13597  -0.14040
   9   24031.2    416.1   0.255503702   3.50023   0.38176  -0.96090  -1.55922
  10   24528.0    407.7   0.466822528   6.26565  -1.89000  -0.20857   1.62789
  11   25467.1    392.7   0.057770357   0.74680  -0.82658  -0.13522  -0.21278
  12   25931.1    385.6   0.091645088   1.16350  -0.34037   0.12568  -1.01580
  13   26751.6    373.8   0.147932563   1.82049  -1.33383  -0.10027  -0.17705
  14   27127.4    368.6   0.029562915   0.35877   0.49010  -0.31288   0.14380
  15   27282.5    366.5   0.059979007   0.72375  -0.48041  -0.53219  -0.45797
  16   27684.8    361.2   0.056428298   0.67101   0.61426   0.09584  -0.53340
  17   28251.7    354.0   0.016985997   0.19793   0.42448   0.02194  -0.13141
  18   28302.2    353.3   0.115286936   1.34102   0.86085  -0.62479   0.45783
  19   29387.1    340.3   0.389591715   4.36444  -0.46233   0.14720   2.03200
  20   29574.8    338.1   0.033400369   0.37180  -0.18386   0.04139   0.57990
  21   29786.7    335.7   0.071973579   0.79547  -0.78863  -0.40121   0.11212
  22   30377.8    329.2   0.079207134   0.85839  -0.91779   0.12668   0.00054
  23   30457.8    328.3   0.170056057   1.83810  -0.00871   0.33508   1.31368
  24   30771.0    325.0   0.339356310   3.63069   0.19222  -0.08103   1.89398
  25   31046.0    322.1   0.049815527   0.52824   0.46266   0.16650   0.53522
  26   31824.4    314.2   0.145012743   1.50010   0.19850   0.13838   1.20065
  27   31989.3    312.6   0.104198432   1.07234   0.38987   0.59486   0.75265
  28   32210.8    310.5   0.545421748   5.57451  -2.19326  -0.83764  -0.25001
  29   32519.4    307.5   0.178549173   1.80755  -0.83837  -0.35909   0.98780
  30   32752.4    305.3   0.025177663   0.25307  -0.14458   0.29581  -0.38035
  31   32805.4    304.8   0.051214304   0.51395  -0.34848   0.18970  -0.59710
  32   32956.4    303.4   0.015721056   0.15704   0.33870   0.20573  -0.00070
  33   33774.5    296.1   0.023977535   0.23372  -0.14186  -0.06847  -0.45706
  34   33835.1    295.6   0.005349807   0.05205   0.11925   0.12105  -0.15224
  35   33908.3    294.9   0.078933056   0.76635   0.56637  -0.24889  -0.61938
  36   34440.6    290.4   0.099310430   0.94929   0.78019   0.08909   0.57676
  37   34539.9    289.5   0.138869882   1.32362   0.67787  -0.21548   0.90426
  38   34759.4    287.7   0.077126552   0.73048  -0.55604  -0.35788  -0.54150
  39   34879.5    286.7   0.020939945   0.19764   0.42462  -0.13167   0.00170
  40   35089.1    285.0   0.071275376   0.66872  -0.38957  -0.00447   0.71898
  41   35191.9    284.2   0.042199212   0.39476  -0.36405  -0.10219  -0.50179
  42   35487.5    281.8   0.067406996   0.62532  -0.45981  -0.01856   0.64309
  43   35615.9    280.8   0.058891088   0.54435   0.53603   0.33585  -0.37978
  44   36090.0    277.1   0.087575277   0.79886  -0.75510   0.00132   0.47820
  45   36632.6    273.0   0.051076147   0.45901   0.40651   0.46365  -0.28070
  46   36785.7    271.8   0.002623942   0.02348  -0.07451  -0.13391  -0.00035
  47   37199.0    268.8   0.018431558   0.16312  -0.34450   0.17899   0.11137
  48   37476.1    266.8   0.060219883   0.52901   0.15165   0.12578  -0.70014
  49   37804.4    264.5   0.064203515   0.55910  -0.57920   0.09838   0.46255
  50   38209.9    261.7   0.018586458   0.16014   0.30837   0.21408   0.13862
  51   38323.4    260.9   0.098149441   0.84314   0.64878   0.13650  -0.63529
  52   38425.9    260.2   0.021500253   0.18420   0.14603  -0.08923  -0.39359
  53   38452.7    260.1   0.005921037   0.05069   0.14154   0.11981   0.12769
  54   38733.7    258.2   0.017506110   0.14879   0.24968  -0.04017  -0.29127
  55   38898.3    257.1   0.007714878   0.06529   0.08140  -0.23251  -0.06788
  56   39040.3    256.1   0.067469465   0.56894   0.16665  -0.10247  -0.72847
  57   39129.5    255.6   0.017889865   0.15051  -0.16129   0.15140   0.31871
  58   39311.4    254.4   0.012623331   0.10571  -0.07196  -0.19296  -0.25160
  59   39492.8    253.2   0.048954152   0.40808   0.25531  -0.12444   0.57220
  60   39626.4    252.4   0.026503054   0.22018   0.08732   0.42780   0.17189
  61   39802.9    251.2   0.008575741   0.07093  -0.19894  -0.17680  -0.00990
  62   39902.0    250.6   0.013495416   0.11134  -0.31970  -0.05486   0.07826
  63   40118.4    249.3   0.025979271   0.21319  -0.14021  -0.32361  -0.29800

FINAL SINGLE POINT ENERGY     -9971.568506207106

DIPOLE MOMENT
-------------
                                X             Y             Z
Electronic contribution:    103.37826      81.72602     132.23528
Nuclear contribution   :   -103.76489     -81.82689    -135.56705
                        -----------------------------------------
Total Dipole Moment    :     -0.38663      -0.10087      -3.33177
                        -----------------------------------------
Magnitude (a.u.)       :      3.35564
Magnitude (Debye)      :      8.52937

Rotational constants in cm-1:     0.001261     0.000245     0.000217
Rotational constants in MHz :    37.814145     7.336069     6.497270

                             ****ORCA TERMINATED NORMALLY****
TOTAL RUN TIME: 0 days 0 hours 11 minutes 55 seconds 170 msec
