                         Program Version 4.2.0 -  RELEASE  -
|  1> # ORCA input file
|  2> # SCF done       -189.785904670463          0.000749629651
|  3> ! CAM-B3LYP def2-SVP def2/J RIJCOSX Grid4 TightSCF
|  4> %maxcore 5000
|  5> %tddft
|  6>     Mode sTDDFT
|  7>     Ethresh 5.0
|  8>     maxcore 5000
|  9> end
| 10>
| 11> %pal
| 12>   nprocs 6
| 13>   end
| 14> * xyz 0 1
| 15>    C      -11.86804         4.18665         2.25212
| 16>    C      -12.14188         3.38197         3.33275
| 17>    C      -13.18726         3.62002         4.24734
| 18>    N      -14.01993         3.75698         5.02687
| 19>    C      -11.45166         2.20362         3.67859
| 20>    N      -10.94943         1.22879         4.02524
| 21>    C      -12.62279         5.37852         1.87985
| 22>    C      -12.09876         5.88591         0.66554
| 23>    C      -12.59623         7.00779         0.05072
| 24>    C      -13.66223         7.67047         0.66876
| 25>    C      -14.17686         7.16172         1.88433
| 26>    C      -13.67621         6.02234         2.50262
| 27>    S      -15.48476         8.13839         2.48187
| 28>    C      -15.32357         9.20095         1.10870
| 29>    C      -14.34278         8.84485         0.24593
| 30>   Br      -16.46374        10.68148         0.94496
| 31>    C      -10.97536         5.03468         0.23144
| 32>    O      -10.31952         5.17750        -0.78465
| 33>    C      -10.82085         4.00685         1.26651
| 34>    C       -9.81907         3.07098         1.34080
| 35>    C       -8.73146         2.82160         0.49402
| 36>    S       -8.36203         3.67018        -0.98553
| 37>    C       -6.92117         2.77330        -1.15746
| 38>    C       -6.67998         1.87890        -0.14874
| 39>    C       -5.48970         0.97681        -0.13349
| 40>    C       -7.72425         1.88382         0.80583
| 41>    C       -7.78642         1.00407         1.94728
| 42>    C       -6.72838         0.70210         2.72766
| 43>    C       -6.77385        -0.23457         3.80025
| 44>    C       -5.75165        -0.38948         4.67148
| 45>    C       -5.70859        -1.38502         5.68268
| 46>    N       -6.49620        -2.41256         5.79152
| 47>    C       -6.13021        -3.21351         6.79770
| 48>    C       -5.03135        -2.79330         7.52110
| 49>    S       -4.41496        -1.32352         6.91243
| 50>    C       -4.79891        -3.72793         8.63953
| 51>    C       -5.36027        -5.00310         8.00007
| 52>    C       -6.67226        -4.54359         7.29351
| 53>    C       -7.83824        -4.28385         8.26266
| 54>    C       -8.43077        -5.53954         8.89210
| 55>    C       -7.05508        -5.47523         6.13602
| 56>    C       -8.23650        -4.97391         5.31324
| 57>    N       -5.25761        -6.05794         8.99061
| 58>    C       -4.28774        -5.69478        10.00178
| 59>    S       -3.23077        -4.32776         9.34237
| 60>    C       -5.25666        -7.34807         8.51080
| 61>    C       -5.11534        -8.47830         9.24972
| 62>    C       -5.05450        -8.68982        10.65768
| 63>    C       -4.86108        -9.98379        11.01799
| 64>    C       -4.72765       -10.88536         9.93210
| 65>    S       -4.94438       -10.03188         8.41593
| 66>    C       -4.43175       -12.22799         9.97061
| 67>    C       -4.19539       -13.03866        11.10843
| 68>    C       -3.87387       -14.32081        10.80449
| 69>    C       -3.80554       -14.60772         9.40838
| 70>    S       -4.21495       -13.16482         8.50310
| 71>    C       -3.53578       -15.84628         8.90326
| 72>    C       -3.43582       -16.32614         7.56149
| 73>    C       -3.12142       -15.56473         6.42708
| 74>    O       -2.76916       -14.28490         6.70118
| 75>    C       -2.57484       -13.29223         5.71942
| 76>    C       -3.10143       -16.16015         5.12312
| 77>    O       -2.81414       -15.32507         4.07959
| 78>    C       -2.77255       -15.85481         2.77732
| 79>    C       -3.34575       -17.50120         4.94323
| 80>    C       -3.59939       -18.30337         6.06317
| 81>    C       -3.63641       -17.72189         7.37341
| 82>    N       -3.88966       -18.62410         8.31495
| 83>    S       -4.05595       -20.06963         7.61337
| 84>    N       -3.82208       -19.61560         6.08234
| 85>    H      -12.17427         7.36581        -0.87523
| 86>    H      -14.10277         5.67836         3.42978
| 87>    H      -14.10626         9.38705        -0.65134
| 88>    H       -9.83364         2.43223         2.21413
| 89>    H       -6.29411         2.94271        -2.01234
| 90>    H       -5.16196         0.77645        -1.15101
| 91>    H       -5.72677         0.03627         0.35840
| 92>    H       -4.66064         1.44271         0.39876
| 93>    H       -8.74988         0.57379         2.19062
| 94>    H       -5.78521         1.20636         2.56702
| 95>    H       -7.65563        -0.84956         3.90697
| 96>    H       -4.88973         0.26240         4.61899
| 97>    H       -5.38222        -3.40844         9.51236
| 98>    H       -4.67343        -5.25430         7.17004
| 99>    H       -7.49420        -3.61848         9.05774
|100>    H       -8.61397        -3.74708         7.71492
|101>    H       -9.20402        -5.25662         9.60290
|102>    H       -7.67023        -6.10830         9.41990
|103>    H       -8.88356        -6.18115         8.14186
|104>    H       -6.18769        -5.56913         5.47648
|105>    H       -7.27996        -6.46571         6.53529
|106>    H       -8.05933        -3.95163         4.99214
|107>    H       -9.15994        -5.00970         5.88426
|108>    H       -8.35962        -5.60082         4.43314
|109>    H       -3.64091        -6.53203        10.25845
|110>    H       -4.77820        -5.30647        10.89950
|111>    H       -5.39446        -7.44852         7.44308
|112>    H       -5.19644        -7.88569        11.35756
|113>    H       -4.79911       -10.32147        12.03715
|114>    H       -4.26290       -12.65046        12.10926
|115>    H       -3.66199       -15.08415        11.53259
|116>    H       -3.45369       -16.63751         9.63941
|117>    H       -3.44677       -13.18248         5.07309
|118>    H       -1.69033       -13.49343         5.11272
|119>    H       -2.43069       -12.37151         6.28523
|120>    H       -1.99864       -16.62226         2.67963
|121>    H       -2.52934       -15.01190         2.13190
|122>    H       -3.73988       -16.27138         2.48082
|123>    H       -3.33215       -17.96473         3.97274
|124> *
|125>
|126>                          ****END OF INPUT****

CARTESIAN COORDINATES (ANGSTROEM)
---------------------------------
  C    -11.868040    4.186650    2.252120
  C    -12.141880    3.381970    3.332750
  C    -13.187260    3.620020    4.247340
  N    -14.019930    3.756980    5.026870
  C    -11.451660    2.203620    3.678590
  N    -10.949430    1.228790    4.025240
  C    -12.622790    5.378520    1.879850
  C    -12.098760    5.885910    0.665540
  C    -12.596230    7.007790    0.050720
  C    -13.662230    7.670470    0.668760
  C    -14.176860    7.161720    1.884330
  C    -13.676210    6.022340    2.502620
  S    -15.484760    8.138390    2.481870
  C    -15.323570    9.200950    1.108700
  C    -14.342780    8.844850    0.245930
  Br   -16.463740   10.681480    0.944960
  C    -10.975360    5.034680    0.231440
  O    -10.319520    5.177500   -0.784650
  C    -10.820850    4.006850    1.266510
  C     -9.819070    3.070980    1.340800
  C     -8.731460    2.821600    0.494020
  S     -8.362030    3.670180   -0.985530
  C     -6.921170    2.773300   -1.157460
  C     -6.679980    1.878900   -0.148740
  C     -5.489700    0.976810   -0.133490
  C     -7.724250    1.883820    0.805830
  C     -7.786420    1.004070    1.947280
  C     -6.728380    0.702100    2.727660
  C     -6.773850   -0.234570    3.800250
  C     -5.751650   -0.389480    4.671480
  C     -5.708590   -1.385020    5.682680
  N     -6.496200   -2.412560    5.791520
  C     -6.130210   -3.213510    6.797700
  C     -5.031350   -2.793300    7.521100
  S     -4.414960   -1.323520    6.912430
  C     -4.798910   -3.727930    8.639530
  C     -5.360270   -5.003100    8.000070
  C     -6.672260   -4.543590    7.293510
  C     -7.838240   -4.283850    8.262660
  C     -8.430770   -5.539540    8.892100
  C     -7.055080   -5.475230    6.136020
  C     -8.236500   -4.973910    5.313240
  N     -5.257610   -6.057940    8.990610
  C     -4.287740   -5.694780   10.001780
  S     -3.230770   -4.327760    9.342370
  C     -5.256660   -7.348070    8.510800
  C     -5.115340   -8.478300    9.249720
  C     -5.054500   -8.689820   10.657680
  C     -4.861080   -9.983790   11.017990
  C     -4.727650  -10.885360    9.932100
  S     -4.944380  -10.031880    8.415930
  C     -4.431750  -12.227990    9.970610
  C     -4.195390  -13.038660   11.108430
  C     -3.873870  -14.320810   10.804490
  C     -3.805540  -14.607720    9.408380
  S     -4.214950  -13.164820    8.503100
  C     -3.535780  -15.846280    8.903260
  C     -3.435820  -16.326140    7.561490
  C     -3.121420  -15.564730    6.427080
  O     -2.769160  -14.284900    6.701180
  C     -2.574840  -13.292230    5.719420
  C     -3.101430  -16.160150    5.123120
  O     -2.814140  -15.325070    4.079590
  C     -2.772550  -15.854810    2.777320
  C     -3.345750  -17.501200    4.943230
  C     -3.599390  -18.303370    6.063170
  C     -3.636410  -17.721890    7.373410
  N     -3.889660  -18.624100    8.314950
  S     -4.055950  -20.069630    7.613370
  N     -3.822080  -19.615600    6.082340
  H    -12.174270    7.365810   -0.875230
  H    -14.102770    5.678360    3.429780
  H    -14.106260    9.387050   -0.651340
  H     -9.833640    2.432230    2.214130
  H     -6.294110    2.942710   -2.012340
  H     -5.161960    0.776450   -1.151010
  H     -5.726770    0.036270    0.358400
  H     -4.660640    1.442710    0.398760
  H     -8.749880    0.573790    2.190620
  H     -5.785210    1.206360    2.567020
  H     -7.655630   -0.849560    3.906970
  H     -4.889730    0.262400    4.618990
  H     -5.382220   -3.408440    9.512360
  H     -4.673430   -5.254300    7.170040
  H     -7.494200   -3.618480    9.057740
  H     -8.613970   -3.747080    7.714920
  H     -9.204020   -5.256620    9.602900
  H     -7.670230   -6.108300    9.419900
  H     -8.883560   -6.181150    8.141860
  H     -6.187690   -5.569130    5.476480
  H     -7.279960   -6.465710    6.535290
  H     -8.059330   -3.951630    4.992140
  H     -9.159940   -5.009700    5.884260
  H     -8.359620   -5.600820    4.433140
  H     -3.640910   -6.532030   10.258450
  H     -4.778200   -5.306470   10.899500
  H     -5.394460   -7.448520    7.443080
  H     -5.196440   -7.885690   11.357560
  H     -4.799110  -10.321470   12.037150
  H     -4.262900  -12.650460   12.109260
  H     -3.661990  -15.084150   11.532590
  H     -3.453690  -16.637510    9.639410
  H     -3.446770  -13.182480    5.073090
  H     -1.690330  -13.493430    5.112720
  H     -2.430690  -12.371510    6.285230
  H     -1.998640  -16.622260    2.679630
  H     -2.529340  -15.011900    2.131900
  H     -3.739880  -16.271380    2.480820
  H     -3.332150  -17.964730    3.972740

 Total Charge           Charge          ....    0
 Multiplicity           Mult            ....    1
 Number of Electrons    NEL             ....  570
 Basis Dimension        Dim             .... 1221

ORBITAL ENERGIES
----------------

  NO   OCC          E(Eh)            E(eV)
   0   2.0000    -482.885503    -13139.9826
   1   2.0000     -88.993219     -2421.6286
   2   2.0000     -88.974979     -2421.1323
   3   2.0000     -88.967719     -2420.9347
   4   2.0000     -88.961169     -2420.7565
   5   2.0000     -88.925738     -2419.7923
   6   2.0000     -88.919800     -2419.6308
   7   2.0000     -88.918536     -2419.5964
   8   2.0000     -62.563186     -1702.4308
   9   2.0000     -56.397136     -1534.6441
  10   2.0000     -56.394424     -1534.5703
  11   2.0000     -56.394390     -1534.5694
  12   2.0000     -19.250713      -523.8385
  13   2.0000     -19.239881      -523.5438
  14   2.0000     -19.218201      -522.9538
  15   2.0000     -14.437510      -392.8646
  16   2.0000     -14.417550      -392.3215
  17   2.0000     -14.412334      -392.1796
  18   2.0000     -14.411747      -392.1636
  19   2.0000     -14.410851      -392.1392
  20   2.0000     -14.410000      -392.1160
  21   2.0000     -10.366907      -282.0979
  22   2.0000     -10.358660      -281.8735
  23   2.0000     -10.341410      -281.4041
  24   2.0000     -10.340632      -281.3829
  25   2.0000     -10.338754      -281.3318
  26   2.0000     -10.336223      -281.2629
  27   2.0000     -10.334094      -281.2050
  28   2.0000     -10.330010      -281.0939
  29   2.0000     -10.325832      -280.9802
  30   2.0000     -10.324574      -280.9459
  31   2.0000     -10.320973      -280.8480
  32   2.0000     -10.320462      -280.8341
  33   2.0000     -10.315872      -280.7091
  34   2.0000     -10.314004      -280.6583
  35   2.0000     -10.311677      -280.5950
  36   2.0000     -10.310223      -280.5554
  37   2.0000     -10.307372      -280.4778
  38   2.0000     -10.306871      -280.4642
  39   2.0000     -10.306714      -280.4600
  40   2.0000     -10.304713      -280.4055
  41   2.0000     -10.303630      -280.3760
  42   2.0000     -10.300287      -280.2850
  43   2.0000     -10.300238      -280.2837
  44   2.0000     -10.298994      -280.2499
  45   2.0000     -10.298935      -280.2483
  46   2.0000     -10.298883      -280.2469
  47   2.0000     -10.298525      -280.2371
  48   2.0000     -10.297390      -280.2062
  49   2.0000     -10.296272      -280.1758
  50   2.0000     -10.293994      -280.1138
  51   2.0000     -10.293322      -280.0955
  52   2.0000     -10.290990      -280.0321
  53   2.0000     -10.288249      -279.9575
  54   2.0000     -10.287111      -279.9265
  55   2.0000     -10.286880      -279.9202
  56   2.0000     -10.286503      -279.9100
  57   2.0000     -10.285789      -279.8905
  58   2.0000     -10.285188      -279.8742
  59   2.0000     -10.284900      -279.8664
  60   2.0000     -10.282987      -279.8143
  61   2.0000     -10.281761      -279.7809
  62   2.0000     -10.275970      -279.6234
  63   2.0000     -10.274412      -279.5810
  64   2.0000     -10.273006      -279.5427
  65   2.0000     -10.270976      -279.4875
  66   2.0000     -10.265785      -279.3462
  67   2.0000     -10.264082      -279.2999
  68   2.0000     -10.260948      -279.2146
  69   2.0000     -10.259690      -279.1804
  70   2.0000     -10.258835      -279.1571
  71   2.0000     -10.253981      -279.0250
  72   2.0000     -10.244670      -278.7716
  73   2.0000     -10.239245      -278.6240
  74   2.0000      -8.792592      -239.2586
  75   2.0000      -8.085417      -220.0154
  76   2.0000      -8.070955      -219.6218
  77   2.0000      -8.062897      -219.4026
  78   2.0000      -8.055220      -219.1937
  79   2.0000      -8.022075      -218.2918
  80   2.0000      -8.015075      -218.1013
  81   2.0000      -8.014754      -218.0925
  82   2.0000      -6.628881      -180.3810
  83   2.0000      -6.614339      -179.9853
  84   2.0000      -6.614126      -179.9795
  85   2.0000      -6.056758      -164.8128
  86   2.0000      -6.049172      -164.6063
  87   2.0000      -6.047351      -164.5568
  88   2.0000      -6.040657      -164.3746
  89   2.0000      -6.036360      -164.2577
  90   2.0000      -6.032175      -164.1438
  91   2.0000      -6.031917      -164.1368
  92   2.0000      -6.028068      -164.0321
  93   2.0000      -6.025352      -163.9582
  94   2.0000      -6.024478      -163.9344
  95   2.0000      -6.019869      -163.8090
  96   2.0000      -6.017765      -163.7517
  97   2.0000      -5.992060      -163.0522
  98   2.0000      -5.988049      -162.9431
  99   2.0000      -5.984970      -162.8593
 100   2.0000      -5.984946      -162.8587
 101   2.0000      -5.982498      -162.7921
 102   2.0000      -5.982038      -162.7795
 103   2.0000      -5.980740      -162.7442
 104   2.0000      -5.975971      -162.6145
 105   2.0000      -5.973556      -162.5487
 106   2.0000      -2.744774       -74.6891
 107   2.0000      -2.740652       -74.5769
 108   2.0000      -2.740528       -74.5736
 109   2.0000      -2.728951       -74.2585
 110   2.0000      -2.728940       -74.2582
 111   2.0000      -1.160207       -31.5708
 112   2.0000      -1.136535       -30.9267
 113   2.0000      -1.133560       -30.8457
 114   2.0000      -1.095478       -29.8095
 115   2.0000      -1.070100       -29.1189
 116   2.0000      -1.059415       -28.8282
 117   2.0000      -1.022220       -27.8160
 118   2.0000      -1.013083       -27.5674
 119   2.0000      -0.995433       -27.0871
 120   2.0000      -0.993596       -27.0371
 121   2.0000      -0.987797       -26.8793
 122   2.0000      -0.974530       -26.5183
 123   2.0000      -0.958860       -26.0919
 124   2.0000      -0.952904       -25.9298
 125   2.0000      -0.947284       -25.7769
 126   2.0000      -0.941918       -25.6309
 127   2.0000      -0.935868       -25.4663
 128   2.0000      -0.919871       -25.0310
 129   2.0000      -0.910546       -24.7772
 130   2.0000      -0.907691       -24.6995
 131   2.0000      -0.903807       -24.5938
 132   2.0000      -0.887794       -24.1581
 133   2.0000      -0.885114       -24.0852
 134   2.0000      -0.882356       -24.0101
 135   2.0000      -0.873180       -23.7604
 136   2.0000      -0.868869       -23.6431
 137   2.0000      -0.852950       -23.2099
 138   2.0000      -0.846748       -23.0412
 139   2.0000      -0.844920       -22.9914
 140   2.0000      -0.841664       -22.9028
 141   2.0000      -0.829480       -22.5713
 142   2.0000      -0.829152       -22.5624
 143   2.0000      -0.827067       -22.5056
 144   2.0000      -0.822260       -22.3748
 145   2.0000      -0.815501       -22.1909
 146   2.0000      -0.800912       -21.7939
 147   2.0000      -0.795393       -21.6437
 148   2.0000      -0.789952       -21.4957
 149   2.0000      -0.779582       -21.2135
 150   2.0000      -0.776462       -21.1286
 151   2.0000      -0.765065       -20.8185
 152   2.0000      -0.760683       -20.6992
 153   2.0000      -0.752960       -20.4891
 154   2.0000      -0.750055       -20.4100
 155   2.0000      -0.736271       -20.0350
 156   2.0000      -0.722355       -19.6563
 157   2.0000      -0.709434       -19.3047
 158   2.0000      -0.703124       -19.1330
 159   2.0000      -0.698430       -19.0053
 160   2.0000      -0.691621       -18.8200
 161   2.0000      -0.689872       -18.7724
 162   2.0000      -0.686640       -18.6844
 163   2.0000      -0.680861       -18.5272
 164   2.0000      -0.674073       -18.3424
 165   2.0000      -0.666951       -18.1486
 166   2.0000      -0.664921       -18.0934
 167   2.0000      -0.658216       -17.9110
 168   2.0000      -0.655441       -17.8354
 169   2.0000      -0.643963       -17.5231
 170   2.0000      -0.641463       -17.4551
 171   2.0000      -0.631505       -17.1841
 172   2.0000      -0.623585       -16.9686
 173   2.0000      -0.621936       -16.9237
 174   2.0000      -0.619441       -16.8559
 175   2.0000      -0.611854       -16.6494
 176   2.0000      -0.608107       -16.5474
 177   2.0000      -0.607081       -16.5195
 178   2.0000      -0.602984       -16.4080
 179   2.0000      -0.599738       -16.3197
 180   2.0000      -0.596594       -16.2341
 181   2.0000      -0.595764       -16.2116
 182   2.0000      -0.592736       -16.1292
 183   2.0000      -0.585190       -15.9238
 184   2.0000      -0.582219       -15.8430
 185   2.0000      -0.574233       -15.6257
 186   2.0000      -0.569701       -15.5023
 187   2.0000      -0.563141       -15.3238
 188   2.0000      -0.559994       -15.2382
 189   2.0000      -0.555209       -15.1080
 190   2.0000      -0.545542       -14.8450
 191   2.0000      -0.544258       -14.8100
 192   2.0000      -0.542950       -14.7744
 193   2.0000      -0.541026       -14.7221
 194   2.0000      -0.538330       -14.6487
 195   2.0000      -0.535824       -14.5805
 196   2.0000      -0.533730       -14.5235
 197   2.0000      -0.529852       -14.4180
 198   2.0000      -0.526974       -14.3397
 199   2.0000      -0.526426       -14.3248
 200   2.0000      -0.524540       -14.2735
 201   2.0000      -0.521175       -14.1819
 202   2.0000      -0.516815       -14.0633
 203   2.0000      -0.515968       -14.0402
 204   2.0000      -0.515129       -14.0174
 205   2.0000      -0.512516       -13.9463
 206   2.0000      -0.508460       -13.8359
 207   2.0000      -0.508169       -13.8280
 208   2.0000      -0.507284       -13.8039
 209   2.0000      -0.500754       -13.6262
 210   2.0000      -0.497372       -13.5342
 211   2.0000      -0.496126       -13.5003
 212   2.0000      -0.495170       -13.4743
 213   2.0000      -0.493306       -13.4235
 214   2.0000      -0.491570       -13.3763
 215   2.0000      -0.490536       -13.3482
 216   2.0000      -0.488041       -13.2803
 217   2.0000      -0.478426       -13.0186
 218   2.0000      -0.477926       -13.0050
 219   2.0000      -0.475610       -12.9420
 220   2.0000      -0.473936       -12.8964
 221   2.0000      -0.473187       -12.8761
 222   2.0000      -0.468912       -12.7598
 223   2.0000      -0.466344       -12.6899
 224   2.0000      -0.465195       -12.6586
 225   2.0000      -0.461572       -12.5600
 226   2.0000      -0.460649       -12.5349
 227   2.0000      -0.457486       -12.4488
 228   2.0000      -0.455345       -12.3906
 229   2.0000      -0.453315       -12.3353
 230   2.0000      -0.452124       -12.3029
 231   2.0000      -0.450658       -12.2630
 232   2.0000      -0.446725       -12.1560
 233   2.0000      -0.446210       -12.1420
 234   2.0000      -0.444710       -12.1012
 235   2.0000      -0.442596       -12.0436
 236   2.0000      -0.440895       -11.9974
 237   2.0000      -0.438620       -11.9355
 238   2.0000      -0.438441       -11.9306
 239   2.0000      -0.434567       -11.8252
 240   2.0000      -0.432419       -11.7667
 241   2.0000      -0.428892       -11.6707
 242   2.0000      -0.426978       -11.6187
 243   2.0000      -0.426614       -11.6088
 244   2.0000      -0.426335       -11.6012
 245   2.0000      -0.421668       -11.4742
 246   2.0000      -0.418536       -11.3889
 247   2.0000      -0.416967       -11.3463
 248   2.0000      -0.415165       -11.2972
 249   2.0000      -0.411060       -11.1855
 250   2.0000      -0.409919       -11.1545
 251   2.0000      -0.408745       -11.1225
 252   2.0000      -0.406476       -11.0608
 253   2.0000      -0.403049       -10.9675
 254   2.0000      -0.395750       -10.7689
 255   2.0000      -0.391538       -10.6543
 256   2.0000      -0.388709       -10.5773
 257   2.0000      -0.388633       -10.5752
 258   2.0000      -0.385838       -10.4992
 259   2.0000      -0.381201       -10.3730
 260   2.0000      -0.379038       -10.3142
 261   2.0000      -0.376989       -10.2584
 262   2.0000      -0.374830       -10.1996
 263   2.0000      -0.373778       -10.1710
 264   2.0000      -0.371853       -10.1186
 265   2.0000      -0.363192        -9.8830
 266   2.0000      -0.361702        -9.8424
 267   2.0000      -0.352226        -9.5845
 268   2.0000      -0.345242        -9.3945
 269   2.0000      -0.343661        -9.3515
 270   2.0000      -0.341827        -9.3016
 271   2.0000      -0.339370        -9.2347
 272   2.0000      -0.332918        -9.0592
 273   2.0000      -0.320528        -8.7220
 274   2.0000      -0.316934        -8.6242
 275   2.0000      -0.311810        -8.4848
 276   2.0000      -0.306939        -8.3522
 277   2.0000      -0.297885        -8.1059
 278   2.0000      -0.294463        -8.0127
 279   2.0000      -0.292650        -7.9634
 280   2.0000      -0.284153        -7.7322
 281   2.0000      -0.277212        -7.5433
 282   2.0000      -0.258816        -7.0427
 283   2.0000      -0.256519        -6.9802
 284   2.0000      -0.193175        -5.2566
 285   0.0000      -0.092122        -2.5068
 286   0.0000      -0.061279        -1.6675
 287   0.0000      -0.052777        -1.4361
 288   0.0000      -0.041198        -1.1211
 289   0.0000      -0.019545        -0.5318

MULLIKEN ATOMIC CHARGES
-----------------------
   0 C :    0.318136
   1 C :   -0.355108
   2 C :   -0.187900
   3 N :    0.145461
   4 C :   -0.183072
   5 N :    0.139879
   6 C :    0.008590
   7 C :   -0.013486
   8 C :   -0.070052
   9 C :    0.116059
  10 C :   -0.091686
  11 C :   -0.016304
  12 S :    0.185632
  13 C :   -0.124095
  14 C :    0.041159
  15 Br:    0.022496
  16 C :    0.152594
  17 O :   -0.172718
  18 C :   -0.093799
  19 C :   -0.024780
  20 C :   -0.110401
  21 S :    0.203551
  22 C :   -0.090645
  23 C :   -0.086770
  24 C :    0.104591
  25 C :    0.101891
  26 C :   -0.052740
  27 C :    0.014532
  28 C :    0.030958
  29 C :    0.049014
  30 C :   -0.107291
  31 N :   -0.024603
  32 C :   -0.027618
  33 C :   -0.072246
  34 S :    0.128745
  35 C :   -0.115956
  36 C :    0.089349
  37 C :   -0.187381
  38 C :    0.055202
  39 C :    0.035148
  40 C :    0.046293
  41 C :    0.028191
  42 N :   -0.258371
  43 C :    0.095808
  44 S :   -0.028761
  45 C :    0.083389
  46 C :   -0.076947
  47 C :    0.024594
  48 C :    0.013039
  49 C :   -0.047885
  50 S :    0.058661
  51 C :   -0.054349
  52 C :    0.027967
  53 C :    0.025742
  54 C :    0.013171
  55 S :    0.083880
  56 C :   -0.092184
  57 C :    0.034072
  58 C :    0.099561
  59 O :   -0.317801
  60 C :    0.217194
  61 C :    0.239731
  62 O :   -0.333828
  63 C :    0.182237
  64 C :   -0.210390
  65 C :    0.077358
  66 C :   -0.007671
  67 N :   -0.281722
  68 S :    0.462202
  69 N :   -0.274486
  70 H :   -0.012018
  71 H :   -0.007497
  72 H :   -0.004772
  73 H :   -0.006028
  74 H :    0.020565
  75 H :    0.015383
  76 H :    0.035377
  77 H :    0.033004
  78 H :    0.032469
  79 H :   -0.005098
  80 H :    0.024650
  81 H :   -0.009370
  82 H :    0.064060
  83 H :    0.012471
  84 H :   -0.014558
  85 H :    0.013572
  86 H :    0.010659
  87 H :    0.022050
  88 H :    0.010969
  89 H :   -0.007112
  90 H :    0.010226
  91 H :    0.029167
  92 H :    0.008024
  93 H :    0.005035
  94 H :    0.065463
  95 H :    0.049914
  96 H :   -0.000489
  97 H :   -0.014400
  98 H :   -0.018970
  99 H :   -0.023943
 100 H :   -0.017800
 101 H :   -0.001301
 102 H :    0.016319
 103 H :    0.020405
 104 H :    0.027538
 105 H :    0.028811
 106 H :    0.036453
 107 H :    0.028651
 108 H :   -0.040906
Sum of atomic charges:   -0.0000000

LOEWDIN ATOMIC CHARGES
----------------------
   0 C :    0.080346
   1 C :   -0.149473
   2 C :   -0.018460
   3 N :   -0.058263
   4 C :   -0.018184
   5 N :   -0.060828
   6 C :   -0.021391
   7 C :   -0.049362
   8 C :    0.021183
   9 C :   -0.032988
  10 C :   -0.144649
  11 C :   -0.008717
  12 S :    0.432060
  13 C :   -0.271552
  14 C :   -0.070395
  15 Br:    0.136103
  16 C :    0.081591
  17 O :   -0.164517
  18 C :   -0.113693
  19 C :    0.061612
  20 C :   -0.192888
  21 S :    0.515612
  22 C :   -0.167780
  23 C :   -0.065502
  24 C :   -0.047292
  25 C :   -0.020366
  26 C :   -0.023380
  27 C :   -0.007450
  28 C :    0.010286
  29 C :   -0.055811
  30 C :   -0.119223
  31 N :   -0.082798
  32 C :   -0.024228
  33 C :   -0.218044
  34 S :    0.419735
  35 C :   -0.134792
  36 C :    0.031786
  37 C :   -0.044043
  38 C :   -0.020815
  39 C :   -0.060138
  40 C :   -0.026378
  41 C :   -0.059633
  42 N :   -0.065028
  43 C :   -0.045139
  44 S :    0.205576
  45 C :   -0.003200
  46 C :   -0.195227
  47 C :   -0.047720
  48 C :   -0.034841
  49 C :   -0.176574
  50 S :    0.343114
  51 C :   -0.197615
  52 C :   -0.038926
  53 C :   -0.037089
  54 C :   -0.138299
  55 S :    0.391542
  56 C :   -0.059925
  57 C :   -0.061744
  58 C :    0.039514
  59 O :   -0.092458
  60 C :    0.072163
  61 C :    0.045794
  62 O :   -0.096625
  63 C :    0.078483
  64 C :   -0.093253
  65 C :   -0.057316
  66 C :   -0.047562
  67 N :   -0.294086
  68 S :    0.601435
  69 N :   -0.298259
  70 H :    0.040442
  71 H :    0.040902
  72 H :    0.038476
  73 H :    0.048051
  74 H :    0.024641
  75 H :    0.033766
  76 H :    0.036548
  77 H :    0.035518
  78 H :    0.037906
  79 H :    0.029182
  80 H :    0.041654
  81 H :    0.028513
  82 H :    0.028379
  83 H :    0.017921
  84 H :    0.018308
  85 H :    0.027249
  86 H :    0.026154
  87 H :    0.023283
  88 H :    0.021640
  89 H :    0.020541
  90 H :    0.019721
  91 H :    0.023856
  92 H :    0.019532
  93 H :    0.023894
  94 H :    0.028165
  95 H :    0.012421
  96 H :    0.022108
  97 H :    0.028904
  98 H :    0.030222
  99 H :    0.027043
 100 H :    0.030610
 101 H :    0.037062
 102 H :    0.013456
 103 H :    0.013680
 104 H :    0.016164
 105 H :    0.018312
 106 H :    0.028687
 107 H :    0.018313
 108 H :    0.034758

  Mayer bond orders larger than 0.100000
B(  0-C ,  1-C ) :   1.6076 B(  0-C ,  6-C ) :   0.9984 B(  0-C , 18-C ) :   1.0908
B(  1-C ,  2-C ) :   1.1480 B(  1-C ,  4-C ) :   1.1512 B(  2-C ,  3-N ) :   2.9664
B(  4-C ,  5-N ) :   2.9575 B(  6-C ,  7-C ) :   1.2776 B(  6-C , 11-C ) :   1.4140
B(  7-C ,  8-C ) :   1.4275 B(  7-C , 16-C ) :   0.9520 B(  8-C ,  9-C ) :   1.2427
B(  8-C , 70-H ) :   1.0165 B(  9-C , 10-C ) :   1.3103 B(  9-C , 14-C ) :   1.1610
B( 10-C , 11-C ) :   1.3285 B( 10-C , 12-S ) :   1.0839 B( 11-C , 71-H ) :   0.9789
B( 12-S , 13-C ) :   1.0876 B( 13-C , 14-C ) :   1.6181 B( 13-C , 15-Br) :   1.0183
B( 14-C , 72-H ) :   1.0007 B( 16-C , 17-O ) :   2.1566 B( 16-C , 18-C ) :   0.9689
B( 18-C , 19-C ) :   1.5136 B( 19-C , 20-C ) :   1.2912 B( 19-C , 73-H ) :   0.9288
B( 20-C , 21-S ) :   1.1081 B( 20-C , 25-C ) :   1.3229 B( 21-S , 22-C ) :   1.1866
B( 22-C , 23-C ) :   1.4997 B( 22-C , 74-H ) :   0.9668 B( 23-C , 24-C ) :   1.0839
B( 23-C , 25-C ) :   1.3260 B( 24-C , 75-H ) :   0.9495 B( 24-C , 76-H ) :   0.9456
B( 24-C , 77-H ) :   0.9460 B( 25-C , 26-C ) :   1.0578 B( 26-C , 27-C ) :   1.7083
B( 26-C , 78-H ) :   0.9472 B( 27-C , 28-C ) :   1.1076 B( 27-C , 79-H ) :   0.9857
B( 28-C , 29-C ) :   1.7018 B( 28-C , 80-H ) :   0.9902 B( 29-C , 30-C ) :   1.0802
B( 29-C , 81-H ) :   0.9513 B( 30-C , 31-N ) :   1.6838 B( 30-C , 34-S ) :   1.0866
B( 31-N , 32-C ) :   1.3924 B( 31-N , 34-S ) :   0.1028 B( 32-C , 33-C ) :   1.5583
B( 32-C , 37-C ) :   0.9574 B( 33-C , 34-S ) :   1.1148 B( 33-C , 35-C ) :   1.0470
B( 35-C , 36-C ) :   0.9689 B( 35-C , 44-S ) :   1.0060 B( 35-C , 82-H ) :   0.8725
B( 36-C , 37-C ) :   0.9801 B( 36-C , 42-N ) :   1.0073 B( 36-C , 83-H ) :   0.9163
B( 37-C , 38-C ) :   1.0017 B( 37-C , 40-C ) :   1.0488 B( 38-C , 39-C ) :   1.1021
B( 38-C , 84-H ) :   0.9367 B( 38-C , 85-H ) :   0.9349 B( 39-C , 86-H ) :   0.9612
B( 39-C , 87-H ) :   0.9623 B( 39-C , 88-H ) :   0.9613 B( 40-C , 41-C ) :   1.1020
B( 40-C , 89-H ) :   0.9295 B( 40-C , 90-H ) :   0.9324 B( 41-C , 91-H ) :   0.9557
B( 41-C , 92-H ) :   0.9607 B( 41-C , 93-H ) :   0.9592 B( 42-N , 43-C ) :   0.9796
B( 42-N , 45-C ) :   1.1168 B( 43-C , 44-S ) :   0.9996 B( 43-C , 94-H ) :   0.9451
B( 43-C , 95-H ) :   0.9479 B( 45-C , 46-C ) :   1.6424 B( 45-C , 96-H ) :   0.9453
B( 46-C , 47-C ) :   1.1062 B( 46-C , 50-S ) :   1.0068 B( 47-C , 48-C ) :   1.6257
B( 47-C , 97-H ) :   0.9902 B( 48-C , 49-C ) :   1.1735 B( 48-C , 98-H ) :   0.9937
B( 49-C , 50-S ) :   1.0405 B( 49-C , 51-C ) :   1.5346 B( 51-C , 52-C ) :   1.1667
B( 51-C , 55-S ) :   1.0278 B( 52-C , 53-C ) :   1.6108 B( 52-C , 99-H ) :   0.9929
B( 53-C , 54-C ) :   1.1258 B( 53-C ,100-H ) :   0.9983 B( 54-C , 55-S ) :   1.0381
B( 54-C , 56-C ) :   1.6050 B( 56-C , 57-C ) :   1.1329 B( 56-C ,101-H ) :   0.9530
B( 57-C , 58-C ) :   1.4325 B( 57-C , 64-C ) :   0.1082 B( 57-C , 66-C ) :   1.1702
B( 58-C , 59-O ) :   1.1889 B( 58-C , 61-C ) :   1.1501 B( 59-O , 60-C ) :   0.9178
B( 60-C ,102-H ) :   0.9749 B( 60-C ,103-H ) :   0.9768 B( 60-C ,104-H ) :   0.9681
B( 61-C , 62-O ) :   1.1253 B( 61-C , 64-C ) :   1.3868 B( 62-O , 63-C ) :   0.9597
B( 63-C ,105-H ) :   0.9686 B( 63-C ,106-H ) :   0.9772 B( 63-C ,107-H ) :   0.9687
B( 64-C , 65-C ) :   1.1318 B( 64-C ,108-H ) :   1.0403 B( 65-C , 66-C ) :   1.1607
B( 65-C , 69-N ) :   1.5464 B( 66-C , 67-N ) :   1.5765 B( 67-N , 68-S ) :   1.2331
B( 67-N , 69-N ) :   0.1458 B( 68-S , 69-N ) :   1.2413

-----------------------------------------------------------------------------
         ABSORPTION SPECTRUM VIA TRANSITION ELECTRIC DIPOLE MOMENTS
-----------------------------------------------------------------------------
State   Energy  Wavelength   fosc         T2         TX        TY        TZ
        (cm-1)    (nm)                  (au**2)     (au)      (au)      (au)
-----------------------------------------------------------------------------
   0   15347.3    651.6   0.062523069   1.34117  -0.33405   1.10886   0.00230
   1   16031.4    623.8   0.982036305  20.16661  -0.93982   4.28189   0.97403
   2   20562.1    486.3   0.705981162  11.30322   2.59630  -1.99431   0.76497
   3   21868.6    457.3   0.028403685   0.42759   0.00018   0.57779  -0.30619
   4   22722.9    440.1   0.342804506   4.96660  -0.26104   2.16589  -0.45537
   5   24874.6    402.0   0.001332229   0.01763   0.00171  -0.11720  -0.06239
   6   25653.0    389.8   0.445900114   5.72236  -1.60216   0.12541   1.77192
   7   26966.9    370.8   0.040145205   0.49009  -0.30238   0.19543  -0.60039
   8   28157.2    355.1   0.295505506   3.45503  -0.22586   1.11218  -1.47210
   9   28524.9    350.6   0.743416193   8.57992   1.69453  -2.20512   0.91973
  10   29151.4    343.0   0.009442461   0.10664   0.20943  -0.24973   0.02028
  11   29688.3    336.8   0.000020128   0.00022   0.01344   0.00389  -0.00524
  12   29975.3    333.6   0.032582781   0.35785   0.21800   0.12897  -0.54194
  13   30969.2    322.9   0.256290905   2.72445  -0.27254  -0.86929   1.37641
  14   31753.8    314.9   0.204440085   2.11956  -0.05895   0.56037   1.34241
  15   31823.6    314.2   0.025388913   0.26265  -0.41703   0.14449  -0.26048
  16   32071.8    311.8   0.018478706   0.18968  -0.27752   0.33279  -0.04379
  17   32116.6    311.4   0.549134275   5.62891   0.48207  -1.23984   1.96451
  18   32871.2    304.2   0.094633191   0.94777   0.62848  -0.62258   0.40642
  19   33299.1    300.3   0.010501806   0.10383  -0.12218  -0.08589   0.28552
  20   33527.5    298.3   0.437115032   4.29211   0.42148  -1.67421   1.14520
  21   33694.0    296.8   0.080894038   0.79039  -0.16364  -0.84733  -0.21363
  22   33963.9    294.4   0.000797140   0.00773  -0.03172  -0.07615  -0.03036
  23   34980.4    285.9   0.002662238   0.02506   0.02972  -0.01499   0.15475
  24   35145.6    284.5   0.001568741   0.01469  -0.02452   0.09764   0.06753
  25   35410.1    282.4   0.012476483   0.11600   0.16415  -0.18085  -0.23736
  26   35680.7    280.3   0.016475261   0.15201   0.04298   0.30646   0.23717
  27   36223.9    276.1   0.007136091   0.06485  -0.09408   0.23251   0.04408
  28   36623.1    273.1   0.180089528   1.61886  -0.86697   0.78304  -0.50405
  29   37785.7    264.7   0.003274662   0.02853  -0.04446  -0.04557   0.15645
  30   38088.3    262.5   0.037432689   0.32355  -0.24549  -0.13978   0.49370
  31   38596.3    259.1   0.154140958   1.31476   0.65515   0.13260  -0.93164
  32   38786.2    257.8   0.020810498   0.17664  -0.14921   0.05453   0.38910
  33   39313.9    254.4   0.025145060   0.21056   0.03999  -0.24723   0.38450
  34   39552.8    252.8   0.010074920   0.08386   0.08637   0.23465   0.14607
  35   40050.3    249.7   0.035452825   0.29142   0.19936   0.41731   0.27844
  36   40261.4    248.4   0.095983253   0.78484  -0.40587  -0.53365   0.57907

FINAL SINGLE POINT ENERGY     -7954.297865321627

DIPOLE MOMENT
-------------
                                X             Y             Z
Electronic contribution:   -132.52574     208.05621     -59.58527
Nuclear contribution   :    133.80357    -205.38201      57.47226
                        -----------------------------------------
Total Dipole Moment    :      1.27783       2.67421      -2.11301
                        -----------------------------------------
Magnitude (a.u.)       :      3.63992
Magnitude (Debye)      :      9.25195

Rotational constants in cm-1:     0.001579     0.000137     0.000135
Rotational constants in MHz :    47.341079     4.106695     4.041108

                             ****ORCA TERMINATED NORMALLY****
TOTAL RUN TIME: 0 days 0 hours 10 minutes 36 seconds 809 msec
