                         Program Version 4.2.0 -  RELEASE  -
|  1> # ORCA input file
|  2> # SCF done       -183.749140932091          0.000878082062
|  3> ! CAM-B3LYP def2-SVP def2/J RIJCOSX Grid4 TightSCF
|  4> %maxcore 5000
|  5> %tddft
|  6>     Mode sTDDFT
|  7>     Ethresh 5.0
|  8>     maxcore 5000
|  9> end
| 10>
| 11> %pal
| 12>   nprocs 6
| 13>   end
| 14> * xyz 0 1
| 15>    C       10.54650       -13.45358        15.92325
| 16>    C       10.89871       -12.52107        15.02567
| 17>    C       11.32972       -11.17762        15.27477
| 18>    C       11.61855       -10.46875        14.15792
| 19>    C       11.44091       -11.18768        12.94689
| 20>    S       10.88869       -12.81271        13.27855
| 21>    C       11.65622       -10.72508        11.66229
| 22>    C       12.09590        -9.44608        11.26582
| 23>    C       12.21014        -9.29833         9.91164
| 24>    C       11.86919       -10.44649         9.17360
| 25>    S       11.39277       -11.73605        10.25620
| 26>    C       11.89549       -10.57710         7.79207
| 27>    C       11.56078       -11.72032         7.09681
| 28>    C       11.59852       -11.83635         5.71305
| 29>    C       11.28393       -12.96730         4.94394
| 30>    C       11.42491       -12.78784         3.59185
| 31>    C       11.85636       -11.49985         3.23715
| 32>    S       12.07881       -10.51760         4.66559
| 33>    C       12.10306       -10.99477         1.96724
| 34>    C       11.99542       -11.63144         0.72101
| 35>    C       12.32633       -10.83999        -0.34390
| 36>    C       12.70194        -9.51964        -0.00643
| 37>    S       12.65541        -9.34682         1.74468
| 38>    C       13.08342        -8.55452        -0.90945
| 39>    C       13.40618        -7.19515        -0.74708
| 40>    O       13.99337        -6.60038        -1.83001
| 41>    C       14.22421        -5.30129        -1.56197
| 42>    C       13.79492        -5.01757        -0.25735
| 43>    C       13.24955        -6.21983         0.24624
| 44>    O       12.64897        -6.29792         1.45373
| 45>    C       13.86065        -3.72301         0.42954
| 46>    O       14.45990        -2.77394        -0.01967
| 47>    O       13.23005        -3.64060         1.59957
| 48>    C       14.83865        -4.49826        -2.54641
| 49>    S       15.75820        -3.10719        -2.13870
| 50>    C       16.43471        -2.97137        -3.73716
| 51>    C       15.93307        -3.99241        -4.58336
| 52>    C       14.96284        -4.80308        -3.92273
| 53>    C       14.21633        -5.76427        -4.64598
| 54>    C       12.94344        -6.32120        -4.14420
| 55>    O       12.11610        -5.70741        -3.51699
| 56>    O       12.72940        -7.58488        -4.54829
| 57>    C       14.57844        -6.03562        -5.94901
| 58>    C       15.63209        -5.35836        -6.55539
| 59>    C       16.29672        -4.33157        -5.91282
| 60>    O       17.29917        -3.67111        -6.51461
| 61>    C       17.27440        -1.85428        -3.90203
| 62>    C       17.79228        -1.29081        -5.03707
| 63>    C       18.58634        -0.13693        -4.96517
| 64>    C       19.11520         0.52196        -6.05125
| 65>    C       19.93077         1.71414        -6.01698
| 66>    C       20.43066         2.35020        -4.90584
| 67>    C       21.23252         3.50801        -4.95073
| 68>    N       21.88983         4.44975        -4.91802
| 69>    C       20.24920         1.94179        -3.56908
| 70>    N       20.16614         1.68077        -2.45338
| 71>    C       20.17356         2.12872        -7.39681
| 72>    C       19.56700         1.18975        -8.26493
| 73>    C       18.90065         0.14072        -7.46230
| 74>    O       18.30710        -0.82303        -7.90705
| 75>    C       19.61959         1.30342        -9.63215
| 76>    C       20.30099         2.40013       -10.17141
| 77>    C       20.90121         3.33436        -9.29640
| 78>    C       20.85043         3.21758        -7.91246
| 79>    S       21.68674         4.61591       -10.16983
| 80>    C       21.20473         3.88640       -11.67823
| 81>    C       20.49211         2.74410       -11.53820
| 82>   Br       21.68440         4.70479       -13.29717
| 83>    H       10.56615       -13.23578        16.97641
| 84>    H       10.23621       -14.43787        15.62436
| 85>    H       11.40448       -10.80128        16.27933
| 86>    H       11.95550        -9.44747        14.15983
| 87>    H       12.31614        -8.67111        11.97734
| 88>    H       12.53127        -8.39387         9.42567
| 89>    H       12.20776        -9.70586         7.22925
| 90>    H       11.24969       -12.59489         7.65418
| 91>    H       10.96324       -13.88668         5.40130
| 92>    H       11.22845       -13.54788         2.85738
| 93>    H       11.67924       -12.65528         0.63452
| 94>    H       12.30082       -11.16591        -1.36840
| 95>    H       13.19894        -8.89383        -1.93134
| 96>    H       12.37534        -7.20311         1.65631
| 97>    H       12.81911        -4.48562         1.85244
| 98>    H       11.84617        -7.86874        -4.26379
| 99>    H       14.02436        -6.76998        -6.51192
|100>    H       15.91464        -5.61383        -7.56747
|101>    H       17.41240        -3.95757        -7.43050
|102>    H       17.48562        -1.34506        -2.96597
|103>    H       17.59986        -1.71097        -6.00780
|104>    H       18.77999         0.26385        -3.97814
|105>    H       19.14733         0.57099       -10.26802
|106>    H       21.32273         3.95861        -7.28993
|107>    H       20.11503         2.16712       -12.36278
|108> *
|109>
|110>                          ****END OF INPUT****

CARTESIAN COORDINATES (ANGSTROEM)
---------------------------------
  C     10.546500  -13.453580   15.923250
  C     10.898710  -12.521070   15.025670
  C     11.329720  -11.177620   15.274770
  C     11.618550  -10.468750   14.157920
  C     11.440910  -11.187680   12.946890
  S     10.888690  -12.812710   13.278550
  C     11.656220  -10.725080   11.662290
  C     12.095900   -9.446080   11.265820
  C     12.210140   -9.298330    9.911640
  C     11.869190  -10.446490    9.173600
  S     11.392770  -11.736050   10.256200
  C     11.895490  -10.577100    7.792070
  C     11.560780  -11.720320    7.096810
  C     11.598520  -11.836350    5.713050
  C     11.283930  -12.967300    4.943940
  C     11.424910  -12.787840    3.591850
  C     11.856360  -11.499850    3.237150
  S     12.078810  -10.517600    4.665590
  C     12.103060  -10.994770    1.967240
  C     11.995420  -11.631440    0.721010
  C     12.326330  -10.839990   -0.343900
  C     12.701940   -9.519640   -0.006430
  S     12.655410   -9.346820    1.744680
  C     13.083420   -8.554520   -0.909450
  C     13.406180   -7.195150   -0.747080
  O     13.993370   -6.600380   -1.830010
  C     14.224210   -5.301290   -1.561970
  C     13.794920   -5.017570   -0.257350
  C     13.249550   -6.219830    0.246240
  O     12.648970   -6.297920    1.453730
  C     13.860650   -3.723010    0.429540
  O     14.459900   -2.773940   -0.019670
  O     13.230050   -3.640600    1.599570
  C     14.838650   -4.498260   -2.546410
  S     15.758200   -3.107190   -2.138700
  C     16.434710   -2.971370   -3.737160
  C     15.933070   -3.992410   -4.583360
  C     14.962840   -4.803080   -3.922730
  C     14.216330   -5.764270   -4.645980
  C     12.943440   -6.321200   -4.144200
  O     12.116100   -5.707410   -3.516990
  O     12.729400   -7.584880   -4.548290
  C     14.578440   -6.035620   -5.949010
  C     15.632090   -5.358360   -6.555390
  C     16.296720   -4.331570   -5.912820
  O     17.299170   -3.671110   -6.514610
  C     17.274400   -1.854280   -3.902030
  C     17.792280   -1.290810   -5.037070
  C     18.586340   -0.136930   -4.965170
  C     19.115200    0.521960   -6.051250
  C     19.930770    1.714140   -6.016980
  C     20.430660    2.350200   -4.905840
  C     21.232520    3.508010   -4.950730
  N     21.889830    4.449750   -4.918020
  C     20.249200    1.941790   -3.569080
  N     20.166140    1.680770   -2.453380
  C     20.173560    2.128720   -7.396810
  C     19.567000    1.189750   -8.264930
  C     18.900650    0.140720   -7.462300
  O     18.307100   -0.823030   -7.907050
  C     19.619590    1.303420   -9.632150
  C     20.300990    2.400130  -10.171410
  C     20.901210    3.334360   -9.296400
  C     20.850430    3.217580   -7.912460
  S     21.686740    4.615910  -10.169830
  C     21.204730    3.886400  -11.678230
  C     20.492110    2.744100  -11.538200
  Br    21.684400    4.704790  -13.297170
  H     10.566150  -13.235780   16.976410
  H     10.236210  -14.437870   15.624360
  H     11.404480  -10.801280   16.279330
  H     11.955500   -9.447470   14.159830
  H     12.316140   -8.671110   11.977340
  H     12.531270   -8.393870    9.425670
  H     12.207760   -9.705860    7.229250
  H     11.249690  -12.594890    7.654180
  H     10.963240  -13.886680    5.401300
  H     11.228450  -13.547880    2.857380
  H     11.679240  -12.655280    0.634520
  H     12.300820  -11.165910   -1.368400
  H     13.198940   -8.893830   -1.931340
  H     12.375340   -7.203110    1.656310
  H     12.819110   -4.485620    1.852440
  H     11.846170   -7.868740   -4.263790
  H     14.024360   -6.769980   -6.511920
  H     15.914640   -5.613830   -7.567470
  H     17.412400   -3.957570   -7.430500
  H     17.485620   -1.345060   -2.965970
  H     17.599860   -1.710970   -6.007800
  H     18.779990    0.263850   -3.978140
  H     19.147330    0.570990  -10.268020
  H     21.322730    3.958610   -7.289930
  H     20.115030    2.167120  -12.362780

 Total Charge           Charge          ....    0
 Multiplicity           Mult            ....    1
 Number of Electrons    NEL             ....  540
 Basis Dimension        Dim             .... 1119

ORBITAL ENERGIES
----------------

  NO   OCC          E(Eh)            E(eV)
   0   2.0000    -482.879080    -13139.8078
   1   2.0000     -88.972903     -2421.0758
   2   2.0000     -88.967089     -2420.9176
   3   2.0000     -88.962532     -2420.7936
   4   2.0000     -88.950923     -2420.4777
   5   2.0000     -88.949341     -2420.4346
   6   2.0000     -88.945688     -2420.3352
   7   2.0000     -62.556779     -1702.2565
   8   2.0000     -56.390722     -1534.4696
   9   2.0000     -56.388022     -1534.3961
  10   2.0000     -56.387985     -1534.3951
  11   2.0000     -19.301542      -525.2217
  12   2.0000     -19.280749      -524.6559
  13   2.0000     -19.262976      -524.1722
  14   2.0000     -19.262514      -524.1597
  15   2.0000     -19.246034      -523.7112
  16   2.0000     -19.204310      -522.5759
  17   2.0000     -19.197219      -522.3829
  18   2.0000     -19.193963      -522.2943
  19   2.0000     -14.401922      -391.8962
  20   2.0000     -14.401336      -391.8803
  21   2.0000     -10.402610      -283.0694
  22   2.0000     -10.401558      -283.0408
  23   2.0000     -10.361839      -281.9600
  24   2.0000     -10.357648      -281.8459
  25   2.0000     -10.356220      -281.8071
  26   2.0000     -10.354976      -281.7732
  27   2.0000     -10.350948      -281.6636
  28   2.0000     -10.342688      -281.4388
  29   2.0000     -10.327107      -281.0149
  30   2.0000     -10.326095      -280.9873
  31   2.0000     -10.319244      -280.8009
  32   2.0000     -10.318153      -280.7712
  33   2.0000     -10.317968      -280.7662
  34   2.0000     -10.317760      -280.7605
  35   2.0000     -10.317573      -280.7554
  36   2.0000     -10.315878      -280.7093
  37   2.0000     -10.313635      -280.6483
  38   2.0000     -10.312588      -280.6198
  39   2.0000     -10.312386      -280.6143
  40   2.0000     -10.310057      -280.5509
  41   2.0000     -10.308929      -280.5202
  42   2.0000     -10.305268      -280.4206
  43   2.0000     -10.305116      -280.4165
  44   2.0000     -10.300817      -280.2995
  45   2.0000     -10.298791      -280.2444
  46   2.0000     -10.298078      -280.2250
  47   2.0000     -10.298011      -280.2231
  48   2.0000     -10.297220      -280.2016
  49   2.0000     -10.296644      -280.1859
  50   2.0000     -10.295084      -280.1435
  51   2.0000     -10.294547      -280.1289
  52   2.0000     -10.294546      -280.1288
  53   2.0000     -10.293556      -280.1019
  54   2.0000     -10.291913      -280.0572
  55   2.0000     -10.291352      -280.0419
  56   2.0000     -10.291110      -280.0353
  57   2.0000     -10.290608      -280.0217
  58   2.0000     -10.289989      -280.0048
  59   2.0000     -10.289988      -280.0048
  60   2.0000     -10.289505      -279.9917
  61   2.0000     -10.289096      -279.9805
  62   2.0000     -10.289021      -279.9785
  63   2.0000     -10.287348      -279.9330
  64   2.0000     -10.286833      -279.9190
  65   2.0000     -10.284643      -279.8594
  66   2.0000     -10.282452      -279.7997
  67   2.0000     -10.280930      -279.7583
  68   2.0000     -10.279948      -279.7316
  69   2.0000     -10.278532      -279.6931
  70   2.0000     -10.277332      -279.6604
  71   2.0000     -10.264662      -279.3156
  72   2.0000      -8.786194      -239.0845
  73   2.0000      -8.066214      -219.4929
  74   2.0000      -8.063074      -219.4074
  75   2.0000      -8.058866      -219.2929
  76   2.0000      -8.047389      -218.9806
  77   2.0000      -8.045788      -218.9370
  78   2.0000      -8.042381      -218.8443
  79   2.0000      -6.622449      -180.2060
  80   2.0000      -6.607943      -179.8113
  81   2.0000      -6.607767      -179.8065
  82   2.0000      -6.035225      -164.2268
  83   2.0000      -6.032789      -164.1605
  84   2.0000      -6.030676      -164.1030
  85   2.0000      -6.029299      -164.0656
  86   2.0000      -6.028504      -164.0439
  87   2.0000      -6.028482      -164.0433
  88   2.0000      -6.024705      -163.9406
  89   2.0000      -6.024286      -163.9292
  90   2.0000      -6.019883      -163.8093
  91   2.0000      -6.017032      -163.7318
  92   2.0000      -6.015444      -163.6886
  93   2.0000      -6.013073      -163.6240
  94   2.0000      -6.012182      -163.5998
  95   2.0000      -6.011498      -163.5812
  96   2.0000      -6.008400      -163.4969
  97   2.0000      -6.008217      -163.4919
  98   2.0000      -6.006745      -163.4518
  99   2.0000      -6.003011      -163.3502
 100   2.0000      -2.738331       -74.5138
 101   2.0000      -2.734258       -74.4029
 102   2.0000      -2.734118       -74.3991
 103   2.0000      -2.722590       -74.0854
 104   2.0000      -2.722572       -74.0849
 105   2.0000      -1.223171       -33.2842
 106   2.0000      -1.186971       -32.2991
 107   2.0000      -1.181404       -32.1476
 108   2.0000      -1.167202       -31.7612
 109   2.0000      -1.163211       -31.6526
 110   2.0000      -1.117418       -30.4065
 111   2.0000      -1.090649       -29.6781
 112   2.0000      -1.088505       -29.6197
 113   2.0000      -1.012192       -27.5431
 114   2.0000      -1.004004       -27.3203
 115   2.0000      -1.002993       -27.2928
 116   2.0000      -1.001270       -27.2459
 117   2.0000      -0.998442       -27.1690
 118   2.0000      -0.981212       -26.7001
 119   2.0000      -0.980503       -26.6808
 120   2.0000      -0.977301       -26.5937
 121   2.0000      -0.975090       -26.5336
 122   2.0000      -0.943189       -25.6655
 123   2.0000      -0.933244       -25.3949
 124   2.0000      -0.921742       -25.0819
 125   2.0000      -0.913285       -24.8518
 126   2.0000      -0.908990       -24.7349
 127   2.0000      -0.902503       -24.5584
 128   2.0000      -0.897563       -24.4239
 129   2.0000      -0.885845       -24.1051
 130   2.0000      -0.876832       -23.8598
 131   2.0000      -0.875656       -23.8278
 132   2.0000      -0.866862       -23.5885
 133   2.0000      -0.859938       -23.4001
 134   2.0000      -0.849930       -23.1278
 135   2.0000      -0.849612       -23.1191
 136   2.0000      -0.845629       -23.0107
 137   2.0000      -0.841083       -22.8870
 138   2.0000      -0.834129       -22.6978
 139   2.0000      -0.826720       -22.4962
 140   2.0000      -0.823096       -22.3976
 141   2.0000      -0.819361       -22.2959
 142   2.0000      -0.806815       -21.9546
 143   2.0000      -0.792409       -21.5625
 144   2.0000      -0.772933       -21.0326
 145   2.0000      -0.760225       -20.6868
 146   2.0000      -0.753742       -20.5104
 147   2.0000      -0.748661       -20.3721
 148   2.0000      -0.746868       -20.3233
 149   2.0000      -0.735145       -20.0043
 150   2.0000      -0.729260       -19.8442
 151   2.0000      -0.716779       -19.5046
 152   2.0000      -0.710618       -19.3369
 153   2.0000      -0.707292       -19.2464
 154   2.0000      -0.698398       -19.0044
 155   2.0000      -0.694495       -18.8982
 156   2.0000      -0.688310       -18.7299
 157   2.0000      -0.681412       -18.5422
 158   2.0000      -0.679618       -18.4934
 159   2.0000      -0.677703       -18.4412
 160   2.0000      -0.659382       -17.9427
 161   2.0000      -0.655787       -17.8449
 162   2.0000      -0.646341       -17.5878
 163   2.0000      -0.644756       -17.5447
 164   2.0000      -0.641933       -17.4679
 165   2.0000      -0.635712       -17.2986
 166   2.0000      -0.631727       -17.1902
 167   2.0000      -0.628954       -17.1147
 168   2.0000      -0.620403       -16.8820
 169   2.0000      -0.614828       -16.7303
 170   2.0000      -0.613501       -16.6942
 171   2.0000      -0.609970       -16.5981
 172   2.0000      -0.606375       -16.5003
 173   2.0000      -0.603062       -16.4102
 174   2.0000      -0.598877       -16.2963
 175   2.0000      -0.591371       -16.0920
 176   2.0000      -0.588685       -16.0189
 177   2.0000      -0.585251       -15.9255
 178   2.0000      -0.580346       -15.7920
 179   2.0000      -0.575464       -15.6592
 180   2.0000      -0.570266       -15.5177
 181   2.0000      -0.566555       -15.4168
 182   2.0000      -0.559194       -15.2164
 183   2.0000      -0.554959       -15.1012
 184   2.0000      -0.552334       -15.0298
 185   2.0000      -0.544325       -14.8118
 186   2.0000      -0.539904       -14.6915
 187   2.0000      -0.537409       -14.6236
 188   2.0000      -0.534369       -14.5409
 189   2.0000      -0.529701       -14.4139
 190   2.0000      -0.527888       -14.3646
 191   2.0000      -0.525869       -14.3096
 192   2.0000      -0.524236       -14.2652
 193   2.0000      -0.522920       -14.2294
 194   2.0000      -0.521377       -14.1874
 195   2.0000      -0.518320       -14.1042
 196   2.0000      -0.515865       -14.0374
 197   2.0000      -0.512761       -13.9529
 198   2.0000      -0.510702       -13.8969
 199   2.0000      -0.508154       -13.8276
 200   2.0000      -0.504363       -13.7244
 201   2.0000      -0.503501       -13.7009
 202   2.0000      -0.501808       -13.6549
 203   2.0000      -0.500053       -13.6071
 204   2.0000      -0.499951       -13.6044
 205   2.0000      -0.498868       -13.5749
 206   2.0000      -0.498462       -13.5638
 207   2.0000      -0.496335       -13.5060
 208   2.0000      -0.494022       -13.4430
 209   2.0000      -0.490389       -13.3442
 210   2.0000      -0.487125       -13.2553
 211   2.0000      -0.483249       -13.1499
 212   2.0000      -0.481668       -13.1069
 213   2.0000      -0.480834       -13.0842
 214   2.0000      -0.476378       -12.9629
 215   2.0000      -0.474545       -12.9130
 216   2.0000      -0.472353       -12.8534
 217   2.0000      -0.470681       -12.8079
 218   2.0000      -0.464344       -12.6354
 219   2.0000      -0.461262       -12.5516
 220   2.0000      -0.460926       -12.5424
 221   2.0000      -0.458711       -12.4822
 222   2.0000      -0.452758       -12.3202
 223   2.0000      -0.450140       -12.2489
 224   2.0000      -0.448961       -12.2169
 225   2.0000      -0.441701       -12.0193
 226   2.0000      -0.439663       -11.9639
 227   2.0000      -0.438962       -11.9448
 228   2.0000      -0.438427       -11.9302
 229   2.0000      -0.436861       -11.8876
 230   2.0000      -0.433792       -11.8041
 231   2.0000      -0.432971       -11.7817
 232   2.0000      -0.431344       -11.7375
 233   2.0000      -0.427862       -11.6427
 234   2.0000      -0.426401       -11.6030
 235   2.0000      -0.425491       -11.5782
 236   2.0000      -0.417532       -11.3616
 237   2.0000      -0.414355       -11.2752
 238   2.0000      -0.413879       -11.2622
 239   2.0000      -0.410591       -11.1728
 240   2.0000      -0.410129       -11.1602
 241   2.0000      -0.409210       -11.1352
 242   2.0000      -0.401013       -10.9121
 243   2.0000      -0.399760       -10.8780
 244   2.0000      -0.393928       -10.7193
 245   2.0000      -0.392890       -10.6911
 246   2.0000      -0.389086       -10.5876
 247   2.0000      -0.384700       -10.4682
 248   2.0000      -0.378574       -10.3015
 249   2.0000      -0.371475       -10.1083
 250   2.0000      -0.368555       -10.0289
 251   2.0000      -0.359608        -9.7854
 252   2.0000      -0.351625        -9.5682
 253   2.0000      -0.347986        -9.4692
 254   2.0000      -0.347355        -9.4520
 255   2.0000      -0.345209        -9.3936
 256   2.0000      -0.341971        -9.3055
 257   2.0000      -0.337379        -9.1806
 258   2.0000      -0.332338        -9.0434
 259   2.0000      -0.329791        -8.9741
 260   2.0000      -0.323733        -8.8092
 261   2.0000      -0.322661        -8.7800
 262   2.0000      -0.319692        -8.6993
 263   2.0000      -0.306155        -8.3309
 264   2.0000      -0.299117        -8.1394
 265   2.0000      -0.291636        -7.9358
 266   2.0000      -0.283222        -7.7069
 267   2.0000      -0.256370        -6.9762
 268   2.0000      -0.233636        -6.3575
 269   2.0000      -0.194130        -5.2825
 270   0.0000      -0.105035        -2.8582
 271   0.0000      -0.089251        -2.4287
 272   0.0000      -0.056702        -1.5429
 273   0.0000      -0.045772        -1.2455
 274   0.0000      -0.030707        -0.8356

MULLIKEN ATOMIC CHARGES
-----------------------
   0 C :   -0.023595
   1 C :   -0.066434
   2 C :    0.050777
   3 C :    0.032204
   4 C :   -0.065304
   5 S :    0.087701
   6 C :   -0.046966
   7 C :    0.024721
   8 C :    0.027185
   9 C :   -0.019208
  10 S :    0.081210
  11 C :   -0.019527
  12 C :    0.000851
  13 C :   -0.030361
  14 C :    0.034668
  15 C :    0.011389
  16 C :   -0.031911
  17 S :    0.069386
  18 C :   -0.049790
  19 C :    0.037518
  20 C :    0.020846
  21 C :   -0.025871
  22 S :    0.012235
  23 C :   -0.068816
  24 C :    0.141390
  25 O :   -0.221976
  26 C :    0.162331
  27 C :   -0.108565
  28 C :    0.083598
  29 O :   -0.213263
  30 C :    0.177493
  31 O :   -0.207317
  32 O :   -0.150506
  33 C :   -0.179467
  34 S :    0.262869
  35 C :   -0.135685
  36 C :    0.096552
  37 C :    0.128071
  38 C :   -0.040229
  39 C :    0.123596
  40 O :   -0.204056
  41 O :   -0.181843
  42 C :    0.015926
  43 C :   -0.062127
  44 C :    0.122110
  45 O :   -0.151656
  46 C :    0.070841
  47 C :   -0.021691
  48 C :   -0.038450
  49 C :   -0.078900
  50 C :    0.332145
  51 C :   -0.358423
  52 C :   -0.185019
  53 N :    0.140373
  54 C :   -0.197166
  55 N :    0.144986
  56 C :    0.009944
  57 C :   -0.006198
  58 C :    0.142208
  59 O :   -0.168523
  60 C :   -0.076369
  61 C :    0.116023
  62 C :   -0.092930
  63 C :   -0.021031
  64 S :    0.182243
  65 C :   -0.124007
  66 C :    0.039343
  67 Br:    0.016602
  68 H :    0.024354
  69 H :    0.024399
  70 H :   -0.008421
  71 H :   -0.009215
  72 H :   -0.011850
  73 H :   -0.010138
  74 H :   -0.006877
  75 H :   -0.005477
  76 H :   -0.010806
  77 H :   -0.014124
  78 H :   -0.011041
  79 H :   -0.012417
  80 H :   -0.007057
  81 H :    0.186474
  82 H :    0.185698
  83 H :    0.188857
  84 H :   -0.003689
  85 H :   -0.034611
  86 H :    0.196915
  87 H :    0.007573
  88 H :    0.029760
  89 H :    0.008603
  90 H :   -0.018114
  91 H :   -0.007660
  92 H :   -0.007288
Sum of atomic charges:   -0.0000000

LOEWDIN ATOMIC CHARGES
----------------------
   0 C :   -0.068202
   1 C :   -0.140272
   2 C :   -0.027867
   3 C :   -0.027147
   4 C :   -0.171657
   5 S :    0.359693
   6 C :   -0.182970
   7 C :   -0.029014
   8 C :   -0.038388
   9 C :   -0.138215
  10 S :    0.376720
  11 C :   -0.071104
  12 C :   -0.048563
  13 C :   -0.154569
  14 C :   -0.029086
  15 C :   -0.044026
  16 C :   -0.172217
  17 S :    0.373906
  18 C :   -0.187373
  19 C :   -0.034826
  20 C :   -0.040355
  21 C :   -0.154543
  22 S :    0.375690
  23 C :   -0.079077
  24 C :   -0.014225
  25 O :    0.028189
  26 C :    0.065383
  27 C :   -0.140677
  28 C :    0.029386
  29 O :   -0.037688
  30 C :    0.085167
  31 O :   -0.187945
  32 O :   -0.021101
  33 C :   -0.191305
  34 S :    0.592274
  35 C :   -0.174176
  36 C :   -0.054857
  37 C :   -0.009247
  38 C :   -0.086517
  39 C :    0.077416
  40 O :   -0.186246
  41 O :   -0.040212
  42 C :    0.018417
  43 C :   -0.091646
  44 C :    0.077930
  45 O :   -0.008521
  46 C :    0.006142
  47 C :   -0.034378
  48 C :    0.068219
  49 C :   -0.106809
  50 C :    0.074975
  51 C :   -0.148741
  52 C :   -0.017739
  53 N :   -0.063463
  54 C :   -0.021926
  55 N :   -0.057921
  56 C :   -0.018767
  57 C :   -0.049257
  58 C :    0.084748
  59 O :   -0.161486
  60 C :    0.017023
  61 C :   -0.035174
  62 C :   -0.144802
  63 C :   -0.011839
  64 S :    0.429132
  65 C :   -0.273639
  66 C :   -0.071413
  67 Br:    0.131368
  68 H :    0.030411
  69 H :    0.027540
  70 H :    0.034672
  71 H :    0.033467
  72 H :    0.032266
  73 H :    0.034729
  74 H :    0.027749
  75 H :    0.029909
  76 H :    0.034682
  77 H :    0.031392
  78 H :    0.034281
  79 H :    0.033320
  80 H :    0.042457
  81 H :    0.043038
  82 H :    0.076639
  83 H :    0.096384
  84 H :    0.035898
  85 H :    0.027815
  86 H :    0.106547
  87 H :    0.034540
  88 H :    0.025910
  89 H :    0.040107
  90 H :    0.037760
  91 H :    0.040600
  92 H :    0.037300

  Mayer bond orders larger than 0.100000
B(  0-C ,  1-C ) :   1.8548 B(  0-C , 68-H ) :   0.9514 B(  0-C , 69-H ) :   0.9415
B(  1-C ,  2-C ) :   1.0857 B(  1-C ,  5-S ) :   1.0067 B(  2-C ,  3-C ) :   1.6457
B(  2-C , 70-H ) :   0.9941 B(  3-C ,  4-C ) :   1.1689 B(  3-C , 71-H ) :   0.9916
B(  4-C ,  5-S ) :   1.0578 B(  4-C ,  6-C ) :   1.5081 B(  6-C ,  7-C ) :   1.2070
B(  6-C , 10-S ) :   1.0420 B(  7-C ,  8-C ) :   1.5520 B(  7-C , 72-H ) :   0.9938
B(  8-C ,  9-C ) :   1.1862 B(  8-C , 73-H ) :   1.0001 B(  9-C , 10-S ) :   1.0528
B(  9-C , 11-C ) :   1.4986 B( 11-C , 12-C ) :   1.2358 B( 11-C , 74-H ) :   0.9702
B( 12-C , 13-C ) :   1.4944 B( 12-C , 75-H ) :   0.9725 B( 13-C , 14-C ) :   1.2028
B( 13-C , 17-S ) :   1.0398 B( 14-C , 15-C ) :   1.5277 B( 14-C , 76-H ) :   0.9996
B( 15-C , 16-C ) :   1.2319 B( 15-C , 77-H ) :   0.9954 B( 16-C , 17-S ) :   1.0581
B( 16-C , 18-C ) :   1.4541 B( 18-C , 19-C ) :   1.2260 B( 18-C , 22-S ) :   1.0309
B( 19-C , 20-C ) :   1.5526 B( 19-C , 78-H ) :   0.9908 B( 20-C , 21-C ) :   1.1738
B( 20-C , 79-H ) :   1.0005 B( 21-C , 22-S ) :   1.0044 B( 21-C , 23-C ) :   1.5633
B( 23-C , 24-C ) :   1.1655 B( 23-C , 80-H ) :   0.9426 B( 24-C , 25-O ) :   1.0406
B( 24-C , 26-C ) :   0.1014 B( 24-C , 28-C ) :   1.3681 B( 25-O , 26-C ) :   1.1857
B( 26-C , 27-C ) :   1.3969 B( 26-C , 33-C ) :   1.1797 B( 27-C , 28-C ) :   1.2241
B( 27-C , 30-C ) :   0.9215 B( 28-C , 29-O ) :   1.1823 B( 29-O , 81-H ) :   0.9159
B( 30-C , 31-O ) :   2.0597 B( 30-C , 32-O ) :   1.3154 B( 32-O , 82-H ) :   0.9243
B( 33-C , 34-S ) :   1.2109 B( 33-C , 35-C ) :   0.1120 B( 33-C , 37-C ) :   1.2786
B( 34-S , 35-C ) :   1.1491 B( 35-C , 36-C ) :   1.2388 B( 35-C , 46-C ) :   1.1846
B( 36-C , 37-C ) :   1.2716 B( 36-C , 44-C ) :   1.1920 B( 37-C , 38-C ) :   1.2392
B( 38-C , 39-C ) :   0.9176 B( 38-C , 42-C ) :   1.4958 B( 39-C , 40-O ) :   2.1388
B( 39-C , 41-O ) :   1.2430 B( 41-O , 83-H ) :   0.9425 B( 42-C , 43-C ) :   1.2436
B( 42-C , 84-H ) :   0.9874 B( 43-C , 44-C ) :   1.4232 B( 43-C , 85-H ) :   0.9813
B( 44-C , 45-O ) :   1.2551 B( 45-O , 86-H ) :   0.9401 B( 46-C , 47-C ) :   1.5268
B( 46-C , 87-H ) :   0.9473 B( 47-C , 48-C ) :   1.2125 B( 47-C , 88-H ) :   0.9626
B( 48-C , 49-C ) :   1.4681 B( 48-C , 89-H ) :   0.9644 B( 49-C , 50-C ) :   1.0893
B( 49-C , 58-C ) :   0.9624 B( 50-C , 51-C ) :   1.6042 B( 50-C , 56-C ) :   0.9948
B( 51-C , 52-C ) :   1.1463 B( 51-C , 54-C ) :   1.1513 B( 52-C , 53-N ) :   2.9627
B( 54-C , 55-N ) :   2.9653 B( 56-C , 57-C ) :   1.2774 B( 56-C , 63-C ) :   1.4150
B( 57-C , 58-C ) :   0.9417 B( 57-C , 60-C ) :   1.4269 B( 58-C , 59-O ) :   2.1807
B( 60-C , 61-C ) :   1.2433 B( 60-C , 90-H ) :   1.0156 B( 61-C , 62-C ) :   1.3133
B( 61-C , 66-C ) :   1.1603 B( 62-C , 63-C ) :   1.3262 B( 62-C , 64-S ) :   1.0829
B( 63-C , 91-H ) :   0.9783 B( 64-S , 65-C ) :   1.0865 B( 65-C , 66-C ) :   1.6203
B( 65-C , 67-Br) :   1.0144 B( 66-C , 92-H ) :   1.0001

-----------------------------------------------------------------------------
         ABSORPTION SPECTRUM VIA TRANSITION ELECTRIC DIPOLE MOMENTS
-----------------------------------------------------------------------------
State   Energy  Wavelength   fosc         T2         TX        TY        TZ
        (cm-1)    (nm)                  (au**2)     (au)      (au)      (au)
-----------------------------------------------------------------------------
   0    8394.3   1191.3   2.103689668  82.50356   2.53166   4.08210  -7.70913
   1   12835.1    779.1   0.286185640   7.34049   1.17445   1.51837   1.91199
   2   15802.9    632.8   0.447840082   9.32954   1.74584   2.49071   0.27921
   3   18420.6    542.9   0.214908169   3.84083  -1.16559  -1.45896   0.59469
   4   20508.9    487.6   0.068420613   1.09830  -0.45634   0.21919   0.91761
   5   21629.0    462.3   0.026844684   0.40860  -0.05465   0.23579   0.59162
   6   22932.7    436.1   0.044216464   0.63475  -0.17552   0.18527   0.75473
   7   24788.1    403.4   0.011842573   0.15728   0.16338  -0.00350  -0.36135
   8   25350.9    394.5   0.004628765   0.06011   0.06705   0.17139   0.16199
   9   26131.7    382.7   0.054418880   0.68558  -0.25918  -0.25452  -0.74406
  10   26339.4    379.7   0.041785672   0.52227   0.17928   0.18742   0.67454
  11   26886.2    371.9   0.052299877   0.64039   0.27742   0.74729  -0.07060
  12   27753.3    360.3   0.030312876   0.35957   0.24372   0.21833  -0.50250
  13   27796.1    359.8   0.009335029   0.11056   0.10159   0.12661  -0.29019
  14   27985.7    357.3   0.399678165   4.70165  -0.75832  -1.15415   1.67169
  15   28440.0    351.6   0.010593530   0.12263  -0.10772  -0.33303   0.01069
  16   29179.9    342.7   0.014056390   0.15859  -0.06417  -0.21478   0.32915
  17   29730.0    336.4   0.014236106   0.15764   0.07675   0.37980  -0.08661
  18   30046.8    332.8   0.084441479   0.92520  -0.12633  -0.91605  -0.26475
  19   30773.1    325.0   0.105656395   1.13032  -0.23260  -1.01170   0.22953
  20   31460.9    317.9   0.054400013   0.56925  -0.22729  -0.67632   0.24532
  21   32218.1    310.4   0.022402696   0.22892  -0.07035  -0.23690  -0.40969
  22   32331.9    309.3   0.050265898   0.51182  -0.27880  -0.54512   0.37004
  23   32439.9    308.3   0.064020456   0.64970  -0.00425   0.57635   0.56348
  24   32728.6    305.5   0.386490673   3.88765   0.10661   0.54600  -1.89161
  25   32888.9    304.1   0.034151179   0.34185  -0.07862  -0.03924   0.57804
  26   33192.4    301.3   0.004894139   0.04854   0.10826   0.19174   0.00765
  27   33429.3    299.1   0.136909705   1.34829  -0.27650  -0.95985  -0.59205
  28   33861.8    295.3   0.137647420   1.33824  -0.29361  -1.09164  -0.24568
  29   34016.8    294.0   0.053522844   0.51799  -0.00288  -0.12782   0.70827
  30   34370.3    290.9   0.107670617   1.03131   0.04012   0.37620   0.94243
  31   34492.8    289.9   0.057661878   0.55035   0.06138  -0.01393   0.73918
  32   34874.9    286.7   0.113567578   1.07206  -0.19040  -0.54119  -0.86193
  33   35401.4    282.5   0.010918598   0.10154   0.02811  -0.07137  -0.30928
  34   35848.2    279.0   0.001614454   0.01483  -0.00272   0.12151  -0.00735
  35   36058.7    277.3   0.023182686   0.21166   0.09594  -0.07990  -0.44279
  36   36401.9    274.7   0.081057895   0.73307   0.24720   0.28069   0.77018
  37   36592.3    273.3   0.044144504   0.39716  -0.03364   0.02754  -0.62870
  38   37156.6    269.1   0.017791131   0.15763   0.19725  -0.18967  -0.28766
  39   37280.6    268.2   0.007111039   0.06280  -0.18290  -0.12789  -0.11396
  40   37681.2    265.4   0.139398351   1.21789  -0.50269  -0.91469  -0.35851
  41   37913.9    263.8   0.094546265   0.82096  -0.18206  -0.44693   0.76685
  42   38256.0    261.4   0.082293390   0.70818   0.17093   0.29521  -0.76929
  43   38534.2    259.5   0.015645321   0.13366   0.25828   0.25065   0.06426
  44   38965.5    256.6   0.020724237   0.17509   0.08679  -0.00430  -0.40932
  45   39360.6    254.1   0.179520744   1.50151   0.38342   0.75506   0.88566
  46   39583.5    252.6   0.026845789   0.22327  -0.26649  -0.38626   0.05529
  47   39685.6    252.0   0.004383112   0.03636  -0.00552  -0.16721  -0.09149
  48   39874.3    250.8   0.005194394   0.04289  -0.05987   0.19587   0.03058
  49   40137.0    249.1   0.014253850   0.11691   0.07285   0.00335  -0.33406
  50   40305.1    248.1   0.002429989   0.01985  -0.06240  -0.04193   0.11915

FINAL SINGLE POINT ENERGY     -7628.750828853434

DIPOLE MOMENT
-------------
                                X             Y             Z
Electronic contribution:     89.63025     141.22272    -173.97054
Nuclear contribution   :    -92.09016    -146.58020     174.63937
                        -----------------------------------------
Total Dipole Moment    :     -2.45991      -5.35748       0.66882
                        -----------------------------------------
Magnitude (a.u.)       :      5.93305
Magnitude (Debye)      :     15.08060

Rotational constants in cm-1:     0.002039     0.000151     0.000142
Rotational constants in MHz :    61.138126     4.517372     4.245063

                             ****ORCA TERMINATED NORMALLY****
TOTAL RUN TIME: 0 days 0 hours 10 minutes 51 seconds 1 msec
