                         Program Version 4.2.0 -  RELEASE  -
|  1> # ORCA input file
|  2> # SCF done       -196.863649124622          0.000514258894
|  3> ! CAM-B3LYP def2-SVP def2/J RIJCOSX Grid4 TightSCF
|  4> %maxcore 5000
|  5> %tddft
|  6>     Mode sTDDFT
|  7>     Ethresh 5.0
|  8>     maxcore 5000
|  9> end
| 10>
| 11> %pal
| 12>   nprocs 6
| 13>   end
| 14> * xyz 0 1
| 15>    C        1.50041        -0.90629         0.71584
| 16>    S        2.51168         0.17950         1.56170
| 17>    C        2.36774         1.37904         0.29721
| 18>    C        1.58966         0.89575        -0.73597
| 19>    C        1.08076        -0.40047        -0.47640
| 20>    C        0.17153        -1.10787        -1.42692
| 21>    C       -0.56038        -0.09966        -2.30662
| 22>    F       -1.27285        -0.78931        -3.26284
| 23>    C        0.45233         0.81796        -2.99094
| 24>    F       -0.20402         1.69370        -3.82872
| 25>    C        1.24820         1.64747        -1.98154
| 26>    C        3.03686         2.63777         0.42422
| 27>    S        3.47615         3.56181        -0.97878
| 28>    C        4.26391         4.77493        -0.01910
| 29>    C        4.19032         4.45451         1.32853
| 30>    C        3.47026         3.27263         1.58057
| 31>    C        3.11118         2.86755         2.97567
| 32>    N        1.65265         2.56834         3.09721
| 33>    O        1.32703         1.89592         4.04188
| 34>    O        0.90312         3.06749         2.29702
| 35>    C        3.36273         4.02348         3.95503
| 36>    C        4.77373         4.55668         3.76076
| 37>    C        4.88708         5.23876         2.39168
| 38>    N        6.36289         5.35618         2.11417
| 39>    O        6.82775         4.71989         1.20391
| 40>    O        6.97961         6.05051         2.87664
| 41>    C        4.85603         5.93074        -0.56988
| 42>    C        5.02919         6.18908        -1.89195
| 43>    C        5.67252         7.37712        -2.30901
| 44>    N        5.92702         7.71219        -3.61427
| 45>    C        5.50949         6.98262        -4.78664
| 46>    C        4.02823         7.19583        -5.08825
| 47>    C        6.63120         8.92618        -3.72024
| 48>    O        6.96591         9.41168        -4.78120
| 49>    C        6.81693         9.35431        -2.34997
| 50>    C        6.21118         8.39206        -1.51067
| 51>    C        6.38814         8.82002        -0.14222
| 52>    O        6.01443         8.33423         0.91402
| 53>    N        7.10274        10.01581        -0.23787
| 54>    C        7.54183        10.71765         0.94433
| 55>    C        9.00272        10.41698         1.26989
| 56>    C        7.37689        10.35466        -1.54796
| 57>    C        8.07915        11.51501        -1.93139
| 58>    C        8.33597        11.81592        -3.23835
| 59>    C        9.02121        12.96462        -3.68901
| 60>    C        9.28678        13.26199        -5.01466
| 61>    C        9.98641        14.49348        -5.09300
| 62>    C       10.14107        14.96089        -3.70161
| 63>    C        9.56587        14.04502        -2.87930
| 64>    C       10.75161        16.14516        -3.27652
| 65>    N       11.23968        17.11246        -2.89315
| 66>    C       10.43641        15.14165        -6.22365
| 67>    C       11.14213        16.37610        -6.29374
| 68>    C       11.37731        16.68904        -7.61344
| 69>    C       10.80739        15.62763        -8.43002
| 70>    C       10.25573        14.69144        -7.61496
| 71>    C        9.63407        13.51907        -8.05724
| 72>    N        9.13619        12.56918        -8.46924
| 73>    C       12.03460        17.81948        -8.17511
| 74>    S       11.83684        18.14930        -9.88004
| 75>    C       12.81428        19.54494        -9.76611
| 76>    C       13.28839        19.75288        -8.50201
| 77>    C       12.84916        18.77077        -7.58529
| 78>    C       13.26564        18.78866        -6.15162
| 79>    C       14.47814        19.69200        -5.93027
| 80>    F       14.64120        19.87352        -4.57631
| 81>    C       14.27577        21.04799        -6.60860
| 82>    F       15.34134        21.87441        -6.32292
| 83>    C       14.20011        20.87560        -8.12271
| 84>    H        1.26876        -1.85732         1.15168
| 85>    H       -0.55030        -1.72111        -0.88544
| 86>    H        0.74877        -1.77351        -2.07714
| 87>    H       -1.29050         0.49164        -1.74085
| 88>    H        1.10566         0.21650        -3.63617
| 89>    H        0.65059         2.52739        -1.72096
| 90>    H        2.15568         2.00710        -2.47082
| 91>    H        3.64563         1.97165         3.30824
| 92>    H        3.22590         3.66601         4.97612
| 93>    H        2.64159         4.82276         3.76563
| 94>    H        5.48022         3.72397         3.81365
| 95>    H        5.02894         5.26817         4.54554
| 96>    H        4.51868         6.26974         2.44046
| 97>    H        5.19327         6.67305         0.14017
| 98>    H        4.70556         5.47407        -2.63474
| 99>    H        5.73081         5.91999        -4.65288
|100>    H        6.11233         7.36859        -5.61331
|101>    H        3.40842         6.86151        -4.25907
|102>    H        3.75070         6.63970        -5.97915
|103>    H        3.83347         8.25100        -5.26333
|104>    H        6.90635        10.36302         1.76054
|105>    H        7.38049        11.79137         0.81390
|106>    H        9.12805         9.35275         1.45341
|107>    H        9.30074        10.96001         2.16246
|108>    H        9.65409        10.70623         0.44791
|109>    H        8.41572        12.17913        -1.14863
|110>    H        7.99701        11.13608        -4.00898
|111>    H        9.00945        12.65319        -5.85274
|112>    H        9.51767        14.11078        -1.80816
|113>    H       11.39996        16.96387        -5.43814
|114>    H       10.84218        15.60169        -9.50372
|115>    H       12.99350        20.14082       -10.63896
|116>    H       13.50025        17.77957        -5.80599
|117>    H       12.44941        19.16491        -5.52547
|118>    H       15.40670        19.23127        -6.29161
|119>    H       13.38618        21.54206        -6.19888
|120>    H       15.21165        20.66574        -8.48646
|121>    H       13.87545        21.80871        -8.58723
|122> *
|123>
|124>                          ****END OF INPUT****

CARTESIAN COORDINATES (ANGSTROEM)
---------------------------------
  C      1.500410   -0.906290    0.715840
  S      2.511680    0.179500    1.561700
  C      2.367740    1.379040    0.297210
  C      1.589660    0.895750   -0.735970
  C      1.080760   -0.400470   -0.476400
  C      0.171530   -1.107870   -1.426920
  C     -0.560380   -0.099660   -2.306620
  F     -1.272850   -0.789310   -3.262840
  C      0.452330    0.817960   -2.990940
  F     -0.204020    1.693700   -3.828720
  C      1.248200    1.647470   -1.981540
  C      3.036860    2.637770    0.424220
  S      3.476150    3.561810   -0.978780
  C      4.263910    4.774930   -0.019100
  C      4.190320    4.454510    1.328530
  C      3.470260    3.272630    1.580570
  C      3.111180    2.867550    2.975670
  N      1.652650    2.568340    3.097210
  O      1.327030    1.895920    4.041880
  O      0.903120    3.067490    2.297020
  C      3.362730    4.023480    3.955030
  C      4.773730    4.556680    3.760760
  C      4.887080    5.238760    2.391680
  N      6.362890    5.356180    2.114170
  O      6.827750    4.719890    1.203910
  O      6.979610    6.050510    2.876640
  C      4.856030    5.930740   -0.569880
  C      5.029190    6.189080   -1.891950
  C      5.672520    7.377120   -2.309010
  N      5.927020    7.712190   -3.614270
  C      5.509490    6.982620   -4.786640
  C      4.028230    7.195830   -5.088250
  C      6.631200    8.926180   -3.720240
  O      6.965910    9.411680   -4.781200
  C      6.816930    9.354310   -2.349970
  C      6.211180    8.392060   -1.510670
  C      6.388140    8.820020   -0.142220
  O      6.014430    8.334230    0.914020
  N      7.102740   10.015810   -0.237870
  C      7.541830   10.717650    0.944330
  C      9.002720   10.416980    1.269890
  C      7.376890   10.354660   -1.547960
  C      8.079150   11.515010   -1.931390
  C      8.335970   11.815920   -3.238350
  C      9.021210   12.964620   -3.689010
  C      9.286780   13.261990   -5.014660
  C      9.986410   14.493480   -5.093000
  C     10.141070   14.960890   -3.701610
  C      9.565870   14.045020   -2.879300
  C     10.751610   16.145160   -3.276520
  N     11.239680   17.112460   -2.893150
  C     10.436410   15.141650   -6.223650
  C     11.142130   16.376100   -6.293740
  C     11.377310   16.689040   -7.613440
  C     10.807390   15.627630   -8.430020
  C     10.255730   14.691440   -7.614960
  C      9.634070   13.519070   -8.057240
  N      9.136190   12.569180   -8.469240
  C     12.034600   17.819480   -8.175110
  S     11.836840   18.149300   -9.880040
  C     12.814280   19.544940   -9.766110
  C     13.288390   19.752880   -8.502010
  C     12.849160   18.770770   -7.585290
  C     13.265640   18.788660   -6.151620
  C     14.478140   19.692000   -5.930270
  F     14.641200   19.873520   -4.576310
  C     14.275770   21.047990   -6.608600
  F     15.341340   21.874410   -6.322920
  C     14.200110   20.875600   -8.122710
  H      1.268760   -1.857320    1.151680
  H     -0.550300   -1.721110   -0.885440
  H      0.748770   -1.773510   -2.077140
  H     -1.290500    0.491640   -1.740850
  H      1.105660    0.216500   -3.636170
  H      0.650590    2.527390   -1.720960
  H      2.155680    2.007100   -2.470820
  H      3.645630    1.971650    3.308240
  H      3.225900    3.666010    4.976120
  H      2.641590    4.822760    3.765630
  H      5.480220    3.723970    3.813650
  H      5.028940    5.268170    4.545540
  H      4.518680    6.269740    2.440460
  H      5.193270    6.673050    0.140170
  H      4.705560    5.474070   -2.634740
  H      5.730810    5.919990   -4.652880
  H      6.112330    7.368590   -5.613310
  H      3.408420    6.861510   -4.259070
  H      3.750700    6.639700   -5.979150
  H      3.833470    8.251000   -5.263330
  H      6.906350   10.363020    1.760540
  H      7.380490   11.791370    0.813900
  H      9.128050    9.352750    1.453410
  H      9.300740   10.960010    2.162460
  H      9.654090   10.706230    0.447910
  H      8.415720   12.179130   -1.148630
  H      7.997010   11.136080   -4.008980
  H      9.009450   12.653190   -5.852740
  H      9.517670   14.110780   -1.808160
  H     11.399960   16.963870   -5.438140
  H     10.842180   15.601690   -9.503720
  H     12.993500   20.140820  -10.638960
  H     13.500250   17.779570   -5.805990
  H     12.449410   19.164910   -5.525470
  H     15.406700   19.231270   -6.291610
  H     13.386180   21.542060   -6.198880
  H     15.211650   20.665740   -8.486460
  H     13.875450   21.808710   -8.587230

 Total Charge           Charge          ....    0
 Multiplicity           Mult            ....    1
 Number of Electrons    NEL             ....  512
 Basis Dimension        Dim             .... 1168

ORBITAL ENERGIES
----------------

  NO   OCC          E(Eh)            E(eV)
   0   2.0000     -88.976086     -2421.1624
   1   2.0000     -88.968984     -2420.9691
   2   2.0000     -88.966425     -2420.8995
   3   2.0000     -24.751069      -673.5108
   4   2.0000     -24.750437      -673.4936
   5   2.0000     -24.746613      -673.3896
   6   2.0000     -24.744379      -673.3288
   7   2.0000     -19.250600      -523.8354
   8   2.0000     -19.249693      -523.8108
   9   2.0000     -19.245478      -523.6961
  10   2.0000     -19.244826      -523.6783
  11   2.0000     -19.194729      -522.3151
  12   2.0000     -19.191389      -522.2242
  13   2.0000     -14.648733      -398.6123
  14   2.0000     -14.643121      -398.4596
  15   2.0000     -14.455480      -393.3536
  16   2.0000     -14.454214      -393.3192
  17   2.0000     -14.407272      -392.0418
  18   2.0000     -14.404108      -391.9557
  19   2.0000     -10.376429      -282.3570
  20   2.0000     -10.373636      -282.2810
  21   2.0000     -10.353128      -281.7229
  22   2.0000     -10.351072      -281.6670
  23   2.0000     -10.347423      -281.5677
  24   2.0000     -10.347138      -281.5599
  25   2.0000     -10.346693      -281.5478
  26   2.0000     -10.342379      -281.4304
  27   2.0000     -10.342213      -281.4259
  28   2.0000     -10.336173      -281.2616
  29   2.0000     -10.332069      -281.1499
  30   2.0000     -10.318328      -280.7760
  31   2.0000     -10.318094      -280.7696
  32   2.0000     -10.316232      -280.7189
  33   2.0000     -10.315056      -280.6869
  34   2.0000     -10.312906      -280.6284
  35   2.0000     -10.312870      -280.6275
  36   2.0000     -10.311064      -280.5783
  37   2.0000     -10.309436      -280.5340
  38   2.0000     -10.309203      -280.5277
  39   2.0000     -10.309040      -280.5232
  40   2.0000     -10.306015      -280.4409
  41   2.0000     -10.305915      -280.4382
  42   2.0000     -10.305855      -280.4366
  43   2.0000     -10.305709      -280.4326
  44   2.0000     -10.304722      -280.4057
  45   2.0000     -10.303850      -280.3820
  46   2.0000     -10.303661      -280.3769
  47   2.0000     -10.303366      -280.3688
  48   2.0000     -10.303271      -280.3663
  49   2.0000     -10.302470      -280.3445
  50   2.0000     -10.298281      -280.2305
  51   2.0000     -10.296308      -280.1768
  52   2.0000     -10.295377      -280.1515
  53   2.0000     -10.294743      -280.1342
  54   2.0000     -10.293762      -280.1075
  55   2.0000     -10.292792      -280.0811
  56   2.0000     -10.291070      -280.0342
  57   2.0000     -10.290000      -280.0051
  58   2.0000     -10.289791      -279.9995
  59   2.0000     -10.289459      -279.9904
  60   2.0000     -10.287752      -279.9440
  61   2.0000     -10.285418      -279.8805
  62   2.0000     -10.283245      -279.8213
  63   2.0000     -10.279060      -279.7074
  64   2.0000     -10.277598      -279.6677
  65   2.0000     -10.264427      -279.3093
  66   2.0000     -10.264275      -279.3051
  67   2.0000     -10.263091      -279.2729
  68   2.0000     -10.260389      -279.1994
  69   2.0000      -8.071025      -219.6238
  70   2.0000      -8.064450      -219.4448
  71   2.0000      -8.062140      -219.3820
  72   2.0000      -6.040167      -164.3613
  73   2.0000      -6.036200      -164.2534
  74   2.0000      -6.033812      -164.1884
  75   2.0000      -6.033295      -164.1743
  76   2.0000      -6.031327      -164.1208
  77   2.0000      -6.029400      -164.0683
  78   2.0000      -6.027090      -164.0055
  79   2.0000      -6.026736      -163.9958
  80   2.0000      -6.024565      -163.9368
  81   2.0000      -1.332595       -36.2618
  82   2.0000      -1.327517       -36.1236
  83   2.0000      -1.271026       -34.5864
  84   2.0000      -1.266011       -34.4499
  85   2.0000      -1.256244       -34.1841
  86   2.0000      -1.250930       -34.0395
  87   2.0000      -1.153136       -31.3784
  88   2.0000      -1.149001       -31.2659
  89   2.0000      -1.135691       -30.9037
  90   2.0000      -1.128180       -30.6993
  91   2.0000      -1.065483       -28.9933
  92   2.0000      -1.056833       -28.7579
  93   2.0000      -1.022106       -27.8129
  94   2.0000      -1.014049       -27.5937
  95   2.0000      -1.002201       -27.2713
  96   2.0000      -0.998917       -27.1819
  97   2.0000      -0.994048       -27.0494
  98   2.0000      -0.982089       -26.7240
  99   2.0000      -0.975084       -26.5334
 100   2.0000      -0.964574       -26.2474
 101   2.0000      -0.939621       -25.5684
 102   2.0000      -0.930085       -25.3089
 103   2.0000      -0.922884       -25.1129
 104   2.0000      -0.921022       -25.0623
 105   2.0000      -0.913712       -24.8634
 106   2.0000      -0.907926       -24.7059
 107   2.0000      -0.883917       -24.0526
 108   2.0000      -0.881653       -23.9910
 109   2.0000      -0.873022       -23.7561
 110   2.0000      -0.860366       -23.4117
 111   2.0000      -0.855522       -23.2799
 112   2.0000      -0.850471       -23.1425
 113   2.0000      -0.847175       -23.0528
 114   2.0000      -0.840965       -22.8838
 115   2.0000      -0.829506       -22.5720
 116   2.0000      -0.829038       -22.5593
 117   2.0000      -0.827462       -22.5164
 118   2.0000      -0.821234       -22.3469
 119   2.0000      -0.811775       -22.0895
 120   2.0000      -0.805816       -21.9274
 121   2.0000      -0.787030       -21.4162
 122   2.0000      -0.769878       -20.9494
 123   2.0000      -0.761309       -20.7163
 124   2.0000      -0.758186       -20.6313
 125   2.0000      -0.740168       -20.1410
 126   2.0000      -0.734778       -19.9943
 127   2.0000      -0.734201       -19.9786
 128   2.0000      -0.728567       -19.8253
 129   2.0000      -0.719221       -19.5710
 130   2.0000      -0.714140       -19.4327
 131   2.0000      -0.711855       -19.3706
 132   2.0000      -0.708476       -19.2786
 133   2.0000      -0.701601       -19.0915
 134   2.0000      -0.694702       -18.9038
 135   2.0000      -0.692589       -18.8463
 136   2.0000      -0.687965       -18.7205
 137   2.0000      -0.682282       -18.5658
 138   2.0000      -0.668630       -18.1943
 139   2.0000      -0.664438       -18.0803
 140   2.0000      -0.653981       -17.7957
 141   2.0000      -0.648923       -17.6581
 142   2.0000      -0.645485       -17.5646
 143   2.0000      -0.642253       -17.4766
 144   2.0000      -0.639436       -17.3999
 145   2.0000      -0.636136       -17.3102
 146   2.0000      -0.633488       -17.2381
 147   2.0000      -0.629799       -17.1377
 148   2.0000      -0.624713       -16.9993
 149   2.0000      -0.622918       -16.9505
 150   2.0000      -0.619340       -16.8531
 151   2.0000      -0.612264       -16.6605
 152   2.0000      -0.607895       -16.5417
 153   2.0000      -0.601054       -16.3555
 154   2.0000      -0.597981       -16.2719
 155   2.0000      -0.595453       -16.2031
 156   2.0000      -0.592583       -16.1250
 157   2.0000      -0.591018       -16.0824
 158   2.0000      -0.582632       -15.8542
 159   2.0000      -0.580824       -15.8050
 160   2.0000      -0.576945       -15.6995
 161   2.0000      -0.575502       -15.6602
 162   2.0000      -0.573986       -15.6189
 163   2.0000      -0.569097       -15.4859
 164   2.0000      -0.568501       -15.4697
 165   2.0000      -0.566136       -15.4053
 166   2.0000      -0.564415       -15.3585
 167   2.0000      -0.560120       -15.2416
 168   2.0000      -0.555408       -15.1134
 169   2.0000      -0.547768       -14.9055
 170   2.0000      -0.541577       -14.7371
 171   2.0000      -0.540243       -14.7008
 172   2.0000      -0.536359       -14.5951
 173   2.0000      -0.535930       -14.5834
 174   2.0000      -0.532662       -14.4945
 175   2.0000      -0.530981       -14.4487
 176   2.0000      -0.530491       -14.4354
 177   2.0000      -0.529863       -14.4183
 178   2.0000      -0.526700       -14.3322
 179   2.0000      -0.523733       -14.2515
 180   2.0000      -0.519511       -14.1366
 181   2.0000      -0.517768       -14.0892
 182   2.0000      -0.516759       -14.0617
 183   2.0000      -0.513953       -13.9854
 184   2.0000      -0.511020       -13.9056
 185   2.0000      -0.508008       -13.8236
 186   2.0000      -0.507826       -13.8186
 187   2.0000      -0.504278       -13.7221
 188   2.0000      -0.500212       -13.6115
 189   2.0000      -0.498255       -13.5582
 190   2.0000      -0.496570       -13.5124
 191   2.0000      -0.495901       -13.4941
 192   2.0000      -0.494529       -13.4568
 193   2.0000      -0.489879       -13.3303
 194   2.0000      -0.487294       -13.2599
 195   2.0000      -0.486866       -13.2483
 196   2.0000      -0.484007       -13.1705
 197   2.0000      -0.482835       -13.1386
 198   2.0000      -0.481064       -13.0904
 199   2.0000      -0.478910       -13.0318
 200   2.0000      -0.475017       -12.9259
 201   2.0000      -0.471965       -12.8428
 202   2.0000      -0.468176       -12.7397
 203   2.0000      -0.466303       -12.6888
 204   2.0000      -0.465185       -12.6583
 205   2.0000      -0.462231       -12.5779
 206   2.0000      -0.460403       -12.5282
 207   2.0000      -0.457759       -12.4563
 208   2.0000      -0.456084       -12.4107
 209   2.0000      -0.454180       -12.3589
 210   2.0000      -0.453828       -12.3493
 211   2.0000      -0.450735       -12.2651
 212   2.0000      -0.448211       -12.1964
 213   2.0000      -0.444533       -12.0964
 214   2.0000      -0.444128       -12.0853
 215   2.0000      -0.443990       -12.0816
 216   2.0000      -0.439342       -11.9551
 217   2.0000      -0.436581       -11.8800
 218   2.0000      -0.435534       -11.8515
 219   2.0000      -0.433418       -11.7939
 220   2.0000      -0.432488       -11.7686
 221   2.0000      -0.430428       -11.7125
 222   2.0000      -0.429375       -11.6839
 223   2.0000      -0.427066       -11.6211
 224   2.0000      -0.425358       -11.5746
 225   2.0000      -0.424641       -11.5551
 226   2.0000      -0.418399       -11.3852
 227   2.0000      -0.417535       -11.3617
 228   2.0000      -0.413810       -11.2603
 229   2.0000      -0.412788       -11.2325
 230   2.0000      -0.407689       -11.0938
 231   2.0000      -0.402912       -10.9638
 232   2.0000      -0.394871       -10.7450
 233   2.0000      -0.393602       -10.7104
 234   2.0000      -0.388085       -10.5603
 235   2.0000      -0.385872       -10.5001
 236   2.0000      -0.384074       -10.4512
 237   2.0000      -0.382778       -10.4159
 238   2.0000      -0.381793       -10.3891
 239   2.0000      -0.377664       -10.2768
 240   2.0000      -0.376022       -10.2321
 241   2.0000      -0.374478       -10.1901
 242   2.0000      -0.365931        -9.9575
 243   2.0000      -0.349692        -9.5156
 244   2.0000      -0.342698        -9.3253
 245   2.0000      -0.338138        -9.2012
 246   2.0000      -0.333947        -9.0872
 247   2.0000      -0.330143        -8.9836
 248   2.0000      -0.322891        -8.7863
 249   2.0000      -0.322453        -8.7744
 250   2.0000      -0.318193        -8.6585
 251   2.0000      -0.316858        -8.6221
 252   2.0000      -0.300080        -8.1656
 253   2.0000      -0.279843        -7.6149
 254   2.0000      -0.272511        -7.4154
 255   2.0000      -0.229320        -6.2401
 256   0.0000      -0.122543        -3.3346
 257   0.0000      -0.079460        -2.1622
 258   0.0000      -0.039308        -1.0696
 259   0.0000      -0.021868        -0.5951
 260   0.0000      -0.012991        -0.3535

MULLIKEN ATOMIC CHARGES
-----------------------
   0 C :   -0.102684
   1 S :    0.114005
   2 C :   -0.159137
   3 C :   -0.061663
   4 C :   -0.095290
   5 C :    0.154531
   6 C :    0.184842
   7 F :   -0.245644
   8 C :    0.197120
   9 F :   -0.246611
  10 C :    0.127570
  11 C :   -0.083740
  12 S :    0.117368
  13 C :   -0.050643
  14 C :   -0.028751
  15 C :   -0.013418
  16 C :    0.072270
  17 N :    0.189272
  18 O :   -0.226223
  19 O :   -0.206565
  20 C :    0.070898
  21 C :    0.083118
  22 C :    0.091935
  23 N :    0.196492
  24 O :   -0.214120
  25 O :   -0.217745
  26 C :    0.009111
  27 C :   -0.037848
  28 C :    0.137359
  29 N :   -0.254689
  30 C :    0.098663
  31 C :    0.002991
  32 C :    0.166644
  33 O :   -0.196791
  34 C :   -0.058679
  35 C :   -0.076222
  36 C :    0.177254
  37 O :   -0.243433
  38 N :   -0.249997
  39 C :    0.098911
  40 C :    0.002551
  41 C :    0.135181
  42 C :   -0.024426
  43 C :    0.003014
  44 C :    0.109738
  45 C :   -0.107802
  46 C :    0.119582
  47 C :   -0.105942
  48 C :   -0.010778
  49 C :   -0.169252
  50 N :    0.130957
  51 C :    0.127795
  52 C :   -0.166387
  53 C :    0.108696
  54 C :   -0.029729
  55 C :   -0.093380
  56 C :   -0.181912
  57 N :    0.143375
  58 C :   -0.135670
  59 S :    0.129508
  60 C :   -0.108395
  61 C :   -0.090238
  62 C :   -0.067035
  63 C :    0.120460
  64 C :    0.206814
  65 F :   -0.239541
  66 C :    0.189296
  67 F :   -0.246614
  68 C :    0.151665
  69 H :    0.020653
  70 H :    0.024003
  71 H :    0.029523
  72 H :    0.013218
  73 H :    0.005714
  74 H :    0.045374
  75 H :    0.040251
  76 H :    0.051445
  77 H :    0.036700
  78 H :    0.029409
  79 H :    0.021555
  80 H :    0.041827
  81 H :    0.066174
  82 H :    0.017147
  83 H :   -0.027390
  84 H :    0.024134
  85 H :    0.048463
  86 H :    0.014922
  87 H :    0.025681
  88 H :    0.031239
  89 H :    0.043172
  90 H :    0.022046
  91 H :    0.038429
  92 H :    0.023438
  93 H :    0.014500
  94 H :   -0.033558
  95 H :    0.014768
  96 H :    0.014954
  97 H :   -0.003616
  98 H :   -0.002969
  99 H :    0.008114
 100 H :    0.019021
 101 H :    0.037669
 102 H :    0.053722
 103 H :    0.004858
 104 H :    0.007538
 105 H :    0.031844
 106 H :    0.024041
Sum of atomic charges:   -0.0000000

LOEWDIN ATOMIC CHARGES
----------------------
   0 C :   -0.179509
   1 S :    0.456976
   2 C :   -0.198844
   3 C :   -0.053406
   4 C :   -0.067896
   5 C :   -0.032493
   6 C :    0.093482
   7 F :   -0.123176
   8 C :    0.096223
   9 F :   -0.123673
  10 C :   -0.048611
  11 C :   -0.156532
  12 S :    0.480298
  13 C :   -0.169158
  14 C :   -0.053326
  15 C :   -0.081514
  16 C :    0.002555
  17 N :    0.265867
  18 O :   -0.197384
  19 O :   -0.189946
  20 C :   -0.015362
  21 C :   -0.018054
  22 C :    0.016573
  23 N :    0.272981
  24 O :   -0.189392
  25 O :   -0.186508
  26 C :    0.018244
  27 C :   -0.058011
  28 C :    0.083657
  29 N :    0.001722
  30 C :    0.037121
  31 C :   -0.060558
  32 C :    0.082943
  33 O :   -0.187088
  34 C :   -0.109806
  35 C :   -0.127029
  36 C :    0.079373
  37 O :   -0.223164
  38 N :    0.004531
  39 C :    0.036682
  40 C :   -0.060836
  41 C :    0.064775
  42 C :   -0.040237
  43 C :    0.027820
  44 C :   -0.022748
  45 C :   -0.013168
  46 C :    0.028025
  47 C :   -0.079241
  48 C :    0.049517
  49 C :   -0.029973
  50 N :   -0.066121
  51 C :    0.038976
  52 C :   -0.046770
  53 C :   -0.022998
  54 C :    0.040067
  55 C :   -0.076314
  56 C :   -0.032584
  57 N :   -0.057854
  58 C :   -0.175082
  59 S :    0.451882
  60 C :   -0.179522
  61 C :   -0.067944
  62 C :   -0.044209
  63 C :   -0.036852
  64 C :    0.095377
  65 F :   -0.118407
  66 C :    0.093964
  67 F :   -0.124049
  68 C :   -0.034080
  69 H :    0.026881
  70 H :    0.040722
  71 H :    0.039849
  72 H :    0.022415
  73 H :    0.020037
  74 H :    0.046937
  75 H :    0.027103
  76 H :    0.035493
  77 H :    0.039021
  78 H :    0.034786
  79 H :    0.033284
  80 H :    0.041570
  81 H :    0.053704
  82 H :    0.035050
  83 H :    0.023012
  84 H :    0.023514
  85 H :    0.039398
  86 H :    0.021763
  87 H :    0.031679
  88 H :    0.032884
  89 H :    0.037954
  90 H :    0.021909
  91 H :    0.035657
  92 H :    0.030648
  93 H :    0.021617
  94 H :    0.026475
  95 H :    0.042159
  96 H :    0.039774
  97 H :    0.033652
  98 H :    0.030989
  99 H :    0.031509
 100 H :    0.025518
 101 H :    0.043901
 102 H :    0.047269
 103 H :    0.019328
 104 H :    0.020544
 105 H :    0.041855
 106 H :    0.039940

  Mayer bond orders larger than 0.100000
B(  0-C ,  1-S ) :   1.1620 B(  0-C ,  4-C ) :   1.5769 B(  0-C , 69-H ) :   0.9732
B(  1-S ,  2-C ) :   1.1461 B(  2-C ,  3-C ) :   1.5299 B(  2-C , 11-C ) :   1.0952
B(  3-C ,  4-C ) :   1.2975 B(  3-C , 10-C ) :   1.0233 B(  4-C ,  5-C ) :   0.9923
B(  5-C ,  6-C ) :   1.0333 B(  5-C , 70-H ) :   0.9192 B(  5-C , 71-H ) :   0.9092
B(  6-C ,  7-F ) :   1.0306 B(  6-C ,  8-C ) :   1.0234 B(  6-C , 72-H ) :   0.9426
B(  8-C ,  9-F ) :   1.0263 B(  8-C , 10-C ) :   1.0227 B(  8-C , 73-H ) :   0.9299
B( 10-C , 74-H ) :   0.8997 B( 10-C , 75-H ) :   0.8996 B( 11-C , 12-S ) :   1.1603
B( 11-C , 15-C ) :   1.5144 B( 12-S , 13-C ) :   1.0955 B( 13-C , 14-C ) :   1.4855
B( 13-C , 26-C ) :   1.1681 B( 14-C , 15-C ) :   1.3489 B( 14-C , 22-C ) :   0.9730
B( 15-C , 16-C ) :   0.9510 B( 16-C , 17-N ) :   0.8359 B( 16-C , 20-C ) :   1.0692
B( 16-C , 76-H ) :   0.8947 B( 17-N , 18-O ) :   1.5442 B( 17-N , 19-O ) :   1.5972
B( 18-O , 19-O ) :   0.2704 B( 20-C , 21-C ) :   1.1018 B( 20-C , 77-H ) :   0.9286
B( 20-C , 78-H ) :   0.9243 B( 21-C , 22-C ) :   1.0757 B( 21-C , 79-H ) :   0.9202
B( 21-C , 80-H ) :   0.9239 B( 22-C , 23-N ) :   0.8331 B( 22-C , 81-H ) :   0.8803
B( 23-N , 24-O ) :   1.5998 B( 23-N , 25-O ) :   1.5635 B( 24-O , 25-O ) :   0.2699
B( 26-C , 27-C ) :   1.5742 B( 26-C , 82-H ) :   0.9259 B( 27-C , 28-C ) :   1.1762
B( 27-C , 83-H ) :   0.9725 B( 28-C , 29-N ) :   1.1710 B( 28-C , 35-C ) :   1.3060
B( 29-N , 30-C ) :   0.9434 B( 29-N , 32-C ) :   1.0507 B( 30-C , 31-C ) :   1.1206
B( 30-C , 84-H ) :   0.9499 B( 30-C , 85-H ) :   0.9288 B( 31-C , 86-H ) :   0.9687
B( 31-C , 87-H ) :   0.9681 B( 31-C , 88-H ) :   0.9638 B( 32-C , 33-O ) :   2.0381
B( 32-C , 34-C ) :   0.9812 B( 33-O , 95-H ) :   0.1092 B( 34-C , 35-C ) :   1.2679
B( 34-C , 41-C ) :   1.3329 B( 35-C , 36-C ) :   1.0072 B( 36-C , 37-O ) :   1.9545
B( 36-C , 38-N ) :   1.0874 B( 37-O , 82-H ) :   0.1368 B( 38-N , 39-C ) :   0.9460
B( 38-N , 41-C ) :   1.1452 B( 39-C , 40-C ) :   1.1212 B( 39-C , 89-H ) :   0.9275
B( 39-C , 90-H ) :   0.9497 B( 40-C , 91-H ) :   0.9633 B( 40-C , 92-H ) :   0.9680
B( 40-C , 93-H ) :   0.9683 B( 41-C , 42-C ) :   1.1736 B( 42-C , 43-C ) :   1.5376
B( 42-C , 94-H ) :   0.9638 B( 43-C , 44-C ) :   1.1362 B( 43-C , 95-H ) :   0.9586
B( 44-C , 45-C ) :   1.4862 B( 44-C , 48-C ) :   1.0406 B( 45-C , 46-C ) :   1.1262
B( 45-C , 96-H ) :   1.0122 B( 46-C , 47-C ) :   1.1047 B( 46-C , 51-C ) :   1.3846
B( 47-C , 48-C ) :   1.6807 B( 47-C , 49-C ) :   1.0908 B( 48-C , 97-H ) :   1.0155
B( 49-C , 50-N ) :   2.9636 B( 51-C , 52-C ) :   1.1227 B( 51-C , 55-C ) :   1.1096
B( 52-C , 53-C ) :   1.5460 B( 52-C , 98-H ) :   0.9977 B( 53-C , 54-C ) :   1.0383
B( 53-C , 58-C ) :   1.1000 B( 54-C , 55-C ) :   1.6801 B( 54-C , 99-H ) :   1.0121
B( 55-C , 56-C ) :   1.0817 B( 56-C , 57-N ) :   2.9727 B( 58-C , 59-S ) :   1.1383
B( 58-C , 60-C ) :   0.1003 B( 58-C , 62-C ) :   1.5172 B( 59-S , 60-C ) :   1.1726
B( 60-C , 61-C ) :   1.5556 B( 60-C ,100-H ) :   0.9729 B( 61-C , 62-C ) :   1.3053
B( 61-C , 68-C ) :   0.9890 B( 62-C , 63-C ) :   1.0266 B( 63-C , 64-C ) :   1.0169
B( 63-C ,101-H ) :   0.9032 B( 63-C ,102-H ) :   0.8972 B( 64-C , 65-F ) :   1.0413
B( 64-C , 66-C ) :   1.0129 B( 64-C ,103-H ) :   0.9382 B( 66-C , 67-F ) :   1.0287
B( 66-C , 68-C ) :   1.0359 B( 66-C ,104-H ) :   0.9380 B( 68-C ,105-H ) :   0.9097
B( 68-C ,106-H ) :   0.9184

-----------------------------------------------------------------------------
         ABSORPTION SPECTRUM VIA TRANSITION ELECTRIC DIPOLE MOMENTS
-----------------------------------------------------------------------------
State   Energy  Wavelength   fosc         T2         TX        TY        TZ
        (cm-1)    (nm)                  (au**2)     (au)      (au)      (au)
-----------------------------------------------------------------------------
   0    9827.0   1017.6   0.816863608  27.36547  -2.39358  -3.97689   2.41259
   1   16327.4    612.5   0.094698879   1.90943   0.36308   0.50546  -1.23374
   2   17505.3    571.3   0.470041754   8.83978  -1.39660  -2.62087  -0.14253
   3   19971.9    500.7   0.003662915   0.06038   0.00759   0.02274   0.24455
   4   23163.1    431.7   0.234499041   3.33288  -0.80213  -1.41088   0.83599
   5   25446.6    393.0   0.397735203   5.14564   0.85533   1.35247  -1.60776
   6   25661.7    389.7   0.202794233   2.60163   0.56363   0.93012  -1.19115
   7   26835.4    372.6   0.064425123   0.79036  -0.21414  -0.44573   0.73880
   8   27040.4    369.8   0.012635081   0.15383  -0.27880  -0.27389  -0.03295
   9   27842.5    359.2   0.000569044   0.00673   0.05591  -0.05094   0.03174
  10   28547.5    350.3   0.169773353   1.95784   0.63641   1.14724  -0.48646
  11   28683.2    348.6   0.003550135   0.04075   0.14461   0.09421   0.10470
  12   30050.9    332.8   0.006262532   0.06861   0.08846   0.09393  -0.22795
  13   30216.8    330.9   0.192278972   2.09488   0.60532   0.92313  -0.93610
  14   31464.5    317.8   0.029674877   0.31049  -0.22751  -0.48620  -0.14946
  15   31486.9    317.6   0.021297224   0.22267   0.09791   0.18929   0.42102
  16   32666.7    306.1   0.008442327   0.08508   0.11472   0.17207  -0.20570
  17   33445.2    299.0   0.067012397   0.65962   0.38442   0.63892  -0.32192
  18   33692.1    296.8   0.238396329   2.32941  -0.62890  -1.01333   0.95240
  19   35028.9    285.5   0.010456702   0.09828  -0.10463  -0.15331   0.25264
  20   35447.3    282.1   0.011411184   0.10598  -0.04858   0.22263  -0.23250
  21   35942.9    278.2   0.000871756   0.00798   0.00380  -0.08716  -0.01933
  22   36172.1    276.5   0.077985531   0.70977  -0.47829  -0.66470   0.19794
  23   36656.7    272.8   0.033696195   0.30262  -0.28657  -0.38234  -0.27261
  24   37064.3    269.8   0.237840474   2.11254   0.59680   1.12629  -0.69847
  25   37202.0    268.8   0.001928984   0.01707   0.06203   0.11458   0.00969
  26   37237.3    268.5   0.042982481   0.38000   0.01630   0.01759  -0.61598
  27   38868.0    257.3   0.003070628   0.02601  -0.04587  -0.09507  -0.12193
  28   38941.3    256.8   0.001055575   0.00892   0.01407   0.09208   0.01575
  29   39217.6    255.0   0.082537184   0.69286   0.42026   0.71766  -0.03477
  30   39610.1    252.5   0.001499274   0.01246   0.00592  -0.02424  -0.10880
  31   39934.6    250.4   0.231676423   1.90989   0.10648  -0.06068  -1.37654
  32   40130.2    249.2   0.016123419   0.13227  -0.15163  -0.32603  -0.05460

FINAL SINGLE POINT ENERGY     -4297.630830838081

DIPOLE MOMENT
-------------
                                X             Y             Z
Electronic contribution:      1.74134       4.17927     -14.91365
Nuclear contribution   :     -2.00508      -5.19168      15.15838
                        -----------------------------------------
Total Dipole Moment    :     -0.26374      -1.01241       0.24473
                        -----------------------------------------
Magnitude (a.u.)       :      1.07444
Magnitude (Debye)      :      2.73100

Rotational constants in cm-1:     0.002509     0.000228     0.000211
Rotational constants in MHz :    75.218290     6.830200     6.333097

                             ****ORCA TERMINATED NORMALLY****
TOTAL RUN TIME: 0 days 0 hours 11 minutes 9 seconds 924 msec
