                         Program Version 4.2.0 -  RELEASE  -
|  1> # ORCA input file
|  2> # SCF done       -185.769793810800          0.000895053037
|  3> ! CAM-B3LYP def2-SVP def2/J RIJCOSX Grid4 TightSCF
|  4> %maxcore 5000
|  5> %tddft
|  6>     Mode sTDDFT
|  7>     Ethresh 5.0
|  8>     maxcore 5000
|  9> end
| 10>
| 11> %pal
| 12>   nprocs 6
| 13>   end
| 14> * xyz 0 1
| 15>    C       -1.43826         0.98034        -0.78957
| 16>    C       -0.66731        -0.16469        -0.79126
| 17>    C        0.42089        -0.58520        -1.70420
| 18>    O        0.86864        -0.02033        -2.65933
| 19>    O        0.86663        -1.79470        -1.27979
| 20>    C        0.15622        -2.24550        -0.13737
| 21>    C       -0.84141        -1.17124         0.15449
| 22>    C       -1.81750        -1.05824         1.12562
| 23>    C       -2.60200         0.08153         1.13077
| 24>    C       -2.41954         1.10860         0.19527
| 25>    C       -3.25517         2.30365         0.25913
| 26>    C       -2.72937         3.58518         0.00658
| 27>    C       -3.55794         4.77109        -0.02282
| 28>    N       -3.02812         5.93888        -0.42517
| 29>    C       -1.75022         6.00857        -0.69403
| 30>    C       -0.89670         4.86902        -0.49322
| 31>    N       -1.40144         3.70850        -0.17468
| 32>    C        0.50872         5.01323        -0.61827
| 33>    N        1.63647         5.18313        -0.71715
| 34>    C       -1.20346         7.22969        -1.16094
| 35>    N       -0.72977         8.20241        -1.53713
| 36>    C       -4.93103         4.71147         0.28002
| 37>    C       -5.43751         3.44024         0.60571
| 38>    C       -4.61984         2.24888         0.57481
| 39>    N       -5.34192         1.15800         0.86644
| 40>    S       -6.85091         1.59709         1.16287
| 41>    N       -6.69220         3.17245         0.97260
| 42>    C       -5.87864         5.78455         0.13702
| 43>    N       -5.76814         7.07828         0.55111
| 44>    C       -4.70951         7.68099         1.32895
| 45>    C       -3.98814         8.76771         0.53844
| 46>    C       -6.94208         7.81502         0.26446
| 47>    O       -7.09881         8.97019         0.59857
| 48>    C       -7.79778         6.87557        -0.42544
| 49>    C       -7.12623         5.63244        -0.46364
| 50>    C       -7.94985         4.69256        -1.20082
| 51>    O       -7.78345         3.53517        -1.52292
| 52>    N       -9.09339         5.43810        -1.53793
| 53>    C      -10.19981         4.83679        -2.24535
| 54>    C      -11.36462         4.50999        -1.31504
| 55>    C       -9.02224         6.73543        -1.08769
| 56>    C      -10.03980         7.68718        -1.31637
| 57>    C       -9.97479         8.96519        -0.84848
| 58>    C      -10.95510         9.97829        -1.03951
| 59>    C      -12.19448         9.84029        -1.71960
| 60>    C      -13.11496        10.94497        -1.84111
| 61>    N      -14.20108        10.82842        -2.62666
| 62>    C      -14.49639         9.66814        -3.14438
| 63>    C      -13.67199         8.52421        -2.88290
| 64>    N      -12.54059         8.65295        -2.23585
| 65>    C      -14.02759         7.23885        -3.35916
| 66>    N      -14.30954         6.19962        -3.75096
| 67>    C      -15.62989         9.55747        -3.98878
| 68>    N      -16.54329         9.43810        -4.66921
| 69>    C      -12.90067        12.17782        -1.19957
| 70>    C      -11.67065        12.33788        -0.55378
| 71>    C      -10.71270        11.25632        -0.48467
| 72>    N       -9.61958        11.61589         0.18881
| 73>    S       -9.77428        13.12680         0.68183
| 74>    N      -11.22899        13.43143         0.08163
| 75>    C      -13.93388        13.20314        -1.20745
| 76>    C      -15.27116        12.87537        -0.97186
| 77>    C      -15.90072        11.61492        -0.51959
| 78>    O      -15.39310        10.56471        -0.22734
| 79>    O      -17.23055        11.82649        -0.42027
| 80>    C      -17.57436        13.16208        -0.75152
| 81>    C      -16.27456        13.83511        -1.05635
| 82>    C      -15.98440        15.15157        -1.35420
| 83>    C      -14.65124        15.49190        -1.54264
| 84>    C      -13.64535        14.54206        -1.46921
| 85>    H       -1.29069         1.73241        -1.54660
| 86>    H        0.86707        -2.39475         0.68342
| 87>    H       -0.31255        -3.20799        -0.37126
| 88>    H       -1.96704        -1.83266         1.86200
| 89>    H       -3.36930         0.19395         1.87995
| 90>    H       -4.01796         6.89841         1.64215
| 91>    H       -5.16784         8.12789         2.21805
| 92>    H       -3.58045         8.36085        -0.38224
| 93>    H       -3.17551         9.17669         1.13213
| 94>    H       -4.68305         9.56678         0.29700
| 95>    H       -9.80955         3.91502        -2.68556
| 96>    H      -10.52577         5.50058        -3.05062
| 97>    H      -11.04516         3.80835        -0.54822
| 98>    H      -12.17226         4.06228        -1.88699
| 99>    H      -11.74103         5.40747        -0.83009
|100>    H      -10.90271         7.37674        -1.88376
|101>    H       -9.11156         9.28079        -0.27492
|102>    H      -18.09921        13.60837         0.10002
|103>    H      -18.25145        13.14963        -1.61322
|104>    H      -16.76430        15.89349        -1.42548
|105>    H      -14.39199        16.51765        -1.75713
|106>    H      -12.61898        14.83081        -1.63123
|107> *
|108>
|109>                          ****END OF INPUT****

CARTESIAN COORDINATES (ANGSTROEM)
---------------------------------
  C     -1.438260    0.980340   -0.789570
  C     -0.667310   -0.164690   -0.791260
  C      0.420890   -0.585200   -1.704200
  O      0.868640   -0.020330   -2.659330
  O      0.866630   -1.794700   -1.279790
  C      0.156220   -2.245500   -0.137370
  C     -0.841410   -1.171240    0.154490
  C     -1.817500   -1.058240    1.125620
  C     -2.602000    0.081530    1.130770
  C     -2.419540    1.108600    0.195270
  C     -3.255170    2.303650    0.259130
  C     -2.729370    3.585180    0.006580
  C     -3.557940    4.771090   -0.022820
  N     -3.028120    5.938880   -0.425170
  C     -1.750220    6.008570   -0.694030
  C     -0.896700    4.869020   -0.493220
  N     -1.401440    3.708500   -0.174680
  C      0.508720    5.013230   -0.618270
  N      1.636470    5.183130   -0.717150
  C     -1.203460    7.229690   -1.160940
  N     -0.729770    8.202410   -1.537130
  C     -4.931030    4.711470    0.280020
  C     -5.437510    3.440240    0.605710
  C     -4.619840    2.248880    0.574810
  N     -5.341920    1.158000    0.866440
  S     -6.850910    1.597090    1.162870
  N     -6.692200    3.172450    0.972600
  C     -5.878640    5.784550    0.137020
  N     -5.768140    7.078280    0.551110
  C     -4.709510    7.680990    1.328950
  C     -3.988140    8.767710    0.538440
  C     -6.942080    7.815020    0.264460
  O     -7.098810    8.970190    0.598570
  C     -7.797780    6.875570   -0.425440
  C     -7.126230    5.632440   -0.463640
  C     -7.949850    4.692560   -1.200820
  O     -7.783450    3.535170   -1.522920
  N     -9.093390    5.438100   -1.537930
  C    -10.199810    4.836790   -2.245350
  C    -11.364620    4.509990   -1.315040
  C     -9.022240    6.735430   -1.087690
  C    -10.039800    7.687180   -1.316370
  C     -9.974790    8.965190   -0.848480
  C    -10.955100    9.978290   -1.039510
  C    -12.194480    9.840290   -1.719600
  C    -13.114960   10.944970   -1.841110
  N    -14.201080   10.828420   -2.626660
  C    -14.496390    9.668140   -3.144380
  C    -13.671990    8.524210   -2.882900
  N    -12.540590    8.652950   -2.235850
  C    -14.027590    7.238850   -3.359160
  N    -14.309540    6.199620   -3.750960
  C    -15.629890    9.557470   -3.988780
  N    -16.543290    9.438100   -4.669210
  C    -12.900670   12.177820   -1.199570
  C    -11.670650   12.337880   -0.553780
  C    -10.712700   11.256320   -0.484670
  N     -9.619580   11.615890    0.188810
  S     -9.774280   13.126800    0.681830
  N    -11.228990   13.431430    0.081630
  C    -13.933880   13.203140   -1.207450
  C    -15.271160   12.875370   -0.971860
  C    -15.900720   11.614920   -0.519590
  O    -15.393100   10.564710   -0.227340
  O    -17.230550   11.826490   -0.420270
  C    -17.574360   13.162080   -0.751520
  C    -16.274560   13.835110   -1.056350
  C    -15.984400   15.151570   -1.354200
  C    -14.651240   15.491900   -1.542640
  C    -13.645350   14.542060   -1.469210
  H     -1.290690    1.732410   -1.546600
  H      0.867070   -2.394750    0.683420
  H     -0.312550   -3.207990   -0.371260
  H     -1.967040   -1.832660    1.862000
  H     -3.369300    0.193950    1.879950
  H     -4.017960    6.898410    1.642150
  H     -5.167840    8.127890    2.218050
  H     -3.580450    8.360850   -0.382240
  H     -3.175510    9.176690    1.132130
  H     -4.683050    9.566780    0.297000
  H     -9.809550    3.915020   -2.685560
  H    -10.525770    5.500580   -3.050620
  H    -11.045160    3.808350   -0.548220
  H    -12.172260    4.062280   -1.886990
  H    -11.741030    5.407470   -0.830090
  H    -10.902710    7.376740   -1.883760
  H     -9.111560    9.280790   -0.274920
  H    -18.099210   13.608370    0.100020
  H    -18.251450   13.149630   -1.613220
  H    -16.764300   15.893490   -1.425480
  H    -14.391990   16.517650   -1.757130
  H    -12.618980   14.830810   -1.631230

 Total Charge           Charge          ....    0
 Multiplicity           Mult            ....    1
 Number of Electrons    NEL             ....  488
 Basis Dimension        Dim             .... 1098

ORBITAL ENERGIES
----------------

  NO   OCC          E(Eh)            E(eV)
   0   2.0000     -89.051186     -2423.2060
   1   2.0000     -89.050527     -2423.1880
   2   2.0000     -19.265333      -524.2364
   3   2.0000     -19.253995      -523.9278
   4   2.0000     -19.204334      -522.5765
   5   2.0000     -19.197006      -522.3771
   6   2.0000     -19.195556      -522.3376
   7   2.0000     -19.192253      -522.2478
   8   2.0000     -14.468976      -393.7209
   9   2.0000     -14.467109      -393.6701
  10   2.0000     -14.465518      -393.6268
  11   2.0000     -14.462166      -393.5355
  12   2.0000     -14.460655      -393.4944
  13   2.0000     -14.456856      -393.3910
  14   2.0000     -14.455593      -393.3567
  15   2.0000     -14.455439      -393.3525
  16   2.0000     -14.455209      -393.3462
  17   2.0000     -14.454491      -393.3267
  18   2.0000     -14.434968      -392.7955
  19   2.0000     -14.434737      -392.7892
  20   2.0000     -14.431185      -392.6925
  21   2.0000     -14.431045      -392.6887
  22   2.0000     -10.405790      -283.1559
  23   2.0000     -10.392415      -282.7920
  24   2.0000     -10.388166      -282.6764
  25   2.0000     -10.386132      -282.6210
  26   2.0000     -10.385056      -282.5917
  27   2.0000     -10.382551      -282.5236
  28   2.0000     -10.379094      -282.4295
  29   2.0000     -10.378503      -282.4134
  30   2.0000     -10.358814      -281.8777
  31   2.0000     -10.355184      -281.7789
  32   2.0000     -10.351982      -281.6918
  33   2.0000     -10.350822      -281.6602
  34   2.0000     -10.350225      -281.6439
  35   2.0000     -10.347995      -281.5833
  36   2.0000     -10.347984      -281.5829
  37   2.0000     -10.347704      -281.5753
  38   2.0000     -10.346782      -281.5502
  39   2.0000     -10.345616      -281.5185
  40   2.0000     -10.345571      -281.5173
  41   2.0000     -10.342645      -281.4377
  42   2.0000     -10.328441      -281.0512
  43   2.0000     -10.327672      -281.0302
  44   2.0000     -10.327616      -281.0287
  45   2.0000     -10.326274      -280.9922
  46   2.0000     -10.324466      -280.9430
  47   2.0000     -10.323902      -280.9277
  48   2.0000     -10.321947      -280.8745
  49   2.0000     -10.319851      -280.8174
  50   2.0000     -10.312604      -280.6202
  51   2.0000     -10.307987      -280.4946
  52   2.0000     -10.307456      -280.4801
  53   2.0000     -10.303718      -280.3784
  54   2.0000     -10.303564      -280.3742
  55   2.0000     -10.300239      -280.2838
  56   2.0000     -10.297911      -280.2204
  57   2.0000     -10.297741      -280.2158
  58   2.0000     -10.297260      -280.2027
  59   2.0000     -10.296912      -280.1932
  60   2.0000     -10.296342      -280.1777
  61   2.0000     -10.294842      -280.1369
  62   2.0000     -10.293087      -280.0891
  63   2.0000     -10.292649      -280.0772
  64   2.0000     -10.292046      -280.0608
  65   2.0000     -10.286689      -279.9150
  66   2.0000     -10.271307      -279.4965
  67   2.0000     -10.268557      -279.4216
  68   2.0000     -10.261152      -279.2201
  69   2.0000     -10.248106      -278.8651
  70   2.0000      -8.142158      -221.5594
  71   2.0000      -8.141704      -221.5470
  72   2.0000      -6.113012      -166.3435
  73   2.0000      -6.112637      -166.3333
  74   2.0000      -6.105521      -166.1397
  75   2.0000      -6.105165      -166.1300
  76   2.0000      -6.104911      -166.1231
  77   2.0000      -6.104745      -166.1186
  78   2.0000      -1.200474       -32.6666
  79   2.0000      -1.187612       -32.3166
  80   2.0000      -1.147702       -31.2306
  81   2.0000      -1.146283       -31.1920
  82   2.0000      -1.138727       -30.9863
  83   2.0000      -1.132062       -30.8050
  84   2.0000      -1.127244       -30.6739
  85   2.0000      -1.124251       -30.5924
  86   2.0000      -1.109706       -30.1966
  87   2.0000      -1.099242       -29.9119
  88   2.0000      -1.070400       -29.1271
  89   2.0000      -1.061698       -28.8903
  90   2.0000      -1.052496       -28.6399
  91   2.0000      -1.049962       -28.5709
  92   2.0000      -1.017825       -27.6964
  93   2.0000      -1.017192       -27.6792
  94   2.0000      -1.007668       -27.4201
  95   2.0000      -1.007444       -27.4140
  96   2.0000      -1.000905       -27.2360
  97   2.0000      -1.000380       -27.2217
  98   2.0000      -0.989548       -26.9270
  99   2.0000      -0.988981       -26.9115
 100   2.0000      -0.972506       -26.4632
 101   2.0000      -0.970601       -26.4114
 102   2.0000      -0.932366       -25.3710
 103   2.0000      -0.920921       -25.0595
 104   2.0000      -0.912988       -24.8437
 105   2.0000      -0.911599       -24.8059
 106   2.0000      -0.910833       -24.7850
 107   2.0000      -0.892686       -24.2912
 108   2.0000      -0.879844       -23.9418
 109   2.0000      -0.875662       -23.8280
 110   2.0000      -0.867512       -23.6062
 111   2.0000      -0.863299       -23.4916
 112   2.0000      -0.856776       -23.3141
 113   2.0000      -0.839371       -22.8404
 114   2.0000      -0.835548       -22.7364
 115   2.0000      -0.823012       -22.3953
 116   2.0000      -0.819133       -22.2898
 117   2.0000      -0.818021       -22.2595
 118   2.0000      -0.812624       -22.1126
 119   2.0000      -0.810703       -22.0604
 120   2.0000      -0.791013       -21.5246
 121   2.0000      -0.782363       -21.2892
 122   2.0000      -0.758471       -20.6390
 123   2.0000      -0.753007       -20.4904
 124   2.0000      -0.744401       -20.2562
 125   2.0000      -0.738558       -20.0972
 126   2.0000      -0.738274       -20.0895
 127   2.0000      -0.723520       -19.6880
 128   2.0000      -0.719592       -19.5811
 129   2.0000      -0.715503       -19.4698
 130   2.0000      -0.709442       -19.3049
 131   2.0000      -0.706310       -19.2197
 132   2.0000      -0.702970       -19.1288
 133   2.0000      -0.694602       -18.9011
 134   2.0000      -0.693096       -18.8601
 135   2.0000      -0.685261       -18.6469
 136   2.0000      -0.679440       -18.4885
 137   2.0000      -0.666628       -18.1399
 138   2.0000      -0.660903       -17.9841
 139   2.0000      -0.656093       -17.8532
 140   2.0000      -0.653979       -17.7957
 141   2.0000      -0.650853       -17.7106
 142   2.0000      -0.635552       -17.2942
 143   2.0000      -0.634777       -17.2732
 144   2.0000      -0.626611       -17.0510
 145   2.0000      -0.618966       -16.8429
 146   2.0000      -0.613905       -16.7052
 147   2.0000      -0.609892       -16.5960
 148   2.0000      -0.603929       -16.4337
 149   2.0000      -0.600458       -16.3393
 150   2.0000      -0.595697       -16.2097
 151   2.0000      -0.588451       -16.0126
 152   2.0000      -0.587461       -15.9856
 153   2.0000      -0.586490       -15.9592
 154   2.0000      -0.585997       -15.9458
 155   2.0000      -0.583532       -15.8787
 156   2.0000      -0.579821       -15.7777
 157   2.0000      -0.578157       -15.7325
 158   2.0000      -0.573248       -15.5989
 159   2.0000      -0.570264       -15.5177
 160   2.0000      -0.568376       -15.4663
 161   2.0000      -0.564275       -15.3547
 162   2.0000      -0.560412       -15.2496
 163   2.0000      -0.559218       -15.2171
 164   2.0000      -0.546285       -14.8652
 165   2.0000      -0.542145       -14.7525
 166   2.0000      -0.540370       -14.7042
 167   2.0000      -0.537925       -14.6377
 168   2.0000      -0.536229       -14.5915
 169   2.0000      -0.533129       -14.5072
 170   2.0000      -0.528017       -14.3681
 171   2.0000      -0.524176       -14.2636
 172   2.0000      -0.522758       -14.2250
 173   2.0000      -0.519398       -14.1335
 174   2.0000      -0.515767       -14.0347
 175   2.0000      -0.512965       -13.9585
 176   2.0000      -0.508200       -13.8288
 177   2.0000      -0.504398       -13.7254
 178   2.0000      -0.503738       -13.7074
 179   2.0000      -0.502522       -13.6743
 180   2.0000      -0.490490       -13.3469
 181   2.0000      -0.488628       -13.2962
 182   2.0000      -0.487916       -13.2769
 183   2.0000      -0.487507       -13.2657
 184   2.0000      -0.486491       -13.2381
 185   2.0000      -0.484561       -13.1856
 186   2.0000      -0.484371       -13.1804
 187   2.0000      -0.476889       -12.9768
 188   2.0000      -0.473588       -12.8870
 189   2.0000      -0.471757       -12.8372
 190   2.0000      -0.470358       -12.7991
 191   2.0000      -0.467982       -12.7344
 192   2.0000      -0.466157       -12.6848
 193   2.0000      -0.464276       -12.6336
 194   2.0000      -0.463427       -12.6105
 195   2.0000      -0.462384       -12.5821
 196   2.0000      -0.460067       -12.5191
 197   2.0000      -0.459321       -12.4988
 198   2.0000      -0.456176       -12.4132
 199   2.0000      -0.455353       -12.3908
 200   2.0000      -0.453976       -12.3533
 201   2.0000      -0.451602       -12.2887
 202   2.0000      -0.450157       -12.2494
 203   2.0000      -0.449648       -12.2356
 204   2.0000      -0.446778       -12.1574
 205   2.0000      -0.446247       -12.1430
 206   2.0000      -0.443263       -12.0618
 207   2.0000      -0.442536       -12.0420
 208   2.0000      -0.438230       -11.9248
 209   2.0000      -0.436359       -11.8739
 210   2.0000      -0.434901       -11.8343
 211   2.0000      -0.433574       -11.7981
 212   2.0000      -0.426023       -11.5927
 213   2.0000      -0.424308       -11.5460
 214   2.0000      -0.422503       -11.4969
 215   2.0000      -0.419588       -11.4176
 216   2.0000      -0.419045       -11.4028
 217   2.0000      -0.418473       -11.3872
 218   2.0000      -0.415160       -11.2971
 219   2.0000      -0.414872       -11.2892
 220   2.0000      -0.411736       -11.2039
 221   2.0000      -0.410321       -11.1654
 222   2.0000      -0.403411       -10.9774
 223   2.0000      -0.386439       -10.5155
 224   2.0000      -0.385725       -10.4961
 225   2.0000      -0.379690       -10.3319
 226   2.0000      -0.372713       -10.1420
 227   2.0000      -0.367860       -10.0100
 228   2.0000      -0.367471        -9.9994
 229   2.0000      -0.361608        -9.8399
 230   2.0000      -0.357690        -9.7332
 231   2.0000      -0.353228        -9.6118
 232   2.0000      -0.350140        -9.5278
 233   2.0000      -0.345614        -9.4046
 234   2.0000      -0.345037        -9.3889
 235   2.0000      -0.343545        -9.3483
 236   2.0000      -0.342000        -9.3063
 237   2.0000      -0.338485        -9.2106
 238   2.0000      -0.338183        -9.2024
 239   2.0000      -0.335039        -9.1169
 240   2.0000      -0.318903        -8.6778
 241   2.0000      -0.301477        -8.2036
 242   2.0000      -0.291855        -7.9418
 243   2.0000      -0.242299        -6.5933
 244   0.0000      -0.134952        -3.6722
 245   0.0000      -0.118784        -3.2323
 246   0.0000      -0.069327        -1.8865
 247   0.0000      -0.054925        -1.4946
 248   0.0000      -0.050342        -1.3699

MULLIKEN ATOMIC CHARGES
-----------------------
   0 C :   -0.009340
   1 C :   -0.051690
   2 C :    0.211414
   3 O :   -0.151727
   4 O :   -0.293191
   5 C :    0.333753
   6 C :   -0.085759
   7 C :   -0.036077
   8 C :    0.038779
   9 C :   -0.007978
  10 C :    0.091173
  11 C :   -0.073305
  12 C :   -0.041707
  13 N :    0.057573
  14 C :   -0.132089
  15 C :   -0.136685
  16 N :    0.052995
  17 C :   -0.196656
  18 N :    0.236274
  19 C :   -0.210016
  20 N :    0.244678
  21 C :    0.076820
  22 C :   -0.021981
  23 C :    0.011316
  24 N :   -0.283517
  25 S :    0.572666
  26 N :   -0.238029
  27 C :    0.028707
  28 N :   -0.238985
  29 C :    0.149570
  30 C :   -0.016344
  31 C :    0.162358
  32 O :   -0.192044
  33 C :   -0.069139
  34 C :   -0.020774
  35 C :    0.132945
  36 O :   -0.195984
  37 N :   -0.258977
  38 C :    0.099706
  39 C :    0.002701
  40 C :    0.156551
  41 C :    0.000071
  42 C :   -0.089863
  43 C :    0.110812
  44 C :   -0.041540
  45 C :   -0.038674
  46 N :    0.051016
  47 C :   -0.112054
  48 C :   -0.108346
  49 N :    0.032452
  50 C :   -0.215153
  51 N :    0.235084
  52 C :   -0.217870
  53 N :    0.239880
  54 C :    0.071738
  55 C :    0.009421
  56 C :   -0.005203
  57 N :   -0.255163
  58 S :    0.559019
  59 N :   -0.275851
  60 C :   -0.027071
  61 C :   -0.033907
  62 C :    0.213781
  63 O :   -0.182720
  64 O :   -0.278730
  65 C :    0.325789
  66 C :   -0.119021
  67 C :   -0.019602
  68 C :    0.036397
  69 C :    0.024820
  70 H :   -0.005496
  71 H :    0.043675
  72 H :    0.042922
  73 H :   -0.018847
  74 H :   -0.005855
  75 H :    0.009250
  76 H :    0.023988
  77 H :    0.029843
  78 H :    0.015021
  79 H :    0.037855
  80 H :    0.041563
  81 H :    0.031079
  82 H :    0.020120
  83 H :    0.035863
  84 H :    0.018016
  85 H :   -0.001175
  86 H :    0.029128
  87 H :    0.042964
  88 H :    0.052355
  89 H :   -0.014835
  90 H :   -0.001133
  91 H :   -0.013794
Sum of atomic charges:   -0.0000000

LOEWDIN ATOMIC CHARGES
----------------------
   0 C :    0.041129
   1 C :   -0.077402
   2 C :    0.082831
   3 O :   -0.149871
   4 O :   -0.091456
   5 C :    0.101706
   6 C :   -0.015237
   7 C :   -0.027043
   8 C :    0.023162
   9 C :   -0.022498
  10 C :    0.001319
  11 C :   -0.008839
  12 C :   -0.005658
  13 N :    0.002282
  14 C :   -0.024520
  15 C :   -0.028567
  16 N :    0.010245
  17 C :   -0.037157
  18 N :    0.002273
  19 C :   -0.038034
  20 N :    0.001026
  21 C :   -0.034739
  22 C :   -0.030839
  23 C :   -0.039508
  24 N :   -0.287979
  25 S :    0.711564
  26 N :   -0.259075
  27 C :    0.078120
  28 N :    0.013498
  29 C :    0.042064
  30 C :   -0.063087
  31 C :    0.082760
  32 O :   -0.182692
  33 C :   -0.114851
  34 C :   -0.100519
  35 C :    0.082069
  36 O :   -0.198504
  37 N :    0.001589
  38 C :    0.037375
  39 C :   -0.060051
  40 C :    0.083533
  41 C :   -0.022441
  42 C :    0.028843
  43 C :   -0.015126
  44 C :    0.001265
  45 C :    0.009611
  46 N :    0.013524
  47 C :   -0.021917
  48 C :   -0.019932
  49 N :    0.006399
  50 C :   -0.035321
  51 N :   -0.009370
  52 C :   -0.034283
  53 N :   -0.006077
  54 C :   -0.009619
  55 C :   -0.041235
  56 C :   -0.037871
  57 N :   -0.265244
  58 S :    0.696627
  59 N :   -0.292392
  60 C :    0.009210
  61 C :   -0.061927
  62 C :    0.086444
  63 O :   -0.174133
  64 O :   -0.077285
  65 C :    0.103758
  66 C :   -0.022644
  67 C :   -0.017883
  68 C :    0.000933
  69 C :    0.003579
  70 H :    0.036992
  71 H :    0.037233
  72 H :    0.036820
  73 H :    0.032065
  74 H :    0.031619
  75 H :    0.020544
  76 H :    0.029997
  77 H :    0.021496
  78 H :    0.027874
  79 H :    0.029982
  80 H :    0.037165
  81 H :    0.026476
  82 H :    0.028413
  83 H :    0.035879
  84 H :    0.023335
  85 H :    0.027678
  86 H :    0.042528
  87 H :    0.036895
  88 H :    0.040147
  89 H :    0.032621
  90 H :    0.035042
  91 H :    0.033288

  Mayer bond orders larger than 0.100000
B(  0-C ,  1-C ) :   1.3690 B(  0-C ,  9-C ) :   1.3395 B(  0-C , 70-H ) :   0.9963
B(  1-C ,  2-C ) :   0.8889 B(  1-C ,  6-C ) :   1.4116 B(  2-C ,  3-O ) :   2.2549
B(  2-C ,  4-O ) :   1.1101 B(  4-O ,  5-C ) :   0.9800 B(  5-C ,  6-C ) :   1.0104
B(  5-C , 71-H ) :   0.9261 B(  5-C , 72-H ) :   0.9275 B(  6-C ,  7-C ) :   1.3623
B(  7-C ,  8-C ) :   1.3921 B(  7-C , 73-H ) :   1.0078 B(  8-C ,  9-C ) :   1.3620
B(  8-C , 74-H ) :   0.9843 B(  9-C , 10-C ) :   1.0020 B( 10-C , 11-C ) :   1.3130
B( 10-C , 21-C ) :   0.1359 B( 10-C , 23-C ) :   1.2537 B( 11-C , 12-C ) :   1.0927
B( 11-C , 16-N ) :   1.4184 B( 12-C , 13-N ) :   1.4463 B( 12-C , 21-C ) :   1.2936
B( 13-N , 14-C ) :   1.7388 B( 14-C , 15-C ) :   1.1821 B( 14-C , 19-C ) :   1.1478
B( 15-C , 16-N ) :   1.7534 B( 15-C , 17-C ) :   1.1427 B( 17-C , 18-N ) :   3.0500
B( 19-C , 20-N ) :   3.0360 B( 21-C , 22-C ) :   1.2782 B( 21-C , 27-C ) :   0.9881
B( 22-C , 23-C ) :   1.0873 B( 22-C , 26-N ) :   1.5147 B( 23-C , 24-N ) :   1.4817
B( 24-N , 25-S ) :   1.3036 B( 24-N , 26-N ) :   0.1519 B( 25-S , 26-N ) :   1.3127
B( 27-C , 28-N ) :   1.2504 B( 27-C , 34-C ) :   1.4163 B( 28-N , 29-C ) :   0.9359
B( 28-N , 31-C ) :   1.0347 B( 29-C , 30-C ) :   1.1080 B( 29-C , 75-H ) :   0.9473
B( 29-C , 76-H ) :   0.9386 B( 30-C , 77-H ) :   0.9622 B( 30-C , 78-H ) :   0.9655
B( 30-C , 79-H ) :   0.9599 B( 31-C , 32-O ) :   2.0358 B( 31-C , 33-C ) :   0.9880
B( 33-C , 34-C ) :   1.2545 B( 33-C , 40-C ) :   1.3086 B( 34-C , 35-C ) :   0.9492
B( 35-C , 36-O ) :   2.1371 B( 35-C , 37-N ) :   1.0475 B( 37-N , 38-C ) :   0.9389
B( 37-N , 40-C ) :   1.1705 B( 38-C , 39-C ) :   1.1221 B( 38-C , 80-H ) :   0.9266
B( 38-C , 81-H ) :   0.9486 B( 39-C , 82-H ) :   0.9623 B( 39-C , 83-H ) :   0.9671
B( 39-C , 84-H ) :   0.9684 B( 40-C , 41-C ) :   1.1494 B( 41-C , 42-C ) :   1.5222
B( 41-C , 85-H ) :   0.9435 B( 42-C , 43-C ) :   1.2030 B( 42-C , 86-H ) :   0.9555
B( 43-C , 44-C ) :   1.2015 B( 43-C , 54-C ) :   0.1377 B( 43-C , 56-C ) :   1.1883
B( 44-C , 45-C ) :   1.1079 B( 44-C , 49-N ) :   1.4332 B( 45-C , 46-N ) :   1.4218
B( 45-C , 54-C ) :   1.3350 B( 46-N , 47-C ) :   1.7324 B( 47-C , 48-C ) :   1.1939
B( 47-C , 52-C ) :   1.1592 B( 48-C , 49-N ) :   1.7258 B( 48-C , 50-C ) :   1.1532
B( 50-C , 51-N ) :   3.0309 B( 52-C , 53-N ) :   3.0531 B( 54-C , 55-C ) :   1.2863
B( 54-C , 60-C ) :   0.9660 B( 55-C , 56-C ) :   1.0971 B( 55-C , 59-N ) :   1.4944
B( 56-C , 57-N ) :   1.5285 B( 57-N , 58-S ) :   1.3060 B( 57-N , 59-N ) :   0.1569
B( 58-S , 59-N ) :   1.2888 B( 60-C , 61-C ) :   1.3752 B( 60-C , 69-C ) :   1.4207
B( 61-C , 62-C ) :   0.8983 B( 61-C , 66-C ) :   1.4304 B( 62-C , 63-O ) :   2.1606
B( 62-C , 64-O ) :   1.1467 B( 64-O , 65-C ) :   0.9707 B( 65-C , 66-C ) :   1.0080
B( 65-C , 87-H ) :   0.9285 B( 65-C , 88-H ) :   0.9262 B( 66-C , 67-C ) :   1.3707
B( 67-C , 68-C ) :   1.3704 B( 67-C , 89-H ) :   1.0088 B( 68-C , 69-C ) :   1.3623
B( 68-C , 90-H ) :   0.9869 B( 69-C , 91-H ) :   0.9899

-----------------------------------------------------------------------------
         ABSORPTION SPECTRUM VIA TRANSITION ELECTRIC DIPOLE MOMENTS
-----------------------------------------------------------------------------
State   Energy  Wavelength   fosc         T2         TX        TY        TZ
        (cm-1)    (nm)                  (au**2)     (au)      (au)      (au)
-----------------------------------------------------------------------------
   0    8005.4   1249.2   0.482302421  19.83404   3.53588  -2.61704   0.69478
   1   11419.0    875.7   0.029142012   0.84017   0.67007  -0.60780   0.14751
   2   18669.5    535.6   0.156122996   2.75303   0.92948  -1.37125  -0.09365
   3   20323.5    492.0   0.219699104   3.55881  -1.11874   1.51865  -0.03034
   4   21501.3    465.1   0.179823251   2.75332   1.51831  -0.09150   0.66308
   5   21950.7    455.6   0.005600834   0.08400  -0.27577   0.01688  -0.08755
   6   24107.0    414.8   0.003158108   0.04313  -0.14806   0.09141  -0.11336
   7   24454.5    408.9   0.037601401   0.50620  -0.39719   0.58910  -0.03742
   8   24892.0    401.7   0.020266758   0.26804  -0.20747   0.46418  -0.09766
   9   25056.0    399.1   0.013846129   0.18193   0.30947   0.25578  -0.14397
  10   25661.7    389.7   0.039029976   0.50071   0.50664  -0.49290   0.03297
  11   26018.5    384.3   0.020208729   0.25570   0.33044  -0.18305   0.33616
  12   26302.6    380.2   0.009672767   0.12107  -0.04773   0.25638  -0.23034
  13   26337.9    379.7   0.014339470   0.17924  -0.12476   0.39574   0.08403
  14   26570.6    376.4   0.048749162   0.60401   0.76249   0.08333   0.12516
  15   26841.0    372.6   0.000869858   0.01067  -0.01958   0.09377   0.03863
  16   27390.5    365.1   0.052865345   0.63540   0.27106   0.65927   0.35677
  17   27992.8    357.2   0.080592247   0.94781  -0.51089  -0.64608  -0.51902
  18   28434.7    351.7   0.030838441   0.35704   0.15736  -0.51875  -0.25136
  19   28576.6    349.9   0.002173355   0.02504  -0.13028   0.05633  -0.06994
  20   29111.8    343.5   0.000855048   0.00967  -0.04486   0.01554  -0.08611
  21   30177.0    331.4   0.016904142   0.18441  -0.35542   0.21112   0.11626
  22   30392.1    329.0   0.209514074   2.26949   1.16545   0.77377  -0.55901
  23   30684.2    325.9   0.089973496   0.96533   0.09868   0.76812   0.60463
  24   30773.1    325.0   0.222747924   2.38297   0.92514   1.17169   0.39270
  25   31171.7    320.8   0.005263884   0.05559   0.15028   0.18151   0.00793
  26   31466.0    317.8   0.008178051   0.08556   0.27986  -0.01822   0.08311
  27   31792.4    314.5   0.142593420   1.47656  -1.10795   0.33691  -0.36809
  28   32001.3    312.5   0.036412231   0.37459   0.37865  -0.44246   0.18825
  29   32422.3    308.4   0.079202880   0.80422   0.66706   0.11611   0.58802
  30   32881.0    304.1   0.005186336   0.05193  -0.12259   0.18104   0.06419
  31   33542.3    298.1   0.023377463   0.22945  -0.03009   0.47716   0.02938
  32   33807.9    295.8   0.139958233   1.36287  -0.81554   0.83079   0.08693
  33   34786.9    287.5   0.236444117   2.23763   1.28336  -0.61263  -0.46402
  34   35039.9    285.4   0.148629539   1.39642   0.97993   0.64398  -0.14650
  35   35568.2    281.2   0.024199448   0.22399  -0.37638  -0.14223  -0.24919
  36   35862.8    278.8   0.152466650   1.39961   0.57465   0.57772   0.85769
  37   36296.1    275.5   0.004552010   0.04129   0.09636   0.13893  -0.11270
  38   36364.7    275.0   0.311830815   2.82302   0.86844   1.41787  -0.24183
  39   37024.8    270.1   0.015419926   0.13711  -0.26598  -0.25744   0.00928
  40   37269.6    268.3   0.013480199   0.11907  -0.14117  -0.06311  -0.30848
  41   37350.4    267.7   0.028083578   0.24753  -0.11904  -0.42002   0.23862
  42   37436.4    267.1   0.038953267   0.34255   0.11037  -0.53300  -0.21512
  43   37684.5    265.4   0.210705077   1.84072   0.38843   1.09093   0.70691
  44   37922.4    263.7   0.001451160   0.01260   0.06112  -0.09367   0.00942
  45   38101.9    262.5   0.014511201   0.12538  -0.15068  -0.22234  -0.23074
  46   38369.7    260.6   0.059276401   0.50859   0.15791  -0.00543   0.69543
  47   38428.5    260.2   0.328114963   2.81092   1.31124   1.01284   0.25638
  48   38694.6    258.4   0.340901194   2.90037   1.54824   0.50970  -0.49350
  49   38876.0    257.2   0.029332296   0.24839  -0.10829  -0.38987   0.29098
  50   39123.2    255.6   0.186035426   1.56544   0.59783   1.08938   0.14596
  51   39152.0    255.4   0.431393381   3.62740  -0.07316  -1.88135  -0.28735
  52   39485.0    253.3   0.008278699   0.06902   0.08418  -0.08025   0.23558
  53   39617.7    252.4   0.017277600   0.14357   0.05269   0.35332   0.12633
  54   39714.0    251.8   0.017848973   0.14796  -0.22217  -0.31157   0.03901
  55   39794.2    251.3   0.000415666   0.00344  -0.00379  -0.05656   0.01502
  56   40125.5    249.2   0.033448450   0.27443   0.21539   0.47569  -0.04191
  57   40251.2    248.4   0.018436674   0.15079   0.26293   0.28207  -0.04578

FINAL SINGLE POINT ENERGY     -3852.530214606134

DIPOLE MOMENT
-------------
                                X             Y             Z
Electronic contribution:      4.18441       2.55198      -2.63558
Nuclear contribution   :     -6.66543      -0.94774       5.61768
                        -----------------------------------------
Total Dipole Moment    :     -2.48102       1.60424       2.98210
                        -----------------------------------------
Magnitude (a.u.)       :      4.19785
Magnitude (Debye)      :     10.67009

Rotational constants in cm-1:     0.002464     0.000369     0.000337
Rotational constants in MHz :    73.862086    11.065925    10.117083

                             ****ORCA TERMINATED NORMALLY****
TOTAL RUN TIME: 0 days 0 hours 9 minutes 15 seconds 345 msec
