                         Program Version 4.2.0 -  RELEASE  -
|  1> # ORCA input file
|  2> # SCF done       -195.504990290990          0.000808989741
|  3> ! CAM-B3LYP def2-SVP def2/J RIJCOSX Grid4 TightSCF
|  4> %maxcore 5000
|  5> %tddft
|  6>     Mode sTDDFT
|  7>     Ethresh 5.0
|  8>     maxcore 5000
|  9> end
| 10>
| 11> %pal
| 12>   nprocs 6
| 13>   end
| 14> * xyz 0 1
| 15>    C        1.68906        -1.91825         1.11961
| 16>    C        1.23089        -3.00792         0.43063
| 17>    C        2.01782        -3.83378        -0.48847
| 18>    O        3.18214        -3.64183        -0.78053
| 19>    O        1.30393        -4.84617        -0.98214
| 20>    C        1.97712        -5.71196        -1.88269
| 21>    C       -0.11564        -3.39179         0.61362
| 22>    N       -1.21223        -3.68608         0.77393
| 23>    C        2.95401        -1.30042         1.15684
| 24>    C        3.21010        -0.19295         1.96915
| 25>    C        4.51553         0.25383         1.86098
| 26>    C        5.26887        -0.51792         0.94872
| 27>    S        4.37758        -1.78299         0.23960
| 28>    C        6.58441         0.01177         0.91351
| 29>    C        6.66554         1.10140         1.79631
| 30>    C        5.36551         1.29484         2.41812
| 31>    C        5.01844         2.25046         3.32697
| 32>    C        5.93842         3.21322         3.79347
| 33>    N        6.68326         3.99567         4.17711
| 34>    C        3.71482         2.33927         3.85910
| 35>    N        2.65498         2.41239         4.29010
| 36>    C        7.93639         1.67810         1.83325
| 37>    C        8.81634         1.03826         0.98303
| 38>    S        8.06658        -0.29603         0.12278
| 39>    C       10.18723         1.34444         0.76381
| 40>    C       11.04450         0.74091        -0.11192
| 41>    C       12.35299         1.27632        -0.08745
| 42>    C       13.47531         0.85640        -0.83092
| 43>    C       13.39617        -0.16645        -1.85292
| 44>    C       14.31866        -1.12724        -2.15510
| 45>    C       13.94256        -1.91930        -3.26137
| 46>    C       12.74889        -1.57275        -3.82501
| 47>    S       12.05484        -0.24046        -2.96624
| 48>    C       12.06086        -2.17385        -4.99451
| 49>   Cl       14.92182        -3.21146        -3.83906
| 50>    C       14.67743         1.49532        -0.54578
| 51>    C       14.80610         2.52864         0.41646
| 52>    C       13.68063         2.95760         1.15040
| 53>    C       12.47896         2.31635         0.86748
| 54>    S       10.96419         2.62352         1.67241
| 55>    C       13.75286         3.98990         2.16355
| 56>    C       12.82642         4.95300         2.44592
| 57>    C       13.19042         5.75806         3.54689
| 58>    C       14.37882         5.41945         4.12626
| 59>    S       15.08295         4.07845         3.28920
| 60>    C       15.05428         6.03450         5.29591
| 61>   Cl       12.20408         7.05548         4.10013
| 62>    C       16.12288         3.04212         0.46242
| 63>    C       16.98126         2.43245        -0.40825
| 64>    S       16.19323         1.18080        -1.34502
| 65>    C       18.36580         2.69693        -0.59095
| 66>    C       19.22625         2.08825        -1.48377
| 67>    C       20.52558         2.58643        -1.37837
| 68>    C       20.64938         3.58031        -0.39415
| 69>    S       19.16929         3.90374         0.39750
| 70>    C       21.99763         4.01465        -0.35538
| 71>    C       22.72913         3.29504        -1.32298
| 72>    C       21.82995         2.36428        -1.98651
| 73>    C       22.14006         1.45160        -2.94995
| 74>    C       23.45230         1.25692        -3.43453
| 75>    N       24.50840         1.05518        -3.83110
| 76>    C       21.16265         0.60502        -3.51702
| 77>    N       20.37184        -0.08254        -3.98187
| 78>    C       24.06799         3.66524        -1.38401
| 79>    C       24.38194         4.65255        -0.46303
| 80>    S       22.96542         5.12663         0.48815
| 81>    C       25.59305         5.30495        -0.13244
| 82>    C       26.84051         5.21587        -0.67642
| 83>    C       27.26563         4.47187        -1.88607
| 84>    O       26.54373         4.08287        -2.77132
| 85>    O       28.59284         4.31383        -1.89288
| 86>    C       29.13713         3.65002        -3.02375
| 87>    C       27.86961         5.95245        -0.04861
| 88>    N       28.68800         6.56169         0.47550
| 89>    H        0.95839        -1.43570         1.76208
| 90>    H        2.84205        -6.16794        -1.39642
| 91>    H        2.31792        -5.15761        -2.75957
| 92>    H        1.25294        -6.47030        -2.16649
| 93>    H        2.45786         0.24302         2.60230
| 94>    H        8.22309         2.51823         2.43996
| 95>    H       10.74091        -0.07518        -0.74150
| 96>    H       15.21854        -1.29980        -1.59501
| 97>    H       12.00517        -1.45949        -5.81587
| 98>    H       11.04416        -2.46570        -4.73494
| 99>    H       12.60920        -3.05073        -5.32909
|100>    H       11.93194         5.11778         1.87485
|101>    H       14.50411         6.91713         5.61194
|102>    H       16.07484         6.32045         5.04506
|103>    H       15.09803         5.33117         6.12753
|104>    H       16.43275         3.84487         1.10601
|105>    H       18.90448         1.32387        -2.16797
|106>    H       24.78852         3.26222        -2.07129
|107>    H       25.50946         5.97218         0.72063
|108>    H       28.66011         2.67696        -3.15898
|109>    H       30.19880         3.53560        -2.82316
|110>    H       28.97840         4.24681        -3.92432
|111> *
|112>
|113>                          ****END OF INPUT****

CARTESIAN COORDINATES (ANGSTROEM)
---------------------------------
  C      1.689060   -1.918250    1.119610
  C      1.230890   -3.007920    0.430630
  C      2.017820   -3.833780   -0.488470
  O      3.182140   -3.641830   -0.780530
  O      1.303930   -4.846170   -0.982140
  C      1.977120   -5.711960   -1.882690
  C     -0.115640   -3.391790    0.613620
  N     -1.212230   -3.686080    0.773930
  C      2.954010   -1.300420    1.156840
  C      3.210100   -0.192950    1.969150
  C      4.515530    0.253830    1.860980
  C      5.268870   -0.517920    0.948720
  S      4.377580   -1.782990    0.239600
  C      6.584410    0.011770    0.913510
  C      6.665540    1.101400    1.796310
  C      5.365510    1.294840    2.418120
  C      5.018440    2.250460    3.326970
  C      5.938420    3.213220    3.793470
  N      6.683260    3.995670    4.177110
  C      3.714820    2.339270    3.859100
  N      2.654980    2.412390    4.290100
  C      7.936390    1.678100    1.833250
  C      8.816340    1.038260    0.983030
  S      8.066580   -0.296030    0.122780
  C     10.187230    1.344440    0.763810
  C     11.044500    0.740910   -0.111920
  C     12.352990    1.276320   -0.087450
  C     13.475310    0.856400   -0.830920
  C     13.396170   -0.166450   -1.852920
  C     14.318660   -1.127240   -2.155100
  C     13.942560   -1.919300   -3.261370
  C     12.748890   -1.572750   -3.825010
  S     12.054840   -0.240460   -2.966240
  C     12.060860   -2.173850   -4.994510
  Cl    14.921820   -3.211460   -3.839060
  C     14.677430    1.495320   -0.545780
  C     14.806100    2.528640    0.416460
  C     13.680630    2.957600    1.150400
  C     12.478960    2.316350    0.867480
  S     10.964190    2.623520    1.672410
  C     13.752860    3.989900    2.163550
  C     12.826420    4.953000    2.445920
  C     13.190420    5.758060    3.546890
  C     14.378820    5.419450    4.126260
  S     15.082950    4.078450    3.289200
  C     15.054280    6.034500    5.295910
  Cl    12.204080    7.055480    4.100130
  C     16.122880    3.042120    0.462420
  C     16.981260    2.432450   -0.408250
  S     16.193230    1.180800   -1.345020
  C     18.365800    2.696930   -0.590950
  C     19.226250    2.088250   -1.483770
  C     20.525580    2.586430   -1.378370
  C     20.649380    3.580310   -0.394150
  S     19.169290    3.903740    0.397500
  C     21.997630    4.014650   -0.355380
  C     22.729130    3.295040   -1.322980
  C     21.829950    2.364280   -1.986510
  C     22.140060    1.451600   -2.949950
  C     23.452300    1.256920   -3.434530
  N     24.508400    1.055180   -3.831100
  C     21.162650    0.605020   -3.517020
  N     20.371840   -0.082540   -3.981870
  C     24.067990    3.665240   -1.384010
  C     24.381940    4.652550   -0.463030
  S     22.965420    5.126630    0.488150
  C     25.593050    5.304950   -0.132440
  C     26.840510    5.215870   -0.676420
  C     27.265630    4.471870   -1.886070
  O     26.543730    4.082870   -2.771320
  O     28.592840    4.313830   -1.892880
  C     29.137130    3.650020   -3.023750
  C     27.869610    5.952450   -0.048610
  N     28.688000    6.561690    0.475500
  H      0.958390   -1.435700    1.762080
  H      2.842050   -6.167940   -1.396420
  H      2.317920   -5.157610   -2.759570
  H      1.252940   -6.470300   -2.166490
  H      2.457860    0.243020    2.602300
  H      8.223090    2.518230    2.439960
  H     10.740910   -0.075180   -0.741500
  H     15.218540   -1.299800   -1.595010
  H     12.005170   -1.459490   -5.815870
  H     11.044160   -2.465700   -4.734940
  H     12.609200   -3.050730   -5.329090
  H     11.931940    5.117780    1.874850
  H     14.504110    6.917130    5.611940
  H     16.074840    6.320450    5.045060
  H     15.098030    5.331170    6.127530
  H     16.432750    3.844870    1.106010
  H     18.904480    1.323870   -2.167970
  H     24.788520    3.262220   -2.071290
  H     25.509460    5.972180    0.720630
  H     28.660110    2.676960   -3.158980
  H     30.198800    3.535600   -2.823160
  H     28.978400    4.246810   -3.924320

 Total Charge           Charge          ....    0
 Multiplicity           Mult            ....    1
 Number of Electrons    NEL             ....  582
 Basis Dimension        Dim             .... 1186

ORBITAL ENERGIES
----------------

  NO   OCC          E(Eh)            E(eV)
   0   2.0000    -101.588634     -2764.3673
   1   2.0000    -101.588526     -2764.3643
   2   2.0000     -88.999501     -2421.7996
   3   2.0000     -88.999264     -2421.7931
   4   2.0000     -88.997607     -2421.7480
   5   2.0000     -88.993481     -2421.6357
   6   2.0000     -88.967344     -2420.9245
   7   2.0000     -88.967158     -2420.9194
   8   2.0000     -88.967088     -2420.9175
   9   2.0000     -88.966784     -2420.9093
  10   2.0000     -19.275187      -524.5045
  11   2.0000     -19.268026      -524.3096
  12   2.0000     -19.225558      -523.1540
  13   2.0000     -19.216232      -522.9003
  14   2.0000     -14.435584      -392.8122
  15   2.0000     -14.435414      -392.8076
  16   2.0000     -14.434823      -392.7915
  17   2.0000     -14.432895      -392.7391
  18   2.0000     -14.397774      -391.7833
  19   2.0000     -14.396903      -391.7597
  20   2.0000     -10.422434      -283.6088
  21   2.0000     -10.415701      -283.4256
  22   2.0000     -10.371752      -282.2297
  23   2.0000     -10.370119      -282.1853
  24   2.0000     -10.358233      -281.8618
  25   2.0000     -10.357969      -281.8547
  26   2.0000     -10.347569      -281.5717
  27   2.0000     -10.340328      -281.3746
  28   2.0000     -10.338507      -281.3251
  29   2.0000     -10.338295      -281.3193
  30   2.0000     -10.337379      -281.2944
  31   2.0000     -10.337034      -281.2850
  32   2.0000     -10.336186      -281.2619
  33   2.0000     -10.335591      -281.2457
  34   2.0000     -10.335478      -281.2427
  35   2.0000     -10.334994      -281.2295
  36   2.0000     -10.334283      -281.2101
  37   2.0000     -10.332313      -281.1565
  38   2.0000     -10.332099      -281.1507
  39   2.0000     -10.331050      -281.1222
  40   2.0000     -10.329877      -281.0902
  41   2.0000     -10.327853      -281.0352
  42   2.0000     -10.327399      -281.0228
  43   2.0000     -10.325602      -280.9739
  44   2.0000     -10.325400      -280.9684
  45   2.0000     -10.324166      -280.9348
  46   2.0000     -10.322354      -280.8855
  47   2.0000     -10.321645      -280.8662
  48   2.0000     -10.319727      -280.8141
  49   2.0000     -10.319578      -280.8100
  50   2.0000     -10.316391      -280.7233
  51   2.0000     -10.316308      -280.7210
  52   2.0000     -10.316081      -280.7148
  53   2.0000     -10.315117      -280.6886
  54   2.0000     -10.313966      -280.6573
  55   2.0000     -10.312094      -280.6063
  56   2.0000     -10.311851      -280.5997
  57   2.0000     -10.311435      -280.5884
  58   2.0000     -10.311255      -280.5835
  59   2.0000     -10.310794      -280.5710
  60   2.0000     -10.309849      -280.5453
  61   2.0000     -10.309182      -280.5271
  62   2.0000     -10.308298      -280.5030
  63   2.0000     -10.308230      -280.5012
  64   2.0000     -10.303186      -280.3639
  65   2.0000     -10.302919      -280.3567
  66   2.0000     -10.300142      -280.2811
  67   2.0000     -10.299200      -280.2555
  68   2.0000     -10.293024      -280.0874
  69   2.0000     -10.292535      -280.0741
  70   2.0000     -10.287916      -279.9484
  71   2.0000     -10.287774      -279.9446
  72   2.0000     -10.283434      -279.8265
  73   2.0000     -10.283120      -279.8179
  74   2.0000      -9.543371      -259.6883
  75   2.0000      -9.543267      -259.6855
  76   2.0000      -8.094340      -220.2582
  77   2.0000      -8.093792      -220.2433
  78   2.0000      -8.092197      -220.1999
  79   2.0000      -8.086034      -220.0322
  80   2.0000      -8.062799      -219.3999
  81   2.0000      -8.062460      -219.3907
  82   2.0000      -8.062434      -219.3900
  83   2.0000      -8.062209      -219.3839
  84   2.0000      -7.313661      -199.0148
  85   2.0000      -7.313553      -199.0119
  86   2.0000      -7.303419      -198.7361
  87   2.0000      -7.303330      -198.7337
  88   2.0000      -7.303314      -198.7333
  89   2.0000      -7.303230      -198.7310
  90   2.0000      -6.063427      -164.9942
  91   2.0000      -6.063105      -164.9855
  92   2.0000      -6.061454      -164.9405
  93   2.0000      -6.059360      -164.8836
  94   2.0000      -6.058901      -164.8711
  95   2.0000      -6.057277      -164.8269
  96   2.0000      -6.056877      -164.8160
  97   2.0000      -6.056054      -164.7936
  98   2.0000      -6.055440      -164.7769
  99   2.0000      -6.054507      -164.7515
 100   2.0000      -6.050678      -164.6473
 101   2.0000      -6.048589      -164.5905
 102   2.0000      -6.032207      -164.1447
 103   2.0000      -6.032116      -164.1422
 104   2.0000      -6.031956      -164.1379
 105   2.0000      -6.031754      -164.1324
 106   2.0000      -6.027973      -164.0295
 107   2.0000      -6.027950      -164.0289
 108   2.0000      -6.027728      -164.0228
 109   2.0000      -6.027575      -164.0187
 110   2.0000      -6.024856      -163.9447
 111   2.0000      -6.024491      -163.9347
 112   2.0000      -6.023678      -163.9126
 113   2.0000      -6.023421      -163.9056
 114   2.0000      -1.210846       -32.9488
 115   2.0000      -1.202817       -32.7303
 116   2.0000      -1.116821       -30.3902
 117   2.0000      -1.108692       -30.1690
 118   2.0000      -1.053646       -28.6712
 119   2.0000      -1.051418       -28.6105
 120   2.0000      -1.028140       -27.9771
 121   2.0000      -1.027074       -27.9481
 122   2.0000      -1.025570       -27.9072
 123   2.0000      -1.013111       -27.5682
 124   2.0000      -1.012300       -27.5461
 125   2.0000      -1.010506       -27.4973
 126   2.0000      -1.009879       -27.4802
 127   2.0000      -1.008284       -27.4368
 128   2.0000      -1.001676       -27.2570
 129   2.0000      -0.991721       -26.9861
 130   2.0000      -0.986587       -26.8464
 131   2.0000      -0.985378       -26.8135
 132   2.0000      -0.968114       -26.3437
 133   2.0000      -0.964270       -26.2391
 134   2.0000      -0.951953       -25.9040
 135   2.0000      -0.947968       -25.7955
 136   2.0000      -0.935885       -25.4667
 137   2.0000      -0.933825       -25.4107
 138   2.0000      -0.926626       -25.2148
 139   2.0000      -0.912038       -24.8178
 140   2.0000      -0.909332       -24.7442
 141   2.0000      -0.904248       -24.6058
 142   2.0000      -0.878972       -23.9180
 143   2.0000      -0.877375       -23.8746
 144   2.0000      -0.870250       -23.6807
 145   2.0000      -0.866209       -23.5707
 146   2.0000      -0.864119       -23.5139
 147   2.0000      -0.859758       -23.3952
 148   2.0000      -0.857414       -23.3314
 149   2.0000      -0.852427       -23.1957
 150   2.0000      -0.846816       -23.0430
 151   2.0000      -0.835676       -22.7399
 152   2.0000      -0.817588       -22.2477
 153   2.0000      -0.816876       -22.2283
 154   2.0000      -0.814893       -22.1744
 155   2.0000      -0.809871       -22.0377
 156   2.0000      -0.799016       -21.7423
 157   2.0000      -0.793251       -21.5855
 158   2.0000      -0.784123       -21.3371
 159   2.0000      -0.782039       -21.2804
 160   2.0000      -0.772024       -21.0078
 161   2.0000      -0.754512       -20.5313
 162   2.0000      -0.753276       -20.4977
 163   2.0000      -0.728950       -19.8357
 164   2.0000      -0.710547       -19.3350
 165   2.0000      -0.707300       -19.2466
 166   2.0000      -0.704668       -19.1750
 167   2.0000      -0.701651       -19.0929
 168   2.0000      -0.694651       -18.9024
 169   2.0000      -0.689709       -18.7679
 170   2.0000      -0.687080       -18.6964
 171   2.0000      -0.678044       -18.4505
 172   2.0000      -0.675140       -18.3715
 173   2.0000      -0.662123       -18.0173
 174   2.0000      -0.654404       -17.8072
 175   2.0000      -0.652075       -17.7439
 176   2.0000      -0.646701       -17.5976
 177   2.0000      -0.645352       -17.5609
 178   2.0000      -0.642429       -17.4814
 179   2.0000      -0.639451       -17.4004
 180   2.0000      -0.635011       -17.2795
 181   2.0000      -0.630786       -17.1646
 182   2.0000      -0.625974       -17.0336
 183   2.0000      -0.625512       -17.0211
 184   2.0000      -0.621570       -16.9138
 185   2.0000      -0.614600       -16.7241
 186   2.0000      -0.613255       -16.6875
 187   2.0000      -0.602358       -16.3910
 188   2.0000      -0.594193       -16.1688
 189   2.0000      -0.589809       -16.0495
 190   2.0000      -0.589268       -16.0348
 191   2.0000      -0.586854       -15.9691
 192   2.0000      -0.585514       -15.9327
 193   2.0000      -0.577965       -15.7272
 194   2.0000      -0.572173       -15.5696
 195   2.0000      -0.566973       -15.4281
 196   2.0000      -0.558269       -15.1913
 197   2.0000      -0.555575       -15.1180
 198   2.0000      -0.554171       -15.0797
 199   2.0000      -0.553734       -15.0679
 200   2.0000      -0.550390       -14.9769
 201   2.0000      -0.543729       -14.7956
 202   2.0000      -0.534164       -14.5353
 203   2.0000      -0.532945       -14.5022
 204   2.0000      -0.531521       -14.4634
 205   2.0000      -0.527674       -14.3587
 206   2.0000      -0.526924       -14.3383
 207   2.0000      -0.523512       -14.2455
 208   2.0000      -0.523259       -14.2386
 209   2.0000      -0.520066       -14.1517
 210   2.0000      -0.514856       -14.0100
 211   2.0000      -0.513421       -13.9709
 212   2.0000      -0.512794       -13.9538
 213   2.0000      -0.511361       -13.9148
 214   2.0000      -0.511001       -13.9050
 215   2.0000      -0.509052       -13.8520
 216   2.0000      -0.506157       -13.7732
 217   2.0000      -0.504009       -13.7148
 218   2.0000      -0.502430       -13.6718
 219   2.0000      -0.500250       -13.6125
 220   2.0000      -0.499767       -13.5994
 221   2.0000      -0.494905       -13.4671
 222   2.0000      -0.494265       -13.4496
 223   2.0000      -0.491769       -13.3817
 224   2.0000      -0.489564       -13.3217
 225   2.0000      -0.488582       -13.2950
 226   2.0000      -0.485249       -13.2043
 227   2.0000      -0.481756       -13.1092
 228   2.0000      -0.479199       -13.0397
 229   2.0000      -0.476443       -12.9647
 230   2.0000      -0.473795       -12.8926
 231   2.0000      -0.473015       -12.8714
 232   2.0000      -0.470188       -12.7945
 233   2.0000      -0.468704       -12.7541
 234   2.0000      -0.465838       -12.6761
 235   2.0000      -0.465178       -12.6582
 236   2.0000      -0.462366       -12.5816
 237   2.0000      -0.460355       -12.5269
 238   2.0000      -0.458672       -12.4811
 239   2.0000      -0.457163       -12.4400
 240   2.0000      -0.452556       -12.3147
 241   2.0000      -0.451306       -12.2807
 242   2.0000      -0.450826       -12.2676
 243   2.0000      -0.450529       -12.2595
 244   2.0000      -0.447740       -12.1836
 245   2.0000      -0.445161       -12.1134
 246   2.0000      -0.444822       -12.1042
 247   2.0000      -0.444307       -12.0902
 248   2.0000      -0.443811       -12.0767
 249   2.0000      -0.442764       -12.0482
 250   2.0000      -0.440694       -11.9919
 251   2.0000      -0.438519       -11.9327
 252   2.0000      -0.435644       -11.8545
 253   2.0000      -0.432355       -11.7650
 254   2.0000      -0.430806       -11.7228
 255   2.0000      -0.430546       -11.7158
 256   2.0000      -0.428771       -11.6674
 257   2.0000      -0.427815       -11.6414
 258   2.0000      -0.427579       -11.6350
 259   2.0000      -0.426098       -11.5947
 260   2.0000      -0.424973       -11.5641
 261   2.0000      -0.422172       -11.4879
 262   2.0000      -0.415017       -11.2932
 263   2.0000      -0.413935       -11.2637
 264   2.0000      -0.411763       -11.2046
 265   2.0000      -0.409755       -11.1500
 266   2.0000      -0.404950       -11.0192
 267   2.0000      -0.398498       -10.8437
 268   2.0000      -0.394971       -10.7477
 269   2.0000      -0.389391       -10.5959
 270   2.0000      -0.388852       -10.5812
 271   2.0000      -0.384627       -10.4662
 272   2.0000      -0.383831       -10.4446
 273   2.0000      -0.382966       -10.4210
 274   2.0000      -0.365376        -9.9424
 275   2.0000      -0.364526        -9.9192
 276   2.0000      -0.361584        -9.8392
 277   2.0000      -0.357225        -9.7206
 278   2.0000      -0.354244        -9.6395
 279   2.0000      -0.349543        -9.5116
 280   2.0000      -0.335520        -9.1300
 281   2.0000      -0.329372        -8.9627
 282   2.0000      -0.326268        -8.8782
 283   2.0000      -0.325301        -8.8519
 284   2.0000      -0.323037        -8.7903
 285   2.0000      -0.311949        -8.4886
 286   2.0000      -0.308370        -8.3912
 287   2.0000      -0.302298        -8.2260
 288   2.0000      -0.273681        -7.4472
 289   2.0000      -0.270378        -7.3574
 290   2.0000      -0.247910        -6.7460
 291   0.0000      -0.115206        -3.1349
 292   0.0000      -0.111427        -3.0321
 293   0.0000      -0.077981        -2.1220
 294   0.0000      -0.069682        -1.8961
 295   0.0000      -0.053814        -1.4643

MULLIKEN ATOMIC CHARGES
-----------------------
   0 C :    0.051324
   1 C :   -0.220696
   2 C :    0.242367
   3 O :   -0.249734
   4 O :   -0.277059
   5 C :    0.189720
   6 C :   -0.122089
   7 N :    0.100215
   8 C :   -0.062467
   9 C :   -0.041405
  10 C :    0.027625
  11 C :   -0.066684
  12 S :    0.241609
  13 C :   -0.103418
  14 C :    0.021961
  15 C :    0.303612
  16 C :   -0.294542
  17 C :   -0.190384
  18 N :    0.176160
  19 C :   -0.190195
  20 N :    0.176690
  21 C :   -0.063903
  22 C :   -0.039990
  23 S :    0.196221
  24 C :   -0.011746
  25 C :   -0.094407
  26 C :    0.087301
  27 C :    0.146201
  28 C :   -0.214604
  29 C :    0.034764
  30 C :    0.086581
  31 C :   -0.265950
  32 S :    0.133726
  33 C :    0.123804
  34 Cl:   -0.081134
  35 C :   -0.137942
  36 C :    0.087928
  37 C :    0.146131
  38 C :   -0.138453
  39 S :    0.123896
  40 C :   -0.213218
  41 C :    0.034263
  42 C :    0.086270
  43 C :   -0.265491
  44 S :    0.131993
  45 C :    0.123581
  46 Cl:   -0.080552
  47 C :   -0.094244
  48 C :   -0.012068
  49 S :    0.123095
  50 C :   -0.039098
  51 C :   -0.064295
  52 C :    0.022677
  53 C :   -0.101423
  54 S :    0.192935
  55 C :   -0.084606
  56 C :   -0.011124
  57 C :    0.307484
  58 C :   -0.295906
  59 C :   -0.187524
  60 N :    0.190967
  61 C :   -0.194681
  62 N :    0.178421
  63 C :    0.006550
  64 C :   -0.120621
  65 S :    0.192758
  66 C :    0.110657
  67 C :   -0.184272
  68 C :    0.217923
  69 O :   -0.211660
  70 O :   -0.280741
  71 C :    0.184328
  72 C :   -0.132077
  73 N :    0.089230
  74 H :    0.030213
  75 H :    0.034670
  76 H :    0.034271
  77 H :    0.046348
  78 H :    0.015266
  79 H :    0.018361
  80 H :   -0.007231
  81 H :   -0.005015
  82 H :    0.041148
  83 H :    0.030296
  84 H :    0.027655
  85 H :   -0.004549
  86 H :    0.028052
  87 H :    0.029665
  88 H :    0.041221
  89 H :   -0.008327
  90 H :    0.019264
  91 H :    0.037268
  92 H :    0.019165
  93 H :    0.041282
  94 H :    0.043796
  95 H :    0.036615
Sum of atomic charges:   -0.0000000

LOEWDIN ATOMIC CHARGES
----------------------
   0 C :    0.059593
   1 C :   -0.146583
   2 C :    0.099403
   3 O :   -0.205513
   4 O :   -0.067667
   5 C :    0.085752
   6 C :   -0.038710
   7 N :   -0.061043
   8 C :   -0.191322
   9 C :    0.005282
  10 C :   -0.080232
  11 C :   -0.169974
  12 S :    0.547363
  13 C :   -0.184721
  14 C :   -0.057756
  15 C :    0.079900
  16 C :   -0.101203
  17 C :   -0.017949
  18 N :   -0.029077
  19 C :   -0.017255
  20 N :   -0.030183
  21 C :   -0.034590
  22 C :   -0.167575
  23 S :    0.487437
  24 C :   -0.170420
  25 C :   -0.066509
  26 C :   -0.039793
  27 C :   -0.052665
  28 C :   -0.175011
  29 C :   -0.073225
  30 C :   -0.176283
  31 C :   -0.196240
  32 S :    0.445097
  33 C :   -0.060884
  34 Cl:    0.134516
  35 C :   -0.140355
  36 C :   -0.039644
  37 C :   -0.052606
  38 C :   -0.140305
  39 S :    0.429474
  40 C :   -0.174852
  41 C :   -0.073002
  42 C :   -0.176134
  43 C :   -0.196386
  44 S :    0.443928
  45 C :   -0.060875
  46 Cl:    0.134937
  47 C :   -0.066526
  48 C :   -0.170445
  49 S :    0.430218
  50 C :   -0.167735
  51 C :   -0.034247
  52 C :   -0.056326
  53 C :   -0.187630
  54 S :    0.483768
  55 C :   -0.164715
  56 C :   -0.074287
  57 C :    0.076673
  58 C :   -0.092703
  59 C :   -0.021146
  60 N :   -0.017541
  61 C :   -0.016523
  62 N :   -0.027818
  63 C :    0.012027
  64 C :   -0.182194
  65 S :    0.484929
  66 C :    0.040116
  67 C :   -0.125009
  68 C :    0.096750
  69 O :   -0.166268
  70 O :   -0.071704
  71 C :    0.084619
  72 C :   -0.038415
  73 N :   -0.063345
  74 H :    0.060711
  75 H :    0.024853
  76 H :    0.024821
  77 H :    0.031617
  78 H :    0.043733
  79 H :    0.038899
  80 H :    0.013170
  81 H :    0.027303
  82 H :    0.041563
  83 H :    0.037713
  84 H :    0.035376
  85 H :    0.027689
  86 H :    0.035543
  87 H :    0.037453
  88 H :    0.041553
  89 H :    0.012598
  90 H :    0.038926
  91 H :    0.043615
  92 H :    0.048748
  93 H :    0.027094
  94 H :    0.030239
  95 H :    0.026121

  Mayer bond orders larger than 0.100000
B(  0-C ,  1-C ) :   1.6420 B(  0-C ,  8-C ) :   1.2212 B(  0-C , 74-H ) :   0.9598
B(  1-C ,  2-C ) :   0.9885 B(  1-C ,  6-C ) :   1.0638 B(  2-C ,  3-O ) :   1.9593
B(  2-C ,  4-O ) :   1.2804 B(  4-O ,  5-C ) :   0.9148 B(  5-C , 75-H ) :   0.9761
B(  5-C , 76-H ) :   0.9763 B(  5-C , 77-H ) :   0.9811 B(  6-C ,  7-N ) :   3.0357
B(  8-C ,  9-C ) :   1.3528 B(  8-C , 12-S ) :   1.0825 B(  9-C , 10-C ) :   1.3302
B(  9-C , 78-H ) :   1.0050 B( 10-C , 11-C ) :   1.3750 B( 10-C , 15-C ) :   0.9887
B( 11-C , 12-S ) :   1.1257 B( 11-C , 13-C ) :   1.1902 B( 13-C , 14-C ) :   1.4431
B( 13-C , 23-S ) :   1.1176 B( 14-C , 15-C ) :   0.9960 B( 14-C , 21-C ) :   1.2871
B( 15-C , 16-C ) :   1.7157 B( 16-C , 17-C ) :   1.1321 B( 16-C , 19-C ) :   1.1340
B( 17-C , 18-N ) :   2.9927 B( 19-C , 20-N ) :   2.9922 B( 21-C , 22-C ) :   1.4597
B( 21-C , 79-H ) :   0.9921 B( 22-C , 23-S ) :   1.1151 B( 22-C , 24-C ) :   1.1542
B( 24-C , 25-C ) :   1.5670 B( 24-C , 39-S ) :   1.0706 B( 25-C , 26-C ) :   1.1878
B( 25-C , 80-H ) :   0.9699 B( 26-C , 27-C ) :   1.2935 B( 26-C , 38-C ) :   1.2699
B( 27-C , 28-C ) :   0.9899 B( 27-C , 35-C ) :   1.4202 B( 28-C , 29-C ) :   1.5499
B( 28-C , 32-S ) :   1.1269 B( 29-C , 30-C ) :   1.2218 B( 29-C , 81-H ) :   0.9945
B( 30-C , 31-C ) :   1.6047 B( 30-C , 34-Cl) :   1.0127 B( 31-C , 32-S ) :   1.1279
B( 31-C , 33-C ) :   1.0827 B( 33-C , 82-H ) :   0.9487 B( 33-C , 83-H ) :   0.9475
B( 33-C , 84-H ) :   0.9434 B( 35-C , 36-C ) :   1.2699 B( 35-C , 49-S ) :   1.0569
B( 36-C , 37-C ) :   1.2943 B( 36-C , 47-C ) :   1.1884 B( 37-C , 38-C ) :   1.4188
B( 37-C , 40-C ) :   0.9892 B( 38-C , 39-S ) :   1.0572 B( 40-C , 41-C ) :   1.5508
B( 40-C , 44-S ) :   1.1266 B( 41-C , 42-C ) :   1.2217 B( 41-C , 85-H ) :   0.9948
B( 42-C , 43-C ) :   1.6051 B( 42-C , 46-Cl) :   1.0134 B( 43-C , 44-S ) :   1.1273
B( 43-C , 45-C ) :   1.0827 B( 45-C , 86-H ) :   0.9434 B( 45-C , 87-H ) :   0.9476
B( 45-C , 88-H ) :   0.9488 B( 47-C , 48-C ) :   1.5665 B( 47-C , 89-H ) :   0.9694
B( 48-C , 49-S ) :   1.0711 B( 48-C , 50-C ) :   1.1556 B( 50-C , 51-C ) :   1.4578
B( 50-C , 54-S ) :   1.1146 B( 51-C , 52-C ) :   1.2899 B( 51-C , 90-H ) :   0.9915
B( 52-C , 53-C ) :   1.4479 B( 52-C , 57-C ) :   0.9929 B( 53-C , 54-S ) :   1.1124
B( 53-C , 55-C ) :   1.1901 B( 55-C , 56-C ) :   1.4012 B( 55-C , 65-S ) :   1.1593
B( 56-C , 57-C ) :   0.9970 B( 56-C , 63-C ) :   1.3116 B( 57-C , 58-C ) :   1.7172
B( 58-C , 59-C ) :   1.1350 B( 58-C , 61-C ) :   1.1362 B( 59-C , 60-N ) :   2.9948
B( 61-C , 62-N ) :   2.9915 B( 63-C , 64-C ) :   1.4278 B( 63-C , 91-H ) :   0.9716
B( 64-C , 65-S ) :   1.0768 B( 64-C , 66-C ) :   1.1653 B( 66-C , 67-C ) :   1.7372
B( 66-C , 92-H ) :   0.9349 B( 67-C , 68-C ) :   0.9327 B( 67-C , 72-C ) :   1.0673
B( 68-C , 69-O ) :   2.0254 B( 68-C , 70-O ) :   1.2595 B( 70-O , 71-C ) :   0.9150
B( 71-C , 93-H ) :   0.9741 B( 71-C , 94-H ) :   0.9806 B( 71-C , 95-H ) :   0.9778
B( 72-C , 73-N ) :   3.0318

-----------------------------------------------------------------------------
         ABSORPTION SPECTRUM VIA TRANSITION ELECTRIC DIPOLE MOMENTS
-----------------------------------------------------------------------------
State   Energy  Wavelength   fosc         T2         TX        TY        TZ
        (cm-1)    (nm)                  (au**2)     (au)      (au)      (au)
-----------------------------------------------------------------------------
   0   13452.5    743.4   0.461490849  11.29372   3.24351   0.81923  -0.31974
   1   13962.1    716.2   0.025086961   0.59153   0.68709   0.34328  -0.03993
   2   19108.3    523.3   0.092289334   1.59003   1.05126  -0.24874  -0.65039
   3   19839.1    504.1   0.010924679   0.18129   0.36894  -0.07257  -0.19975
   4   22660.0    441.3   2.540450587  36.90853  -5.86216  -1.41010   0.74513
   5   24458.0    408.9   0.100681379   1.35520   0.81302  -0.38430  -0.73927
   6   24801.1    403.2   0.020250322   0.26880  -0.02826  -0.33375  -0.39575
   7   25585.7    390.8   0.044501756   0.57261   0.48160  -0.48804  -0.32014
   8   27180.5    367.9   0.754602662   9.13981  -2.00747  -1.91961  -1.19374
   9   27850.6    359.1   0.032696387   0.38649   0.60799   0.04805  -0.12056
  10   28206.9    354.5   0.007756740   0.09053  -0.04860  -0.18318  -0.23369
  11   28968.6    345.2   0.368599960   4.18893  -0.46884  -1.48695  -1.32594
  12   29634.7    337.4   0.003484527   0.03871  -0.11349  -0.15883  -0.02454
  13   29813.4    335.4   0.042509766   0.46941  -0.53934   0.20709   0.36829
  14   30290.7    330.1   0.000780774   0.00849   0.02488   0.08405  -0.02833
  15   30889.4    323.7   0.045584659   0.48583  -0.23143  -0.48416  -0.44482
  16   31096.3    321.6   0.102973405   1.09016  -0.81055  -0.57774  -0.31526
  17   31257.1    319.9   0.677535766   7.13606  -1.39656   1.56416   1.65502
  18   31904.2    313.4   0.054046644   0.55769   0.16874  -0.59858  -0.41343
  19   32263.9    309.9   0.433512832   4.42345   0.91108   1.46830   1.19895
  20   32506.8    307.6   0.395113270   4.00150  -1.07789  -1.36099  -0.99366
  21   32617.7    306.6   0.208155005   2.10092   1.36286   0.47342  -0.13931
  22   33128.7    301.9   0.034169488   0.33955  -0.26788   0.35631   0.37528
  23   33260.3    300.7   0.025565294   0.25305  -0.30613   0.29741   0.26623
  24   33417.4    299.2   0.011762227   0.11588  -0.21612   0.19688   0.17438
  25   33757.6    296.2   0.403406986   3.93412  -1.81360   0.06099   0.80077
  26   34444.2    290.3   0.000062640   0.00060   0.01708  -0.00065   0.01750
  27   34578.0    289.2   0.001619196   0.01542   0.09025   0.07906   0.03195
  28   35019.7    285.6   0.006572596   0.06179   0.01242  -0.19127  -0.15827
  29   35386.3    282.6   0.056497802   0.52562   0.08759   0.57341   0.43491
  30   35524.5    281.5   0.011882763   0.11012  -0.29628  -0.13335  -0.06749
  31   35621.8    280.7   0.009297714   0.08593  -0.23584  -0.12396   0.12225
  32   36137.8    276.7   0.154899681   1.41112  -0.51959  -0.80566  -0.70147
  33   36177.3    276.4   0.114336998   1.04046  -0.51902  -0.67039  -0.56715
  34   36256.8    275.8   0.011523892   0.10464  -0.32068  -0.04053  -0.01251
  35   36386.9    274.8   0.107406559   0.97177   0.28442   0.73354   0.59396
  36   37378.7    267.5   0.104265670   0.91832   0.39703  -0.63397  -0.59898
  37   37618.5    265.8   0.014556233   0.12739  -0.03644  -0.28394  -0.21316
  38   37886.4    263.9   0.003510805   0.03051   0.08838   0.13118   0.07407
  39   37972.4    263.3   0.062695021   0.54355  -0.03794  -0.57500  -0.45988
  40   38777.2    257.9   0.032753053   0.27807   0.22306  -0.14359  -0.45573
  41   39216.3    255.0   0.008977534   0.07536   0.11887   0.22234   0.10863
  42   39533.3    253.0   0.006366887   0.05302   0.21571   0.08055  -0.00020
  43   39668.0    252.1   0.000792222   0.00657  -0.01665   0.05380   0.05833
  44   39876.1    250.8   0.011282602   0.09315   0.17005  -0.16271  -0.19431
  45   39952.9    250.3   0.006795089   0.05599   0.16806   0.01120   0.16620
  46   40130.5    249.2   0.025360900   0.20805   0.18944  -0.36475  -0.19778
  47   40296.5    248.2   0.007524343   0.06147  -0.09630   0.10403   0.20341

FINAL SINGLE POINT ENERGY     -6801.577900726239

DIPOLE MOMENT
-------------
                                X             Y             Z
Electronic contribution:     -7.90231      11.09534      10.83314
Nuclear contribution   :      8.19077     -11.73225     -11.42822
                        -----------------------------------------
Total Dipole Moment    :      0.28846      -0.63691      -0.59508
                        -----------------------------------------
Magnitude (a.u.)       :      0.91814
Magnitude (Debye)      :      2.33373

Rotational constants in cm-1:     0.001428     0.000218     0.000190
Rotational constants in MHz :    42.811867     6.522248     5.696395

                             ****ORCA TERMINATED NORMALLY****
TOTAL RUN TIME: 0 days 0 hours 9 minutes 5 seconds 833 msec
