                         Program Version 4.2.0 -  RELEASE  -
|  1> # ORCA input file
|  2> # SCF done       -213.463605429744          0.000967333233
|  3> ! CAM-B3LYP def2-SVP def2/J RIJCOSX Grid4 TightSCF
|  4> %maxcore 5000
|  5> %tddft
|  6>     Mode sTDDFT
|  7>     Ethresh 5.0
|  8>     maxcore 5000
|  9> end
| 10>
| 11> %pal
| 12>   nprocs 6
| 13>   end
| 14> * xyz 0 1
| 15>    C       -0.16390        -0.74100        -0.27552
| 16>    C       -1.27159        -0.96211         0.49988
| 17>    C       -1.69736        -0.09641         1.53081
| 18>    N       -2.09161         0.56999         2.37689
| 19>    C       -2.17412        -2.02554         0.30237
| 20>    N       -2.94921        -2.86122         0.16453
| 21>    C        0.63608         0.48302        -0.25170
| 22>    C        1.34029         0.59178        -1.46499
| 23>    C        2.14836         1.67679        -1.73813
| 24>    C        2.26752         2.66939        -0.77299
| 25>    C        1.58473         2.55805         0.44477
| 26>    C        0.76257         1.46834         0.71225
| 27>   Cl        1.75930         3.78163         1.63434
| 28>   Cl        3.26177         4.03497        -1.07565
| 29>    C        1.07650        -0.60099        -2.29592
| 30>    O        1.46499        -0.83321        -3.41573
| 31>    C        0.26223        -1.50249        -1.43145
| 32>    C        0.13102        -2.80825        -1.80017
| 33>    C       -0.25175        -3.91883        -1.01987
| 34>    C       -0.27366        -4.05215         0.36191
| 35>    C       -0.70138        -5.30990         0.76178
| 36>    C       -1.00161        -6.16039        -0.32342
| 37>    S       -0.73481        -5.40951        -1.82549
| 38>    C       -1.46365        -7.39515         0.19419
| 39>    C       -1.46504        -7.32351         1.59924
| 40>    C       -0.99019        -6.00849         2.00124
| 41>    C       -0.87689        -5.51248         3.26638
| 42>    C       -1.19998        -6.28082         4.40455
| 43>    N       -1.45709        -6.91543         5.32386
| 44>    C       -0.42948        -4.19433         3.49883
| 45>    N       -0.06021        -3.12204         3.66707
| 46>    C       -1.92868        -8.48985         2.20275
| 47>    C       -2.27603        -9.45126         1.26885
| 48>    S       -2.02454        -8.90347        -0.38050
| 49>    C       -2.80092       -10.74329         1.52195
| 50>    C       -3.11918       -11.72361         0.59872
| 51>    C       -3.64092       -12.86300         1.20911
| 52>    C       -3.72165       -12.74544         2.60807
| 53>    S       -3.14738       -11.24070         3.17232
| 54>    C       -4.28603       -13.93565         3.13035
| 55>    C       -4.56020       -14.80877         2.06247
| 56>    C       -4.15642       -14.16701         0.82067
| 57>    C       -4.24293       -14.67915        -0.43978
| 58>    C       -4.76538       -15.96622        -0.68943
| 59>    N       -5.19055       -17.01205        -0.88816
| 60>    C       -3.81300       -13.95502        -1.57228
| 61>    N       -3.46193       -13.36441        -2.48986
| 62>    C       -5.14351       -16.00491         2.47661
| 63>    C       -5.31787       -16.04638         3.84880
| 64>    S       -4.74159       -14.58593         4.64074
| 65>    C       -5.90544       -17.08237         4.61667
| 66>    C       -6.10212       -17.10060         5.98752
| 67>    C       -6.74202       -18.26467         6.40539
| 68>    C       -7.03095       -19.14168         5.34414
| 69>    S       -6.51114       -18.53190         3.83329
| 70>    C       -7.69432       -20.27779         5.86272
| 71>    C       -7.83315       -20.11704         7.26137
| 72>    C       -7.21959       -18.85720         7.64707
| 73>    C       -7.09291       -18.33991         8.90156
| 74>    C       -7.54339       -19.00999        10.06057
| 75>    N       -7.87613       -19.54263        11.01922
| 76>    C       -6.47073       -17.09320         9.12939
| 77>    N       -5.96552       -16.07983         9.30925
| 78>    C       -8.51522       -21.16256         7.86632
| 79>    C       -8.90121       -22.13578         6.95182
| 80>    S       -8.37415       -21.73169         5.30906
| 81>    C       -9.57252       -23.36471         7.09979
| 82>    C      -10.28536       -23.86569         8.15565
| 83>    C      -10.85336       -25.20378         8.19090
| 84>    C      -10.55354       -26.24832         7.35673
| 85>    C      -11.13534       -27.53094         7.45721
| 86>    N      -11.57347       -28.59134         7.47750
| 87>    C       -9.60891       -26.21934         6.30802
| 88>    N       -8.84454       -26.28463         5.45346
| 89>    C      -11.75318       -25.27357         9.33837
| 90>    C      -11.69314       -24.05452        10.03383
| 91>    C      -10.76338       -23.13060         9.35177
| 92>    O      -10.50996       -21.99726         9.69542
| 93>    C      -12.43371       -23.82721        11.17577
| 94>    C      -13.26013       -24.84418        11.63691
| 95>    C      -13.33124       -26.06111        10.94764
| 96>    C      -12.58078       -26.28519         9.79856
| 97>   Cl      -14.36312       -27.30634        11.52266
| 98>   Cl      -14.19724       -24.60519        13.05422
| 99>    H        2.67303         1.75022        -2.67754
|100>    H        0.25661         1.40871         1.66217
|101>    H        0.42652        -3.02055        -2.82340
|102>    H        0.05215        -3.27626         1.03010
|103>    H       -2.01651        -8.64723         3.26288
|104>    H       -2.97484       -11.59616        -0.45918
|105>    H       -5.43754       -16.81025         1.82757
|106>    H       -5.79438       -16.29540         6.63020
|107>    H       -8.74039       -21.22964         8.91465
|108>    H       -9.52334       -23.98800         6.21430
|109>    H      -12.36758       -22.88367        11.69415
|110>    H      -12.66545       -27.23347         9.29395
|111> *
|112>
|113>                          ****END OF INPUT****

CARTESIAN COORDINATES (ANGSTROEM)
---------------------------------
  C     -0.163900   -0.741000   -0.275520
  C     -1.271590   -0.962110    0.499880
  C     -1.697360   -0.096410    1.530810
  N     -2.091610    0.569990    2.376890
  C     -2.174120   -2.025540    0.302370
  N     -2.949210   -2.861220    0.164530
  C      0.636080    0.483020   -0.251700
  C      1.340290    0.591780   -1.464990
  C      2.148360    1.676790   -1.738130
  C      2.267520    2.669390   -0.772990
  C      1.584730    2.558050    0.444770
  C      0.762570    1.468340    0.712250
  Cl     1.759300    3.781630    1.634340
  Cl     3.261770    4.034970   -1.075650
  C      1.076500   -0.600990   -2.295920
  O      1.464990   -0.833210   -3.415730
  C      0.262230   -1.502490   -1.431450
  C      0.131020   -2.808250   -1.800170
  C     -0.251750   -3.918830   -1.019870
  C     -0.273660   -4.052150    0.361910
  C     -0.701380   -5.309900    0.761780
  C     -1.001610   -6.160390   -0.323420
  S     -0.734810   -5.409510   -1.825490
  C     -1.463650   -7.395150    0.194190
  C     -1.465040   -7.323510    1.599240
  C     -0.990190   -6.008490    2.001240
  C     -0.876890   -5.512480    3.266380
  C     -1.199980   -6.280820    4.404550
  N     -1.457090   -6.915430    5.323860
  C     -0.429480   -4.194330    3.498830
  N     -0.060210   -3.122040    3.667070
  C     -1.928680   -8.489850    2.202750
  C     -2.276030   -9.451260    1.268850
  S     -2.024540   -8.903470   -0.380500
  C     -2.800920  -10.743290    1.521950
  C     -3.119180  -11.723610    0.598720
  C     -3.640920  -12.863000    1.209110
  C     -3.721650  -12.745440    2.608070
  S     -3.147380  -11.240700    3.172320
  C     -4.286030  -13.935650    3.130350
  C     -4.560200  -14.808770    2.062470
  C     -4.156420  -14.167010    0.820670
  C     -4.242930  -14.679150   -0.439780
  C     -4.765380  -15.966220   -0.689430
  N     -5.190550  -17.012050   -0.888160
  C     -3.813000  -13.955020   -1.572280
  N     -3.461930  -13.364410   -2.489860
  C     -5.143510  -16.004910    2.476610
  C     -5.317870  -16.046380    3.848800
  S     -4.741590  -14.585930    4.640740
  C     -5.905440  -17.082370    4.616670
  C     -6.102120  -17.100600    5.987520
  C     -6.742020  -18.264670    6.405390
  C     -7.030950  -19.141680    5.344140
  S     -6.511140  -18.531900    3.833290
  C     -7.694320  -20.277790    5.862720
  C     -7.833150  -20.117040    7.261370
  C     -7.219590  -18.857200    7.647070
  C     -7.092910  -18.339910    8.901560
  C     -7.543390  -19.009990   10.060570
  N     -7.876130  -19.542630   11.019220
  C     -6.470730  -17.093200    9.129390
  N     -5.965520  -16.079830    9.309250
  C     -8.515220  -21.162560    7.866320
  C     -8.901210  -22.135780    6.951820
  S     -8.374150  -21.731690    5.309060
  C     -9.572520  -23.364710    7.099790
  C    -10.285360  -23.865690    8.155650
  C    -10.853360  -25.203780    8.190900
  C    -10.553540  -26.248320    7.356730
  C    -11.135340  -27.530940    7.457210
  N    -11.573470  -28.591340    7.477500
  C     -9.608910  -26.219340    6.308020
  N     -8.844540  -26.284630    5.453460
  C    -11.753180  -25.273570    9.338370
  C    -11.693140  -24.054520   10.033830
  C    -10.763380  -23.130600    9.351770
  O    -10.509960  -21.997260    9.695420
  C    -12.433710  -23.827210   11.175770
  C    -13.260130  -24.844180   11.636910
  C    -13.331240  -26.061110   10.947640
  C    -12.580780  -26.285190    9.798560
  Cl   -14.363120  -27.306340   11.522660
  Cl   -14.197240  -24.605190   13.054220
  H      2.673030    1.750220   -2.677540
  H      0.256610    1.408710    1.662170
  H      0.426520   -3.020550   -2.823400
  H      0.052150   -3.276260    1.030100
  H     -2.016510   -8.647230    3.262880
  H     -2.974840  -11.596160   -0.459180
  H     -5.437540  -16.810250    1.827570
  H     -5.794380  -16.295400    6.630200
  H     -8.740390  -21.229640    8.914650
  H     -9.523340  -23.988000    6.214300
  H    -12.367580  -22.883670   11.694150
  H    -12.665450  -27.233470    9.293950

 Total Charge           Charge          ....    0
 Multiplicity           Mult            ....    1
 Number of Electrons    NEL             ....  634
 Basis Dimension        Dim             .... 1276

ORBITAL ENERGIES
----------------

  NO   OCC          E(Eh)            E(eV)
   0   2.0000    -101.604247     -2764.7921
   1   2.0000    -101.603636     -2764.7755
   2   2.0000    -101.602997     -2764.7581
   3   2.0000    -101.602383     -2764.7414
   4   2.0000     -89.008290     -2422.0387
   5   2.0000     -89.008197     -2422.0362
   6   2.0000     -89.007839     -2422.0264
   7   2.0000     -89.007478     -2422.0166
   8   2.0000     -89.005690     -2421.9679
   9   2.0000     -89.005055     -2421.9507
  10   2.0000     -19.229804      -523.2696
  11   2.0000     -19.227302      -523.2015
  12   2.0000     -14.445127      -393.0719
  13   2.0000     -14.445063      -393.0701
  14   2.0000     -14.442584      -393.0027
  15   2.0000     -14.442500      -393.0004
  16   2.0000     -14.442330      -392.9958
  17   2.0000     -14.438307      -392.8863
  18   2.0000     -14.427837      -392.6014
  19   2.0000     -14.425827      -392.5467
  20   2.0000     -14.422322      -392.4513
  21   2.0000     -14.422270      -392.4499
  22   2.0000     -10.381437      -282.4932
  23   2.0000     -10.381059      -282.4830
  24   2.0000     -10.378675      -282.4181
  25   2.0000     -10.378577      -282.4154
  26   2.0000     -10.378352      -282.4093
  27   2.0000     -10.367765      -282.1212
  28   2.0000     -10.365052      -282.0474
  29   2.0000     -10.364708      -282.0380
  30   2.0000     -10.361402      -281.9481
  31   2.0000     -10.360655      -281.9277
  32   2.0000     -10.360431      -281.9217
  33   2.0000     -10.360023      -281.9106
  34   2.0000     -10.356342      -281.8104
  35   2.0000     -10.355414      -281.7851
  36   2.0000     -10.354214      -281.7525
  37   2.0000     -10.353910      -281.7442
  38   2.0000     -10.352944      -281.7179
  39   2.0000     -10.351782      -281.6863
  40   2.0000     -10.350893      -281.6621
  41   2.0000     -10.350084      -281.6401
  42   2.0000     -10.349153      -281.6148
  43   2.0000     -10.348853      -281.6066
  44   2.0000     -10.347271      -281.5636
  45   2.0000     -10.347212      -281.5620
  46   2.0000     -10.346653      -281.5467
  47   2.0000     -10.346571      -281.5445
  48   2.0000     -10.345086      -281.5041
  49   2.0000     -10.345051      -281.5032
  50   2.0000     -10.342518      -281.4342
  51   2.0000     -10.342434      -281.4319
  52   2.0000     -10.342328      -281.4290
  53   2.0000     -10.337219      -281.2900
  54   2.0000     -10.337158      -281.2884
  55   2.0000     -10.336890      -281.2811
  56   2.0000     -10.336850      -281.2800
  57   2.0000     -10.334785      -281.2238
  58   2.0000     -10.328796      -281.0608
  59   2.0000     -10.328354      -281.0488
  60   2.0000     -10.324766      -280.9512
  61   2.0000     -10.324746      -280.9506
  62   2.0000     -10.324131      -280.9339
  63   2.0000     -10.322591      -280.8920
  64   2.0000     -10.322455      -280.8883
  65   2.0000     -10.322391      -280.8866
  66   2.0000     -10.320896      -280.8459
  67   2.0000     -10.320760      -280.8422
  68   2.0000     -10.320739      -280.8416
  69   2.0000     -10.320450      -280.8337
  70   2.0000     -10.319722      -280.8139
  71   2.0000     -10.318933      -280.7925
  72   2.0000     -10.318449      -280.7793
  73   2.0000     -10.317642      -280.7573
  74   2.0000     -10.317121      -280.7431
  75   2.0000     -10.316577      -280.7283
  76   2.0000     -10.314966      -280.6845
  77   2.0000     -10.314151      -280.6623
  78   2.0000     -10.313530      -280.6454
  79   2.0000     -10.313406      -280.6420
  80   2.0000     -10.310776      -280.5705
  81   2.0000     -10.310186      -280.5544
  82   2.0000     -10.308077      -280.4970
  83   2.0000     -10.306402      -280.4514
  84   2.0000      -9.559275      -260.1211
  85   2.0000      -9.558689      -260.1052
  86   2.0000      -9.558026      -260.0871
  87   2.0000      -9.557365      -260.0691
  88   2.0000      -8.102613      -220.4833
  89   2.0000      -8.102529      -220.4810
  90   2.0000      -8.102124      -220.4700
  91   2.0000      -8.101797      -220.4611
  92   2.0000      -8.100353      -220.4218
  93   2.0000      -8.099753      -220.4055
  94   2.0000      -7.329674      -199.4506
  95   2.0000      -7.329083      -199.4345
  96   2.0000      -7.328415      -199.4163
  97   2.0000      -7.327790      -199.3993
  98   2.0000      -7.319528      -199.1745
  99   2.0000      -7.318955      -199.1589
 100   2.0000      -7.318796      -199.1546
 101   2.0000      -7.318293      -199.1409
 102   2.0000      -7.318194      -199.1382
 103   2.0000      -7.317612      -199.1223
 104   2.0000      -7.317538      -199.1203
 105   2.0000      -7.316877      -199.1024
 106   2.0000      -6.071903      -165.2249
 107   2.0000      -6.071857      -165.2236
 108   2.0000      -6.071442      -165.2123
 109   2.0000      -6.071127      -165.2038
 110   2.0000      -6.069526      -165.1602
 111   2.0000      -6.068873      -165.1424
 112   2.0000      -6.067720      -165.1111
 113   2.0000      -6.067675      -165.1098
 114   2.0000      -6.067224      -165.0976
 115   2.0000      -6.066918      -165.0892
 116   2.0000      -6.065344      -165.0464
 117   2.0000      -6.064920      -165.0349
 118   2.0000      -6.064768      -165.0307
 119   2.0000      -6.064713      -165.0292
 120   2.0000      -6.064442      -165.0219
 121   2.0000      -6.064063      -165.0115
 122   2.0000      -6.062844      -164.9784
 123   2.0000      -6.062316      -164.9640
 124   2.0000      -1.145804       -31.1789
 125   2.0000      -1.143269       -31.1099
 126   2.0000      -1.063724       -28.9454
 127   2.0000      -1.061236       -28.8777
 128   2.0000      -1.059225       -28.8230
 129   2.0000      -1.037485       -28.2314
 130   2.0000      -1.037282       -28.2259
 131   2.0000      -1.036283       -28.1987
 132   2.0000      -1.034603       -28.1530
 133   2.0000      -1.033308       -28.1178
 134   2.0000      -1.026402       -27.9298
 135   2.0000      -1.023828       -27.8598
 136   2.0000      -1.023065       -27.8390
 137   2.0000      -1.022126       -27.8135
 138   2.0000      -1.019984       -27.7552
 139   2.0000      -1.017303       -27.6822
 140   2.0000      -1.015027       -27.6203
 141   2.0000      -1.005944       -27.3731
 142   2.0000      -1.003078       -27.2952
 143   2.0000      -1.002614       -27.2825
 144   2.0000      -0.997916       -27.1547
 145   2.0000      -0.997300       -27.1379
 146   2.0000      -0.980433       -26.6789
 147   2.0000      -0.972558       -26.4646
 148   2.0000      -0.968624       -26.3576
 149   2.0000      -0.966228       -26.2924
 150   2.0000      -0.965453       -26.2713
 151   2.0000      -0.943392       -25.6710
 152   2.0000      -0.942748       -25.6535
 153   2.0000      -0.936366       -25.4798
 154   2.0000      -0.930272       -25.3140
 155   2.0000      -0.922052       -25.0903
 156   2.0000      -0.909166       -24.7397
 157   2.0000      -0.906532       -24.6680
 158   2.0000      -0.889787       -24.2123
 159   2.0000      -0.889057       -24.1925
 160   2.0000      -0.886158       -24.1136
 161   2.0000      -0.880524       -23.9603
 162   2.0000      -0.877360       -23.8742
 163   2.0000      -0.872993       -23.7554
 164   2.0000      -0.870822       -23.6963
 165   2.0000      -0.866686       -23.5837
 166   2.0000      -0.866263       -23.5722
 167   2.0000      -0.865430       -23.5495
 168   2.0000      -0.848080       -23.0774
 169   2.0000      -0.825430       -22.4611
 170   2.0000      -0.808923       -22.0119
 171   2.0000      -0.800197       -21.7745
 172   2.0000      -0.795388       -21.6436
 173   2.0000      -0.789253       -21.4767
 174   2.0000      -0.784131       -21.3373
 175   2.0000      -0.777617       -21.1600
 176   2.0000      -0.774009       -21.0618
 177   2.0000      -0.767122       -20.8745
 178   2.0000      -0.750962       -20.4347
 179   2.0000      -0.736472       -20.0404
 180   2.0000      -0.727530       -19.7971
 181   2.0000      -0.721505       -19.6331
 182   2.0000      -0.714404       -19.4399
 183   2.0000      -0.711216       -19.3532
 184   2.0000      -0.706038       -19.2123
 185   2.0000      -0.705478       -19.1970
 186   2.0000      -0.702569       -19.1179
 187   2.0000      -0.699076       -19.0228
 188   2.0000      -0.694835       -18.9074
 189   2.0000      -0.692871       -18.8540
 190   2.0000      -0.687668       -18.7124
 191   2.0000      -0.686186       -18.6721
 192   2.0000      -0.668175       -18.1820
 193   2.0000      -0.664679       -18.0868
 194   2.0000      -0.651153       -17.7188
 195   2.0000      -0.648695       -17.6519
 196   2.0000      -0.646563       -17.5939
 197   2.0000      -0.644551       -17.5391
 198   2.0000      -0.638082       -17.3631
 199   2.0000      -0.636523       -17.3207
 200   2.0000      -0.632687       -17.2163
 201   2.0000      -0.628668       -17.1069
 202   2.0000      -0.627720       -17.0811
 203   2.0000      -0.624068       -16.9818
 204   2.0000      -0.620296       -16.8791
 205   2.0000      -0.614924       -16.7329
 206   2.0000      -0.604625       -16.4527
 207   2.0000      -0.598379       -16.2827
 208   2.0000      -0.593945       -16.1621
 209   2.0000      -0.590687       -16.0734
 210   2.0000      -0.579500       -15.7690
 211   2.0000      -0.572346       -15.5743
 212   2.0000      -0.567214       -15.4347
 213   2.0000      -0.566424       -15.4132
 214   2.0000      -0.564448       -15.3594
 215   2.0000      -0.562814       -15.3149
 216   2.0000      -0.560662       -15.2564
 217   2.0000      -0.556186       -15.1346
 218   2.0000      -0.555216       -15.1082
 219   2.0000      -0.552100       -15.0234
 220   2.0000      -0.551619       -15.0103
 221   2.0000      -0.548681       -14.9304
 222   2.0000      -0.544172       -14.8077
 223   2.0000      -0.543599       -14.7921
 224   2.0000      -0.539796       -14.6886
 225   2.0000      -0.536601       -14.6017
 226   2.0000      -0.530779       -14.4432
 227   2.0000      -0.528422       -14.3791
 228   2.0000      -0.523745       -14.2518
 229   2.0000      -0.523145       -14.2355
 230   2.0000      -0.522682       -14.2229
 231   2.0000      -0.520751       -14.1704
 232   2.0000      -0.519176       -14.1275
 233   2.0000      -0.517767       -14.0892
 234   2.0000      -0.516718       -14.0606
 235   2.0000      -0.513852       -13.9826
 236   2.0000      -0.512618       -13.9490
 237   2.0000      -0.511063       -13.9067
 238   2.0000      -0.509322       -13.8594
 239   2.0000      -0.507732       -13.8161
 240   2.0000      -0.505493       -13.7552
 241   2.0000      -0.503560       -13.7026
 242   2.0000      -0.503163       -13.6918
 243   2.0000      -0.500503       -13.6194
 244   2.0000      -0.497264       -13.5312
 245   2.0000      -0.497079       -13.5262
 246   2.0000      -0.493501       -13.4289
 247   2.0000      -0.489281       -13.3140
 248   2.0000      -0.486367       -13.2347
 249   2.0000      -0.485563       -13.2128
 250   2.0000      -0.481829       -13.1112
 251   2.0000      -0.475561       -12.9407
 252   2.0000      -0.473950       -12.8968
 253   2.0000      -0.473325       -12.8798
 254   2.0000      -0.472662       -12.8618
 255   2.0000      -0.472354       -12.8534
 256   2.0000      -0.471882       -12.8406
 257   2.0000      -0.471253       -12.8234
 258   2.0000      -0.469784       -12.7835
 259   2.0000      -0.465927       -12.6785
 260   2.0000      -0.463849       -12.6220
 261   2.0000      -0.459987       -12.5169
 262   2.0000      -0.458950       -12.4887
 263   2.0000      -0.457209       -12.4413
 264   2.0000      -0.456738       -12.4285
 265   2.0000      -0.456060       -12.4100
 266   2.0000      -0.455068       -12.3830
 267   2.0000      -0.454785       -12.3753
 268   2.0000      -0.453569       -12.3422
 269   2.0000      -0.452294       -12.3076
 270   2.0000      -0.451786       -12.2937
 271   2.0000      -0.450650       -12.2628
 272   2.0000      -0.450124       -12.2485
 273   2.0000      -0.449736       -12.2379
 274   2.0000      -0.449125       -12.2213
 275   2.0000      -0.448444       -12.2028
 276   2.0000      -0.443575       -12.0703
 277   2.0000      -0.442828       -12.0500
 278   2.0000      -0.440896       -11.9974
 279   2.0000      -0.439840       -11.9687
 280   2.0000      -0.438208       -11.9242
 281   2.0000      -0.436245       -11.8708
 282   2.0000      -0.435610       -11.8536
 283   2.0000      -0.435234       -11.8433
 284   2.0000      -0.433699       -11.8015
 285   2.0000      -0.433040       -11.7836
 286   2.0000      -0.432468       -11.7680
 287   2.0000      -0.431732       -11.7480
 288   2.0000      -0.424039       -11.5387
 289   2.0000      -0.420448       -11.4410
 290   2.0000      -0.418780       -11.3956
 291   2.0000      -0.413653       -11.2561
 292   2.0000      -0.413576       -11.2540
 293   2.0000      -0.411532       -11.1983
 294   2.0000      -0.410397       -11.1675
 295   2.0000      -0.404283       -11.0011
 296   2.0000      -0.391072       -10.6416
 297   2.0000      -0.385427       -10.4880
 298   2.0000      -0.384909       -10.4739
 299   2.0000      -0.378909       -10.3106
 300   2.0000      -0.368910       -10.0385
 301   2.0000      -0.365338        -9.9414
 302   2.0000      -0.364184        -9.9100
 303   2.0000      -0.361100        -9.8260
 304   2.0000      -0.352529        -9.5928
 305   2.0000      -0.350024        -9.5246
 306   2.0000      -0.347809        -9.4644
 307   2.0000      -0.343458        -9.3460
 308   2.0000      -0.340752        -9.2723
 309   2.0000      -0.336188        -9.1481
 310   2.0000      -0.335673        -9.1341
 311   2.0000      -0.331106        -9.0098
 312   2.0000      -0.318003        -8.6533
 313   2.0000      -0.316616        -8.6156
 314   2.0000      -0.306149        -8.3307
 315   2.0000      -0.279531        -7.6064
 316   2.0000      -0.254438        -6.9236
 317   0.0000      -0.128432        -3.4948
 318   0.0000      -0.120742        -3.2856
 319   0.0000      -0.117201        -3.1892
 320   0.0000      -0.096913        -2.6371
 321   0.0000      -0.096646        -2.6299

MULLIKEN ATOMIC CHARGES
-----------------------
   0 C :    0.266879
   1 C :   -0.324730
   2 C :   -0.173847
   3 N :    0.167083
   4 C :   -0.202218
   5 N :    0.171781
   6 C :    0.010300
   7 C :    0.006758
   8 C :   -0.029552
   9 C :    0.058902
  10 C :    0.047653
  11 C :   -0.009093
  12 Cl:   -0.031639
  13 Cl:   -0.040871
  14 C :    0.135341
  15 O :   -0.135560
  16 C :   -0.140441
  17 C :    0.087017
  18 C :   -0.114826
  19 C :    0.002296
  20 C :   -0.007088
  21 C :   -0.068582
  22 S :    0.219705
  23 C :   -0.105777
  24 C :    0.030579
  25 C :    0.300447
  26 C :   -0.281951
  27 C :   -0.187367
  28 N :    0.175627
  29 C :   -0.183800
  30 N :    0.175978
  31 C :   -0.072278
  32 C :   -0.043452
  33 S :    0.207393
  34 C :   -0.051921
  35 C :   -0.066174
  36 C :    0.020174
  37 C :   -0.095978
  38 S :    0.206098
  39 C :   -0.094531
  40 C :    0.016914
  41 C :    0.295530
  42 C :   -0.290200
  43 C :   -0.187812
  44 N :    0.178939
  45 C :   -0.186893
  46 N :    0.176646
  47 C :   -0.060287
  48 C :   -0.055895
  49 S :    0.206186
  50 C :   -0.042137
  51 C :   -0.070073
  52 C :    0.028413
  53 C :   -0.104101
  54 S :    0.207491
  55 C :   -0.078023
  56 C :   -0.015968
  57 C :    0.304096
  58 C :   -0.290495
  59 C :   -0.187748
  60 N :    0.195397
  61 C :   -0.190144
  62 N :    0.174306
  63 C :    0.013922
  64 C :   -0.115229
  65 S :    0.211652
  66 C :    0.030864
  67 C :   -0.089801
  68 C :    0.302427
  69 C :   -0.342271
  70 C :   -0.190164
  71 N :    0.160848
  72 C :   -0.199484
  73 N :    0.161893
  74 C :    0.031373
  75 C :   -0.017539
  76 C :    0.154262
  77 O :   -0.143746
  78 C :   -0.028103
  79 C :    0.059413
  80 C :    0.050027
  81 C :   -0.010544
  82 Cl:   -0.033268
  83 Cl:   -0.038760
  84 H :    0.001613
  85 H :    0.009482
  86 H :    0.022378
  87 H :    0.025722
  88 H :    0.016215
  89 H :    0.014752
  90 H :    0.014812
  91 H :    0.015868
  92 H :    0.038406
  93 H :    0.016639
  94 H :    0.003300
  95 H :    0.000559
Sum of atomic charges:   -0.0000000

LOEWDIN ATOMIC CHARGES
----------------------
   0 C :    0.064068
   1 C :   -0.131568
   2 C :   -0.021397
   3 N :   -0.037439
   4 C :   -0.015153
   5 N :   -0.042445
   6 C :   -0.010488
   7 C :   -0.046769
   8 C :    0.002194
   9 C :   -0.134963
  10 C :   -0.128779
  11 C :   -0.011967
  12 Cl:    0.166451
  13 Cl:    0.160917
  14 C :    0.083588
  15 O :   -0.136387
  16 C :   -0.094204
  17 C :    0.044521
  18 C :   -0.182932
  19 C :    0.011570
  20 C :   -0.067266
  21 C :   -0.157033
  22 S :    0.503067
  23 C :   -0.185452
  24 C :   -0.053029
  25 C :    0.081467
  26 C :   -0.093848
  27 C :   -0.016240
  28 N :   -0.027356
  29 C :   -0.013126
  30 N :   -0.027742
  31 C :   -0.038892
  32 C :   -0.171172
  33 S :    0.492305
  34 C :   -0.179582
  35 C :   -0.034133
  36 C :   -0.065463
  37 C :   -0.178832
  38 S :    0.493409
  39 C :   -0.176146
  40 C :   -0.066806
  41 C :    0.080621
  42 C :   -0.096254
  43 C :   -0.016655
  44 N :   -0.027294
  45 C :   -0.016395
  46 N :   -0.027567
  47 C :   -0.031886
  48 C :   -0.182329
  49 S :    0.493737
  50 C :   -0.167283
  51 C :   -0.041586
  52 C :   -0.049047
  53 C :   -0.191190
  54 S :    0.491086
  55 C :   -0.156833
  56 C :   -0.075762
  57 C :    0.075236
  58 C :   -0.090470
  59 C :   -0.021747
  60 N :   -0.012683
  61 C :   -0.014996
  62 N :   -0.028979
  63 C :    0.022230
  64 C :   -0.178158
  65 S :    0.498985
  66 C :    0.043734
  67 C :   -0.098607
  68 C :    0.074838
  69 C :   -0.135968
  70 C :   -0.020612
  71 N :   -0.044142
  72 C :   -0.024555
  73 N :   -0.047521
  74 C :   -0.014613
  75 C :   -0.043416
  76 C :    0.085952
  77 O :   -0.131840
  78 C :    0.002686
  79 C :   -0.133691
  80 C :   -0.129881
  81 C :   -0.011942
  82 Cl:    0.164196
  83 Cl:    0.162235
  84 H :    0.046731
  85 H :    0.046531
  86 H :    0.046748
  87 H :    0.042849
  88 H :    0.037035
  89 H :    0.037126
  90 H :    0.037239
  91 H :    0.036680
  92 H :    0.044770
  93 H :    0.043742
  94 H :    0.047445
  95 H :    0.044520

  Mayer bond orders larger than 0.100000
B(  0-C ,  1-C ) :   1.6539 B(  0-C ,  6-C ) :   1.0006 B(  0-C , 16-C ) :   1.0392
B(  1-C ,  2-C ) :   1.1232 B(  1-C ,  4-C ) :   1.1738 B(  2-C ,  3-N ) :   2.9949
B(  4-C ,  5-N ) :   2.9959 B(  6-C ,  7-C ) :   1.3320 B(  6-C , 11-C ) :   1.3487
B(  7-C ,  8-C ) :   1.3478 B(  7-C , 14-C ) :   0.9193 B(  8-C ,  9-C ) :   1.3448
B(  8-C , 84-H ) :   1.0160 B(  9-C , 10-C ) :   1.4066 B(  9-C , 13-Cl) :   1.0483
B( 10-C , 11-C ) :   1.3595 B( 10-C , 12-Cl) :   1.0733 B( 11-C , 85-H ) :   0.9889
B( 14-C , 15-O ) :   2.2703 B( 14-C , 16-C ) :   0.9468 B( 16-C , 17-C ) :   1.6666
B( 17-C , 18-C ) :   1.1447 B( 17-C , 86-H ) :   0.9268 B( 18-C , 19-C ) :   1.3903
B( 18-C , 22-S ) :   1.0869 B( 19-C , 20-C ) :   1.3629 B( 19-C , 87-H ) :   0.9783
B( 20-C , 21-C ) :   1.4066 B( 20-C , 25-C ) :   1.0009 B( 21-C , 22-S ) :   1.1579
B( 21-C , 23-C ) :   1.1973 B( 23-C , 24-C ) :   1.4407 B( 23-C , 33-S ) :   1.1122
B( 24-C , 25-C ) :   0.9900 B( 24-C , 31-C ) :   1.3096 B( 25-C , 26-C ) :   1.7222
B( 26-C , 27-C ) :   1.1322 B( 26-C , 29-C ) :   1.1329 B( 27-C , 28-N ) :   2.9898
B( 29-C , 30-N ) :   2.9831 B( 31-C , 32-C ) :   1.4452 B( 31-C , 88-H ) :   0.9873
B( 32-C , 33-S ) :   1.1198 B( 32-C , 34-C ) :   1.1728 B( 34-C , 35-C ) :   1.4517
B( 34-C , 38-S ) :   1.1104 B( 35-C , 36-C ) :   1.3055 B( 35-C , 89-H ) :   0.9878
B( 36-C , 37-C ) :   1.4412 B( 36-C , 41-C ) :   0.9916 B( 37-C , 38-S ) :   1.1243
B( 37-C , 39-C ) :   1.1878 B( 39-C , 40-C ) :   1.4406 B( 39-C , 49-S ) :   1.1270
B( 40-C , 41-C ) :   0.9931 B( 40-C , 47-C ) :   1.3092 B( 41-C , 42-C ) :   1.7209
B( 42-C , 43-C ) :   1.1318 B( 42-C , 45-C ) :   1.1320 B( 43-C , 44-N ) :   2.9923
B( 45-C , 46-N ) :   2.9913 B( 47-C , 48-C ) :   1.4509 B( 47-C , 90-H ) :   0.9861
B( 48-C , 49-S ) :   1.1080 B( 48-C , 50-C ) :   1.1758 B( 50-C , 51-C ) :   1.4420
B( 50-C , 54-S ) :   1.1226 B( 51-C , 52-C ) :   1.3142 B( 51-C , 91-H ) :   0.9851
B( 52-C , 53-C ) :   1.4375 B( 52-C , 57-C ) :   0.9919 B( 53-C , 54-S ) :   1.1061
B( 53-C , 55-C ) :   1.2060 B( 55-C , 56-C ) :   1.3764 B( 55-C , 65-S ) :   1.1697
B( 56-C , 57-C ) :   0.9943 B( 56-C , 63-C ) :   1.3316 B( 57-C , 58-C ) :   1.7218
B( 58-C , 59-C ) :   1.1333 B( 58-C , 61-C ) :   1.1349 B( 59-C , 60-N ) :   2.9959
B( 61-C , 62-N ) :   2.9872 B( 63-C , 64-C ) :   1.3966 B( 63-C , 92-H ) :   0.9724
B( 64-C , 65-S ) :   1.0734 B( 64-C , 66-C ) :   1.2154 B( 66-C , 67-C ) :   1.5888
B( 66-C , 93-H ) :   0.9179 B( 67-C , 68-C ) :   1.0796 B( 67-C , 76-C ) :   0.9449
B( 68-C , 69-C ) :   1.6390 B( 68-C , 74-C ) :   0.9912 B( 69-C , 70-C ) :   1.1411
B( 69-C , 72-C ) :   1.1391 B( 70-C , 71-N ) :   2.9752 B( 72-C , 73-N ) :   2.9859
B( 74-C , 75-C ) :   1.3286 B( 74-C , 81-C ) :   1.3420 B( 75-C , 76-C ) :   0.9493
B( 75-C , 78-C ) :   1.3450 B( 76-C , 77-O ) :   2.1901 B( 78-C , 79-C ) :   1.3405
B( 78-C , 94-H ) :   1.0174 B( 79-C , 80-C ) :   1.4042 B( 79-C , 83-Cl) :   1.0509
B( 80-C , 81-C ) :   1.3591 B( 80-C , 82-Cl) :   1.0779 B( 81-C , 95-H ) :   0.9868

-----------------------------------------------------------------------------
         ABSORPTION SPECTRUM VIA TRANSITION ELECTRIC DIPOLE MOMENTS
-----------------------------------------------------------------------------
State   Energy  Wavelength   fosc         T2         TX        TY        TZ
        (cm-1)    (nm)                  (au**2)     (au)      (au)      (au)
-----------------------------------------------------------------------------
   0   11280.2    886.5   0.697008608  20.34217   1.76659   3.86040  -1.52271
   1   12757.5    783.9   0.198896431   5.13259  -0.76398  -2.03980   0.62301
   2   13189.8    758.2   0.082378721   2.05614  -0.79271  -0.94361   0.73304
   3   19392.5    515.7   1.516483925  25.74417  -1.53800  -4.65902   1.29315
   4   20272.8    493.3   0.031601915   0.51319   0.46541   0.42313  -0.34284
   5   20619.3    485.0   0.432791405   6.91003   1.65595   1.67534  -1.16666
   6   22195.8    450.5   0.177281300   2.62946  -0.51079  -1.52207   0.22776
   7   22666.0    441.2   0.065178808   0.94669  -0.60270  -0.69336   0.32045
   8   25510.4    392.0   0.397555808   5.13046   0.98687   1.78128  -0.99176
   9   26293.1    380.3   0.030605301   0.38320   0.15185  -0.56934  -0.18972
  10   26716.3    374.3   0.089796536   1.10652  -0.50045  -0.69418   0.61170
  11   27318.0    366.1   0.084615368   1.01971   0.51283   0.86102  -0.12395
  12   27576.5    362.6   0.171624859   2.04888   0.85949   0.54615  -1.00592
  13   28026.4    356.8   0.005924353   0.06959  -0.17174   0.06748   0.18852
  14   28360.0    352.6   0.041435666   0.48100   0.42164   0.54009   0.10731
  15   28939.5    345.5   0.060631004   0.68973  -0.70779  -0.09953   0.42292
  16   29089.2    343.8   0.076090528   0.86114  -0.06001  -0.83399   0.40249
  17   29504.2    338.9   0.269934051   3.01196  -0.49646  -1.63183   0.32033
  18   30020.3    333.1   0.132453646   1.45253   0.66556   0.79633  -0.61271
  19   30709.3    325.6   0.040934624   0.43883   0.16717   0.28702   0.57315
  20   30744.0    325.3   0.441582211   4.72853  -0.49991  -1.00471  -1.86257
  21   30964.8    322.9   0.029082304   0.30920  -0.12256  -0.52870  -0.12104
  22   31231.7    320.2   0.152681661   1.60941   0.70208   0.96677   0.42644
  23   31607.7    316.4   0.483635239   5.03734   0.35632  -0.52418  -2.15305
  24   31644.2    316.0   0.653391958   6.79760   0.44269   0.96586   2.38091
  25   32390.9    308.7   0.052997276   0.53865  -0.34722  -0.14695   0.62967
  26   32758.5    305.3   0.174280921   1.75146   0.26705  -0.73568  -1.06720
  27   32783.1    305.0   0.024534689   0.24638  -0.34981  -0.31535   0.15674
  28   33000.8    303.0   0.052272507   0.52146   0.53959   0.47135   0.09022
  29   33051.9    302.6   0.141469153   1.40910  -0.32193  -1.00856  -0.53691
  30   33198.7    301.2   0.090941018   0.90181  -0.28565  -0.28646   0.85916
  31   33258.4    300.7   0.221131045   2.18889  -0.45599  -1.26139   0.62440
  32   33966.1    294.4   0.011678803   0.11320  -0.23303  -0.24233   0.01304
  33   33989.5    294.2   0.054710488   0.52991  -0.48141  -0.29903   0.45688
  34   34035.8    293.8   0.065835921   0.63680   0.49920   0.60255  -0.15662
  35   34176.2    292.6   0.024718766   0.23811   0.18038  -0.18675  -0.41316
  36   34299.1    291.6   0.086046560   0.82590   0.23988   0.72003   0.49991
  37   34527.7    289.6   0.301884490   2.87839  -1.03249  -0.50429   1.24822
  38   34605.2    289.0   0.175235866   1.66708  -0.40354  -1.04718   0.63848
  39   34758.0    287.7   0.014428151   0.13666   0.29540   0.22099   0.02366
  40   34994.2    285.8   0.132935522   1.25061  -0.28404   0.38151   1.01211
  41   35062.2    285.2   0.073373596   0.68893  -0.42624  -0.12613   0.70096
  42   35193.3    284.1   0.102157130   0.95562   0.66245   0.41927   0.58395
  43   35410.8    282.4   0.231607081   2.15323  -0.75829  -0.25744   1.22961
  44   35731.7    279.9   0.016712142   0.15398   0.03352  -0.27393  -0.27896
  45   35798.4    279.3   0.029644556   0.27262   0.12543  -0.36092  -0.35584
  46   35923.3    278.4   0.244342402   2.23923  -0.21867   1.22232   0.83507
  47   36247.9    275.9   0.172346285   1.56529   0.23531  -0.75791  -0.96721
  48   36328.9    275.3   0.253041080   2.29306   1.13490   0.80356  -0.59946
  49   36490.8    274.0   0.190323632   1.71706   0.69098   0.20506  -1.09433
  50   37015.7    270.2   0.003955940   0.03518   0.12461   0.01886   0.13892
  51   37181.3    269.0   0.006136825   0.05434  -0.09026   0.00676   0.21481
  52   37499.6    266.7   0.158054220   1.38757   0.13318   0.75630   0.89322
  53   37866.8    264.1   0.001174893   0.01021   0.08840   0.04583  -0.01732
  54   38221.3    261.6   0.007576897   0.06526  -0.11599  -0.15478   0.16689
  55   38401.7    260.4   0.072269280   0.61955  -0.34201  -0.66012   0.25850
  56   38475.6    259.9   0.077673651   0.66461  -0.00487   0.60921   0.54171
  57   38722.1    258.3   0.023270249   0.19784  -0.26556  -0.35566  -0.02875
  58   38958.9    256.7   0.008920840   0.07538   0.17985   0.04599  -0.20229
  59   39013.3    256.3   0.012237942   0.10327   0.20263   0.23471  -0.08439
  60   39360.6    254.1   0.013389287   0.11199   0.16129   0.16647  -0.24138
  61   39468.3    253.4   0.002403073   0.02004  -0.01613   0.13255  -0.04707
  62   39693.1    251.9   0.017788919   0.14754  -0.10711   0.23628   0.28326
  63   39807.0    251.2   0.059014989   0.48807   0.41508   0.55731  -0.07195
  64   40051.9    249.7   0.019471072   0.16005   0.28694  -0.26399  -0.08957
  65   40287.5    248.2   0.023586828   0.19274  -0.10143  -0.08914   0.41774

FINAL SINGLE POINT ENERGY     -7292.313726144547

DIPOLE MOMENT
-------------
                                X             Y             Z
Electronic contribution:     -6.05059       8.84058      12.88596
Nuclear contribution   :      7.11169      -8.14906     -14.31853
                        -----------------------------------------
Total Dipole Moment    :      1.06110       0.69153      -1.43257
                        -----------------------------------------
Magnitude (a.u.)       :      1.91217
Magnitude (Debye)      :      4.86036

Rotational constants in cm-1:     0.001885     0.000102     0.000098
Rotational constants in MHz :    56.503593     3.071640     2.948733

                             ****ORCA TERMINATED NORMALLY****
TOTAL RUN TIME: 0 days 0 hours 10 minutes 6 seconds 322 msec
