                         Program Version 4.2.0 -  RELEASE  -
|  1> # ORCA input file
|  2> # SCF done       -165.850103161151          0.000795920434
|  3> ! CAM-B3LYP def2-SVP def2/J RIJCOSX Grid4 TightSCF
|  4> %maxcore 5000
|  5> %tddft
|  6>     Mode sTDDFT
|  7>     Ethresh 5.0
|  8>     maxcore 5000
|  9> end
| 10>
| 11> %pal
| 12>   nprocs 6
| 13>   end
| 14> * xyz 0 1
| 15>    C        2.45978        -2.08353         0.25105
| 16>    C        1.81510        -1.63018         1.36259
| 17>    C        1.41469        -0.28936         1.21030
| 18>    C        1.78521         0.23956        -0.03376
| 19>    S        2.60858        -0.90034        -1.00168
| 20>    C        1.29570         1.57442        -0.12041
| 21>    C        0.62049         1.88066         1.07126
| 22>    C        0.71009         0.73284         1.96175
| 23>    C        0.26109         0.64956         3.24842
| 24>    C       -0.33163         1.73478         3.92138
| 25>    N       -0.81826         2.60360         4.49111
| 26>    C        0.35839        -0.53385         4.00823
| 27>    N        0.39370        -1.49403         4.63443
| 28>    C        0.02118         3.14140         1.04635
| 29>    C        0.24434         3.79168        -0.14980
| 30>    S        1.24424         2.85392        -1.24541
| 31>    C       -0.23895         5.08181        -0.55711
| 32>    C        0.05567         5.64910        -1.75482
| 33>    C       -0.43257         6.95303        -2.08490
| 34>    C       -0.20145         7.51305        -3.33383
| 35>    C       -0.62125         8.81116        -3.65736
| 36>    N       -0.94556         9.88372        -3.91148
| 37>    C        0.43081         6.77023        -4.33977
| 38>    N        0.92634         6.11757        -5.14699
| 39>    C       -1.17990         7.60734        -1.06901
| 40>    C       -1.49534         6.95574         0.09509
| 41>    O       -1.04114         5.69319         0.35403
| 42>    C       -2.34395         7.50638         1.09052
| 43>    C       -2.89141         6.79186         2.12239
| 44>    C       -3.79180         7.27201         3.11431
| 45>    C       -4.26858         6.30911         3.94786
| 46>    C       -3.78842         5.01206         3.64881
| 47>    S       -2.63989         5.07810         2.33710
| 48>    C       -4.12211         3.79505         4.20364
| 49>    C       -4.84422         3.50254         5.38496
| 50>    C       -4.88300         2.17681         5.68539
| 51>    C       -4.21156         1.34540         4.74559
| 52>    S       -3.58311         2.32107         3.44191
| 53>    C       -3.99460        -0.00301         4.84419
| 54>    C       -3.26832        -0.76961         3.89575
| 55>    C       -2.82441        -2.04366         4.13831
| 56>    C       -1.99263        -2.71123         3.19935
| 57>    C       -1.40063        -3.94091         3.45293
| 58>    C       -0.48815        -4.49153         2.54322
| 59>    N        0.27819        -4.89548         1.78657
| 60>    C       -1.64771        -4.65888         4.63178
| 61>    N       -1.87341        -5.24969         5.59093
| 62>    C       -1.76994        -2.02108         1.96566
| 63>    C       -2.28911        -0.78344         1.76103
| 64>    O       -2.99518        -0.12865         2.72025
| 65>    C       -2.12674        -0.04533         0.53930
| 66>    C       -2.62218         1.20567         0.23431
| 67>    C       -2.22300         1.62651        -1.03545
| 68>    C       -1.41346         0.68667        -1.69203
| 69>    S       -1.19117        -0.73383        -0.77604
| 70>    C       -0.97757         1.24847        -2.92637
| 71>    C       -1.51003         2.54029        -3.03901
| 72>    C       -2.34272         2.80543        -1.88053
| 73>    C       -3.10936         3.91127        -1.64909
| 74>    C       -3.10890         5.02694        -2.51069
| 75>    N       -3.09214         5.96194        -3.17462
| 76>    C       -3.96277         4.02782        -0.53553
| 77>    N       -4.66528         4.14756         0.36352
| 78>    C       -1.08433         3.19459        -4.21033
| 79>    C       -0.24909         2.40530        -4.94250
| 80>    S        0.03541         0.84998        -4.24141
| 81>    H        2.85889        -3.06422         0.08733
| 82>    H        1.63616        -2.23939         2.22937
| 83>    H       -0.55897         3.56863         1.84246
| 84>    H        0.67292         5.12016        -2.46422
| 85>    H       -1.55654         8.60204        -1.24153
| 86>    H       -2.60955         8.54596         0.97916
| 87>    H       -4.06274         8.31177         3.16115
| 88>    H       -4.97502         6.48564         4.73918
| 89>    H       -5.27778         4.27641         5.99287
| 90>    H       -5.35644         1.75979         6.55638
| 91>    H       -4.34395        -0.52349         5.72210
| 92>    H       -3.05520        -2.51842         5.07768
| 93>    H       -1.19027        -2.49712         1.19017
| 94>    H       -3.22777         1.77427         0.91454
| 95>    H       -1.36072         4.19091        -4.50271
| 96>    H        0.23135         2.65198        -5.86779
| 97> *
| 98>
| 99>                          ****END OF INPUT****

CARTESIAN COORDINATES (ANGSTROEM)
---------------------------------
  C      2.459780   -2.083530    0.251050
  C      1.815100   -1.630180    1.362590
  C      1.414690   -0.289360    1.210300
  C      1.785210    0.239560   -0.033760
  S      2.608580   -0.900340   -1.001680
  C      1.295700    1.574420   -0.120410
  C      0.620490    1.880660    1.071260
  C      0.710090    0.732840    1.961750
  C      0.261090    0.649560    3.248420
  C     -0.331630    1.734780    3.921380
  N     -0.818260    2.603600    4.491110
  C      0.358390   -0.533850    4.008230
  N      0.393700   -1.494030    4.634430
  C      0.021180    3.141400    1.046350
  C      0.244340    3.791680   -0.149800
  S      1.244240    2.853920   -1.245410
  C     -0.238950    5.081810   -0.557110
  C      0.055670    5.649100   -1.754820
  C     -0.432570    6.953030   -2.084900
  C     -0.201450    7.513050   -3.333830
  C     -0.621250    8.811160   -3.657360
  N     -0.945560    9.883720   -3.911480
  C      0.430810    6.770230   -4.339770
  N      0.926340    6.117570   -5.146990
  C     -1.179900    7.607340   -1.069010
  C     -1.495340    6.955740    0.095090
  O     -1.041140    5.693190    0.354030
  C     -2.343950    7.506380    1.090520
  C     -2.891410    6.791860    2.122390
  C     -3.791800    7.272010    3.114310
  C     -4.268580    6.309110    3.947860
  C     -3.788420    5.012060    3.648810
  S     -2.639890    5.078100    2.337100
  C     -4.122110    3.795050    4.203640
  C     -4.844220    3.502540    5.384960
  C     -4.883000    2.176810    5.685390
  C     -4.211560    1.345400    4.745590
  S     -3.583110    2.321070    3.441910
  C     -3.994600   -0.003010    4.844190
  C     -3.268320   -0.769610    3.895750
  C     -2.824410   -2.043660    4.138310
  C     -1.992630   -2.711230    3.199350
  C     -1.400630   -3.940910    3.452930
  C     -0.488150   -4.491530    2.543220
  N      0.278190   -4.895480    1.786570
  C     -1.647710   -4.658880    4.631780
  N     -1.873410   -5.249690    5.590930
  C     -1.769940   -2.021080    1.965660
  C     -2.289110   -0.783440    1.761030
  O     -2.995180   -0.128650    2.720250
  C     -2.126740   -0.045330    0.539300
  C     -2.622180    1.205670    0.234310
  C     -2.223000    1.626510   -1.035450
  C     -1.413460    0.686670   -1.692030
  S     -1.191170   -0.733830   -0.776040
  C     -0.977570    1.248470   -2.926370
  C     -1.510030    2.540290   -3.039010
  C     -2.342720    2.805430   -1.880530
  C     -3.109360    3.911270   -1.649090
  C     -3.108900    5.026940   -2.510690
  N     -3.092140    5.961940   -3.174620
  C     -3.962770    4.027820   -0.535530
  N     -4.665280    4.147560    0.363520
  C     -1.084330    3.194590   -4.210330
  C     -0.249090    2.405300   -4.942500
  S      0.035410    0.849980   -4.241410
  H      2.858890   -3.064220    0.087330
  H      1.636160   -2.239390    2.229370
  H     -0.558970    3.568630    1.842460
  H      0.672920    5.120160   -2.464220
  H     -1.556540    8.602040   -1.241530
  H     -2.609550    8.545960    0.979160
  H     -4.062740    8.311770    3.161150
  H     -4.975020    6.485640    4.739180
  H     -5.277780    4.276410    5.992870
  H     -5.356440    1.759790    6.556380
  H     -4.343950   -0.523490    5.722100
  H     -3.055200   -2.518420    5.077680
  H     -1.190270   -2.497120    1.190170
  H     -3.227770    1.774270    0.914540
  H     -1.360720    4.190910   -4.502710
  H      0.231350    2.651980   -5.867790

 Total Charge           Charge          ....    0
 Multiplicity           Mult            ....    1
 Number of Electrons    NEL             ....  484
 Basis Dimension        Dim             .... 1028

ORBITAL ENERGIES
----------------

  NO   OCC          E(Eh)            E(eV)
   0   2.0000     -89.008846     -2422.0538
   1   2.0000     -89.008750     -2422.0512
   2   2.0000     -89.000088     -2421.8155
   3   2.0000     -88.999960     -2421.8120
   4   2.0000     -88.968827     -2420.9648
   5   2.0000     -88.968750     -2420.9628
   6   2.0000     -19.330518      -526.0101
   7   2.0000     -19.330493      -526.0094
   8   2.0000     -14.441001      -392.9596
   9   2.0000     -14.440999      -392.9596
  10   2.0000     -14.439520      -392.9193
  11   2.0000     -14.439219      -392.9111
  12   2.0000     -14.399669      -391.8349
  13   2.0000     -14.399495      -391.8302
  14   2.0000     -14.391947      -391.6248
  15   2.0000     -14.391862      -391.6225
  16   2.0000     -10.395413      -282.8736
  17   2.0000     -10.395224      -282.8684
  18   2.0000     -10.385509      -282.6041
  19   2.0000     -10.385406      -282.6013
  20   2.0000     -10.373858      -282.2870
  21   2.0000     -10.373721      -282.2833
  22   2.0000     -10.362166      -281.9689
  23   2.0000     -10.361970      -281.9635
  24   2.0000     -10.351155      -281.6693
  25   2.0000     -10.350970      -281.6642
  26   2.0000     -10.341447      -281.4051
  27   2.0000     -10.341402      -281.4039
  28   2.0000     -10.341050      -281.3943
  29   2.0000     -10.340929      -281.3910
  30   2.0000     -10.340523      -281.3799
  31   2.0000     -10.340315      -281.3743
  32   2.0000     -10.340011      -281.3660
  33   2.0000     -10.339947      -281.3643
  34   2.0000     -10.339163      -281.3429
  35   2.0000     -10.338868      -281.3349
  36   2.0000     -10.334636      -281.2197
  37   2.0000     -10.334493      -281.2159
  38   2.0000     -10.333091      -281.1777
  39   2.0000     -10.332685      -281.1666
  40   2.0000     -10.322399      -280.8868
  41   2.0000     -10.322231      -280.8822
  42   2.0000     -10.319641      -280.8117
  43   2.0000     -10.319598      -280.8105
  44   2.0000     -10.315991      -280.7124
  45   2.0000     -10.315962      -280.7116
  46   2.0000     -10.314497      -280.6717
  47   2.0000     -10.314393      -280.6689
  48   2.0000     -10.313662      -280.6490
  49   2.0000     -10.313569      -280.6465
  50   2.0000     -10.313450      -280.6432
  51   2.0000     -10.313417      -280.6423
  52   2.0000     -10.309576      -280.5378
  53   2.0000     -10.309559      -280.5374
  54   2.0000     -10.308711      -280.5143
  55   2.0000     -10.308506      -280.5087
  56   2.0000     -10.308026      -280.4956
  57   2.0000     -10.307987      -280.4946
  58   2.0000     -10.305972      -280.4398
  59   2.0000     -10.305628      -280.4304
  60   2.0000     -10.304355      -280.3958
  61   2.0000     -10.304178      -280.3909
  62   2.0000     -10.303699      -280.3779
  63   2.0000     -10.303571      -280.3744
  64   2.0000     -10.295947      -280.1670
  65   2.0000     -10.295870      -280.1649
  66   2.0000      -8.102034      -220.4675
  67   2.0000      -8.101974      -220.4659
  68   2.0000      -8.094853      -220.2722
  69   2.0000      -8.094815      -220.2711
  70   2.0000      -8.063718      -219.4249
  71   2.0000      -8.063666      -219.4235
  72   2.0000      -6.071406      -165.2114
  73   2.0000      -6.071346      -165.2097
  74   2.0000      -6.067164      -165.0959
  75   2.0000      -6.067118      -165.0947
  76   2.0000      -6.064423      -165.0213
  77   2.0000      -6.064413      -165.0211
  78   2.0000      -6.064057      -165.0114
  79   2.0000      -6.064043      -165.0110
  80   2.0000      -6.059612      -164.8904
  81   2.0000      -6.059573      -164.8894
  82   2.0000      -6.057586      -164.8353
  83   2.0000      -6.057567      -164.8348
  84   2.0000      -6.033556      -164.1814
  85   2.0000      -6.033512      -164.1802
  86   2.0000      -6.029302      -164.0657
  87   2.0000      -6.029237      -164.0639
  88   2.0000      -6.024689      -163.9401
  89   2.0000      -6.024631      -163.9386
  90   2.0000      -1.238541       -33.7024
  91   2.0000      -1.238454       -33.7000
  92   2.0000      -1.060232       -28.8504
  93   2.0000      -1.054020       -28.6813
  94   2.0000      -1.033631       -28.1265
  95   2.0000      -1.032739       -28.1022
  96   2.0000      -1.022253       -27.8169
  97   2.0000      -1.018349       -27.7107
  98   2.0000      -1.017533       -27.6885
  99   2.0000      -1.012300       -27.5461
 100   2.0000      -1.009808       -27.4783
 101   2.0000      -1.000537       -27.2260
 102   2.0000      -0.996761       -27.1232
 103   2.0000      -0.996613       -27.1192
 104   2.0000      -0.974885       -26.5280
 105   2.0000      -0.974746       -26.5242
 106   2.0000      -0.972564       -26.4648
 107   2.0000      -0.970559       -26.4102
 108   2.0000      -0.958299       -26.0766
 109   2.0000      -0.958228       -26.0747
 110   2.0000      -0.954062       -25.9613
 111   2.0000      -0.946771       -25.7629
 112   2.0000      -0.921329       -25.0706
 113   2.0000      -0.917889       -24.9770
 114   2.0000      -0.897858       -24.4320
 115   2.0000      -0.884071       -24.0568
 116   2.0000      -0.882944       -24.0261
 117   2.0000      -0.878156       -23.8958
 118   2.0000      -0.878119       -23.8948
 119   2.0000      -0.870327       -23.6828
 120   2.0000      -0.865861       -23.5613
 121   2.0000      -0.863412       -23.4946
 122   2.0000      -0.862949       -23.4820
 123   2.0000      -0.844008       -22.9666
 124   2.0000      -0.828406       -22.5421
 125   2.0000      -0.818994       -22.2859
 126   2.0000      -0.810928       -22.0665
 127   2.0000      -0.794963       -21.6320
 128   2.0000      -0.789463       -21.4824
 129   2.0000      -0.785090       -21.3634
 130   2.0000      -0.779236       -21.2041
 131   2.0000      -0.772413       -21.0184
 132   2.0000      -0.754292       -20.5253
 133   2.0000      -0.731626       -19.9085
 134   2.0000      -0.721099       -19.6221
 135   2.0000      -0.718062       -19.5395
 136   2.0000      -0.713021       -19.4023
 137   2.0000      -0.712104       -19.3773
 138   2.0000      -0.706328       -19.2202
 139   2.0000      -0.692391       -18.8409
 140   2.0000      -0.689441       -18.7606
 141   2.0000      -0.683292       -18.5933
 142   2.0000      -0.680640       -18.5212
 143   2.0000      -0.668935       -18.2026
 144   2.0000      -0.663462       -18.0537
 145   2.0000      -0.659776       -17.9534
 146   2.0000      -0.654787       -17.8176
 147   2.0000      -0.639937       -17.4136
 148   2.0000      -0.639606       -17.4046
 149   2.0000      -0.635233       -17.2856
 150   2.0000      -0.634222       -17.2581
 151   2.0000      -0.628340       -17.0980
 152   2.0000      -0.625901       -17.0316
 153   2.0000      -0.615776       -16.7561
 154   2.0000      -0.615593       -16.7511
 155   2.0000      -0.601856       -16.3773
 156   2.0000      -0.599473       -16.3125
 157   2.0000      -0.598787       -16.2938
 158   2.0000      -0.598084       -16.2747
 159   2.0000      -0.595836       -16.2135
 160   2.0000      -0.587455       -15.9855
 161   2.0000      -0.582887       -15.8612
 162   2.0000      -0.579094       -15.7579
 163   2.0000      -0.572992       -15.5919
 164   2.0000      -0.571857       -15.5610
 165   2.0000      -0.567033       -15.4298
 166   2.0000      -0.554268       -15.0824
 167   2.0000      -0.553753       -15.0684
 168   2.0000      -0.548079       -14.9140
 169   2.0000      -0.541719       -14.7409
 170   2.0000      -0.541220       -14.7274
 171   2.0000      -0.529794       -14.4164
 172   2.0000      -0.529503       -14.4085
 173   2.0000      -0.524910       -14.2835
 174   2.0000      -0.521014       -14.1775
 175   2.0000      -0.520526       -14.1642
 176   2.0000      -0.513879       -13.9834
 177   2.0000      -0.511880       -13.9290
 178   2.0000      -0.510156       -13.8820
 179   2.0000      -0.509055       -13.8521
 180   2.0000      -0.505090       -13.7442
 181   2.0000      -0.504588       -13.7305
 182   2.0000      -0.500930       -13.6310
 183   2.0000      -0.497961       -13.5502
 184   2.0000      -0.497223       -13.5301
 185   2.0000      -0.496053       -13.4983
 186   2.0000      -0.490452       -13.3459
 187   2.0000      -0.489497       -13.3199
 188   2.0000      -0.488006       -13.2793
 189   2.0000      -0.486282       -13.2324
 190   2.0000      -0.482570       -13.1314
 191   2.0000      -0.480069       -13.0634
 192   2.0000      -0.479736       -13.0543
 193   2.0000      -0.476071       -12.9546
 194   2.0000      -0.470716       -12.8088
 195   2.0000      -0.469704       -12.7813
 196   2.0000      -0.465554       -12.6684
 197   2.0000      -0.465082       -12.6555
 198   2.0000      -0.462448       -12.5839
 199   2.0000      -0.461158       -12.5488
 200   2.0000      -0.456924       -12.4335
 201   2.0000      -0.456046       -12.4096
 202   2.0000      -0.454225       -12.3601
 203   2.0000      -0.453006       -12.3269
 204   2.0000      -0.452601       -12.3159
 205   2.0000      -0.450379       -12.2554
 206   2.0000      -0.449412       -12.2291
 207   2.0000      -0.443424       -12.0662
 208   2.0000      -0.439068       -11.9477
 209   2.0000      -0.436466       -11.8768
 210   2.0000      -0.435273       -11.8444
 211   2.0000      -0.434955       -11.8357
 212   2.0000      -0.433484       -11.7957
 213   2.0000      -0.431235       -11.7345
 214   2.0000      -0.426399       -11.6029
 215   2.0000      -0.425655       -11.5827
 216   2.0000      -0.425204       -11.5704
 217   2.0000      -0.419936       -11.4270
 218   2.0000      -0.413656       -11.2562
 219   2.0000      -0.413190       -11.2435
 220   2.0000      -0.413037       -11.2393
 221   2.0000      -0.411386       -11.1944
 222   2.0000      -0.410514       -11.1706
 223   2.0000      -0.408730       -11.1221
 224   2.0000      -0.408546       -11.1171
 225   2.0000      -0.397479       -10.8160
 226   2.0000      -0.397426       -10.8145
 227   2.0000      -0.386351       -10.5131
 228   2.0000      -0.385365       -10.4863
 229   2.0000      -0.367845       -10.0096
 230   2.0000      -0.364713        -9.9243
 231   2.0000      -0.354423        -9.6443
 232   2.0000      -0.348543        -9.4843
 233   2.0000      -0.346256        -9.4221
 234   2.0000      -0.342649        -9.3240
 235   2.0000      -0.333605        -9.0779
 236   2.0000      -0.315761        -8.5923
 237   2.0000      -0.304908        -8.2970
 238   2.0000      -0.290988        -7.9182
 239   2.0000      -0.278013        -7.5651
 240   2.0000      -0.272799        -7.4232
 241   2.0000      -0.240461        -6.5433
 242   0.0000      -0.117506        -3.1975
 243   0.0000      -0.116635        -3.1738
 244   0.0000      -0.112074        -3.0497
 245   0.0000      -0.071169        -1.9366
 246   0.0000      -0.065094        -1.7713

MULLIKEN ATOMIC CHARGES
-----------------------
   0 C :   -0.063340
   1 C :    0.023564
   2 C :   -0.036000
   3 C :   -0.115157
   4 S :    0.184171
   5 C :   -0.097222
   6 C :    0.015263
   7 C :    0.302442
   8 C :   -0.303695
   9 C :   -0.185360
  10 N :    0.182997
  11 C :   -0.202307
  12 N :    0.189603
  13 C :   -0.012449
  14 C :   -0.112102
  15 S :    0.196717
  16 C :    0.291497
  17 C :   -0.217794
  18 C :    0.303763
  19 C :   -0.334428
  20 C :   -0.173775
  21 N :    0.131578
  22 C :   -0.175650
  23 N :    0.098883
  24 C :   -0.127319
  25 C :    0.237138
  26 O :   -0.268578
  27 C :   -0.055962
  28 C :    0.013202
  29 C :    0.037532
  30 C :    0.049394
  31 C :   -0.018040
  32 S :    0.096068
  33 C :   -0.020290
  34 C :    0.053349
  35 C :    0.033308
  36 C :    0.017660
  37 S :    0.097055
  38 C :   -0.055504
  39 C :    0.235913
  40 C :   -0.128708
  41 C :    0.298605
  42 C :   -0.327966
  43 C :   -0.173451
  44 N :    0.096943
  45 C :   -0.173969
  46 N :    0.129118
  47 C :   -0.216070
  48 C :    0.288968
  49 O :   -0.268538
  50 C :   -0.109030
  51 C :   -0.019833
  52 C :    0.022150
  53 C :   -0.095826
  54 S :    0.197629
  55 C :   -0.118004
  56 C :   -0.039821
  57 C :    0.302465
  58 C :   -0.301133
  59 C :   -0.200942
  60 N :    0.190082
  61 C :   -0.187664
  62 N :    0.182057
  63 C :    0.028545
  64 C :   -0.065726
  65 S :    0.183698
  66 H :    0.053156
  67 H :    0.024024
  68 H :    0.003084
  69 H :    0.035559
  70 H :    0.023456
  71 H :    0.007152
  72 H :    0.000112
  73 H :   -0.002278
  74 H :   -0.002744
  75 H :    0.000167
  76 H :    0.007535
  77 H :    0.024068
  78 H :    0.035723
  79 H :    0.004567
  80 H :    0.023033
  81 H :    0.053685
Sum of atomic charges:   -0.0000000

LOEWDIN ATOMIC CHARGES
----------------------
   0 C :   -0.157680
   1 C :   -0.032689
   2 C :   -0.075581
   3 C :   -0.203639
   4 S :    0.482135
   5 C :   -0.167354
   6 C :   -0.075176
   7 C :    0.075084
   8 C :   -0.106523
   9 C :   -0.023681
  10 N :   -0.039465
  11 C :   -0.020773
  12 N :   -0.022828
  13 C :   -0.006985
  14 C :   -0.193916
  15 S :    0.517965
  16 C :    0.067327
  17 C :   -0.066195
  18 C :    0.053893
  19 C :   -0.178527
  20 C :   -0.027668
  21 N :   -0.071774
  22 C :   -0.021918
  23 N :   -0.092394
  24 C :   -0.043531
  25 C :    0.082784
  26 O :   -0.017117
  27 C :   -0.079264
  28 C :   -0.116152
  29 C :   -0.025487
  30 C :   -0.010251
  31 C :   -0.163182
  32 S :    0.439818
  33 C :   -0.163114
  34 C :   -0.010045
  35 C :   -0.025643
  36 C :   -0.115810
  37 S :    0.440752
  38 C :   -0.079270
  39 C :    0.082585
  40 C :   -0.043867
  41 C :    0.053674
  42 C :   -0.178269
  43 C :   -0.021661
  44 N :   -0.092417
  45 C :   -0.027523
  46 N :   -0.071621
  47 C :   -0.066224
  48 C :    0.067420
  49 O :   -0.016901
  50 C :   -0.193930
  51 C :   -0.007124
  52 C :   -0.074984
  53 C :   -0.167098
  54 S :    0.517794
  55 C :   -0.203386
  56 C :   -0.075577
  57 C :    0.075446
  58 C :   -0.106447
  59 C :   -0.020664
  60 N :   -0.023102
  61 C :   -0.023551
  62 N :   -0.039465
  63 C :   -0.032656
  64 C :   -0.157831
  65 S :    0.481985
  66 H :    0.036298
  67 H :    0.045676
  68 H :    0.026922
  69 H :    0.037282
  70 H :    0.049925
  71 H :    0.047589
  72 H :    0.038632
  73 H :    0.037259
  74 H :    0.037226
  75 H :    0.038609
  76 H :    0.047598
  77 H :    0.050082
  78 H :    0.037417
  79 H :    0.026773
  80 H :    0.045608
  81 H :    0.036373

  Mayer bond orders larger than 0.100000
B(  0-C ,  1-C ) :   1.5409 B(  0-C ,  4-S ) :   1.1563 B(  0-C , 66-H ) :   0.9595
B(  1-C ,  2-C ) :   1.2739 B(  1-C , 67-H ) :   1.0022 B(  2-C ,  3-C ) :   1.4275
B(  2-C ,  7-C ) :   1.0159 B(  3-C ,  4-S ) :   1.1284 B(  3-C ,  5-C ) :   1.1917
B(  5-C ,  6-C ) :   1.4359 B(  5-C , 15-S ) :   1.1495 B(  6-C ,  7-C ) :   0.9880
B(  6-C , 13-C ) :   1.2740 B(  7-C ,  8-C ) :   1.7069 B(  8-C ,  9-C ) :   1.1508
B(  8-C , 11-C ) :   1.1373 B(  9-C , 10-N ) :   2.9544 B( 11-C , 12-N ) :   2.9540
B( 13-C , 14-C ) :   1.4291 B( 13-C , 68-H ) :   1.0063 B( 14-C , 15-S ) :   1.1141
B( 14-C , 16-C ) :   1.1018 B( 16-C , 17-C ) :   1.5557 B( 16-C , 26-O ) :   1.1243
B( 17-C , 18-C ) :   1.1178 B( 17-C , 69-H ) :   0.9605 B( 18-C , 19-C ) :   1.5230
B( 18-C , 24-C ) :   1.1419 B( 19-C , 20-C ) :   1.1348 B( 19-C , 22-C ) :   1.1521
B( 20-C , 21-N ) :   3.0105 B( 22-C , 23-N ) :   2.9631 B( 24-C , 25-C ) :   1.4903
B( 24-C , 70-H ) :   0.9755 B( 25-C , 26-O ) :   1.0583 B( 25-C , 27-C ) :   1.1526
B( 27-C , 28-C ) :   1.5443 B( 27-C , 71-H ) :   0.9754 B( 28-C , 29-C ) :   1.1352
B( 28-C , 32-S ) :   1.0750 B( 29-C , 30-C ) :   1.6063 B( 29-C , 72-H ) :   0.9984
B( 30-C , 31-C ) :   1.1788 B( 30-C , 73-H ) :   0.9934 B( 31-C , 32-S ) :   1.0410
B( 31-C , 33-C ) :   1.5136 B( 33-C , 34-C ) :   1.1775 B( 33-C , 37-S ) :   1.0425
B( 34-C , 35-C ) :   1.6077 B( 34-C , 74-H ) :   0.9932 B( 35-C , 36-C ) :   1.1349
B( 35-C , 75-H ) :   0.9984 B( 36-C , 37-S ) :   1.0741 B( 36-C , 38-C ) :   1.5441
B( 38-C , 39-C ) :   1.1512 B( 38-C , 76-H ) :   0.9759 B( 39-C , 40-C ) :   1.4900
B( 39-C , 49-O ) :   1.0598 B( 40-C , 41-C ) :   1.1418 B( 40-C , 77-H ) :   0.9765
B( 41-C , 42-C ) :   1.5253 B( 41-C , 47-C ) :   1.1147 B( 42-C , 43-C ) :   1.1511
B( 42-C , 45-C ) :   1.1306 B( 43-C , 44-N ) :   2.9604 B( 45-C , 46-N ) :   3.0103
B( 47-C , 48-C ) :   1.5560 B( 47-C , 78-H ) :   0.9617 B( 48-C , 49-O ) :   1.1249
B( 48-C , 50-C ) :   1.1011 B( 50-C , 51-C ) :   1.4301 B( 50-C , 54-S ) :   1.1130
B( 51-C , 52-C ) :   1.2732 B( 51-C , 79-H ) :   1.0065 B( 52-C , 53-C ) :   1.4326
B( 52-C , 57-C ) :   0.9887 B( 53-C , 54-S ) :   1.1501 B( 53-C , 55-C ) :   1.1925
B( 55-C , 56-C ) :   1.4298 B( 55-C , 65-S ) :   1.1273 B( 56-C , 57-C ) :   1.0164
B( 56-C , 63-C ) :   1.2734 B( 57-C , 58-C ) :   1.7081 B( 58-C , 59-C ) :   1.1351
B( 58-C , 61-C ) :   1.1506 B( 59-C , 60-N ) :   2.9557 B( 61-C , 62-N ) :   2.9560
B( 63-C , 64-C ) :   1.5397 B( 63-C , 80-H ) :   1.0022 B( 64-C , 65-S ) :   1.1569
B( 64-C , 81-H ) :   0.9603

-----------------------------------------------------------------------------
         ABSORPTION SPECTRUM VIA TRANSITION ELECTRIC DIPOLE MOMENTS
-----------------------------------------------------------------------------
State   Energy  Wavelength   fosc         T2         TX        TY        TZ
        (cm-1)    (nm)                  (au**2)     (au)      (au)      (au)
-----------------------------------------------------------------------------
   0   11273.6    887.0   0.032960124   0.96250  -0.08045  -0.81455   0.54088
   1   11533.6    867.0   0.001547127   0.04416  -0.08690   0.18474   0.04981
   2   13730.9    728.3   0.691078327  16.56929   0.81190   3.57697  -1.76506
   3   16096.2    621.3   0.013716689   0.28054   0.29380  -0.27222  -0.34658
   4   16299.2    613.5   0.120123953   2.42626   0.22343  -1.18316   0.98816
   5   16431.2    608.6   0.000582407   0.01167  -0.06314  -0.07082   0.05165
   6   16914.1    591.2   0.093819418   1.82607   0.88617   1.02010   0.01305
   7   20533.1    487.0   0.000091903   0.00147  -0.02072  -0.03026  -0.01134
   8   20598.2    485.5   0.011806917   0.18870  -0.25250   0.13027  -0.32860
   9   20811.0    480.5   0.130015282   2.05673  -0.07138   1.14856  -0.85583
  10   21117.6    473.5   0.011595314   0.18077   0.23393  -0.22992  -0.27051
  11   21917.4    456.3   0.056896486   0.85462   0.62907  -0.23070   0.63692
  12   22539.2    443.7   0.123139045   1.79859  -0.74763   0.62147   0.92381
  13   23587.7    423.9   0.000150940   0.00211  -0.03049   0.03364  -0.00672
  14   24045.2    415.9   0.079338627   1.08626  -0.27154   0.75680  -0.66316
  15   24187.7    413.4   0.416732001   5.67203   1.32406  -1.07990  -1.65912
  16   25869.3    386.6   0.005987207   0.07619   0.16103  -0.15143  -0.16533
  17   26269.1    380.7   0.001450933   0.01818   0.11871   0.04244   0.04785
  18   26772.0    373.5   0.069013203   0.84865   0.11011  -0.74371   0.53236
  19   27186.4    367.8   0.143101641   1.73288  -0.72545   0.58362   0.93058
  20   27365.2    365.4   0.093603568   1.12608   0.59321  -0.52444  -0.70651
  21   28346.5    352.8   0.654980889   7.60686   0.19589  -2.09493   1.78318
  22   28387.1    352.3   0.114854392   1.33199   0.31990  -1.02058   0.43368
  23   29813.8    335.4   0.027083384   0.29906   0.02534  -0.39939   0.37270
  24   29937.6    334.0   0.624294047   6.86512   0.34191  -2.03627   1.61302
  25   30306.6    330.0   0.040606614   0.44110   0.36201  -0.22925  -0.50743
  26   30634.0    326.4   0.413730021   4.44619   0.04337   1.76246  -1.15674
  27   30955.2    323.0   0.017128003   0.18216  -0.23965   0.24436   0.25497
  28   31267.1    319.8   0.040546442   0.42691  -0.07382   0.44217  -0.47534
  29   31434.5    318.1   0.351607401   3.68237  -1.05957   0.86724   1.34446
  30   31730.7    315.2   0.398908680   4.13875  -0.14931   1.66328  -1.16187
  31   32050.1    312.0   0.568518544   5.83970   1.37141  -1.09297  -1.66263
  32   32167.6    310.9   0.019294520   0.19747   0.09371   0.39738   0.17542
  33   32358.4    309.0   0.000219593   0.00223   0.00914   0.02867   0.03645
  34   32664.4    306.1   0.047189081   0.47560   0.00018   0.55820  -0.40498
  35   33682.5    296.9   0.002268863   0.02218   0.02891  -0.13965   0.04286
  36   33851.6    295.4   0.112471638   1.09380  -0.26704  -0.87254   0.51105
  37   33919.7    294.8   0.086300725   0.83760   0.49890  -0.65053  -0.40684
  38   34088.3    293.4   0.198711907   1.91909   0.27632  -0.89060   1.02448
  39   34536.3    289.6   0.034426310   0.32816  -0.04920  -0.47271   0.31982
  40   34836.8    287.1   0.091104212   0.86095  -0.52571   0.43370   0.62966
  41   35240.1    283.8   0.109034437   1.01860  -0.45510   0.77491   0.45934
  42   35264.1    283.6   0.086937869   0.81162   0.41383   0.34543  -0.72183
  43   35623.6    280.7   0.080631691   0.74515  -0.41262   0.19726   0.73211
  44   35692.8    280.2   0.129115438   1.19089   0.35382  -0.90588   0.49505
  45   35880.8    278.7   0.007798466   0.07155   0.13149  -0.06654  -0.22324
  46   36136.4    276.7   0.157833884   1.43791  -0.07192   0.87310  -0.81880
  47   36287.5    275.6   0.058279852   0.52873   0.41434  -0.45723  -0.38469
  48   36706.7    272.4   0.003149747   0.02825  -0.12123  -0.04535  -0.10722
  49   37119.8    269.4   0.005888982   0.05223  -0.12148   0.13687   0.13688
  50   37632.4    265.7   0.139243846   1.21812  -0.59891   0.62777   0.68215
  51   37678.5    265.4   0.049315575   0.43089  -0.22239  -0.48296   0.38494
  52   37778.2    264.7   0.017307933   0.15083   0.00854   0.25386  -0.29378
  53   37829.4    264.3   0.063605281   0.55353   0.14143  -0.51983   0.51313
  54   38493.6    259.8   0.234012515   2.00136  -0.21322   1.07340  -0.89650
  55   39105.7    255.7   0.010210484   0.08596   0.17009  -0.12123  -0.20574
  56   39349.9    254.1   0.037683150   0.31527  -0.11090  -0.49135   0.24809
  57   39721.2    251.8   0.000481166   0.00399  -0.04053   0.00945   0.04749
  58   40011.6    249.9   0.002207772   0.01817   0.06788  -0.07565  -0.08852
  59   40147.8    249.1   0.005059939   0.04149   0.09233   0.17664  -0.04201

FINAL SINGLE POINT ENERGY     -4888.388980523708

DIPOLE MOMENT
-------------
                                X             Y             Z
Electronic contribution:     10.17709      -8.58373     -12.64614
Nuclear contribution   :    -11.12689       9.31681      13.74067
                        -----------------------------------------
Total Dipole Moment    :     -0.94980       0.73307       1.09454
                        -----------------------------------------
Magnitude (a.u.)       :      1.62404
Magnitude (Debye)      :      4.12799

Rotational constants in cm-1:     0.001790     0.001068     0.000780
Rotational constants in MHz :    53.677242    32.019872    23.386337

                             ****ORCA TERMINATED NORMALLY****
TOTAL RUN TIME: 0 days 0 hours 9 minutes 59 seconds 767 msec
