                         Program Version 4.2.0 -  RELEASE  -
|  1> # ORCA input file
|  2> # SCF done       -192.052309043355          0.000380862981
|  3> ! CAM-B3LYP def2-SVP def2/J RIJCOSX Grid4 TightSCF
|  4> %maxcore 5000
|  5> %tddft
|  6>     Mode sTDDFT
|  7>     Ethresh 5.0
|  8>     maxcore 5000
|  9> end
| 10>
| 11> %pal
| 12>   nprocs 6
| 13>   end
| 14> * xyz 0 1
| 15>    C        5.84362         9.15345       -10.92823
| 16>    C        5.90041         8.44814        -9.76564
| 17>    C        5.00521         8.96384        -8.80799
| 18>    C        4.28651        10.06516        -9.28830
| 19>    S        4.70511        10.46114       -10.89499
| 20>    C        3.41511        10.52211        -8.26009
| 21>    C        3.58423         9.70408        -7.13558
| 22>    C        4.59398         8.69578        -7.44330
| 23>    C        5.05351         7.71254        -6.61702
| 24>    C        4.57838         7.54628        -5.29924
| 25>    N        4.20101         7.40059        -4.22631
| 26>    C        6.04052         6.79085        -7.02475
| 27>    N        6.84237         6.03844        -7.35032
| 28>    C        2.76861        10.07403        -6.06781
| 29>    C        1.97208        11.16927        -6.36509
| 30>    S        2.25290        11.74335        -8.00311
| 31>    C        1.04765        11.78403        -5.47804
| 32>    C        0.16885        12.84641        -5.66511
| 33>    C        0.00864        13.64754        -6.91819
| 34>    C        1.04389        14.77212        -6.98793
| 35>    C       -0.55938        13.13521        -4.50888
| 36>    C       -0.27782        12.32036        -3.42874
| 37>    S        0.93571        11.14938        -3.85512
| 38>    C       -0.85584        12.38482        -2.14075
| 39>    C       -0.57156        11.52616        -1.12832
| 40>    C       -1.14363        11.59814         0.15977
| 41>    S       -2.23919        12.87813         0.60039
| 42>    C       -0.93719        10.72073         1.22794
| 43>    C       -0.05127         9.54177         1.15189
| 44>    O        0.57291         9.21326         0.15657
| 45>    C        0.00009         8.80649         2.40415
| 46>    C        0.71431         7.67183         2.72151
| 47>    N        0.44355         7.33549         4.00500
| 48>    C        1.05538         6.24663         4.72417
| 49>    C        2.34650         6.69664         5.40488
| 50>    C       -0.42269         8.23087         4.53441
| 51>    C       -0.73210         9.16703         3.57074
| 52>    C       -1.61617        10.31597         3.65057
| 53>    O       -2.24481        10.61062         4.65591
| 54>    C       -1.66358        11.07938         2.38818
| 55>    C       -2.42689        12.24043         2.21800
| 56>    C       -3.24259        12.87373         3.16531
| 57>    C       -3.91529        14.04945         2.94801
| 58>    C       -4.70116        14.66683         3.91901
| 59>    C       -5.34656        15.87542         3.75092
| 60>    C       -6.13498        16.55612         4.70125
| 61>    C       -6.62181        17.75679         4.26570
| 62>    C       -6.24089        18.07691         2.94842
| 63>    S       -5.25484        16.81447         2.27069
| 64>    C       -6.54884        19.23163         2.23309
| 65>    C       -7.31987        20.32482         2.65982
| 66>    C       -7.39680        21.33777         1.73973
| 67>    C       -6.68114        21.09049         0.55526
| 68>    S       -5.95906        19.50351         0.61459
| 69>    C       -6.52575        21.87232        -0.58884
| 70>    C       -6.88305        23.19191        -0.79503
| 71>    C       -7.19574        24.21123         0.11001
| 72>    C       -8.05441        25.32616        -0.21946
| 73>    C       -8.65410        25.59606        -1.42880
| 74>    C       -8.55607        24.82166        -2.60113
| 75>    N       -8.55846        24.24891        -3.59816
| 76>    C       -9.47415        26.71554        -1.67203
| 77>    N      -10.14450        27.60600        -1.95138
| 78>    C       -8.24921        26.10046         1.00344
| 79>    C       -7.49625        25.50210         2.03659
| 80>    C       -7.52813        26.01713         3.32047
| 81>    C       -8.31030        27.13686         3.56776
| 82>    C       -9.03838        27.73427         2.55153
| 83>    C       -9.01661        27.22337         1.26086
| 84>    C       -6.74861        24.38504         1.46907
| 85>    C       -5.66600        23.78359         2.07465
| 86>    C       -5.29992        23.97816         3.41826
| 87>    N       -4.96924        24.05257         4.51674
| 88>    C       -4.74044        22.95200         1.42131
| 89>    N       -3.91376        22.31127         0.94512
| 90>    H        6.40706         8.99035       -11.82493
| 91>    H        6.54991         7.60637        -9.60956
| 92>    H        2.74091         9.58259        -5.11184
| 93>    H       -0.99192        14.08404        -6.92522
| 94>    H        0.09960        13.00629        -7.79681
| 95>    H        0.92499        15.44423        -6.14133
| 96>    H        0.91789        15.34124        -7.90505
| 97>    H        2.05398        14.37044        -6.96697
| 98>    H       -1.28753        13.92580        -4.45688
| 99>    H       -1.57311        13.18210        -1.98295
|100>    H        0.12963        10.71670        -1.28605
|101>    H        1.38055         7.09792         2.10860
|102>    H        1.26684         5.43974         4.01801
|103>    H        0.34614         5.88123         5.47134
|104>    H        3.05739         7.05862         4.66610
|105>    H        2.79337         5.86432         5.94091
|106>    H        2.14315         7.49832         6.11080
|107>    H       -0.77413         8.15623         5.54436
|108>    H       -3.31118        12.38486         4.12822
|109>    H       -3.82606        14.53713         1.98385
|110>    H       -4.80637        14.17926         4.87956
|111>    H       -6.31729        16.14570         5.67863
|112>    H       -7.23398        18.41133         4.85886
|113>    H       -7.79858        20.35302         3.62213
|114>    H       -7.98315        22.22738         1.88262
|115>    H       -6.12091        21.35229        -1.44742
|116>    H       -6.95839        23.47180        -1.83852
|117>    H       -6.96833        25.56192         4.12107
|118>    H       -8.34762        27.54567         4.56616
|119>    H       -9.63457        28.60907         2.76248
|120>    H       -9.58941        27.70254         0.48446
|121> *
|122>
|123>                          ****END OF INPUT****

CARTESIAN COORDINATES (ANGSTROEM)
---------------------------------
  C      5.843620    9.153450  -10.928230
  C      5.900410    8.448140   -9.765640
  C      5.005210    8.963840   -8.807990
  C      4.286510   10.065160   -9.288300
  S      4.705110   10.461140  -10.894990
  C      3.415110   10.522110   -8.260090
  C      3.584230    9.704080   -7.135580
  C      4.593980    8.695780   -7.443300
  C      5.053510    7.712540   -6.617020
  C      4.578380    7.546280   -5.299240
  N      4.201010    7.400590   -4.226310
  C      6.040520    6.790850   -7.024750
  N      6.842370    6.038440   -7.350320
  C      2.768610   10.074030   -6.067810
  C      1.972080   11.169270   -6.365090
  S      2.252900   11.743350   -8.003110
  C      1.047650   11.784030   -5.478040
  C      0.168850   12.846410   -5.665110
  C      0.008640   13.647540   -6.918190
  C      1.043890   14.772120   -6.987930
  C     -0.559380   13.135210   -4.508880
  C     -0.277820   12.320360   -3.428740
  S      0.935710   11.149380   -3.855120
  C     -0.855840   12.384820   -2.140750
  C     -0.571560   11.526160   -1.128320
  C     -1.143630   11.598140    0.159770
  S     -2.239190   12.878130    0.600390
  C     -0.937190   10.720730    1.227940
  C     -0.051270    9.541770    1.151890
  O      0.572910    9.213260    0.156570
  C      0.000090    8.806490    2.404150
  C      0.714310    7.671830    2.721510
  N      0.443550    7.335490    4.005000
  C      1.055380    6.246630    4.724170
  C      2.346500    6.696640    5.404880
  C     -0.422690    8.230870    4.534410
  C     -0.732100    9.167030    3.570740
  C     -1.616170   10.315970    3.650570
  O     -2.244810   10.610620    4.655910
  C     -1.663580   11.079380    2.388180
  C     -2.426890   12.240430    2.218000
  C     -3.242590   12.873730    3.165310
  C     -3.915290   14.049450    2.948010
  C     -4.701160   14.666830    3.919010
  C     -5.346560   15.875420    3.750920
  C     -6.134980   16.556120    4.701250
  C     -6.621810   17.756790    4.265700
  C     -6.240890   18.076910    2.948420
  S     -5.254840   16.814470    2.270690
  C     -6.548840   19.231630    2.233090
  C     -7.319870   20.324820    2.659820
  C     -7.396800   21.337770    1.739730
  C     -6.681140   21.090490    0.555260
  S     -5.959060   19.503510    0.614590
  C     -6.525750   21.872320   -0.588840
  C     -6.883050   23.191910   -0.795030
  C     -7.195740   24.211230    0.110010
  C     -8.054410   25.326160   -0.219460
  C     -8.654100   25.596060   -1.428800
  C     -8.556070   24.821660   -2.601130
  N     -8.558460   24.248910   -3.598160
  C     -9.474150   26.715540   -1.672030
  N    -10.144500   27.606000   -1.951380
  C     -8.249210   26.100460    1.003440
  C     -7.496250   25.502100    2.036590
  C     -7.528130   26.017130    3.320470
  C     -8.310300   27.136860    3.567760
  C     -9.038380   27.734270    2.551530
  C     -9.016610   27.223370    1.260860
  C     -6.748610   24.385040    1.469070
  C     -5.666000   23.783590    2.074650
  C     -5.299920   23.978160    3.418260
  N     -4.969240   24.052570    4.516740
  C     -4.740440   22.952000    1.421310
  N     -3.913760   22.311270    0.945120
  H      6.407060    8.990350  -11.824930
  H      6.549910    7.606370   -9.609560
  H      2.740910    9.582590   -5.111840
  H     -0.991920   14.084040   -6.925220
  H      0.099600   13.006290   -7.796810
  H      0.924990   15.444230   -6.141330
  H      0.917890   15.341240   -7.905050
  H      2.053980   14.370440   -6.966970
  H     -1.287530   13.925800   -4.456880
  H     -1.573110   13.182100   -1.982950
  H      0.129630   10.716700   -1.286050
  H      1.380550    7.097920    2.108600
  H      1.266840    5.439740    4.018010
  H      0.346140    5.881230    5.471340
  H      3.057390    7.058620    4.666100
  H      2.793370    5.864320    5.940910
  H      2.143150    7.498320    6.110800
  H     -0.774130    8.156230    5.544360
  H     -3.311180   12.384860    4.128220
  H     -3.826060   14.537130    1.983850
  H     -4.806370   14.179260    4.879560
  H     -6.317290   16.145700    5.678630
  H     -7.233980   18.411330    4.858860
  H     -7.798580   20.353020    3.622130
  H     -7.983150   22.227380    1.882620
  H     -6.120910   21.352290   -1.447420
  H     -6.958390   23.471800   -1.838520
  H     -6.968330   25.561920    4.121070
  H     -8.347620   27.545670    4.566160
  H     -9.634570   28.609070    2.762480
  H     -9.589410   27.702540    0.484460

 Total Charge           Charge          ....    0
 Multiplicity           Mult            ....    1
 Number of Electrons    NEL             ....  552
 Basis Dimension        Dim             .... 1229

ORBITAL ENERGIES
----------------

  NO   OCC          E(Eh)            E(eV)
   0   2.0000     -88.991179     -2421.5731
   1   2.0000     -88.986556     -2421.4473
   2   2.0000     -88.976555     -2421.1751
   3   2.0000     -88.974275     -2421.1131
   4   2.0000     -88.962452     -2420.7914
   5   2.0000     -88.960579     -2420.7404
   6   2.0000     -19.210086      -522.7330
   7   2.0000     -19.204445      -522.5795
   8   2.0000     -14.493302      -394.3828
   9   2.0000     -14.427954      -392.6046
  10   2.0000     -14.427577      -392.5943
  11   2.0000     -14.395366      -391.7178
  12   2.0000     -14.394638      -391.6980
  13   2.0000     -14.393684      -391.6720
  14   2.0000     -14.392886      -391.6503
  15   2.0000     -10.369869      -282.1785
  16   2.0000     -10.364866      -282.0423
  17   2.0000     -10.361653      -281.9549
  18   2.0000     -10.349450      -281.6229
  19   2.0000     -10.347339      -281.5654
  20   2.0000     -10.337758      -281.3047
  21   2.0000     -10.332309      -281.1564
  22   2.0000     -10.329394      -281.0771
  23   2.0000     -10.328745      -281.0594
  24   2.0000     -10.328381      -281.0495
  25   2.0000     -10.327930      -281.0373
  26   2.0000     -10.327755      -281.0325
  27   2.0000     -10.327422      -281.0234
  28   2.0000     -10.327320      -281.0207
  29   2.0000     -10.327231      -281.0183
  30   2.0000     -10.322272      -280.8833
  31   2.0000     -10.319056      -280.7958
  32   2.0000     -10.318958      -280.7931
  33   2.0000     -10.318474      -280.7800
  34   2.0000     -10.318295      -280.7751
  35   2.0000     -10.317886      -280.7640
  36   2.0000     -10.316735      -280.7326
  37   2.0000     -10.316540      -280.7273
  38   2.0000     -10.315271      -280.6928
  39   2.0000     -10.314876      -280.6820
  40   2.0000     -10.310700      -280.5684
  41   2.0000     -10.310273      -280.5568
  42   2.0000     -10.307419      -280.4791
  43   2.0000     -10.307238      -280.4742
  44   2.0000     -10.306209      -280.4462
  45   2.0000     -10.302994      -280.3587
  46   2.0000     -10.302475      -280.3446
  47   2.0000     -10.300974      -280.3038
  48   2.0000     -10.300764      -280.2980
  49   2.0000     -10.299751      -280.2705
  50   2.0000     -10.299577      -280.2657
  51   2.0000     -10.298608      -280.2394
  52   2.0000     -10.298085      -280.2251
  53   2.0000     -10.297401      -280.2065
  54   2.0000     -10.296322      -280.1772
  55   2.0000     -10.296197      -280.1738
  56   2.0000     -10.295252      -280.1480
  57   2.0000     -10.293063      -280.0885
  58   2.0000     -10.290404      -280.0161
  59   2.0000     -10.288616      -279.9675
  60   2.0000     -10.286078      -279.8984
  61   2.0000     -10.285700      -279.8881
  62   2.0000     -10.285634      -279.8863
  63   2.0000     -10.285359      -279.8789
  64   2.0000     -10.285075      -279.8711
  65   2.0000     -10.282569      -279.8029
  66   2.0000     -10.280839      -279.7558
  67   2.0000     -10.277931      -279.6767
  68   2.0000     -10.276632      -279.6414
  69   2.0000     -10.276361      -279.6340
  70   2.0000     -10.276179      -279.6291
  71   2.0000     -10.275274      -279.6044
  72   2.0000     -10.275097      -279.5996
  73   2.0000     -10.273827      -279.5650
  74   2.0000     -10.266369      -279.3621
  75   2.0000      -8.084891      -220.0011
  76   2.0000      -8.081478      -219.9082
  77   2.0000      -8.072107      -219.6532
  78   2.0000      -8.070486      -219.6091
  79   2.0000      -8.057710      -219.2614
  80   2.0000      -8.056936      -219.2404
  81   2.0000      -6.054246      -164.7444
  82   2.0000      -6.050737      -164.6489
  83   2.0000      -6.049904      -164.6263
  84   2.0000      -6.047347      -164.5567
  85   2.0000      -6.046287      -164.5278
  86   2.0000      -6.044133      -164.4692
  87   2.0000      -6.041143      -164.3879
  88   2.0000      -6.040028      -164.3575
  89   2.0000      -6.037324      -164.2839
  90   2.0000      -6.036019      -164.2484
  91   2.0000      -6.034346      -164.2029
  92   2.0000      -6.031731      -164.1317
  93   2.0000      -6.027037      -164.0040
  94   2.0000      -6.026488      -163.9891
  95   2.0000      -6.023010      -163.8944
  96   2.0000      -6.022394      -163.8777
  97   2.0000      -6.019623      -163.8023
  98   2.0000      -6.018218      -163.7640
  99   2.0000      -1.127102       -30.6700
 100   2.0000      -1.121172       -30.5086
 101   2.0000      -1.112741       -30.2792
 102   2.0000      -1.041477       -28.3400
 103   2.0000      -1.019638       -27.7458
 104   2.0000      -1.019072       -27.7303
 105   2.0000      -1.007993       -27.4289
 106   2.0000      -1.007448       -27.4141
 107   2.0000      -1.005461       -27.3600
 108   2.0000      -1.002984       -27.2926
 109   2.0000      -0.994453       -27.0604
 110   2.0000      -0.990482       -26.9524
 111   2.0000      -0.985624       -26.8202
 112   2.0000      -0.981446       -26.7065
 113   2.0000      -0.973333       -26.4857
 114   2.0000      -0.972730       -26.4693
 115   2.0000      -0.954117       -25.9628
 116   2.0000      -0.944156       -25.6918
 117   2.0000      -0.937984       -25.5238
 118   2.0000      -0.933448       -25.4004
 119   2.0000      -0.920060       -25.0361
 120   2.0000      -0.911234       -24.7959
 121   2.0000      -0.906841       -24.6764
 122   2.0000      -0.902284       -24.5524
 123   2.0000      -0.891330       -24.2543
 124   2.0000      -0.889340       -24.2002
 125   2.0000      -0.877130       -23.8679
 126   2.0000      -0.870309       -23.6823
 127   2.0000      -0.866151       -23.5692
 128   2.0000      -0.862490       -23.4696
 129   2.0000      -0.852637       -23.2014
 130   2.0000      -0.849840       -23.1253
 131   2.0000      -0.846011       -23.0211
 132   2.0000      -0.845440       -23.0056
 133   2.0000      -0.841651       -22.9025
 134   2.0000      -0.841031       -22.8856
 135   2.0000      -0.835668       -22.7397
 136   2.0000      -0.823581       -22.4108
 137   2.0000      -0.810976       -22.0678
 138   2.0000      -0.801565       -21.8117
 139   2.0000      -0.785753       -21.3814
 140   2.0000      -0.776737       -21.1361
 141   2.0000      -0.774858       -21.0850
 142   2.0000      -0.770496       -20.9663
 143   2.0000      -0.764661       -20.8075
 144   2.0000      -0.754953       -20.5433
 145   2.0000      -0.741612       -20.1803
 146   2.0000      -0.728068       -19.8117
 147   2.0000      -0.721530       -19.6338
 148   2.0000      -0.710644       -19.3376
 149   2.0000      -0.706513       -19.2252
 150   2.0000      -0.700949       -19.0738
 151   2.0000      -0.691791       -18.8246
 152   2.0000      -0.690340       -18.7851
 153   2.0000      -0.689105       -18.7515
 154   2.0000      -0.685560       -18.6550
 155   2.0000      -0.679137       -18.4803
 156   2.0000      -0.672402       -18.2970
 157   2.0000      -0.668498       -18.1908
 158   2.0000      -0.655762       -17.8442
 159   2.0000      -0.652973       -17.7683
 160   2.0000      -0.649308       -17.6686
 161   2.0000      -0.641808       -17.4645
 162   2.0000      -0.640973       -17.4418
 163   2.0000      -0.639020       -17.3886
 164   2.0000      -0.638407       -17.3719
 165   2.0000      -0.631912       -17.1952
 166   2.0000      -0.625563       -17.0224
 167   2.0000      -0.622117       -16.9287
 168   2.0000      -0.619360       -16.8536
 169   2.0000      -0.614525       -16.7221
 170   2.0000      -0.612551       -16.6684
 171   2.0000      -0.606627       -16.5072
 172   2.0000      -0.594965       -16.1898
 173   2.0000      -0.592059       -16.1107
 174   2.0000      -0.584839       -15.9143
 175   2.0000      -0.577165       -15.7055
 176   2.0000      -0.575012       -15.6469
 177   2.0000      -0.562786       -15.3142
 178   2.0000      -0.560235       -15.2448
 179   2.0000      -0.558156       -15.1882
 180   2.0000      -0.557469       -15.1695
 181   2.0000      -0.551694       -15.0124
 182   2.0000      -0.548832       -14.9345
 183   2.0000      -0.545294       -14.8382
 184   2.0000      -0.543655       -14.7936
 185   2.0000      -0.540675       -14.7125
 186   2.0000      -0.538915       -14.6646
 187   2.0000      -0.536547       -14.6002
 188   2.0000      -0.529023       -14.3955
 189   2.0000      -0.528283       -14.3753
 190   2.0000      -0.523967       -14.2579
 191   2.0000      -0.522065       -14.2061
 192   2.0000      -0.520317       -14.1586
 193   2.0000      -0.519756       -14.1433
 194   2.0000      -0.516864       -14.0646
 195   2.0000      -0.516484       -14.0542
 196   2.0000      -0.514805       -14.0086
 197   2.0000      -0.510706       -13.8970
 198   2.0000      -0.509747       -13.8709
 199   2.0000      -0.507472       -13.8090
 200   2.0000      -0.505838       -13.7645
 201   2.0000      -0.501353       -13.6425
 202   2.0000      -0.498787       -13.5727
 203   2.0000      -0.497197       -13.5294
 204   2.0000      -0.495404       -13.4806
 205   2.0000      -0.494992       -13.4694
 206   2.0000      -0.494621       -13.4593
 207   2.0000      -0.492357       -13.3977
 208   2.0000      -0.487835       -13.2747
 209   2.0000      -0.485182       -13.2025
 210   2.0000      -0.484671       -13.1886
 211   2.0000      -0.484179       -13.1752
 212   2.0000      -0.480551       -13.0765
 213   2.0000      -0.478732       -13.0270
 214   2.0000      -0.477071       -12.9818
 215   2.0000      -0.472653       -12.8615
 216   2.0000      -0.471795       -12.8382
 217   2.0000      -0.467679       -12.7262
 218   2.0000      -0.462808       -12.5936
 219   2.0000      -0.461454       -12.5568
 220   2.0000      -0.459330       -12.4990
 221   2.0000      -0.459169       -12.4946
 222   2.0000      -0.458121       -12.4661
 223   2.0000      -0.457411       -12.4468
 224   2.0000      -0.455089       -12.3836
 225   2.0000      -0.454965       -12.3802
 226   2.0000      -0.452384       -12.3100
 227   2.0000      -0.448049       -12.1920
 228   2.0000      -0.446162       -12.1407
 229   2.0000      -0.444947       -12.1076
 230   2.0000      -0.444239       -12.0884
 231   2.0000      -0.440867       -11.9966
 232   2.0000      -0.439949       -11.9716
 233   2.0000      -0.438307       -11.9269
 234   2.0000      -0.437768       -11.9123
 235   2.0000      -0.436483       -11.8773
 236   2.0000      -0.435207       -11.8426
 237   2.0000      -0.430577       -11.7166
 238   2.0000      -0.430188       -11.7060
 239   2.0000      -0.429218       -11.6796
 240   2.0000      -0.426172       -11.5967
 241   2.0000      -0.424876       -11.5615
 242   2.0000      -0.423585       -11.5263
 243   2.0000      -0.422989       -11.5101
 244   2.0000      -0.422008       -11.4834
 245   2.0000      -0.419556       -11.4167
 246   2.0000      -0.415202       -11.2982
 247   2.0000      -0.410377       -11.1669
 248   2.0000      -0.408816       -11.1244
 249   2.0000      -0.406870       -11.0715
 250   2.0000      -0.405263       -11.0278
 251   2.0000      -0.400819       -10.9069
 252   2.0000      -0.398797       -10.8518
 253   2.0000      -0.389157       -10.5895
 254   2.0000      -0.385670       -10.4946
 255   2.0000      -0.383532       -10.4364
 256   2.0000      -0.368796       -10.0355
 257   2.0000      -0.360931        -9.8214
 258   2.0000      -0.356197        -9.6926
 259   2.0000      -0.351229        -9.5574
 260   2.0000      -0.346275        -9.4226
 261   2.0000      -0.344888        -9.3849
 262   2.0000      -0.338601        -9.2138
 263   2.0000      -0.338227        -9.2036
 264   2.0000      -0.332117        -9.0374
 265   2.0000      -0.331537        -9.0216
 266   2.0000      -0.328773        -8.9464
 267   2.0000      -0.325291        -8.8516
 268   2.0000      -0.319281        -8.6881
 269   2.0000      -0.309281        -8.4160
 270   2.0000      -0.308125        -8.3845
 271   2.0000      -0.305660        -8.3174
 272   2.0000      -0.288608        -7.8534
 273   2.0000      -0.270282        -7.3547
 274   2.0000      -0.245542        -6.6815
 275   2.0000      -0.223793        -6.0897
 276   0.0000      -0.123902        -3.3715
 277   0.0000      -0.100860        -2.7445
 278   0.0000      -0.075382        -2.0513
 279   0.0000      -0.065115        -1.7719
 280   0.0000      -0.064359        -1.7513

MULLIKEN ATOMIC CHARGES
-----------------------
   0 C :   -0.081778
   1 C :    0.036360
   2 C :   -0.036321
   3 C :   -0.112881
   4 S :    0.179108
   5 C :   -0.103433
   6 C :    0.031428
   7 C :    0.300048
   8 C :   -0.298086
   9 C :   -0.189582
  10 N :    0.177459
  11 C :   -0.191840
  12 N :    0.169380
  13 C :   -0.070434
  14 C :   -0.058617
  15 S :    0.165928
  16 C :   -0.084246
  17 C :   -0.043259
  18 C :    0.050316
  19 C :    0.026018
  20 C :   -0.035655
  21 C :   -0.019430
  22 S :    0.124879
  23 C :    0.034873
  24 C :   -0.026690
  25 C :   -0.106976
  26 S :    0.122021
  27 C :    0.014639
  28 C :    0.140123
  29 O :   -0.164692
  30 C :   -0.021020
  31 C :    0.011839
  32 N :   -0.135289
  33 C :    0.088687
  34 C :    0.000804
  35 C :    0.013316
  36 C :   -0.019205
  37 C :    0.137013
  38 O :   -0.174376
  39 C :    0.039028
  40 C :   -0.127996
  41 C :    0.009064
  42 C :   -0.005527
  43 C :    0.024037
  44 C :   -0.039310
  45 C :    0.062979
  46 C :    0.013159
  47 C :   -0.010486
  48 S :    0.118834
  49 C :   -0.058362
  50 C :    0.013835
  51 C :    0.082466
  52 C :   -0.101456
  53 S :    0.150507
  54 C :    0.042457
  55 C :   -0.005483
  56 C :   -0.093551
  57 C :    0.318475
  58 C :   -0.373115
  59 C :   -0.198740
  60 N :    0.147862
  61 C :   -0.190143
  62 N :    0.138748
  63 C :    0.007838
  64 C :    0.004512
  65 C :   -0.045195
  66 C :    0.044083
  67 C :    0.042642
  68 C :   -0.042210
  69 C :    0.228807
  70 C :   -0.357580
  71 C :   -0.192980
  72 N :    0.136037
  73 C :   -0.202348
  74 N :    0.157526
  75 H :    0.035488
  76 H :    0.011804
  77 H :    0.021282
  78 H :    0.006679
  79 H :    0.019048
  80 H :    0.015959
  81 H :    0.021911
  82 H :    0.016025
  83 H :   -0.021128
  84 H :   -0.003336
  85 H :    0.033836
  86 H :    0.012500
  87 H :    0.036552
  88 H :    0.034232
  89 H :    0.032529
  90 H :    0.032664
  91 H :    0.031040
  92 H :    0.006542
  93 H :    0.030158
  94 H :    0.012064
  95 H :    0.007668
  96 H :    0.002675
  97 H :    0.001422
  98 H :   -0.003066
  99 H :    0.007957
 100 H :   -0.003168
 101 H :    0.031278
 102 H :   -0.005253
 103 H :   -0.007076
 104 H :   -0.006351
 105 H :   -0.000782
Sum of atomic charges:   -0.0000000

LOEWDIN ATOMIC CHARGES
----------------------
   0 C :   -0.179120
   1 C :   -0.034099
   2 C :   -0.079106
   3 C :   -0.182113
   4 S :    0.474786
   5 C :   -0.189386
   6 C :   -0.066884
   7 C :    0.083593
   8 C :   -0.103766
   9 C :   -0.018433
  10 N :   -0.031979
  11 C :   -0.016316
  12 N :   -0.034848
  13 C :   -0.036743
  14 C :   -0.178648
  15 S :    0.497021
  16 C :   -0.177252
  17 C :   -0.054837
  18 C :   -0.038625
  19 C :   -0.051120
  20 C :   -0.042323
  21 C :   -0.168148
  22 S :    0.454457
  23 C :   -0.014089
  24 C :   -0.055790
  25 C :   -0.109522
  26 S :    0.451044
  27 C :   -0.091452
  28 C :    0.080837
  29 O :   -0.161415
  30 C :   -0.101002
  31 C :    0.033637
  32 N :    0.090802
  33 C :    0.044136
  34 C :   -0.057042
  35 C :    0.033131
  36 C :   -0.103719
  37 C :    0.082298
  38 O :   -0.168705
  39 C :   -0.063012
  40 C :   -0.145184
  41 C :    0.007807
  42 C :   -0.047637
  43 C :    0.004579
  44 C :   -0.164480
  45 C :    0.000469
  46 C :   -0.042150
  47 C :   -0.127711
  48 S :    0.412899
  49 C :   -0.203537
  50 C :    0.005557
  51 C :   -0.049405
  52 C :   -0.102826
  53 S :    0.431178
  54 C :   -0.077827
  55 C :    0.039528
  56 C :   -0.097694
  57 C :    0.076594
  58 C :   -0.152671
  59 C :   -0.024406
  60 N :   -0.064427
  61 C :   -0.018594
  62 N :   -0.067739
  63 C :   -0.015086
  64 C :   -0.011771
  65 C :   -0.008290
  66 C :   -0.006072
  67 C :   -0.009198
  68 C :   -0.000657
  69 C :    0.053249
  70 C :   -0.158160
  71 C :   -0.020947
  72 N :   -0.076911
  73 C :   -0.017475
  74 N :   -0.065622
  75 H :    0.027323
  76 H :    0.042414
  77 H :    0.035319
  78 H :    0.033468
  79 H :    0.015143
  80 H :    0.026848
  81 H :    0.026532
  82 H :    0.016159
  83 H :    0.030296
  84 H :    0.028102
  85 H :    0.034822
  86 H :    0.031744
  87 H :    0.034970
  88 H :    0.033866
  89 H :    0.031509
  90 H :    0.034036
  91 H :    0.030524
  92 H :    0.029657
  93 H :    0.043609
  94 H :    0.016976
  95 H :    0.044120
  96 H :    0.040573
  97 H :    0.037490
  98 H :    0.037077
  99 H :    0.039406
 100 H :    0.036195
 101 H :    0.047600
 102 H :    0.037451
 103 H :    0.032789
 104 H :    0.033151
 105 H :    0.039200

  Mayer bond orders larger than 0.100000
B(  0-C ,  1-C ) :   1.5532 B(  0-C ,  4-S ) :   1.1450 B(  0-C , 75-H ) :   0.9640
B(  1-C ,  2-C ) :   1.2735 B(  1-C , 76-H ) :   0.9963 B(  2-C ,  3-C ) :   1.4550
B(  2-C ,  7-C ) :   1.0168 B(  3-C ,  4-S ) :   1.1368 B(  3-C ,  5-C ) :   1.1784
B(  5-C ,  6-C ) :   1.4515 B(  5-C , 15-S ) :   1.1241 B(  6-C ,  7-C ) :   0.9880
B(  6-C , 13-C ) :   1.3036 B(  7-C ,  8-C ) :   1.7113 B(  8-C ,  9-C ) :   1.1333
B(  8-C , 11-C ) :   1.1291 B(  9-C , 10-N ) :   2.9934 B( 11-C , 12-N ) :   3.0014
B( 13-C , 14-C ) :   1.4416 B( 13-C , 77-H ) :   0.9852 B( 14-C , 15-S ) :   1.1053
B( 14-C , 16-C ) :   1.1639 B( 16-C , 17-C ) :   1.4864 B( 16-C , 22-S ) :   1.1286
B( 17-C , 18-C ) :   1.0713 B( 17-C , 20-C ) :   1.2720 B( 18-C , 19-C ) :   1.0947
B( 18-C , 78-H ) :   0.9182 B( 18-C , 79-H ) :   0.9168 B( 19-C , 80-H ) :   0.9673
B( 19-C , 81-H ) :   0.9685 B( 19-C , 82-H ) :   0.9692 B( 20-C , 21-C ) :   1.4411
B( 20-C , 83-H ) :   1.0046 B( 21-C , 22-S ) :   1.1042 B( 21-C , 23-C ) :   1.1860
B( 23-C , 24-C ) :   1.5607 B( 23-C , 84-H ) :   0.9747 B( 24-C , 25-C ) :   1.2146
B( 24-C , 85-H ) :   0.9489 B( 25-C , 26-S ) :   1.1256 B( 25-C , 27-C ) :   1.4378
B( 26-S , 40-C ) :   1.0911 B( 27-C , 28-C ) :   0.9403 B( 27-C , 39-C ) :   1.2187
B( 28-C , 29-O ) :   2.1891 B( 28-C , 30-C ) :   0.9976 B( 30-C , 31-C ) :   1.4307
B( 30-C , 36-C ) :   1.2903 B( 31-C , 32-N ) :   1.2317 B( 31-C , 86-H ) :   0.9932
B( 32-N , 33-C ) :   0.9496 B( 32-N , 35-C ) :   1.2400 B( 33-C , 34-C ) :   1.1105
B( 33-C , 87-H ) :   0.9509 B( 33-C , 88-H ) :   0.9513 B( 34-C , 89-H ) :   0.9676
B( 34-C , 90-H ) :   0.9683 B( 34-C , 91-H ) :   0.9676 B( 35-C , 36-C ) :   1.4196
B( 35-C , 92-H ) :   0.9934 B( 36-C , 37-C ) :   1.0051 B( 37-C , 38-O ) :   2.1811
B( 37-C , 39-C ) :   0.9355 B( 39-C , 40-C ) :   1.4388 B( 40-C , 41-C ) :   1.2182
B( 41-C , 42-C ) :   1.5058 B( 41-C , 93-H ) :   0.9619 B( 42-C , 43-C ) :   1.2168
B( 42-C , 94-H ) :   0.9682 B( 43-C , 44-C ) :   1.4909 B( 43-C , 95-H ) :   0.9876
B( 44-C , 45-C ) :   1.1809 B( 44-C , 48-S ) :   1.0295 B( 45-C , 46-C ) :   1.5339
B( 45-C , 96-H ) :   1.0006 B( 46-C , 47-C ) :   1.2372 B( 46-C , 97-H ) :   0.9956
B( 47-C , 48-S ) :   1.1112 B( 47-C , 49-C ) :   1.3845 B( 49-C , 50-C ) :   1.2705
B( 49-C , 53-S ) :   1.0610 B( 50-C , 51-C ) :   1.4836 B( 50-C , 98-H ) :   0.9953
B( 51-C , 52-C ) :   1.2716 B( 51-C , 99-H ) :   0.9793 B( 52-C , 53-S ) :   1.1277
B( 52-C , 54-C ) :   1.3324 B( 54-C , 55-C ) :   1.4885 B( 54-C ,100-H ) :   0.9353
B( 55-C , 56-C ) :   1.3150 B( 55-C ,101-H ) :   0.9262 B( 56-C , 57-C ) :   1.1365
B( 56-C , 69-C ) :   1.1266 B( 57-C , 58-C ) :   1.5732 B( 57-C , 63-C ) :   0.9732
B( 58-C , 59-C ) :   1.1446 B( 58-C , 61-C ) :   1.1573 B( 59-C , 60-N ) :   2.9767
B( 61-C , 62-N ) :   2.9656 B( 63-C , 64-C ) :   1.3208 B( 63-C , 68-C ) :   1.3911
B( 64-C , 65-C ) :   1.3948 B( 64-C , 69-C ) :   0.9916 B( 65-C , 66-C ) :   1.3488
B( 65-C ,102-H ) :   0.9866 B( 66-C , 67-C ) :   1.3900 B( 66-C ,103-H ) :   0.9867
B( 67-C , 68-C ) :   1.3552 B( 67-C ,104-H ) :   0.9864 B( 68-C ,105-H ) :   0.9834
B( 69-C , 70-C ) :   1.5593 B( 70-C , 71-C ) :   1.1512 B( 70-C , 73-C ) :   1.1707
B( 71-C , 72-N ) :   2.9744 B( 73-C , 74-N ) :   2.9975

-----------------------------------------------------------------------------
         ABSORPTION SPECTRUM VIA TRANSITION ELECTRIC DIPOLE MOMENTS
-----------------------------------------------------------------------------
State   Energy  Wavelength   fosc         T2         TX        TY        TZ
        (cm-1)    (nm)                  (au**2)     (au)      (au)      (au)
-----------------------------------------------------------------------------
   0    8660.6   1154.7   1.220685389  46.40156  -2.86980   6.17141   0.28193
   1   13219.9    756.4   0.169242018   4.21460  -1.08682   0.01902   1.74157
   2   14998.9    666.7   0.328304180   7.20597   1.67656  -0.55001  -2.02302
   3   18503.3    540.4   0.103960642   1.84968  -1.34112  -0.09435   0.20533
   4   18906.6    528.9   0.552207805   9.61536   0.08565   1.48214  -2.72237
   5   19203.5    520.7   0.134242957   2.30137   0.91398  -1.19976  -0.16303
   6   20713.6    482.8   0.027063337   0.43013   0.46626  -0.42782   0.17237
   7   21657.7    461.7   0.437207047   6.64586   0.53257   0.43120  -2.48521
   8   23498.1    425.6   0.049317693   0.69095   0.65268   0.04614  -0.51267
   9   24434.7    409.3   0.151240307   2.03768   0.72558  -0.26597  -1.20020
  10   25415.4    393.5   0.014097929   0.18261  -0.31843   0.28004   0.05286
  11   26628.0    375.5   0.006580627   0.08136   0.06900  -0.26327   0.08537
  12   26700.1    374.5   0.029481840   0.36351   0.22079  -0.39207   0.40130
  13   27199.2    367.7   0.067533286   0.81741  -0.24714   0.31132  -0.81204
  14   27364.3    365.4   0.005832316   0.07017   0.08544  -0.17410  -0.18044
  15   27430.8    364.6   0.015545023   0.18656   0.17684  -0.27631   0.28097
  16   28989.6    345.0   0.248440323   2.82134  -0.83584   0.54127  -1.35267
  17   29102.4    343.6   0.083137146   0.94046  -0.56034   0.62767   0.48220
  18   29455.4    339.5   0.099876390   1.11628   0.69465  -0.32826   0.72525
  19   30028.6    333.0   0.092489027   1.01398  -0.45499   0.76488  -0.47110
  20   30132.1    331.9   0.019353238   0.21145  -0.20817   0.36490  -0.18698
  21   30369.2    329.3   0.002333740   0.02530  -0.01886  -0.02372   0.15614
  22   30626.8    326.5   0.036854469   0.39615   0.39677  -0.39943  -0.28139
  23   31131.0    321.2   0.224544877   2.37457  -0.82706   1.14093  -0.62355
  24   31265.5    319.8   0.291224850   3.06647   0.76310  -1.39660   0.73052
  25   31655.9    315.9   0.053213034   0.55340  -0.09358  -0.39048   0.62623
  26   31802.6    314.4   0.370656376   3.83694   1.27335  -1.23355   0.83299
  27   31964.8    312.8   0.301737281   3.10765  -0.48126  -0.32218   1.66500
  28   32270.8    309.9   0.042357304   0.43211   0.18849   0.24896   0.57845
  29   32385.2    308.8   0.203086462   2.06448  -0.26050   0.88717  -1.09980
  30   32928.5    303.7   0.016040650   0.16037  -0.30868  -0.13638  -0.21562
  31   33287.9    300.4   0.114898905   1.13633  -0.60046   0.19703   0.85846
  32   33958.1    294.5   0.107047462   1.03779  -0.13117   0.09862   1.00541
  33   34053.7    293.7   0.113560158   1.09784   0.12850  -0.30563  -0.99394
  34   34204.9    292.4   0.089068976   0.85726  -0.66829   0.63443   0.09031
  35   34428.0    290.5   0.066998824   0.64067  -0.49144   0.35303  -0.52395
  36   34510.8    289.8   0.073309318   0.69933  -0.33810   0.76178  -0.06863
  37   34701.9    288.2   0.020439809   0.19391   0.14622  -0.27915  -0.30757
  38   34985.3    285.8   0.004806743   0.04523  -0.09556  -0.04195   0.18531
  39   35013.7    285.6   0.001517441   0.01427   0.07381   0.09057  -0.02483
  40   35229.6    283.9   0.077728506   0.72635  -0.46659   0.70310  -0.11956
  41   35485.4    281.8   0.101384605   0.94059  -0.49963   0.76731  -0.31966
  42   36144.3    276.7   0.096437898   0.87838  -0.51128   0.66616   0.41618
  43   36576.3    273.4   0.011582162   0.10425  -0.04125   0.28109  -0.15341
  44   36821.1    271.6   0.222776631   1.99181   0.76065  -0.81818  -0.86244
  45   36954.3    270.6   0.029575362   0.26348   0.23850  -0.44465   0.09423
  46   37252.0    268.4   0.028275160   0.24988   0.15095   0.29868  -0.37133
  47   37267.3    268.3   0.090841852   0.80248  -0.07278  -0.21882  -0.86562
  48   38084.4    262.6   0.106759109   0.92286   0.70232  -0.45799   0.46888
  49   38344.1    260.8   0.000743668   0.00638  -0.02887   0.05334  -0.05202
  50   38664.7    258.6   0.028439701   0.24215  -0.08557  -0.05731   0.48119
  51   38954.7    256.7   0.000991054   0.00838   0.00712   0.00963  -0.09073
  52   39021.6    256.3   0.077266061   0.65187  -0.42842   0.61062  -0.30898
  53   39364.1    254.0   0.068663272   0.57425  -0.18920   0.44230   0.58551
  54   39413.6    253.7   0.137671074   1.14993   0.66212  -0.76741  -0.35017
  55   39535.2    252.9   0.015719090   0.13089   0.04715   0.01796  -0.35826
  56   39811.0    251.2   0.125186574   1.03521   0.64431  -0.77300  -0.15016
  57   39918.4    250.5   0.013487164   0.11123   0.12249   0.09768  -0.29442

FINAL SINGLE POINT ENERGY     -5223.370102219921

DIPOLE MOMENT
-------------
                                X             Y             Z
Electronic contribution:      0.40249      10.35994     -31.12417
Nuclear contribution   :      0.99412     -16.35287      32.96186
                        -----------------------------------------
Total Dipole Moment    :      1.39661      -5.99293       1.83770
                        -----------------------------------------
Magnitude (a.u.)       :      6.42206
Magnitude (Debye)      :     16.32357

Rotational constants in cm-1:     0.000845     0.000227     0.000183
Rotational constants in MHz :    25.320449     6.805393     5.486250

                             ****ORCA TERMINATED NORMALLY****
TOTAL RUN TIME: 0 days 0 hours 11 minutes 24 seconds 309 msec
