                         Program Version 4.2.0 -  RELEASE  -
|  1> # ORCA input file
|  2> # SCF done       -178.883921442401          0.000437246276
|  3> ! CAM-B3LYP def2-SVP def2/J RIJCOSX Grid4 TightSCF
|  4> %maxcore 5000
|  5> %tddft
|  6>     Mode sTDDFT
|  7>     Ethresh 5.0
|  8>     maxcore 5000
|  9> end
| 10>
| 11> %pal
| 12>   nprocs 6
| 13>   end
| 14> * xyz 0 1
| 15>    C        2.86722         5.39953         1.89561
| 16>    C        2.26247         4.97131         0.74347
| 17>    C        2.96165         4.66002        -0.44000
| 18>    N        3.48423         4.39636        -1.42759
| 19>    C        0.88277         4.69458         0.64872
| 20>    N       -0.22641         4.41761         0.54605
| 21>    C        4.30487         5.42933         2.13377
| 22>    C        4.53104         5.38246         3.54097
| 23>    C        5.79260         5.36445         4.06205
| 24>    C        6.90088         5.40620         3.18573
| 25>    C        6.67985         5.46834         1.77915
| 26>    C        5.36235         5.47626         1.26655
| 27>    C        7.79483         5.51878         0.91806
| 28>    C        9.06790         5.50673         1.41923
| 29>    C        9.28477         5.44487         2.80384
| 30>    C        8.22465         5.39465         3.66785
| 31>    C        3.23518         5.38205         4.24578
| 32>    O        3.02700         5.27959         5.43092
| 33>    C        2.21819         5.60859         3.17498
| 34>    C        0.98258         6.06544         3.50239
| 35>    C        0.05015         6.73411         2.66977
| 36>    C       -1.30393         6.89752         2.91067
| 37>    F       -1.91542         6.34968         3.95813
| 38>    C       -1.97284         7.62847         1.92317
| 39>    F       -3.29905         7.80486         1.90966
| 40>    C       -1.14439         8.09939         0.92253
| 41>    S        0.48275         7.58893         1.21757
| 42>    C       -1.47248         8.79790        -0.27140
| 43>    S       -0.55753         8.42898        -1.69166
| 44>    C       -1.56005         9.40725        -2.69785
| 45>    C       -2.59351         9.98614        -1.95448
| 46>    C       -2.50322         9.70006        -0.55412
| 47>    C       -3.37883        10.35758         0.35369
| 48>    C       -3.09095        10.38985         1.81391
| 49>    O       -1.97177        10.37414         2.25533
| 50>    O       -4.14746        10.50933         2.63057
| 51>    C       -4.38832        11.13543        -0.16697
| 52>    C       -4.58540        11.27187        -1.54593
| 53>    C       -3.71053        10.71372        -2.44872
| 54>    O       -3.88434        10.79081        -3.77835
| 55>    C       -1.21301         9.49571        -4.07528
| 56>    C       -1.27255        10.56859        -4.95021
| 57>    F       -1.69485        11.79392        -4.62224
| 58>    C       -0.73984        10.26700        -6.20016
| 59>    F       -0.68159        11.14907        -7.20049
| 60>    C       -0.22705         8.97358        -6.32215
| 61>    S       -0.44342         8.12362        -4.81738
| 62>    C        0.36949         8.50811        -7.51134
| 63>    C        1.01345         7.32288        -7.73202
| 64>    C        1.66116         6.89131        -8.96046
| 65>    C        1.58925         7.49523       -10.18707
| 66>    C        2.24320         7.01375       -11.34150
| 67>    N        2.75144         6.67722       -12.31403
| 68>    C        0.84054         8.65316       -10.48846
| 69>    N        0.24683         9.57863       -10.81853
| 70>    C        2.38278         5.65756        -8.66283
| 71>    C        2.13451         5.30134        -7.30509
| 72>    C        1.24878         6.29984        -6.70280
| 73>    O        0.79912         6.28544        -5.56866
| 74>    C        2.68165         4.18989        -6.73051
| 75>    C        3.52116         3.36187        -7.50765
| 76>    C        3.77445         3.70604        -8.86748
| 77>    C        3.19406         4.86618        -9.43215
| 78>    C        4.61277         2.87024        -9.63252
| 79>    C        5.17369         1.74906        -9.08289
| 80>    C        4.92466         1.41292        -7.74393
| 81>    C        4.11589         2.20268        -6.97207
| 82>    H        5.94531         5.32152         5.13013
| 83>    H        5.21863         5.53501         0.19875
| 84>    H        7.62230         5.56364        -0.14726
| 85>    H        9.91538         5.54484         0.75127
| 86>    H       10.29591         5.43790         3.18235
| 87>    H        8.38597         5.34725         4.73479
| 88>    H        0.69920         5.97525         4.54691
| 89>    H       -4.98805        10.37927         2.17283
| 90>    H       -5.04569        11.68620         0.49149
| 91>    H       -5.42717        11.84716        -1.90438
| 92>    H       -4.63692        11.35692        -3.99368
| 93>    H        0.31854         9.22196        -8.32598
| 94>    H        2.47873         3.94989        -5.69747
| 95>    H        3.41259         5.09996       -10.46192
| 96>    H        4.80287         3.13220       -10.66297
| 97>    H        5.81343         1.11497        -9.67820
| 98>    H        5.37667         0.52551        -7.32698
| 99>    H        3.92032         1.95185        -5.94003
|100> *
|101>
|102>                          ****END OF INPUT****

CARTESIAN COORDINATES (ANGSTROEM)
---------------------------------
  C      2.867220    5.399530    1.895610
  C      2.262470    4.971310    0.743470
  C      2.961650    4.660020   -0.440000
  N      3.484230    4.396360   -1.427590
  C      0.882770    4.694580    0.648720
  N     -0.226410    4.417610    0.546050
  C      4.304870    5.429330    2.133770
  C      4.531040    5.382460    3.540970
  C      5.792600    5.364450    4.062050
  C      6.900880    5.406200    3.185730
  C      6.679850    5.468340    1.779150
  C      5.362350    5.476260    1.266550
  C      7.794830    5.518780    0.918060
  C      9.067900    5.506730    1.419230
  C      9.284770    5.444870    2.803840
  C      8.224650    5.394650    3.667850
  C      3.235180    5.382050    4.245780
  O      3.027000    5.279590    5.430920
  C      2.218190    5.608590    3.174980
  C      0.982580    6.065440    3.502390
  C      0.050150    6.734110    2.669770
  C     -1.303930    6.897520    2.910670
  F     -1.915420    6.349680    3.958130
  C     -1.972840    7.628470    1.923170
  F     -3.299050    7.804860    1.909660
  C     -1.144390    8.099390    0.922530
  S      0.482750    7.588930    1.217570
  C     -1.472480    8.797900   -0.271400
  S     -0.557530    8.428980   -1.691660
  C     -1.560050    9.407250   -2.697850
  C     -2.593510    9.986140   -1.954480
  C     -2.503220    9.700060   -0.554120
  C     -3.378830   10.357580    0.353690
  C     -3.090950   10.389850    1.813910
  O     -1.971770   10.374140    2.255330
  O     -4.147460   10.509330    2.630570
  C     -4.388320   11.135430   -0.166970
  C     -4.585400   11.271870   -1.545930
  C     -3.710530   10.713720   -2.448720
  O     -3.884340   10.790810   -3.778350
  C     -1.213010    9.495710   -4.075280
  C     -1.272550   10.568590   -4.950210
  F     -1.694850   11.793920   -4.622240
  C     -0.739840   10.267000   -6.200160
  F     -0.681590   11.149070   -7.200490
  C     -0.227050    8.973580   -6.322150
  S     -0.443420    8.123620   -4.817380
  C      0.369490    8.508110   -7.511340
  C      1.013450    7.322880   -7.732020
  C      1.661160    6.891310   -8.960460
  C      1.589250    7.495230  -10.187070
  C      2.243200    7.013750  -11.341500
  N      2.751440    6.677220  -12.314030
  C      0.840540    8.653160  -10.488460
  N      0.246830    9.578630  -10.818530
  C      2.382780    5.657560   -8.662830
  C      2.134510    5.301340   -7.305090
  C      1.248780    6.299840   -6.702800
  O      0.799120    6.285440   -5.568660
  C      2.681650    4.189890   -6.730510
  C      3.521160    3.361870   -7.507650
  C      3.774450    3.706040   -8.867480
  C      3.194060    4.866180   -9.432150
  C      4.612770    2.870240   -9.632520
  C      5.173690    1.749060   -9.082890
  C      4.924660    1.412920   -7.743930
  C      4.115890    2.202680   -6.972070
  H      5.945310    5.321520    5.130130
  H      5.218630    5.535010    0.198750
  H      7.622300    5.563640   -0.147260
  H      9.915380    5.544840    0.751270
  H     10.295910    5.437900    3.182350
  H      8.385970    5.347250    4.734790
  H      0.699200    5.975250    4.546910
  H     -4.988050   10.379270    2.172830
  H     -5.045690   11.686200    0.491490
  H     -5.427170   11.847160   -1.904380
  H     -4.636920   11.356920   -3.993680
  H      0.318540    9.221960   -8.325980
  H      2.478730    3.949890   -5.697470
  H      3.412590    5.099960  -10.461920
  H      4.802870    3.132200  -10.662970
  H      5.813430    1.114970   -9.678200
  H      5.376670    0.525510   -7.326980
  H      3.920320    1.951850   -5.940030

 Total Charge           Charge          ....    0
 Multiplicity           Mult            ....    1
 Number of Electrons    NEL             ....  476
 Basis Dimension        Dim             .... 1040

ORBITAL ENERGIES
----------------

  NO   OCC          E(Eh)            E(eV)
   0   2.0000     -88.989515     -2421.5278
   1   2.0000     -88.979889     -2421.2659
   2   2.0000     -88.978864     -2421.2380
   3   2.0000     -24.811031      -675.1425
   4   2.0000     -24.807472      -675.0456
   5   2.0000     -24.807157      -675.0371
   6   2.0000     -24.800482      -674.8554
   7   2.0000     -19.275716      -524.5189
   8   2.0000     -19.259118      -524.0673
   9   2.0000     -19.226446      -523.1782
  10   2.0000     -19.211848      -522.7810
  11   2.0000     -19.196117      -522.3529
  12   2.0000     -14.416804      -392.3012
  13   2.0000     -14.415986      -392.2789
  14   2.0000     -14.414793      -392.2465
  15   2.0000     -14.412030      -392.1713
  16   2.0000     -10.402085      -283.0551
  17   2.0000     -10.387037      -282.6457
  18   2.0000     -10.384681      -282.5815
  19   2.0000     -10.378395      -282.4105
  20   2.0000     -10.375206      -282.3237
  21   2.0000     -10.372692      -282.2553
  22   2.0000     -10.368723      -282.1473
  23   2.0000     -10.363937      -282.0171
  24   2.0000     -10.343196      -281.4527
  25   2.0000     -10.342359      -281.4299
  26   2.0000     -10.342132      -281.4237
  27   2.0000     -10.340516      -281.3797
  28   2.0000     -10.337539      -281.2987
  29   2.0000     -10.335172      -281.2343
  30   2.0000     -10.330441      -281.1056
  31   2.0000     -10.329978      -281.0930
  32   2.0000     -10.329848      -281.0895
  33   2.0000     -10.327950      -281.0378
  34   2.0000     -10.322833      -280.8986
  35   2.0000     -10.322075      -280.8779
  36   2.0000     -10.318980      -280.7937
  37   2.0000     -10.318788      -280.7885
  38   2.0000     -10.317653      -280.7576
  39   2.0000     -10.314499      -280.6718
  40   2.0000     -10.310443      -280.5614
  41   2.0000     -10.309497      -280.5357
  42   2.0000     -10.307174      -280.4725
  43   2.0000     -10.303544      -280.3737
  44   2.0000     -10.303124      -280.3622
  45   2.0000     -10.302496      -280.3452
  46   2.0000     -10.297646      -280.2132
  47   2.0000     -10.297240      -280.2021
  48   2.0000     -10.297168      -280.2002
  49   2.0000     -10.296946      -280.1942
  50   2.0000     -10.296811      -280.1905
  51   2.0000     -10.296725      -280.1881
  52   2.0000     -10.296658      -280.1863
  53   2.0000     -10.296387      -280.1789
  54   2.0000     -10.296135      -280.1721
  55   2.0000     -10.295797      -280.1629
  56   2.0000     -10.289627      -279.9950
  57   2.0000     -10.289332      -279.9869
  58   2.0000     -10.288335      -279.9598
  59   2.0000     -10.285798      -279.8908
  60   2.0000     -10.285700      -279.8881
  61   2.0000     -10.285627      -279.8861
  62   2.0000     -10.285457      -279.8815
  63   2.0000     -10.285194      -279.8744
  64   2.0000     -10.285029      -279.8699
  65   2.0000     -10.284957      -279.8679
  66   2.0000     -10.284861      -279.8653
  67   2.0000      -8.084753      -219.9973
  68   2.0000      -8.073727      -219.6973
  69   2.0000      -8.072570      -219.6658
  70   2.0000      -6.053721      -164.7301
  71   2.0000      -6.049450      -164.6139
  72   2.0000      -6.047579      -164.5630
  73   2.0000      -6.043257      -164.4454
  74   2.0000      -6.042264      -164.4184
  75   2.0000      -6.039300      -164.3377
  76   2.0000      -6.037830      -164.2977
  77   2.0000      -6.035136      -164.2244
  78   2.0000      -6.034092      -164.1960
  79   2.0000      -1.327951       -36.1354
  80   2.0000      -1.327165       -36.1140
  81   2.0000      -1.315789       -35.8044
  82   2.0000      -1.311884       -35.6982
  83   2.0000      -1.182351       -32.1734
  84   2.0000      -1.174986       -31.9730
  85   2.0000      -1.142336       -31.0845
  86   2.0000      -1.127765       -30.6881
  87   2.0000      -1.095981       -29.8232
  88   2.0000      -1.029860       -28.0239
  89   2.0000      -1.019685       -27.7470
  90   2.0000      -1.018908       -27.7259
  91   2.0000      -1.011401       -27.5216
  92   2.0000      -1.001511       -27.2525
  93   2.0000      -0.999470       -27.1970
  94   2.0000      -0.997121       -27.1330
  95   2.0000      -0.994140       -27.0519
  96   2.0000      -0.991609       -26.9831
  97   2.0000      -0.972023       -26.4501
  98   2.0000      -0.970561       -26.4103
  99   2.0000      -0.953486       -25.9457
 100   2.0000      -0.928217       -25.2581
 101   2.0000      -0.925063       -25.1723
 102   2.0000      -0.916242       -24.9322
 103   2.0000      -0.907927       -24.7059
 104   2.0000      -0.896559       -24.3966
 105   2.0000      -0.883670       -24.0459
 106   2.0000      -0.881032       -23.9741
 107   2.0000      -0.879863       -23.9423
 108   2.0000      -0.875572       -23.8255
 109   2.0000      -0.864708       -23.5299
 110   2.0000      -0.857738       -23.3402
 111   2.0000      -0.843660       -22.9572
 112   2.0000      -0.841387       -22.8953
 113   2.0000      -0.836491       -22.7621
 114   2.0000      -0.828219       -22.5370
 115   2.0000      -0.827540       -22.5185
 116   2.0000      -0.813829       -22.1454
 117   2.0000      -0.794221       -21.6118
 118   2.0000      -0.776331       -21.1250
 119   2.0000      -0.764152       -20.7936
 120   2.0000      -0.759252       -20.6603
 121   2.0000      -0.753887       -20.5143
 122   2.0000      -0.745760       -20.2932
 123   2.0000      -0.728332       -19.8189
 124   2.0000      -0.719449       -19.5772
 125   2.0000      -0.710037       -19.3211
 126   2.0000      -0.707451       -19.2507
 127   2.0000      -0.705323       -19.1928
 128   2.0000      -0.702971       -19.1288
 129   2.0000      -0.700339       -19.0572
 130   2.0000      -0.697001       -18.9664
 131   2.0000      -0.688338       -18.7306
 132   2.0000      -0.683409       -18.5965
 133   2.0000      -0.681650       -18.5486
 134   2.0000      -0.676265       -18.4021
 135   2.0000      -0.674759       -18.3611
 136   2.0000      -0.669296       -18.2125
 137   2.0000      -0.657615       -17.8946
 138   2.0000      -0.655956       -17.8495
 139   2.0000      -0.641463       -17.4551
 140   2.0000      -0.638777       -17.3820
 141   2.0000      -0.632471       -17.2104
 142   2.0000      -0.624698       -16.9989
 143   2.0000      -0.619104       -16.8467
 144   2.0000      -0.610187       -16.6040
 145   2.0000      -0.609561       -16.5870
 146   2.0000      -0.606539       -16.5048
 147   2.0000      -0.606238       -16.4966
 148   2.0000      -0.603517       -16.4225
 149   2.0000      -0.602539       -16.3959
 150   2.0000      -0.595725       -16.2105
 151   2.0000      -0.591199       -16.0873
 152   2.0000      -0.589993       -16.0545
 153   2.0000      -0.581257       -15.8168
 154   2.0000      -0.570991       -15.5375
 155   2.0000      -0.561688       -15.2843
 156   2.0000      -0.559018       -15.2117
 157   2.0000      -0.555246       -15.1090
 158   2.0000      -0.553812       -15.0700
 159   2.0000      -0.551857       -15.0168
 160   2.0000      -0.546885       -14.8815
 161   2.0000      -0.546293       -14.8654
 162   2.0000      -0.545999       -14.8574
 163   2.0000      -0.543475       -14.7887
 164   2.0000      -0.542397       -14.7594
 165   2.0000      -0.541926       -14.7466
 166   2.0000      -0.535444       -14.5702
 167   2.0000      -0.532972       -14.5029
 168   2.0000      -0.530880       -14.4460
 169   2.0000      -0.528137       -14.3713
 170   2.0000      -0.525547       -14.3009
 171   2.0000      -0.522673       -14.2227
 172   2.0000      -0.520171       -14.1546
 173   2.0000      -0.519855       -14.1460
 174   2.0000      -0.515949       -14.0397
 175   2.0000      -0.515336       -14.0230
 176   2.0000      -0.511672       -13.9233
 177   2.0000      -0.510128       -13.8813
 178   2.0000      -0.508049       -13.8247
 179   2.0000      -0.505175       -13.7465
 180   2.0000      -0.503009       -13.6876
 181   2.0000      -0.501069       -13.6348
 182   2.0000      -0.499788       -13.5999
 183   2.0000      -0.498868       -13.5749
 184   2.0000      -0.491695       -13.3797
 185   2.0000      -0.489827       -13.3289
 186   2.0000      -0.487175       -13.2567
 187   2.0000      -0.484379       -13.1806
 188   2.0000      -0.482891       -13.1401
 189   2.0000      -0.477818       -13.0021
 190   2.0000      -0.473775       -12.8921
 191   2.0000      -0.469752       -12.7826
 192   2.0000      -0.465051       -12.6547
 193   2.0000      -0.463963       -12.6251
 194   2.0000      -0.462838       -12.5945
 195   2.0000      -0.460978       -12.5439
 196   2.0000      -0.454002       -12.3540
 197   2.0000      -0.451565       -12.2877
 198   2.0000      -0.449160       -12.2223
 199   2.0000      -0.448946       -12.2164
 200   2.0000      -0.444652       -12.0996
 201   2.0000      -0.442974       -12.0539
 202   2.0000      -0.441097       -12.0029
 203   2.0000      -0.439628       -11.9629
 204   2.0000      -0.435588       -11.8529
 205   2.0000      -0.435061       -11.8386
 206   2.0000      -0.433535       -11.7971
 207   2.0000      -0.431692       -11.7469
 208   2.0000      -0.428963       -11.6727
 209   2.0000      -0.428523       -11.6607
 210   2.0000      -0.425651       -11.5826
 211   2.0000      -0.424939       -11.5632
 212   2.0000      -0.424031       -11.5385
 213   2.0000      -0.420310       -11.4372
 214   2.0000      -0.415420       -11.3042
 215   2.0000      -0.412957       -11.2371
 216   2.0000      -0.408234       -11.1086
 217   2.0000      -0.406421       -11.0593
 218   2.0000      -0.401496       -10.9253
 219   2.0000      -0.390443       -10.6245
 220   2.0000      -0.385104       -10.4792
 221   2.0000      -0.378992       -10.3129
 222   2.0000      -0.373247       -10.1566
 223   2.0000      -0.361568        -9.8388
 224   2.0000      -0.352353        -9.5880
 225   2.0000      -0.346839        -9.4380
 226   2.0000      -0.339688        -9.2434
 227   2.0000      -0.337265        -9.1774
 228   2.0000      -0.332814        -9.0563
 229   2.0000      -0.328630        -8.9425
 230   2.0000      -0.324687        -8.8352
 231   2.0000      -0.317606        -8.6425
 232   2.0000      -0.315906        -8.5962
 233   2.0000      -0.306313        -8.3352
 234   2.0000      -0.298487        -8.1222
 235   2.0000      -0.292787        -7.9671
 236   2.0000      -0.288051        -7.8383
 237   2.0000      -0.252623        -6.8742
 238   0.0000      -0.106151        -2.8885
 239   0.0000      -0.090755        -2.4696
 240   0.0000      -0.064667        -1.7597
 241   0.0000      -0.057831        -1.5737
 242   0.0000      -0.050376        -1.3708

MULLIKEN ATOMIC CHARGES
-----------------------
   0 C :    0.249310
   1 C :   -0.323297
   2 C :   -0.174486
   3 N :    0.147779
   4 C :   -0.204963
   5 N :    0.172047
   6 C :    0.033280
   7 C :    0.012292
   8 C :   -0.079714
   9 C :    0.092136
  10 C :    0.095076
  11 C :   -0.077938
  12 C :   -0.019080
  13 C :    0.033986
  14 C :    0.035210
  15 C :   -0.014097
  16 C :    0.141926
  17 O :   -0.138856
  18 C :   -0.137702
  19 C :    0.071529
  20 C :   -0.199865
  21 C :    0.265160
  22 F :   -0.152266
  23 C :    0.240734
  24 F :   -0.168475
  25 C :   -0.122959
  26 S :    0.175390
  27 C :   -0.144739
  28 S :    0.219611
  29 C :   -0.132563
  30 C :    0.100307
  31 C :    0.130873
  32 C :   -0.061929
  33 C :    0.141962
  34 O :   -0.186576
  35 O :   -0.150881
  36 C :   -0.017374
  37 C :   -0.082358
  38 C :    0.121875
  39 O :   -0.158175
  40 C :   -0.170352
  41 C :    0.246293
  42 F :   -0.165865
  43 C :    0.228291
  44 F :   -0.157430
  45 C :   -0.151816
  46 S :    0.229568
  47 C :   -0.008469
  48 C :   -0.097501
  49 C :    0.329186
  50 C :   -0.346157
  51 C :   -0.185688
  52 N :    0.152993
  53 C :   -0.201933
  54 N :    0.158663
  55 C :    0.046484
  56 C :   -0.005827
  57 C :    0.186583
  58 O :   -0.190335
  59 C :   -0.073780
  60 C :    0.091123
  61 C :    0.097883
  62 C :   -0.084069
  63 C :   -0.019696
  64 C :    0.035847
  65 C :    0.035796
  66 C :   -0.013690
  67 H :   -0.010340
  68 H :   -0.006230
  69 H :   -0.012219
  70 H :   -0.004655
  71 H :   -0.005990
  72 H :   -0.015680
  73 H :    0.036261
  74 H :    0.181532
  75 H :   -0.012456
  76 H :   -0.031321
  77 H :    0.193279
  78 H :    0.025335
  79 H :   -0.000751
  80 H :   -0.008482
  81 H :   -0.009203
  82 H :   -0.003637
  83 H :   -0.004255
  84 H :   -0.009478
Sum of atomic charges:   -0.0000000

LOEWDIN ATOMIC CHARGES
----------------------
   0 C :    0.061453
   1 C :   -0.144355
   2 C :   -0.016958
   3 N :   -0.058149
   4 C :   -0.036335
   5 N :   -0.050379
   6 C :   -0.022448
   7 C :   -0.055995
   8 C :    0.032369
   9 C :   -0.009040
  10 C :   -0.005618
  11 C :    0.014708
  12 C :   -0.007607
  13 C :   -0.013641
  14 C :   -0.013603
  15 C :   -0.008879
  16 C :    0.083695
  17 O :   -0.139850
  18 C :   -0.095658
  19 C :    0.056523
  20 C :   -0.216741
  21 C :    0.068710
  22 F :   -0.030518
  23 C :    0.024791
  24 F :   -0.036658
  25 C :   -0.182807
  26 S :    0.488028
  27 C :   -0.192914
  28 S :    0.518420
  29 C :   -0.179802
  30 C :   -0.055426
  31 C :   -0.016446
  32 C :   -0.098587
  33 C :    0.071455
  34 O :   -0.161696
  35 O :   -0.025348
  36 C :    0.002639
  37 C :   -0.099092
  38 C :    0.079908
  39 O :   -0.019092
  40 C :   -0.211330
  41 C :    0.018080
  42 F :   -0.045040
  43 C :    0.054249
  44 F :   -0.034267
  45 C :   -0.217808
  46 S :    0.526992
  47 C :    0.059326
  48 C :   -0.098780
  49 C :    0.076014
  50 C :   -0.137607
  51 C :   -0.017000
  52 N :   -0.052385
  53 C :   -0.024205
  54 N :   -0.046146
  55 C :   -0.025227
  56 C :   -0.057286
  57 C :    0.090096
  58 O :   -0.167042
  59 C :    0.039183
  60 C :   -0.008536
  61 C :   -0.005467
  62 C :    0.019852
  63 C :   -0.006157
  64 C :   -0.012265
  65 C :   -0.011709
  66 C :   -0.006063
  67 H :    0.039736
  68 H :    0.038079
  69 H :    0.033535
  70 H :    0.032899
  71 H :    0.032509
  72 H :    0.032196
  73 H :    0.055526
  74 H :    0.092040
  75 H :    0.030277
  76 H :    0.029042
  77 H :    0.104508
  78 H :    0.051931
  79 H :    0.043927
  80 H :    0.039010
  81 H :    0.034658
  82 H :    0.033397
  83 H :    0.033206
  84 H :    0.034992

  Mayer bond orders larger than 0.100000
B(  0-C ,  1-C ) :   1.6546 B(  0-C ,  6-C ) :   1.0041 B(  0-C , 18-C ) :   1.0335
B(  1-C ,  2-C ) :   1.1389 B(  1-C ,  4-C ) :   1.1501 B(  2-C ,  3-N ) :   2.9918
B(  4-C ,  5-N ) :   3.0268 B(  6-C ,  7-C ) :   1.2165 B(  6-C , 11-C ) :   1.4585
B(  7-C ,  8-C ) :   1.4784 B(  7-C , 16-C ) :   0.9172 B(  8-C ,  9-C ) :   1.1839
B(  8-C , 67-H ) :   1.0159 B(  9-C , 10-C ) :   1.2577 B(  9-C , 15-C ) :   1.2470
B( 10-C , 11-C ) :   1.2065 B( 10-C , 12-C ) :   1.2392 B( 11-C , 68-H ) :   0.9943
B( 12-C , 13-C ) :   1.4903 B( 12-C , 69-H ) :   0.9975 B( 13-C , 14-C ) :   1.2611
B( 13-C , 70-H ) :   0.9888 B( 14-C , 15-C ) :   1.4873 B( 14-C , 71-H ) :   0.9897
B( 15-C , 72-H ) :   0.9979 B( 16-C , 17-O ) :   2.2784 B( 16-C , 18-C ) :   0.9357
B( 18-C , 19-C ) :   1.6465 B( 19-C , 20-C ) :   1.1234 B( 19-C , 73-H ) :   0.9497
B( 20-C , 21-C ) :   1.4150 B( 20-C , 25-C ) :   0.1292 B( 20-C , 26-S ) :   1.0795
B( 21-C , 22-F ) :   1.1965 B( 21-C , 23-C ) :   1.2361 B( 23-C , 24-F ) :   1.1396
B( 23-C , 25-C ) :   1.4524 B( 25-C , 26-S ) :   1.1334 B( 25-C , 27-C ) :   1.1009
B( 27-C , 28-S ) :   1.1601 B( 27-C , 29-C ) :   0.1286 B( 27-C , 31-C ) :   1.4201
B( 28-S , 29-C ) :   1.1963 B( 29-C , 30-C ) :   1.3806 B( 29-C , 40-C ) :   1.0963
B( 30-C , 31-C ) :   1.2272 B( 30-C , 38-C ) :   1.1708 B( 31-C , 32-C ) :   1.2061
B( 32-C , 33-C ) :   0.9000 B( 32-C , 36-C ) :   1.4985 B( 33-C , 34-O ) :   2.1460
B( 33-C , 35-O ) :   1.2388 B( 35-O , 74-H ) :   0.9503 B( 36-C , 37-C ) :   1.2308
B( 36-C , 75-H ) :   0.9785 B( 37-C , 38-C ) :   1.4498 B( 37-C , 76-H ) :   0.9835
B( 38-C , 39-O ) :   1.2704 B( 39-O , 77-H ) :   0.9496 B( 40-C , 41-C ) :   1.3991
B( 40-C , 45-C ) :   0.1224 B( 40-C , 46-S ) :   1.1052 B( 41-C , 42-F ) :   1.1802
B( 41-C , 43-C ) :   1.2690 B( 43-C , 44-F ) :   1.1507 B( 43-C , 45-C ) :   1.3562
B( 45-C , 46-S ) :   1.0767 B( 45-C , 47-C ) :   1.2344 B( 46-S , 58-O ) :   0.1065
B( 47-C , 48-C ) :   1.5334 B( 47-C , 78-H ) :   0.9380 B( 48-C , 49-C ) :   1.0608
B( 48-C , 57-C ) :   0.9843 B( 49-C , 50-C ) :   1.6375 B( 49-C , 55-C ) :   0.9875
B( 50-C , 51-C ) :   1.1474 B( 50-C , 53-C ) :   1.1422 B( 51-C , 52-N ) :   2.9659
B( 53-C , 54-N ) :   2.9707 B( 55-C , 56-C ) :   1.2116 B( 55-C , 62-C ) :   1.4550
B( 56-C , 57-C ) :   0.9697 B( 56-C , 59-C ) :   1.4645 B( 57-C , 58-O ) :   2.0831
B( 59-C , 60-C ) :   1.1785 B( 59-C , 79-H ) :   1.0183 B( 60-C , 61-C ) :   1.2539
B( 60-C , 66-C ) :   1.2467 B( 61-C , 62-C ) :   1.2031 B( 61-C , 63-C ) :   1.2422
B( 62-C , 80-H ) :   0.9897 B( 63-C , 64-C ) :   1.4871 B( 63-C , 81-H ) :   0.9970
B( 64-C , 65-C ) :   1.2604 B( 64-C , 82-H ) :   0.9888 B( 65-C , 66-C ) :   1.4856
B( 65-C , 83-H ) :   0.9895 B( 66-C , 84-H ) :   0.9983

-----------------------------------------------------------------------------
         ABSORPTION SPECTRUM VIA TRANSITION ELECTRIC DIPOLE MOMENTS
-----------------------------------------------------------------------------
State   Energy  Wavelength   fosc         T2         TX        TY        TZ
        (cm-1)    (nm)                  (au**2)     (au)      (au)      (au)
-----------------------------------------------------------------------------
   0   16077.0    622.0   0.649123969  13.29228   0.58129  -0.51258   3.56253
   1   20485.9    488.1   0.762378235  12.25156   2.44838  -1.90044  -1.62644
   2   24749.0    404.1   0.199137211   2.64893  -0.69770   0.91837   1.14836
   3   25546.4    391.4   0.022882238   0.29488   0.02485   0.48716  -0.23861
   4   26070.9    383.6   0.069208856   0.87394  -0.11132  -0.14308   0.91710
   5   26544.9    376.7   0.178505311   2.21384  -1.25646   0.52579   0.59892
   6   26928.2    371.4   0.090580028   1.10739   0.10585   0.26119   1.01389
   7   27556.3    362.9   0.257938929   3.08157   1.12108  -1.34067   0.16539
   8   28092.8    356.0   0.071709276   0.84034   0.67490  -0.56321  -0.26010
   9   28222.7    354.3   0.025638909   0.29907   0.15919  -0.08711   0.51589
  10   29014.4    344.7   0.061189432   0.69429   0.52197  -0.62766  -0.16698
  11   29253.4    341.8   0.079267881   0.89207  -0.71421   0.51348  -0.34397
  12   29295.3    341.4   0.004128849   0.04640  -0.18447   0.05861  -0.09451
  13   29932.6    334.1   0.122540840   1.34776  -1.08890   0.24379  -0.32033
  14   30250.5    330.6   0.122838456   1.33683   1.13396  -0.00153  -0.22574
  15   30870.9    323.9   0.021810197   0.23259   0.37085  -0.14332  -0.27298
  16   31931.1    313.2   0.092125565   0.94982  -0.52349   0.38239  -0.72771
  17   32584.9    306.9   0.113180274   1.14348  -0.28663  -0.96493   0.36087
  18   33051.5    302.6   0.533484971   5.31382   0.88445  -2.06683   0.50969
  19   33324.4    300.1   0.626615126   6.19033   2.19902  -0.69765   0.93162
  20   33430.7    299.1   0.062972257   0.62012   0.54623   0.38163   0.41966
  21   33827.4    295.6   0.016827529   0.16377  -0.33737   0.22297  -0.01519
  22   34236.8    292.1   0.138106040   1.32799   1.12341  -0.06140   0.24934
  23   34342.5    291.2   0.047084669   0.45136  -0.63324  -0.22023  -0.04321
  24   34594.1    289.1   0.022385286   0.21303   0.05052  -0.45558   0.05403
  25   34912.2    286.4   0.027450446   0.25885  -0.35767   0.02485  -0.36097
  26   35038.9    285.4   0.030392446   0.28556  -0.35553  -0.10746   0.38420
  27   35687.6    280.2   0.076741261   0.70792  -0.70543   0.42078   0.18233
  28   35719.6    280.0   0.021455917   0.19775   0.38791   0.19747  -0.09099
  29   36235.2    276.0   0.116935459   1.06241  -0.86966   0.53282   0.14899
  30   36302.6    275.5   0.124530208   1.12931   0.97129   0.24540  -0.35452
  31   36592.6    273.3   0.193535485   1.74118   0.74410   0.61256   0.90125
  32   37235.0    268.6   0.010496055   0.09280   0.18726  -0.23813   0.03207
  33   37494.7    266.7   0.204437129   1.79501   0.11796  -0.51527   1.23109
  34   37871.0    264.1   0.120386666   1.04652   0.72493  -0.55397   0.46271
  35   38239.4    261.5   0.078208513   0.67331  -0.15960  -0.36742   0.71613
  36   38640.3    258.8   0.013421804   0.11435   0.02802  -0.24048  -0.23608
  37   38905.6    257.0   0.101731318   0.86083  -0.57652   0.30579   0.65950
  38   39208.1    255.0   0.023298889   0.19563  -0.27343  -0.02906   0.34644
  39   39285.5    254.5   0.088479262   0.74145   0.30318  -0.36530  -0.71839
  40   39571.6    252.7   0.045576137   0.37917   0.12598  -0.30527   0.51972
  41   39763.3    251.5   0.060948797   0.50461   0.35989  -0.49400   0.36201
  42   39841.3    251.0   0.048235197   0.39857   0.36207  -0.34998   0.38078
  43   40183.6    248.9   0.064000640   0.52434  -0.24527   0.20073   0.65107

FINAL SINGLE POINT ENERGY     -4139.284872205434

DIPOLE MOMENT
-------------
                                X             Y             Z
Electronic contribution:    -43.05967      26.23786       4.86582
Nuclear contribution   :     43.58927     -26.22858      -4.22176
                        -----------------------------------------
Total Dipole Moment    :      0.52960       0.00928       0.64406
                        -----------------------------------------
Magnitude (a.u.)       :      0.83390
Magnitude (Debye)      :      2.11960

Rotational constants in cm-1:     0.001030     0.000709     0.000461
Rotational constants in MHz :    30.871021    21.266718    13.808157

                             ****ORCA TERMINATED NORMALLY****
TOTAL RUN TIME: 0 days 0 hours 7 minutes 49 seconds 705 msec
