                         Program Version 4.2.0 -  RELEASE  -
|  1> # ORCA input file
|  2> # SCF done       -249.440581669909          0.000584815998
|  3> ! CAM-B3LYP def2-SVP def2/J RIJCOSX Grid4 TightSCF
|  4> %maxcore 5000
|  5> %tddft
|  6>     Mode sTDDFT
|  7>     Ethresh 5.0
|  8>     maxcore 5000
|  9> end
| 10>
| 11> %pal
| 12>   nprocs 6
| 13>   end
| 14> * xyz 0 1
| 15>    C       -2.53721         1.26217        -1.29133
| 16>    C       -1.38596         2.01523        -1.43746
| 17>    C        0.02637         1.65822        -1.15267
| 18>    O        0.48542         0.63714        -0.72593
| 19>    N        0.77540         2.80179        -1.48091
| 20>    C       -0.02337         3.84938        -1.95956
| 21>    O        0.36179         4.91936        -2.33760
| 22>    C       -1.41675         3.32963        -1.91337
| 23>    C       -2.59996         3.95402        -2.26476
| 24>    C       -3.75918         3.19959        -2.11684
| 25>    C       -3.72840         1.88803        -1.64363
| 26>    C       -5.05454         1.23621        -1.55339
| 27>    O       -5.29651         0.12930        -1.18477
| 28>    S       -6.30765         2.40190        -2.10502
| 29>    C       -5.11272         3.70349        -2.44226
| 30>    O       -5.40718         4.78039        -2.85788
| 31>    C        2.15647         2.79741        -1.36385
| 32>    C        2.93238         3.87935        -1.46714
| 33>    C        4.37602         3.84423        -1.37073
| 34>    C        5.18159         2.87739        -1.98914
| 35>    C        4.81337         1.74104        -2.86998
| 36>    O        3.73623         1.35098        -3.22935
| 37>    N        6.02854         1.15006        -3.26199
| 38>    C        7.14058         1.81172        -2.72974
| 39>    O        8.29150         1.53773        -2.92041
| 40>    C        6.57644         2.92267        -1.91955
| 41>    C        7.26015         3.90723        -1.23100
| 42>    C        6.47399         4.87081        -0.61188
| 43>    C        5.08293         4.84840        -0.67796
| 44>    C        4.43025         5.94019         0.07260
| 45>    O        3.26348         6.13028         0.23688
| 46>    S        5.69729         7.00327         0.78490
| 47>    C        7.04391         6.00165         0.15567
| 48>    O        8.19638         6.23868         0.34633
| 49>    C        6.03435         0.08015        -4.14010
| 50>    C        7.11886        -0.60464        -4.51440
| 51>    C        7.08054        -1.71077        -5.44609
| 52>    C        7.88419        -2.83823        -5.22858
| 53>    C        8.85645        -3.09097        -4.13395
| 54>    O        9.15950        -2.38148        -3.21480
| 55>    N        9.38277        -4.36533        -4.39126
| 56>    C        8.83172        -4.95044        -5.54161
| 57>    O        9.11139        -6.03718        -5.96255
| 58>    C        7.86733        -3.95288        -6.06605
| 59>    C        7.04919        -4.02255        -7.17769
| 60>    C        6.28448        -2.89159        -7.43775
| 61>    C        6.30014        -1.75900        -6.62178
| 62>    C        5.54032        -0.62182        -7.18949
| 63>    O        5.47732         0.50648        -6.80471
| 64>    S        4.71044        -1.15322        -8.69676
| 65>    C        5.41309        -2.79820        -8.63046
| 66>    O        5.19668        -3.64999        -9.43573
| 67>    C       10.36922        -5.02197        -3.67469
| 68>    C       10.84393        -4.64469        -2.48484
| 69>    C       11.88921        -5.37640        -1.80074
| 70>    C       13.02981        -5.88049        -2.44137
| 71>    C       13.49690        -5.71343        -3.84211
| 72>    O       13.00182        -5.11882        -4.76090
| 73>    N       14.72046        -6.39641        -3.91969
| 74>    C       15.10118        -6.95646        -2.69703
| 75>    O       16.10467        -7.57481        -2.47873
| 76>    C       14.01441        -6.59045        -1.75060
| 77>    C       13.94436        -6.83493        -0.39170
| 78>    C       12.83423        -6.31414         0.26123
| 79>    C       11.83810        -5.60954        -0.41179
| 80>    C       10.72475        -5.17241         0.45352
| 81>    O        9.72219        -4.60468         0.14148
| 82>    S       11.07554        -5.65725         2.15239
| 83>    C       12.61852        -6.46080         1.71824
| 84>    O       13.32562        -7.01190         2.50365
| 85>    C       15.46487        -6.39275        -5.09044
| 86>    C       16.48839        -7.21136        -5.34001
| 87>    C       17.27827        -7.14093        -6.55276
| 88>    C       17.75969        -5.94142        -7.09115
| 89>    C       17.65723        -4.54846        -6.57989
| 90>    O       17.10095        -4.12741        -5.59953
| 91>    N       18.38185        -3.75605        -7.47512
| 92>    C       18.94604        -4.49772        -8.51007
| 93>    O       19.60836        -4.07917        -9.41962
| 94>    C       18.55726        -5.90975        -8.23583
| 95>    C       18.92127        -7.05230        -8.92377
| 96>    C       18.45642        -8.25105        -8.39675
| 97>    C       17.66600        -8.30101        -7.25038
| 98>    C       17.24828        -9.66267        -6.86562
| 99>    O       16.53568        -9.99029        -5.96570
|100>    S       17.97252       -10.84461        -8.01550
|101>    C       18.76326        -9.56811        -8.99732
|102>    O       19.41924        -9.78766        -9.96820
|103>    C       18.48794        -2.37192        -7.27067
|104>    C       19.14609        -1.52628        -8.04364
|105>    H       -2.52170         0.24732        -0.92588
|106>    H       -2.63059         4.96805        -2.63146
|107>    H        2.54070         1.81248        -1.13429
|108>    H        2.48781         4.85605        -1.59356
|109>    H        8.33680         3.93648        -1.18234
|110>    H        5.03546        -0.16509        -4.47749
|111>    H        8.08049        -0.39584        -4.06786
|112>    H        7.01576        -4.88520        -7.82350
|113>    H       10.69761        -5.92244        -4.17747
|114>    H       10.42160        -3.79641        -1.96674
|115>    H       14.70774        -7.38275         0.13701
|116>    H       15.09825        -5.66989        -5.80703
|117>    H       16.75312        -7.98931        -4.63883
|118>    H       19.53765        -7.02295        -9.80787
|119>    H       17.95563        -2.06649        -6.37958
|120>    H       19.67525        -1.83691        -8.92564
|121>    H       19.16773        -0.48096        -7.79455
|122> *
|123>
|124>                          ****END OF INPUT****

CARTESIAN COORDINATES (ANGSTROEM)
---------------------------------
  C     -2.537210    1.262170   -1.291330
  C     -1.385960    2.015230   -1.437460
  C      0.026370    1.658220   -1.152670
  O      0.485420    0.637140   -0.725930
  N      0.775400    2.801790   -1.480910
  C     -0.023370    3.849380   -1.959560
  O      0.361790    4.919360   -2.337600
  C     -1.416750    3.329630   -1.913370
  C     -2.599960    3.954020   -2.264760
  C     -3.759180    3.199590   -2.116840
  C     -3.728400    1.888030   -1.643630
  C     -5.054540    1.236210   -1.553390
  O     -5.296510    0.129300   -1.184770
  S     -6.307650    2.401900   -2.105020
  C     -5.112720    3.703490   -2.442260
  O     -5.407180    4.780390   -2.857880
  C      2.156470    2.797410   -1.363850
  C      2.932380    3.879350   -1.467140
  C      4.376020    3.844230   -1.370730
  C      5.181590    2.877390   -1.989140
  C      4.813370    1.741040   -2.869980
  O      3.736230    1.350980   -3.229350
  N      6.028540    1.150060   -3.261990
  C      7.140580    1.811720   -2.729740
  O      8.291500    1.537730   -2.920410
  C      6.576440    2.922670   -1.919550
  C      7.260150    3.907230   -1.231000
  C      6.473990    4.870810   -0.611880
  C      5.082930    4.848400   -0.677960
  C      4.430250    5.940190    0.072600
  O      3.263480    6.130280    0.236880
  S      5.697290    7.003270    0.784900
  C      7.043910    6.001650    0.155670
  O      8.196380    6.238680    0.346330
  C      6.034350    0.080150   -4.140100
  C      7.118860   -0.604640   -4.514400
  C      7.080540   -1.710770   -5.446090
  C      7.884190   -2.838230   -5.228580
  C      8.856450   -3.090970   -4.133950
  O      9.159500   -2.381480   -3.214800
  N      9.382770   -4.365330   -4.391260
  C      8.831720   -4.950440   -5.541610
  O      9.111390   -6.037180   -5.962550
  C      7.867330   -3.952880   -6.066050
  C      7.049190   -4.022550   -7.177690
  C      6.284480   -2.891590   -7.437750
  C      6.300140   -1.759000   -6.621780
  C      5.540320   -0.621820   -7.189490
  O      5.477320    0.506480   -6.804710
  S      4.710440   -1.153220   -8.696760
  C      5.413090   -2.798200   -8.630460
  O      5.196680   -3.649990   -9.435730
  C     10.369220   -5.021970   -3.674690
  C     10.843930   -4.644690   -2.484840
  C     11.889210   -5.376400   -1.800740
  C     13.029810   -5.880490   -2.441370
  C     13.496900   -5.713430   -3.842110
  O     13.001820   -5.118820   -4.760900
  N     14.720460   -6.396410   -3.919690
  C     15.101180   -6.956460   -2.697030
  O     16.104670   -7.574810   -2.478730
  C     14.014410   -6.590450   -1.750600
  C     13.944360   -6.834930   -0.391700
  C     12.834230   -6.314140    0.261230
  C     11.838100   -5.609540   -0.411790
  C     10.724750   -5.172410    0.453520
  O      9.722190   -4.604680    0.141480
  S     11.075540   -5.657250    2.152390
  C     12.618520   -6.460800    1.718240
  O     13.325620   -7.011900    2.503650
  C     15.464870   -6.392750   -5.090440
  C     16.488390   -7.211360   -5.340010
  C     17.278270   -7.140930   -6.552760
  C     17.759690   -5.941420   -7.091150
  C     17.657230   -4.548460   -6.579890
  O     17.100950   -4.127410   -5.599530
  N     18.381850   -3.756050   -7.475120
  C     18.946040   -4.497720   -8.510070
  O     19.608360   -4.079170   -9.419620
  C     18.557260   -5.909750   -8.235830
  C     18.921270   -7.052300   -8.923770
  C     18.456420   -8.251050   -8.396750
  C     17.666000   -8.301010   -7.250380
  C     17.248280   -9.662670   -6.865620
  O     16.535680   -9.990290   -5.965700
  S     17.972520  -10.844610   -8.015500
  C     18.763260   -9.568110   -8.997320
  O     19.419240   -9.787660   -9.968200
  C     18.487940   -2.371920   -7.270670
  C     19.146090   -1.526280   -8.043640
  H     -2.521700    0.247320   -0.925880
  H     -2.630590    4.968050   -2.631460
  H      2.540700    1.812480   -1.134290
  H      2.487810    4.856050   -1.593560
  H      8.336800    3.936480   -1.182340
  H      5.035460   -0.165090   -4.477490
  H      8.080490   -0.395840   -4.067860
  H      7.015760   -4.885200   -7.823500
  H     10.697610   -5.922440   -4.177470
  H     10.421600   -3.796410   -1.966740
  H     14.707740   -7.382750    0.137010
  H     15.098250   -5.669890   -5.807030
  H     16.753120   -7.989310   -4.638830
  H     19.537650   -7.022950   -9.807870
  H     17.955630   -2.066490   -6.379580
  H     19.675250   -1.836910   -8.925640
  H     19.167730   -0.480960   -7.794550

 Total Charge           Charge          ....    0
 Multiplicity           Mult            ....    1
 Number of Electrons    NEL             ....  652
 Basis Dimension        Dim             .... 1365

ORBITAL ENERGIES
----------------

  NO   OCC          E(Eh)            E(eV)
   0   2.0000     -88.961489     -2420.7652
   1   2.0000     -88.958999     -2420.6974
   2   2.0000     -88.958706     -2420.6895
   3   2.0000     -88.956181     -2420.6208
   4   2.0000     -88.953701     -2420.5533
   5   2.0000     -19.254870      -523.9517
   6   2.0000     -19.254790      -523.9495
   7   2.0000     -19.252077      -523.8756
   8   2.0000     -19.251771      -523.8673
   9   2.0000     -19.251106      -523.8492
  10   2.0000     -19.251029      -523.8471
  11   2.0000     -19.249403      -523.8029
  12   2.0000     -19.249104      -523.7948
  13   2.0000     -19.248887      -523.7888
  14   2.0000     -19.248232      -523.7710
  15   2.0000     -19.247747      -523.7578
  16   2.0000     -19.246939      -523.7358
  17   2.0000     -19.246816      -523.7325
  18   2.0000     -19.246424      -523.7218
  19   2.0000     -19.245415      -523.6944
  20   2.0000     -19.244396      -523.6666
  21   2.0000     -19.242356      -523.6111
  22   2.0000     -19.241428      -523.5859
  23   2.0000     -19.236685      -523.4568
  24   2.0000     -19.235529      -523.4253
  25   2.0000     -14.498317      -394.5193
  26   2.0000     -14.497864      -394.5069
  27   2.0000     -14.494568      -394.4172
  28   2.0000     -14.491741      -394.3403
  29   2.0000     -14.484228      -394.1359
  30   2.0000     -10.428685      -283.7790
  31   2.0000     -10.427671      -283.7514
  32   2.0000     -10.427521      -283.7473
  33   2.0000     -10.425279      -283.6863
  34   2.0000     -10.424437      -283.6633
  35   2.0000     -10.423518      -283.6384
  36   2.0000     -10.423399      -283.6351
  37   2.0000     -10.420563      -283.5579
  38   2.0000     -10.417798      -283.4827
  39   2.0000     -10.416326      -283.4426
  40   2.0000     -10.416190      -283.4389
  41   2.0000     -10.415915      -283.4315
  42   2.0000     -10.415132      -283.4101
  43   2.0000     -10.414169      -283.3839
  44   2.0000     -10.412932      -283.3503
  45   2.0000     -10.412200      -283.3304
  46   2.0000     -10.411625      -283.3147
  47   2.0000     -10.410259      -283.2776
  48   2.0000     -10.408928      -283.2413
  49   2.0000     -10.408062      -283.2178
  50   2.0000     -10.346943      -281.5546
  51   2.0000     -10.345245      -281.5084
  52   2.0000     -10.342965      -281.4464
  53   2.0000     -10.342449      -281.4323
  54   2.0000     -10.342004      -281.4202
  55   2.0000     -10.339506      -281.3523
  56   2.0000     -10.339051      -281.3399
  57   2.0000     -10.338981      -281.3380
  58   2.0000     -10.338597      -281.3275
  59   2.0000     -10.337880      -281.3080
  60   2.0000     -10.337274      -281.2915
  61   2.0000     -10.336996      -281.2840
  62   2.0000     -10.336528      -281.2712
  63   2.0000     -10.336025      -281.2575
  64   2.0000     -10.335398      -281.2405
  65   2.0000     -10.335359      -281.2394
  66   2.0000     -10.334892      -281.2267
  67   2.0000     -10.334273      -281.2099
  68   2.0000     -10.333749      -281.1956
  69   2.0000     -10.333553      -281.1903
  70   2.0000     -10.332708      -281.1673
  71   2.0000     -10.332659      -281.1660
  72   2.0000     -10.330296      -281.1016
  73   2.0000     -10.330215      -281.0994
  74   2.0000     -10.329880      -281.0903
  75   2.0000     -10.329704      -281.0855
  76   2.0000     -10.329450      -281.0786
  77   2.0000     -10.329446      -281.0785
  78   2.0000     -10.329049      -281.0677
  79   2.0000     -10.327186      -281.0170
  80   2.0000     -10.326435      -280.9966
  81   2.0000     -10.326289      -280.9926
  82   2.0000     -10.325531      -280.9720
  83   2.0000     -10.323695      -280.9220
  84   2.0000     -10.318339      -280.7763
  85   2.0000     -10.292775      -280.0806
  86   2.0000     -10.290556      -280.0203
  87   2.0000     -10.289136      -279.9816
  88   2.0000     -10.287674      -279.9418
  89   2.0000     -10.267386      -279.3898
  90   2.0000      -8.060673      -219.3421
  91   2.0000      -8.058286      -219.2771
  92   2.0000      -8.057931      -219.2675
  93   2.0000      -8.055348      -219.1972
  94   2.0000      -8.052875      -219.1299
  95   2.0000      -6.029506      -164.0712
  96   2.0000      -6.027119      -164.0062
  97   2.0000      -6.026773      -163.9968
  98   2.0000      -6.026276      -163.9833
  99   2.0000      -6.024192      -163.9266
 100   2.0000      -6.023882      -163.9182
 101   2.0000      -6.023533      -163.9087
 102   2.0000      -6.021742      -163.8599
 103   2.0000      -6.021740      -163.8599
 104   2.0000      -6.020947      -163.8383
 105   2.0000      -6.019350      -163.7948
 106   2.0000      -6.018990      -163.7850
 107   2.0000      -6.018468      -163.7708
 108   2.0000      -6.016431      -163.7154
 109   2.0000      -6.013944      -163.6477
 110   2.0000      -1.195559       -32.5328
 111   2.0000      -1.195068       -32.5195
 112   2.0000      -1.192218       -32.4419
 113   2.0000      -1.189774       -32.3754
 114   2.0000      -1.183240       -32.1976
 115   2.0000      -1.179689       -32.1010
 116   2.0000      -1.177099       -32.0305
 117   2.0000      -1.177020       -32.0283
 118   2.0000      -1.175845       -31.9964
 119   2.0000      -1.174431       -31.9579
 120   2.0000      -1.173076       -31.9210
 121   2.0000      -1.172832       -31.9144
 122   2.0000      -1.172514       -31.9057
 123   2.0000      -1.171911       -31.8893
 124   2.0000      -1.171795       -31.8862
 125   2.0000      -1.170448       -31.8495
 126   2.0000      -1.169128       -31.8136
 127   2.0000      -1.167966       -31.7820
 128   2.0000      -1.166281       -31.7361
 129   2.0000      -1.159847       -31.5610
 130   2.0000      -1.088435       -29.6178
 131   2.0000      -1.087570       -29.5943
 132   2.0000      -1.085013       -29.5247
 133   2.0000      -1.082328       -29.4516
 134   2.0000      -1.075170       -29.2568
 135   2.0000      -1.024739       -27.8846
 136   2.0000      -1.022719       -27.8296
 137   2.0000      -1.021042       -27.7840
 138   2.0000      -1.018787       -27.7226
 139   2.0000      -1.015092       -27.6221
 140   2.0000      -0.967689       -26.3322
 141   2.0000      -0.965491       -26.2724
 142   2.0000      -0.964043       -26.2330
 143   2.0000      -0.961298       -26.1582
 144   2.0000      -0.955261       -25.9940
 145   2.0000      -0.936502       -25.4835
 146   2.0000      -0.931381       -25.3442
 147   2.0000      -0.926238       -25.2042
 148   2.0000      -0.921625       -25.0787
 149   2.0000      -0.904985       -24.6259
 150   2.0000      -0.901630       -24.5346
 151   2.0000      -0.899980       -24.4897
 152   2.0000      -0.898073       -24.4378
 153   2.0000      -0.897633       -24.4258
 154   2.0000      -0.895478       -24.3672
 155   2.0000      -0.855715       -23.2852
 156   2.0000      -0.852836       -23.2068
 157   2.0000      -0.852545       -23.1989
 158   2.0000      -0.849487       -23.1157
 159   2.0000      -0.846364       -23.0307
 160   2.0000      -0.809263       -22.0212
 161   2.0000      -0.805383       -21.9156
 162   2.0000      -0.803900       -21.8752
 163   2.0000      -0.802228       -21.8297
 164   2.0000      -0.801346       -21.8057
 165   2.0000      -0.799612       -21.7585
 166   2.0000      -0.795794       -21.6546
 167   2.0000      -0.793187       -21.5837
 168   2.0000      -0.783956       -21.3325
 169   2.0000      -0.774571       -21.0771
 170   2.0000      -0.763340       -20.7715
 171   2.0000      -0.759887       -20.6776
 172   2.0000      -0.757887       -20.6232
 173   2.0000      -0.754465       -20.5300
 174   2.0000      -0.748486       -20.3673
 175   2.0000      -0.738770       -20.1030
 176   2.0000      -0.728539       -19.8246
 177   2.0000      -0.720081       -19.5944
 178   2.0000      -0.712156       -19.3787
 179   2.0000      -0.702909       -19.1271
 180   2.0000      -0.702256       -19.1094
 181   2.0000      -0.701426       -19.0868
 182   2.0000      -0.699024       -19.0214
 183   2.0000      -0.697383       -18.9768
 184   2.0000      -0.694841       -18.9076
 185   2.0000      -0.681853       -18.5542
 186   2.0000      -0.670067       -18.2334
 187   2.0000      -0.667428       -18.1616
 188   2.0000      -0.664770       -18.0893
 189   2.0000      -0.662460       -18.0264
 190   2.0000      -0.648940       -17.6585
 191   2.0000      -0.643927       -17.5221
 192   2.0000      -0.639532       -17.4025
 193   2.0000      -0.635994       -17.3063
 194   2.0000      -0.630053       -17.1446
 195   2.0000      -0.629109       -17.1189
 196   2.0000      -0.627893       -17.0858
 197   2.0000      -0.623070       -16.9546
 198   2.0000      -0.622823       -16.9479
 199   2.0000      -0.621824       -16.9207
 200   2.0000      -0.617441       -16.8014
 201   2.0000      -0.616611       -16.7788
 202   2.0000      -0.614292       -16.7157
 203   2.0000      -0.610206       -16.6045
 204   2.0000      -0.605775       -16.4840
 205   2.0000      -0.602611       -16.3979
 206   2.0000      -0.601424       -16.3656
 207   2.0000      -0.599195       -16.3049
 208   2.0000      -0.597282       -16.2529
 209   2.0000      -0.592332       -16.1182
 210   2.0000      -0.589708       -16.0468
 211   2.0000      -0.584839       -15.9143
 212   2.0000      -0.582732       -15.8569
 213   2.0000      -0.578103       -15.7310
 214   2.0000      -0.578013       -15.7285
 215   2.0000      -0.576461       -15.6863
 216   2.0000      -0.575063       -15.6483
 217   2.0000      -0.572726       -15.5847
 218   2.0000      -0.572480       -15.5780
 219   2.0000      -0.572041       -15.5660
 220   2.0000      -0.569257       -15.4903
 221   2.0000      -0.568116       -15.4592
 222   2.0000      -0.566635       -15.4189
 223   2.0000      -0.564203       -15.3527
 224   2.0000      -0.562156       -15.2970
 225   2.0000      -0.561646       -15.2832
 226   2.0000      -0.560862       -15.2618
 227   2.0000      -0.560171       -15.2430
 228   2.0000      -0.558038       -15.1850
 229   2.0000      -0.556914       -15.1544
 230   2.0000      -0.555286       -15.1101
 231   2.0000      -0.553278       -15.0555
 232   2.0000      -0.551692       -15.0123
 233   2.0000      -0.549560       -14.9543
 234   2.0000      -0.549420       -14.9505
 235   2.0000      -0.548096       -14.9145
 236   2.0000      -0.547233       -14.8910
 237   2.0000      -0.546705       -14.8766
 238   2.0000      -0.545270       -14.8376
 239   2.0000      -0.545044       -14.8314
 240   2.0000      -0.544315       -14.8116
 241   2.0000      -0.543742       -14.7960
 242   2.0000      -0.542248       -14.7553
 243   2.0000      -0.540381       -14.7045
 244   2.0000      -0.539280       -14.6745
 245   2.0000      -0.534046       -14.5321
 246   2.0000      -0.532675       -14.4948
 247   2.0000      -0.531127       -14.4527
 248   2.0000      -0.528931       -14.3930
 249   2.0000      -0.525420       -14.2974
 250   2.0000      -0.520649       -14.1676
 251   2.0000      -0.518881       -14.1195
 252   2.0000      -0.517101       -14.0710
 253   2.0000      -0.516301       -14.0493
 254   2.0000      -0.516157       -14.0453
 255   2.0000      -0.515123       -14.0172
 256   2.0000      -0.513978       -13.9861
 257   2.0000      -0.513484       -13.9726
 258   2.0000      -0.513234       -13.9658
 259   2.0000      -0.509324       -13.8594
 260   2.0000      -0.506404       -13.7800
 261   2.0000      -0.504990       -13.7415
 262   2.0000      -0.503726       -13.7071
 263   2.0000      -0.503137       -13.6911
 264   2.0000      -0.501907       -13.6576
 265   2.0000      -0.500865       -13.6292
 266   2.0000      -0.498968       -13.5776
 267   2.0000      -0.496726       -13.5166
 268   2.0000      -0.494758       -13.4630
 269   2.0000      -0.490854       -13.3568
 270   2.0000      -0.490389       -13.3442
 271   2.0000      -0.486790       -13.2462
 272   2.0000      -0.484041       -13.1714
 273   2.0000      -0.482064       -13.1176
 274   2.0000      -0.480218       -13.0674
 275   2.0000      -0.479169       -13.0389
 276   2.0000      -0.477713       -12.9992
 277   2.0000      -0.474725       -12.9179
 278   2.0000      -0.473810       -12.8930
 279   2.0000      -0.471449       -12.8288
 280   2.0000      -0.466316       -12.6891
 281   2.0000      -0.443294       -12.0626
 282   2.0000      -0.440832       -11.9957
 283   2.0000      -0.438658       -11.9365
 284   2.0000      -0.433673       -11.8008
 285   2.0000      -0.424692       -11.5565
 286   2.0000      -0.402281       -10.9466
 287   2.0000      -0.397628       -10.8200
 288   2.0000      -0.394529       -10.7357
 289   2.0000      -0.392974       -10.6934
 290   2.0000      -0.392039       -10.6679
 291   2.0000      -0.390458       -10.6249
 292   2.0000      -0.388822       -10.5804
 293   2.0000      -0.387003       -10.5309
 294   2.0000      -0.384119       -10.4524
 295   2.0000      -0.382096       -10.3974
 296   2.0000      -0.381731       -10.3874
 297   2.0000      -0.380926       -10.3655
 298   2.0000      -0.380825       -10.3628
 299   2.0000      -0.379769       -10.3340
 300   2.0000      -0.378735       -10.3059
 301   2.0000      -0.378380       -10.2962
 302   2.0000      -0.378112       -10.2890
 303   2.0000      -0.377001       -10.2587
 304   2.0000      -0.376790       -10.2530
 305   2.0000      -0.374030       -10.1779
 306   2.0000      -0.373657       -10.1677
 307   2.0000      -0.373192       -10.1551
 308   2.0000      -0.369588       -10.0570
 309   2.0000      -0.368610       -10.0304
 310   2.0000      -0.367019        -9.9871
 311   2.0000      -0.359062        -9.7706
 312   2.0000      -0.357999        -9.7416
 313   2.0000      -0.357181        -9.7194
 314   2.0000      -0.355715        -9.6795
 315   2.0000      -0.355044        -9.6612
 316   2.0000      -0.353595        -9.6218
 317   2.0000      -0.353516        -9.6197
 318   2.0000      -0.351506        -9.5650
 319   2.0000      -0.350919        -9.5490
 320   2.0000      -0.348807        -9.4915
 321   2.0000      -0.319310        -8.6889
 322   2.0000      -0.315493        -8.5850
 323   2.0000      -0.312801        -8.5118
 324   2.0000      -0.308556        -8.3962
 325   2.0000      -0.305501        -8.3131
 326   0.0000      -0.103795        -2.8244
 327   0.0000      -0.102628        -2.7927
 328   0.0000      -0.101480        -2.7614
 329   0.0000      -0.099031        -2.6948
 330   0.0000      -0.095528        -2.5995

MULLIKEN ATOMIC CHARGES
-----------------------
   0 C :   -0.045890
   1 C :    0.000468
   2 C :    0.209896
   3 O :   -0.122624
   4 N :   -0.253746
   5 C :    0.226633
   6 O :   -0.124844
   7 C :    0.003130
   8 C :   -0.047781
   9 C :    0.055245
  10 C :    0.054816
  11 C :    0.051398
  12 O :   -0.111471
  13 S :    0.010766
  14 C :    0.050919
  15 O :   -0.110354
  16 C :    0.136039
  17 C :   -0.057656
  18 C :    0.049631
  19 C :   -0.036547
  20 C :    0.190893
  21 O :   -0.133800
  22 N :   -0.242713
  23 C :    0.216838
  24 O :   -0.122179
  25 C :    0.009589
  26 C :   -0.073411
  27 C :    0.049835
  28 C :    0.040554
  29 C :    0.035240
  30 O :   -0.120667
  31 S :    0.016001
  32 C :    0.050918
  33 O :   -0.113399
  34 C :    0.134618
  35 C :   -0.054632
  36 C :    0.047012
  37 C :   -0.032932
  38 C :    0.220553
  39 O :   -0.132711
  40 N :   -0.247503
  41 C :    0.202309
  42 O :   -0.123644
  43 C :    0.010105
  44 C :   -0.070810
  45 C :    0.044350
  46 C :    0.026144
  47 C :    0.029191
  48 O :   -0.121787
  49 S :    0.016346
  50 C :    0.052108
  51 O :   -0.116278
  52 C :    0.131757
  53 C :   -0.051544
  54 C :    0.046415
  55 C :   -0.044310
  56 C :    0.190777
  57 O :   -0.135529
  58 N :   -0.244474
  59 C :    0.216857
  60 O :   -0.127470
  61 C :    0.011519
  62 C :   -0.075534
  63 C :    0.048673
  64 C :    0.045315
  65 C :    0.033709
  66 O :   -0.121372
  67 S :    0.012123
  68 C :    0.050979
  69 O :   -0.113614
  70 C :    0.136388
  71 C :   -0.044489
  72 C :    0.037424
  73 C :   -0.030517
  74 C :    0.177693
  75 O :   -0.143722
  76 N :   -0.239883
  77 C :    0.214672
  78 O :   -0.132927
  79 C :   -0.002510
  80 C :   -0.072140
  81 C :    0.050830
  82 C :    0.039024
  83 C :    0.036254
  84 O :   -0.122883
  85 S :    0.010817
  86 C :    0.050131
  87 O :   -0.116303
  88 C :    0.067253
  89 C :   -0.027939
  90 H :    0.023284
  91 H :    0.024396
  92 H :    0.036401
  93 H :    0.055912
  94 H :    0.022828
  95 H :    0.034485
  96 H :    0.057028
  97 H :    0.021090
  98 H :    0.035516
  99 H :    0.055485
 100 H :    0.020794
 101 H :    0.033395
 102 H :    0.053623
 103 H :    0.019912
 104 H :    0.036454
 105 H :    0.054017
 106 H :    0.029763
Sum of atomic charges:   -0.0000000

LOEWDIN ATOMIC CHARGES
----------------------
   0 C :    0.050295
   1 C :   -0.035530
   2 C :    0.101544
   3 O :   -0.120927
   4 N :   -0.015298
   5 C :    0.103911
   6 O :   -0.114540
   7 C :   -0.031404
   8 C :    0.049766
   9 C :   -0.053788
  10 C :   -0.055041
  11 C :   -0.045954
  12 O :   -0.104925
  13 S :    0.301591
  14 C :   -0.045790
  15 O :   -0.103824
  16 C :    0.070663
  17 C :   -0.058274
  18 C :    0.041514
  19 C :   -0.043433
  20 C :    0.106420
  21 O :   -0.124084
  22 N :   -0.011465
  23 C :    0.103337
  24 O :   -0.112646
  25 C :   -0.025859
  26 C :    0.037156
  27 C :   -0.047659
  28 C :   -0.058992
  29 C :   -0.042368
  30 O :   -0.104126
  31 S :    0.303567
  32 C :   -0.047428
  33 O :   -0.106175
  34 C :    0.073637
  35 C :   -0.062076
  36 C :    0.041040
  37 C :   -0.035893
  38 C :    0.107972
  39 O :   -0.113795
  40 N :   -0.013145
  41 C :    0.101594
  42 O :   -0.121947
  43 C :   -0.030204
  44 C :    0.036550
  45 C :   -0.049209
  46 C :   -0.063328
  47 C :   -0.043176
  48 O :   -0.109352
  49 S :    0.304680
  50 C :   -0.048559
  51 O :   -0.108083
  52 C :    0.070715
  53 C :   -0.058374
  54 C :    0.041155
  55 C :   -0.043608
  56 C :    0.104202
  57 O :   -0.127768
  58 N :   -0.011849
  59 C :    0.102891
  60 O :   -0.117690
  61 C :   -0.025655
  62 C :    0.036462
  63 C :   -0.048781
  64 C :   -0.059892
  65 C :   -0.042123
  66 O :   -0.105441
  67 S :    0.300598
  68 C :   -0.047190
  69 O :   -0.106917
  70 C :    0.068431
  71 C :   -0.053640
  72 C :    0.038902
  73 C :   -0.042177
  74 C :    0.100260
  75 O :   -0.134474
  76 N :   -0.018240
  77 C :    0.098562
  78 O :   -0.125460
  79 C :   -0.026120
  80 C :    0.035810
  81 C :   -0.050128
  82 C :   -0.060467
  83 C :   -0.042255
  84 O :   -0.106198
  85 S :    0.299218
  86 C :   -0.046672
  87 O :   -0.108257
  88 C :    0.024031
  89 C :   -0.057507
  90 H :    0.053798
  91 H :    0.054129
  92 H :    0.034516
  93 H :    0.041397
  94 H :    0.053057
  95 H :    0.033337
  96 H :    0.042179
  97 H :    0.052338
  98 H :    0.034456
  99 H :    0.041057
 100 H :    0.052443
 101 H :    0.033863
 102 H :    0.041775
 103 H :    0.051775
 104 H :    0.035019
 105 H :    0.030868
 106 H :    0.032695

  Mayer bond orders larger than 0.100000
B(  0-C ,  1-C ) :   1.3584 B(  0-C , 10-C ) :   1.3446 B(  0-C , 90-H ) :   1.0238
B(  1-C ,  2-C ) :   0.8802 B(  1-C ,  7-C ) :   1.3847 B(  2-C ,  3-O ) :   2.2510
B(  2-C ,  4-N ) :   1.0130 B(  4-N ,  5-C ) :   1.0177 B(  4-N , 16-C ) :   1.0351
B(  5-C ,  6-O ) :   2.2239 B(  5-C ,  7-C ) :   0.8823 B(  7-C ,  8-C ) :   1.3561
B(  8-C ,  9-C ) :   1.3455 B(  8-C , 91-H ) :   1.0242 B(  9-C , 10-C ) :   1.3570
B(  9-C , 14-C ) :   0.8426 B( 10-C , 11-C ) :   0.8435 B( 11-C , 12-O ) :   2.2325
B( 11-C , 13-S ) :   1.0218 B( 12-O , 13-S ) :   0.1089 B( 13-S , 14-C ) :   1.0217
B( 13-S , 15-O ) :   0.1091 B( 14-C , 15-O ) :   2.2341 B( 16-C , 17-C ) :   1.7551
B( 16-C , 92-H ) :   0.9695 B( 17-C , 18-C ) :   1.0855 B( 17-C , 93-H ) :   0.9238
B( 18-C , 19-C ) :   1.3628 B( 18-C , 28-C ) :   1.3652 B( 19-C , 20-C ) :   0.8980
B( 19-C , 25-C ) :   1.3806 B( 20-C , 21-O ) :   2.1883 B( 20-C , 22-N ) :   1.0249
B( 22-N , 23-C ) :   1.0166 B( 22-N , 34-C ) :   1.0458 B( 23-C , 24-O ) :   2.2232
B( 23-C , 25-C ) :   0.8781 B( 25-C , 26-C ) :   1.3431 B( 26-C , 27-C ) :   1.3292
B( 26-C , 94-H ) :   1.0295 B( 27-C , 28-C ) :   1.3460 B( 27-C , 32-C ) :   0.8352
B( 28-C , 29-C ) :   0.8550 B( 29-C , 30-O ) :   2.1735 B( 29-C , 31-S ) :   1.0258
B( 30-O , 31-S ) :   0.1060 B( 31-S , 32-C ) :   1.0271 B( 31-S , 33-O ) :   0.1096
B( 32-C , 33-O ) :   2.2282 B( 34-C , 35-C ) :   1.7405 B( 34-C , 95-H ) :   0.9694
B( 35-C , 36-C ) :   1.0905 B( 35-C , 96-H ) :   0.9259 B( 36-C , 37-C ) :   1.3817
B( 36-C , 46-C ) :   1.3406 B( 37-C , 38-C ) :   0.9012 B( 37-C , 43-C ) :   1.3815
B( 38-C , 39-O ) :   2.1560 B( 38-C , 40-N ) :   1.0293 B( 40-N , 41-C ) :   1.0155
B( 40-N , 52-C ) :   1.0396 B( 41-C , 42-O ) :   2.2493 B( 41-C , 43-C ) :   0.8739
B( 43-C , 44-C ) :   1.3324 B( 44-C , 45-C ) :   1.3449 B( 44-C , 97-H ) :   1.0278
B( 45-C , 46-C ) :   1.3449 B( 45-C , 50-C ) :   0.8392 B( 46-C , 47-C ) :   0.8490
B( 47-C , 48-O ) :   2.1864 B( 47-C , 49-S ) :   1.0235 B( 48-O , 49-S ) :   0.1051
B( 49-S , 50-C ) :   1.0263 B( 49-S , 51-O ) :   0.1085 B( 50-C , 51-O ) :   2.2229
B( 52-C , 53-C ) :   1.7550 B( 52-C , 98-H ) :   0.9687 B( 53-C , 54-C ) :   1.0793
B( 53-C , 99-H ) :   0.9259 B( 54-C , 55-C ) :   1.3636 B( 54-C , 64-C ) :   1.3676
B( 55-C , 56-C ) :   0.8949 B( 55-C , 61-C ) :   1.3806 B( 56-C , 57-O ) :   2.1946
B( 56-C , 58-N ) :   1.0296 B( 58-N , 59-C ) :   1.0239 B( 58-N , 70-C ) :   1.0283
B( 59-C , 60-O ) :   2.2245 B( 59-C , 61-C ) :   0.8747 B( 61-C , 62-C ) :   1.3408
B( 62-C , 63-C ) :   1.3306 B( 62-C ,100-H ) :   1.0298 B( 63-C , 64-C ) :   1.3433
B( 63-C , 68-C ) :   0.8375 B( 64-C , 65-C ) :   0.8554 B( 65-C , 66-O ) :   2.1739
B( 65-C , 67-S ) :   1.0259 B( 66-O , 67-S ) :   0.1058 B( 67-S , 68-C ) :   1.0260
B( 67-S , 69-O ) :   0.1092 B( 68-C , 69-O ) :   2.2277 B( 70-C , 71-C ) :   1.7669
B( 70-C ,101-H ) :   0.9706 B( 71-C , 72-C ) :   1.0779 B( 71-C ,102-H ) :   0.9249
B( 72-C , 73-C ) :   1.3728 B( 72-C , 82-C ) :   1.3706 B( 73-C , 74-C ) :   0.8886
B( 73-C , 79-C ) :   1.3807 B( 74-C , 75-O ) :   2.1836 B( 74-C , 76-N ) :   1.0534
B( 76-N , 77-C ) :   1.0343 B( 76-N , 88-C ) :   0.9856 B( 77-C , 78-O ) :   2.2240
B( 77-C , 79-C ) :   0.8776 B( 79-C , 80-C ) :   1.3445 B( 80-C , 81-C ) :   1.3310
B( 80-C ,103-H ) :   1.0285 B( 81-C , 82-C ) :   1.3434 B( 81-C , 86-C ) :   0.8369
B( 82-C , 83-C ) :   0.8564 B( 83-C , 84-O ) :   2.1745 B( 83-C , 85-S ) :   1.0241
B( 84-O , 85-S ) :   0.1060 B( 85-S , 86-C ) :   1.0263 B( 85-S , 87-O ) :   0.1091
B( 86-C , 87-O ) :   2.2262 B( 88-C , 89-C ) :   1.9659 B( 88-C ,104-H ) :   0.9624
B( 89-C ,105-H ) :   0.9443 B( 89-C ,106-H ) :   0.9459

-----------------------------------------------------------------------------
         ABSORPTION SPECTRUM VIA TRANSITION ELECTRIC DIPOLE MOMENTS
-----------------------------------------------------------------------------
State   Energy  Wavelength   fosc         T2         TX        TY        TZ
        (cm-1)    (nm)                  (au**2)     (au)      (au)      (au)
-----------------------------------------------------------------------------
   0   23946.4    417.6   0.032390172   0.44530   0.36418  -0.06866   0.55494
   1   24809.6    403.1   0.045444139   0.60302   0.16231  -0.65128  -0.39053
   2   24917.9    401.3   0.046876553   0.61933   0.45897  -0.10892  -0.62993
   3   25104.9    398.3   0.031746150   0.41630   0.01930  -0.64281  -0.05214
   4   26959.1    370.9   0.005252171   0.06414   0.20636   0.12420   0.07828
   5   27186.8    367.8   0.005647571   0.06839   0.05325  -0.17030   0.19118
   6   27252.9    366.9   0.014144894   0.17087  -0.01304  -0.28233  -0.30164
   7   27293.4    366.4   0.008163680   0.09847   0.09631  -0.27308   0.12092
   8   28574.0    350.0   0.006579421   0.07580   0.14433  -0.04425  -0.23025
   9   29339.7    340.8   0.000683672   0.00767  -0.05438   0.06177   0.02999
  10   29397.2    340.2   0.028122110   0.31493  -0.28410   0.39075   0.28554
  11   29601.6    337.8   0.028924007   0.32168   0.44948  -0.13443  -0.31870
  12   29701.2    336.7   0.013723864   0.15212   0.12902   0.36787  -0.01186
  13   30069.5    332.6   0.032274520   0.35335  -0.38464   0.25582  -0.37411
  14   31217.8    320.3   0.866434120   9.13711  -2.32519   1.86636   0.49732
  15   32507.6    307.6   0.059618927   0.60378  -0.03051   0.69181  -0.35248
  16   32930.4    303.7   0.567294072   5.67136  -2.32147  -0.51125  -0.14409
  17   33429.6    299.1   0.166386834   1.63856  -0.39041  -0.07296  -1.21689
  18   33710.2    296.6   0.005187333   0.05066  -0.02123   0.21300  -0.06956
  19   33770.1    296.1   0.004422015   0.04311  -0.05439   0.19918   0.02184
  20   33857.4    295.4   0.009768150   0.09498   0.20385  -0.19633  -0.12200
  21   33885.3    295.1   0.001781397   0.01731  -0.03845  -0.10275   0.07261
  22   33910.9    294.9   0.075209581   0.73015   0.21327   0.42032   0.71274
  23   33940.2    294.6   0.018194331   0.17648  -0.16501  -0.26049   0.28530
  24   34004.4    294.1   0.074119244   0.71758  -0.46223  -0.18252   0.68601
  25   34013.2    294.0   0.148327112   1.43565   0.56096   0.27851  -1.02147
  26   34135.9    292.9   0.101167562   0.97568   0.46269   0.07085  -0.86981
  27   34174.1    292.6   0.018856919   0.18166  -0.13798   0.21161   0.34328
  28   34183.9    292.5   0.001071053   0.01031   0.05803   0.06576   0.05122
  29   34315.7    291.4   0.042075670   0.40366   0.31455   0.31384   0.45412
  30   34352.6    291.1   0.044052486   0.42217  -0.13920   0.34642   0.53178
  31   34501.1    289.8   0.018120245   0.17290  -0.19149   0.14866  -0.33784
  32   34542.1    289.5   0.057326820   0.54637  -0.21531  -0.26859  -0.65412
  33   34577.6    289.2   0.005325152   0.05070  -0.21473   0.05224   0.04317
  34   34635.7    288.7   0.034338291   0.32639   0.52744   0.20767  -0.07118
  35   34705.5    288.1   0.287251233   2.72483   0.31834   0.43322   1.56071
  36   34826.8    287.1   0.043432839   0.41056   0.33870  -0.09679  -0.53524
  37   35159.1    284.4   0.000407992   0.00382   0.01384   0.05669  -0.02039
  38   36292.0    275.5   0.000437033   0.00396  -0.02258  -0.05874   0.00218
  39   36680.7    272.6   0.022047233   0.19788   0.27543   0.04126  -0.34686
  40   37134.2    269.3   0.041657208   0.36931  -0.18489   0.51300   0.26824
  41   37564.4    266.2   0.003977588   0.03486  -0.07278  -0.14505  -0.09232
  42   37616.2    265.8   0.000019542   0.00017  -0.00841  -0.00701  -0.00716
  43   37871.7    264.0   0.000048284   0.00042  -0.01528  -0.00490  -0.01273
  44   38047.5    262.8   0.001025920   0.00888   0.00494   0.08637   0.03732
  45   38281.9    261.2   0.004180651   0.03595   0.18201  -0.05310   0.00179
  46   38376.5    260.6   0.008896674   0.07632  -0.20623  -0.13861  -0.12074
  47   38414.6    260.3   0.005818779   0.04987  -0.01693  -0.22245  -0.00978
  48   38507.2    259.7   0.117121479   1.00131  -0.07604  -0.99363  -0.09073
  49   38750.3    258.1   0.041104252   0.34921  -0.45560   0.28868   0.24146
  50   38858.4    257.3   0.000169531   0.00144  -0.03374  -0.00498   0.01653
  51   39022.5    256.3   0.000254453   0.00215   0.00493  -0.04606   0.00112
  52   39522.0    253.0   0.000006474   0.00005  -0.00245   0.00660  -0.00211
  53   39647.4    252.2   0.138135505   1.14701   0.22846   1.04440  -0.06353
  54   40235.5    248.5   0.390741643   3.19710   1.78346   0.09885   0.08120

FINAL SINGLE POINT ENERGY     -6060.598869325115

DIPOLE MOMENT
-------------
                                X             Y             Z
Electronic contribution:    -27.70799       0.22141       9.93902
Nuclear contribution   :     27.08247       0.52336      -9.76156
                        -----------------------------------------
Total Dipole Moment    :     -0.62553       0.74478       0.17746
                        -----------------------------------------
Magnitude (a.u.)       :      0.98867
Magnitude (Debye)      :      2.51300

Rotational constants in cm-1:     0.000870     0.000170     0.000166
Rotational constants in MHz :    26.081242     5.099888     4.975519

                             ****ORCA TERMINATED NORMALLY****
TOTAL RUN TIME: 0 days 0 hours 10 minutes 54 seconds 282 msec
