                         Program Version 4.2.0 -  RELEASE  -
|  1> # ORCA input file
|  2> # SCF done       -178.827822280483          0.000653577142
|  3> ! CAM-B3LYP def2-SVP def2/J RIJCOSX Grid4 TightSCF
|  4> %maxcore 5000
|  5> %tddft
|  6>     Mode sTDDFT
|  7>     Ethresh 5.0
|  8>     maxcore 5000
|  9> end
| 10>
| 11> %pal
| 12>   nprocs 6
| 13>   end
| 14> * xyz 0 1
| 15>    C        0.49905        -2.85801        -1.98397
| 16>    S        1.73657        -2.58827        -0.81433
| 17>    C        1.82989        -4.27647        -0.32930
| 18>    C        0.91198        -4.98645        -1.08239
| 19>    C        0.17471        -4.17894        -2.00067
| 20>    O       -0.67892        -4.99619        -2.66490
| 21>    C       -0.42628        -6.21956        -2.13407
| 22>    N        0.47625        -6.27981        -1.22231
| 23>    C        2.71686        -4.74921         0.65872
| 24>    C        3.58219        -3.96082         1.34901
| 25>    C        4.46355        -4.47594         2.33016
| 26>    N        4.38402        -5.73320         2.75881
| 27>    C        5.28245        -5.84524         3.75044
| 28>    C        5.97372        -4.56808         3.99093
| 29>    C        6.96124        -4.70244         5.07298
| 30>    O        7.69625        -3.85824         5.53751
| 31>    C        6.82743        -6.12343         5.44703
| 32>    C        5.79296        -6.77994         4.62295
| 33>    N        5.68083        -8.08963         4.94871
| 34>    C        6.56712        -8.28319         5.89753
| 35>    C        7.32280        -7.10189         6.25013
| 36>    C        5.49252        -3.69183         3.05696
| 37>    C        5.92224        -2.34869         2.82638
| 38>    C        5.94335        -1.74221         1.62325
| 39>    C        6.48124        -0.42656         1.36926
| 40>    C        6.92979        -0.12376         0.10077
| 41>    C        7.57322         1.10208        -0.15125
| 42>    C        8.18338         1.59725        -1.30055
| 43>    C        8.26068         0.88346        -2.60737
| 44>    C        7.86545         1.76709        -3.81658
| 45>    N        6.63939         2.51876        -3.66205
| 46>    C        9.65513         0.25676        -2.84295
| 47>    N       10.70300         1.26156        -2.85401
| 48>    C        8.72646         2.88899        -0.95698
| 49>    C        9.45421         3.77907        -1.66245
| 50>    C       10.00098         5.00601        -1.02446
| 51>    C        9.47051         5.29913         0.34369
| 52>    C        8.74689         4.39896         1.03864
| 53>    C        8.38284         3.16713         0.44846
| 54>    C        7.70074         2.06570         0.93058
| 55>    C        7.17881         1.75444         2.20689
| 56>    C        6.60045         0.54451         2.41705
| 57>    C       11.48836         4.78828        -0.83041
| 58>    C       11.98474         3.72805        -0.17636
| 59>    C       13.38425         3.54691         0.03995
| 60>    N       14.28295         4.39747        -0.42876
| 61>    C       15.48084         3.93202        -0.01563
| 62>    C       15.33550         2.70466         0.77575
| 63>    C       16.64841         2.22040         1.21831
| 64>    O       16.90985         1.24769         1.89703
| 65>    C       17.57290         3.21302         0.63638
| 66>    C       16.81818         4.24066        -0.10478
| 67>    N       17.65904         5.15560        -0.64737
| 68>    C       18.86087         4.76396        -0.29671
| 69>    C       18.88022         3.55751         0.50305
| 70>    C       13.98739         2.43219         0.81011
| 71>    C       13.26536         1.37226         1.41305
| 72>    C       13.83775         0.41940         2.19496
| 73>    C       13.08778        -0.62614         2.77855
| 74>    S       13.78929        -1.76983         3.91017
| 75>    C       12.30863        -2.65201         4.16385
| 76>    C       11.31804        -2.08277         3.38137
| 77>    C       11.75570        -0.96372         2.62911
| 78>    O       10.69870        -0.51873         1.90261
| 79>    C        9.69667        -1.37713         2.23985
| 80>    N        9.99113        -2.29628         3.08266
| 81>    C       12.23532        -3.75693         5.06853
| 82>    C       11.08760        -4.36114         5.38282
| 83>    H        0.11033        -2.04359        -2.55955
| 84>    H       -0.99050        -7.05201        -2.50575
| 85>    H        2.69829        -5.81202         0.85750
| 86>    H        3.59773        -2.89531         1.16432
| 87>    H        6.68003        -9.25639         6.34326
| 88>    H        8.09308        -7.05293         6.99430
| 89>    H        6.35805        -1.86229         3.68882
| 90>    H        5.64310        -2.29725         0.74332
| 91>    H        6.83046        -0.85610        -0.68910
| 92>    H        7.55090         0.04803        -2.56617
| 93>    H        7.74559         1.11563        -4.68702
| 94>    H        8.67071         2.46740        -4.03548
| 95>    H        5.86200         1.89525        -3.47035
| 96>    H        6.71573         3.16410        -2.88259
| 97>    H        9.64029        -0.22819        -3.82250
| 98>    H        9.81409        -0.52265        -2.07950
| 99>    H       10.94872         1.52894        -1.90729
|100>    H       11.53888         0.90078        -3.29804
|101>    H        9.75975         3.59137        -2.67970
|102>    H        9.85837         5.86582        -1.68668
|103>    H        9.76322         6.24226         0.77726
|104>    H        8.41619         4.61524         2.04425
|105>    H        7.25399         2.47897         3.00428
|106>    H        6.19980         0.29861         3.38787
|107>    H       12.17076         5.53770        -1.20146
|108>    H       11.31778         2.97927         0.22903
|109>    H       19.72580         5.32634        -0.60331
|110>    H       19.75854         3.07638         0.88585
|111>    H       12.19751         1.33164         1.24444
|112>    H       14.89951         0.44434         2.39838
|113>    H        8.74003        -1.22989         1.78116
|114>    H       13.17629        -4.07291         5.49906
|115>    H       10.14749        -4.02845         4.97682
|116>    H       11.06534        -5.18953         6.06865
|117> *
|118>
|119>                          ****END OF INPUT****

CARTESIAN COORDINATES (ANGSTROEM)
---------------------------------
  C      0.499050   -2.858010   -1.983970
  S      1.736570   -2.588270   -0.814330
  C      1.829890   -4.276470   -0.329300
  C      0.911980   -4.986450   -1.082390
  C      0.174710   -4.178940   -2.000670
  O     -0.678920   -4.996190   -2.664900
  C     -0.426280   -6.219560   -2.134070
  N      0.476250   -6.279810   -1.222310
  C      2.716860   -4.749210    0.658720
  C      3.582190   -3.960820    1.349010
  C      4.463550   -4.475940    2.330160
  N      4.384020   -5.733200    2.758810
  C      5.282450   -5.845240    3.750440
  C      5.973720   -4.568080    3.990930
  C      6.961240   -4.702440    5.072980
  O      7.696250   -3.858240    5.537510
  C      6.827430   -6.123430    5.447030
  C      5.792960   -6.779940    4.622950
  N      5.680830   -8.089630    4.948710
  C      6.567120   -8.283190    5.897530
  C      7.322800   -7.101890    6.250130
  C      5.492520   -3.691830    3.056960
  C      5.922240   -2.348690    2.826380
  C      5.943350   -1.742210    1.623250
  C      6.481240   -0.426560    1.369260
  C      6.929790   -0.123760    0.100770
  C      7.573220    1.102080   -0.151250
  C      8.183380    1.597250   -1.300550
  C      8.260680    0.883460   -2.607370
  C      7.865450    1.767090   -3.816580
  N      6.639390    2.518760   -3.662050
  C      9.655130    0.256760   -2.842950
  N     10.703000    1.261560   -2.854010
  C      8.726460    2.888990   -0.956980
  C      9.454210    3.779070   -1.662450
  C     10.000980    5.006010   -1.024460
  C      9.470510    5.299130    0.343690
  C      8.746890    4.398960    1.038640
  C      8.382840    3.167130    0.448460
  C      7.700740    2.065700    0.930580
  C      7.178810    1.754440    2.206890
  C      6.600450    0.544510    2.417050
  C     11.488360    4.788280   -0.830410
  C     11.984740    3.728050   -0.176360
  C     13.384250    3.546910    0.039950
  N     14.282950    4.397470   -0.428760
  C     15.480840    3.932020   -0.015630
  C     15.335500    2.704660    0.775750
  C     16.648410    2.220400    1.218310
  O     16.909850    1.247690    1.897030
  C     17.572900    3.213020    0.636380
  C     16.818180    4.240660   -0.104780
  N     17.659040    5.155600   -0.647370
  C     18.860870    4.763960   -0.296710
  C     18.880220    3.557510    0.503050
  C     13.987390    2.432190    0.810110
  C     13.265360    1.372260    1.413050
  C     13.837750    0.419400    2.194960
  C     13.087780   -0.626140    2.778550
  S     13.789290   -1.769830    3.910170
  C     12.308630   -2.652010    4.163850
  C     11.318040   -2.082770    3.381370
  C     11.755700   -0.963720    2.629110
  O     10.698700   -0.518730    1.902610
  C      9.696670   -1.377130    2.239850
  N      9.991130   -2.296280    3.082660
  C     12.235320   -3.756930    5.068530
  C     11.087600   -4.361140    5.382820
  H      0.110330   -2.043590   -2.559550
  H     -0.990500   -7.052010   -2.505750
  H      2.698290   -5.812020    0.857500
  H      3.597730   -2.895310    1.164320
  H      6.680030   -9.256390    6.343260
  H      8.093080   -7.052930    6.994300
  H      6.358050   -1.862290    3.688820
  H      5.643100   -2.297250    0.743320
  H      6.830460   -0.856100   -0.689100
  H      7.550900    0.048030   -2.566170
  H      7.745590    1.115630   -4.687020
  H      8.670710    2.467400   -4.035480
  H      5.862000    1.895250   -3.470350
  H      6.715730    3.164100   -2.882590
  H      9.640290   -0.228190   -3.822500
  H      9.814090   -0.522650   -2.079500
  H     10.948720    1.528940   -1.907290
  H     11.538880    0.900780   -3.298040
  H      9.759750    3.591370   -2.679700
  H      9.858370    5.865820   -1.686680
  H      9.763220    6.242260    0.777260
  H      8.416190    4.615240    2.044250
  H      7.253990    2.478970    3.004280
  H      6.199800    0.298610    3.387870
  H     12.170760    5.537700   -1.201460
  H     11.317780    2.979270    0.229030
  H     19.725800    5.326340   -0.603310
  H     19.758540    3.076380    0.885850
  H     12.197510    1.331640    1.244440
  H     14.899510    0.444340    2.398380
  H      8.740030   -1.229890    1.781160
  H     13.176290   -4.072910    5.499060
  H     10.147490   -4.028450    4.976820
  H     11.065340   -5.189530    6.068650

 Total Charge           Charge          ....    0
 Multiplicity           Mult            ....    1
 Number of Electrons    NEL             ....  478
 Basis Dimension        Dim             .... 1130

ORBITAL ENERGIES
----------------

  NO   OCC          E(Eh)            E(eV)
   0   2.0000     -88.982616     -2421.3401
   1   2.0000     -88.958789     -2420.6917
   2   2.0000     -19.315748      -525.6082
   3   2.0000     -19.298545      -525.1401
   4   2.0000     -19.199690      -522.4501
   5   2.0000     -19.199134      -522.4350
   6   2.0000     -14.430160      -392.6646
   7   2.0000     -14.408215      -392.0675
   8   2.0000     -14.400421      -391.8554
   9   2.0000     -14.397894      -391.7866
  10   2.0000     -14.393019      -391.6540
  11   2.0000     -14.392904      -391.6508
  12   2.0000     -14.388680      -391.5359
  13   2.0000     -14.371778      -391.0760
  14   2.0000     -10.388844      -282.6948
  15   2.0000     -10.361057      -281.9387
  16   2.0000     -10.359819      -281.9050
  17   2.0000     -10.359133      -281.8863
  18   2.0000     -10.353355      -281.7291
  19   2.0000     -10.335879      -281.2536
  20   2.0000     -10.335385      -281.2401
  21   2.0000     -10.331492      -281.1342
  22   2.0000     -10.327585      -281.0279
  23   2.0000     -10.326248      -280.9915
  24   2.0000     -10.324013      -280.9307
  25   2.0000     -10.322337      -280.8851
  26   2.0000     -10.321738      -280.8688
  27   2.0000     -10.311100      -280.5793
  28   2.0000     -10.310819      -280.5717
  29   2.0000     -10.310763      -280.5701
  30   2.0000     -10.310362      -280.5592
  31   2.0000     -10.309572      -280.5377
  32   2.0000     -10.308367      -280.5049
  33   2.0000     -10.307568      -280.4832
  34   2.0000     -10.305639      -280.4307
  35   2.0000     -10.305499      -280.4269
  36   2.0000     -10.302924      -280.3568
  37   2.0000     -10.296526      -280.1827
  38   2.0000     -10.296321      -280.1771
  39   2.0000     -10.295060      -280.1428
  40   2.0000     -10.289213      -279.9837
  41   2.0000     -10.287556      -279.9386
  42   2.0000     -10.287520      -279.9377
  43   2.0000     -10.286947      -279.9220
  44   2.0000     -10.286768      -279.9172
  45   2.0000     -10.285214      -279.8749
  46   2.0000     -10.284121      -279.8452
  47   2.0000     -10.281476      -279.7732
  48   2.0000     -10.280875      -279.7568
  49   2.0000     -10.280298      -279.7411
  50   2.0000     -10.279493      -279.7192
  51   2.0000     -10.278756      -279.6992
  52   2.0000     -10.278579      -279.6944
  53   2.0000     -10.277189      -279.6565
  54   2.0000     -10.276933      -279.6496
  55   2.0000     -10.276552      -279.6392
  56   2.0000     -10.275745      -279.6172
  57   2.0000     -10.274766      -279.5906
  58   2.0000     -10.274183      -279.5747
  59   2.0000     -10.273604      -279.5590
  60   2.0000     -10.272276      -279.5228
  61   2.0000     -10.271849      -279.5112
  62   2.0000     -10.271727      -279.5079
  63   2.0000     -10.271692      -279.5069
  64   2.0000     -10.269960      -279.4598
  65   2.0000     -10.268271      -279.4138
  66   2.0000     -10.266644      -279.3696
  67   2.0000     -10.255490      -279.0661
  68   2.0000      -8.077467      -219.7991
  69   2.0000      -8.053738      -219.1533
  70   2.0000      -6.046869      -164.5437
  71   2.0000      -6.042612      -164.4278
  72   2.0000      -6.039588      -164.3455
  73   2.0000      -6.023022      -163.8948
  74   2.0000      -6.019072      -163.7873
  75   2.0000      -6.015755      -163.6970
  76   2.0000      -1.245234       -33.8846
  77   2.0000      -1.223573       -33.2951
  78   2.0000      -1.113221       -30.2923
  79   2.0000      -1.113107       -30.2892
  80   2.0000      -1.067077       -29.0367
  81   2.0000      -1.067071       -29.0365
  82   2.0000      -1.046822       -28.4855
  83   2.0000      -1.046554       -28.4782
  84   2.0000      -1.043292       -28.3894
  85   2.0000      -1.019451       -27.7407
  86   2.0000      -0.997523       -27.1440
  87   2.0000      -0.993431       -27.0326
  88   2.0000      -0.976664       -26.5764
  89   2.0000      -0.970194       -26.4003
  90   2.0000      -0.959349       -26.1052
  91   2.0000      -0.951738       -25.8981
  92   2.0000      -0.932523       -25.3752
  93   2.0000      -0.930306       -25.3149
  94   2.0000      -0.922955       -25.1149
  95   2.0000      -0.910236       -24.7688
  96   2.0000      -0.908325       -24.7168
  97   2.0000      -0.898598       -24.4521
  98   2.0000      -0.884455       -24.0673
  99   2.0000      -0.876976       -23.8637
 100   2.0000      -0.869724       -23.6664
 101   2.0000      -0.855191       -23.2709
 102   2.0000      -0.850860       -23.1531
 103   2.0000      -0.849723       -23.1221
 104   2.0000      -0.845120       -22.9969
 105   2.0000      -0.841503       -22.8985
 106   2.0000      -0.837301       -22.7841
 107   2.0000      -0.832875       -22.6637
 108   2.0000      -0.832227       -22.6461
 109   2.0000      -0.830045       -22.5867
 110   2.0000      -0.806634       -21.9496
 111   2.0000      -0.783162       -21.3109
 112   2.0000      -0.770338       -20.9620
 113   2.0000      -0.767484       -20.8843
 114   2.0000      -0.761113       -20.7109
 115   2.0000      -0.749649       -20.3990
 116   2.0000      -0.745783       -20.2938
 117   2.0000      -0.740908       -20.1611
 118   2.0000      -0.731428       -19.9032
 119   2.0000      -0.723201       -19.6793
 120   2.0000      -0.722837       -19.6694
 121   2.0000      -0.720338       -19.6014
 122   2.0000      -0.704494       -19.1703
 123   2.0000      -0.702481       -19.1155
 124   2.0000      -0.700234       -19.0543
 125   2.0000      -0.694108       -18.8876
 126   2.0000      -0.690381       -18.7862
 127   2.0000      -0.685760       -18.6605
 128   2.0000      -0.679261       -18.4836
 129   2.0000      -0.668737       -18.1972
 130   2.0000      -0.654922       -17.8213
 131   2.0000      -0.652110       -17.7448
 132   2.0000      -0.649348       -17.6697
 133   2.0000      -0.645183       -17.5563
 134   2.0000      -0.642020       -17.4703
 135   2.0000      -0.640331       -17.4243
 136   2.0000      -0.629294       -17.1240
 137   2.0000      -0.624651       -16.9976
 138   2.0000      -0.616001       -16.7622
 139   2.0000      -0.609279       -16.5793
 140   2.0000      -0.601925       -16.3792
 141   2.0000      -0.601677       -16.3725
 142   2.0000      -0.597572       -16.2608
 143   2.0000      -0.595306       -16.1991
 144   2.0000      -0.590884       -16.0788
 145   2.0000      -0.588410       -16.0114
 146   2.0000      -0.585958       -15.9447
 147   2.0000      -0.581107       -15.8127
 148   2.0000      -0.575768       -15.6674
 149   2.0000      -0.570676       -15.5289
 150   2.0000      -0.569847       -15.5063
 151   2.0000      -0.567053       -15.4303
 152   2.0000      -0.566091       -15.4041
 153   2.0000      -0.562787       -15.3142
 154   2.0000      -0.559509       -15.2250
 155   2.0000      -0.555659       -15.1203
 156   2.0000      -0.549355       -14.9487
 157   2.0000      -0.545207       -14.8358
 158   2.0000      -0.541406       -14.7324
 159   2.0000      -0.539706       -14.6862
 160   2.0000      -0.536747       -14.6056
 161   2.0000      -0.535599       -14.5744
 162   2.0000      -0.534314       -14.5394
 163   2.0000      -0.532501       -14.4901
 164   2.0000      -0.526688       -14.3319
 165   2.0000      -0.524443       -14.2708
 166   2.0000      -0.521313       -14.1857
 167   2.0000      -0.520364       -14.1598
 168   2.0000      -0.518182       -14.1005
 169   2.0000      -0.512949       -13.9581
 170   2.0000      -0.510877       -13.9017
 171   2.0000      -0.507588       -13.8122
 172   2.0000      -0.506877       -13.7928
 173   2.0000      -0.505199       -13.7472
 174   2.0000      -0.498301       -13.5595
 175   2.0000      -0.494615       -13.4592
 176   2.0000      -0.493669       -13.4334
 177   2.0000      -0.489134       -13.3100
 178   2.0000      -0.488983       -13.3059
 179   2.0000      -0.482561       -13.1311
 180   2.0000      -0.480974       -13.0880
 181   2.0000      -0.479276       -13.0418
 182   2.0000      -0.477194       -12.9851
 183   2.0000      -0.475103       -12.9282
 184   2.0000      -0.473924       -12.8961
 185   2.0000      -0.472056       -12.8453
 186   2.0000      -0.467848       -12.7308
 187   2.0000      -0.467023       -12.7083
 188   2.0000      -0.464211       -12.6318
 189   2.0000      -0.461731       -12.5643
 190   2.0000      -0.461144       -12.5484
 191   2.0000      -0.460342       -12.5265
 192   2.0000      -0.454715       -12.3734
 193   2.0000      -0.453478       -12.3398
 194   2.0000      -0.451301       -12.2805
 195   2.0000      -0.448522       -12.2049
 196   2.0000      -0.447143       -12.1674
 197   2.0000      -0.445992       -12.1361
 198   2.0000      -0.437616       -11.9081
 199   2.0000      -0.435734       -11.8569
 200   2.0000      -0.434530       -11.8242
 201   2.0000      -0.432271       -11.7627
 202   2.0000      -0.431503       -11.7418
 203   2.0000      -0.429532       -11.6882
 204   2.0000      -0.428175       -11.6512
 205   2.0000      -0.427143       -11.6231
 206   2.0000      -0.416827       -11.3424
 207   2.0000      -0.415166       -11.2972
 208   2.0000      -0.400055       -10.8861
 209   2.0000      -0.398677       -10.8486
 210   2.0000      -0.395523       -10.7627
 211   2.0000      -0.389914       -10.6101
 212   2.0000      -0.386881       -10.5276
 213   2.0000      -0.385600       -10.4927
 214   2.0000      -0.383893       -10.4463
 215   2.0000      -0.367370        -9.9967
 216   2.0000      -0.362499        -9.8641
 217   2.0000      -0.360166        -9.8006
 218   2.0000      -0.350881        -9.5480
 219   2.0000      -0.349197        -9.5021
 220   2.0000      -0.342121        -9.3096
 221   2.0000      -0.341818        -9.3013
 222   2.0000      -0.341251        -9.2859
 223   2.0000      -0.333118        -9.0646
 224   2.0000      -0.329872        -8.9763
 225   2.0000      -0.328942        -8.9510
 226   2.0000      -0.322636        -8.7794
 227   2.0000      -0.320576        -8.7233
 228   2.0000      -0.318528        -8.6676
 229   2.0000      -0.317929        -8.6513
 230   2.0000      -0.317160        -8.6303
 231   2.0000      -0.311704        -8.4819
 232   2.0000      -0.303794        -8.2667
 233   2.0000      -0.295697        -8.0463
 234   2.0000      -0.290525        -7.9056
 235   2.0000      -0.283260        -7.7079
 236   2.0000      -0.269211        -7.3256
 237   2.0000      -0.238715        -6.4958
 238   2.0000      -0.228698        -6.2232
 239   0.0000      -0.109483        -2.9792
 240   0.0000      -0.104590        -2.8460
 241   0.0000      -0.078196        -2.1278
 242   0.0000      -0.049633        -1.3506
 243   0.0000      -0.045235        -1.2309

MULLIKEN ATOMIC CHARGES
-----------------------
   0 C :   -0.173477
   1 S :    0.129870
   2 C :   -0.178903
   3 C :    0.054588
   4 C :    0.240367
   5 O :   -0.195758
   6 C :    0.198165
   7 N :   -0.065155
   8 C :    0.065462
   9 C :   -0.073303
  10 C :    0.035210
  11 N :   -0.046679
  12 C :    0.065234
  13 C :   -0.116016
  14 C :    0.216800
  15 O :   -0.139502
  16 C :   -0.042282
  17 C :   -0.034652
  18 N :   -0.059280
  19 C :    0.084312
  20 C :   -0.097742
  21 C :    0.021965
  22 C :   -0.016326
  23 C :   -0.014387
  24 C :    0.061652
  25 C :   -0.106214
  26 C :    0.061007
  27 C :   -0.077471
  28 C :    0.003903
  29 C :    0.107805
  30 N :   -0.208253
  31 C :    0.129796
  32 N :   -0.233950
  33 C :    0.046747
  34 C :   -0.116437
  35 C :    0.142107
  36 C :   -0.016866
  37 C :    0.011064
  38 C :    0.022542
  39 C :    0.035076
  40 C :    0.003132
  41 C :   -0.008556
  42 C :   -0.016565
  43 C :   -0.003235
  44 C :    0.017767
  45 N :   -0.038569
  46 C :    0.075881
  47 C :   -0.173087
  48 C :    0.213644
  49 O :   -0.151514
  50 C :   -0.013357
  51 C :   -0.051278
  52 N :   -0.059570
  53 C :    0.081314
  54 C :   -0.097802
  55 C :    0.079482
  56 C :   -0.100912
  57 C :    0.110029
  58 C :   -0.226034
  59 S :    0.163517
  60 C :   -0.201407
  61 C :    0.054411
  62 C :    0.204559
  63 O :   -0.218304
  64 C :    0.217459
  65 N :   -0.057277
  66 C :    0.024312
  67 C :   -0.006564
  68 H :    0.042794
  69 H :    0.042577
  70 H :    0.040591
  71 H :    0.001244
  72 H :    0.001923
  73 H :   -0.012485
  74 H :    0.018450
  75 H :   -0.007437
  76 H :   -0.036466
  77 H :   -0.033395
  78 H :   -0.006074
  79 H :    0.011710
  80 H :    0.084385
  81 H :    0.091908
  82 H :   -0.003867
  83 H :   -0.008373
  84 H :    0.100487
  85 H :    0.102161
  86 H :    0.020432
  87 H :    0.022619
  88 H :   -0.004636
  89 H :   -0.030984
  90 H :   -0.031067
  91 H :   -0.016939
  92 H :    0.035361
  93 H :    0.011271
  94 H :    0.002150
  95 H :   -0.011518
  96 H :   -0.016134
  97 H :   -0.008992
  98 H :   -0.000885
  99 H :   -0.021575
 100 H :    0.059254
 101 H :    0.019012
Sum of atomic charges:   -0.0000000

LOEWDIN ATOMIC CHARGES
----------------------
   0 C :   -0.189426
   1 S :    0.461853
   2 C :   -0.191374
   3 C :   -0.044112
   4 C :   -0.011468
   5 O :   -0.012657
   6 C :    0.111698
   7 N :   -0.092945
   8 C :    0.053205
   9 C :   -0.069434
  10 C :    0.072427
  11 N :   -0.113899
  12 C :    0.046750
  13 C :   -0.040202
  14 C :    0.067802
  15 O :   -0.142648
  16 C :   -0.044282
  17 C :    0.013068
  18 N :   -0.099978
  19 C :    0.064717
  20 C :   -0.045788
  21 C :   -0.027530
  22 C :   -0.019754
  23 C :   -0.014406
  24 C :   -0.038998
  25 C :   -0.019049
  26 C :   -0.025109
  27 C :   -0.039459
  28 C :   -0.055267
  29 C :    0.019576
  30 N :   -0.110801
  31 C :    0.029618
  32 N :   -0.109406
  33 C :   -0.035863
  34 C :    0.081550
  35 C :   -0.032517
  36 C :   -0.022063
  37 C :   -0.020600
  38 C :   -0.036357
  39 C :   -0.033655
  40 C :   -0.001717
  41 C :   -0.030362
  42 C :    0.084159
  43 C :   -0.050421
  44 C :    0.071513
  45 N :   -0.108467
  46 C :    0.051266
  47 C :   -0.069213
  48 C :    0.068711
  49 O :   -0.151905
  50 C :   -0.042065
  51 C :    0.009386
  52 N :   -0.099768
  53 C :    0.061968
  54 C :   -0.040232
  55 C :   -0.020535
  56 C :   -0.061494
  57 C :    0.011613
  58 C :   -0.214531
  59 S :    0.464665
  60 C :   -0.165909
  61 C :   -0.066929
  62 C :    0.008148
  63 O :   -0.017012
  64 C :    0.099551
  65 N :   -0.087604
  66 C :   -0.055197
  67 C :   -0.005742
  68 H :    0.034937
  69 H :    0.031391
  70 H :    0.056163
  71 H :    0.024448
  72 H :    0.020716
  73 H :    0.030822
  74 H :    0.040479
  75 H :    0.027775
  76 H :    0.023701
  77 H :    0.021339
  78 H :    0.017874
  79 H :    0.015915
  80 H :    0.050008
  81 H :    0.047899
  82 H :    0.017685
  83 H :    0.003241
  84 H :    0.051214
  85 H :    0.060599
  86 H :    0.034539
  87 H :    0.053190
  88 H :    0.027842
  89 H :    0.031698
  90 H :    0.029968
  91 H :    0.028920
  92 H :    0.040472
  93 H :    0.033619
  94 H :    0.020406
  95 H :    0.031724
  96 H :    0.023859
  97 H :    0.034553
  98 H :    0.024402
  99 H :    0.026555
 100 H :    0.031851
 101 H :    0.025099

  Mayer bond orders larger than 0.100000
B(  0-C ,  1-S ) :   1.1587 B(  0-C ,  2-C ) :   0.1065 B(  0-C ,  4-C ) :   1.4929
B(  0-C , 68-H ) :   0.9868 B(  1-S ,  2-C ) :   1.1063 B(  2-C ,  3-C ) :   1.3933
B(  2-C ,  8-C ) :   1.1826 B(  3-C ,  4-C ) :   1.2337 B(  3-C ,  7-N ) :   1.2983
B(  4-C ,  5-O ) :   1.1017 B(  5-O ,  6-C ) :   1.1238 B(  6-C ,  7-N ) :   1.7798
B(  6-C , 69-H ) :   0.9832 B(  8-C ,  9-C ) :   1.5720 B(  8-C , 70-H ) :   0.9907
B(  9-C , 10-C ) :   1.1653 B(  9-C , 71-H ) :   0.9620 B( 10-C , 11-N ) :   1.5766
B( 10-C , 12-C ) :   0.1093 B( 10-C , 21-C ) :   1.0015 B( 11-N , 12-C ) :   1.3769
B( 12-C , 13-C ) :   1.0440 B( 12-C , 17-C ) :   1.3937 B( 13-C , 14-C ) :   0.8925
B( 13-C , 21-C ) :   1.5830 B( 14-C , 15-O ) :   2.2255 B( 14-C , 16-C ) :   0.9065
B( 16-C , 17-C ) :   1.0633 B( 16-C , 20-C ) :   1.5937 B( 17-C , 18-N ) :   1.3269
B( 18-N , 19-C ) :   1.6440 B( 19-C , 20-C ) :   1.0896 B( 19-C , 72-H ) :   0.9897
B( 20-C , 73-H ) :   1.0104 B( 21-C , 22-C ) :   1.1100 B( 22-C , 23-C ) :   1.6733
B( 22-C , 74-H ) :   0.9568 B( 23-C , 24-C ) :   1.0669 B( 23-C , 75-H ) :   0.9812
B( 24-C , 25-C ) :   1.4874 B( 24-C , 41-C ) :   1.1345 B( 25-C , 26-C ) :   1.1347
B( 25-C , 76-H ) :   1.0025 B( 26-C , 27-C ) :   1.4766 B( 26-C , 39-C ) :   1.1260
B( 27-C , 28-C ) :   1.0421 B( 27-C , 33-C ) :   1.0914 B( 28-C , 29-C ) :   0.9947
B( 28-C , 31-C ) :   1.0258 B( 28-C , 77-H ) :   0.8749 B( 29-C , 30-N ) :   1.1279
B( 29-C , 78-H ) :   0.9463 B( 29-C , 79-H ) :   0.9482 B( 30-N , 80-H ) :   0.9774
B( 30-N , 81-H ) :   0.9785 B( 31-C , 32-N ) :   1.1036 B( 31-C , 82-H ) :   0.9420
B( 31-C , 83-H ) :   0.9415 B( 32-N , 84-H ) :   0.9554 B( 32-N , 85-H ) :   0.9679
B( 33-C , 34-C ) :   1.6348 B( 33-C , 38-C ) :   1.0539 B( 34-C , 35-C ) :   0.9806
B( 34-C , 86-H ) :   0.9663 B( 35-C , 36-C ) :   0.9956 B( 35-C , 42-C ) :   0.9514
B( 35-C , 87-H ) :   0.8796 B( 36-C , 37-C ) :   1.7145 B( 36-C , 88-H ) :   0.9708
B( 37-C , 38-C ) :   1.1345 B( 37-C , 89-H ) :   0.9881 B( 38-C , 39-C ) :   1.4240
B( 39-C , 40-C ) :   1.1390 B( 40-C , 41-C ) :   1.6028 B( 40-C , 90-H ) :   0.9933
B( 41-C , 91-H ) :   0.9838 B( 42-C , 43-C ) :   1.7469 B( 42-C , 92-H ) :   0.9722
B( 43-C , 44-C ) :   1.1428 B( 43-C , 93-H ) :   0.9458 B( 44-C , 45-N ) :   1.6199
B( 44-C , 46-C ) :   0.1113 B( 44-C , 55-C ) :   0.9957 B( 45-N , 46-C ) :   1.3384
B( 46-C , 47-C ) :   1.0611 B( 46-C , 51-C ) :   1.4177 B( 47-C , 48-C ) :   0.9089
B( 47-C , 55-C ) :   1.5206 B( 48-C , 49-O ) :   2.1814 B( 48-C , 50-C ) :   0.9300
B( 49-O , 97-H ) :   0.1001 B( 50-C , 51-C ) :   1.0766 B( 50-C , 54-C ) :   1.5980
B( 51-C , 52-N ) :   1.3117 B( 52-N , 53-C ) :   1.6591 B( 53-C , 54-C ) :   1.0760
B( 53-C , 94-H ) :   0.9894 B( 54-C , 95-H ) :   1.0106 B( 55-C , 56-C ) :   1.1442
B( 56-C , 57-C ) :   1.6284 B( 56-C , 96-H ) :   0.9623 B( 57-C , 58-C ) :   1.1498
B( 57-C , 97-H ) :   0.9440 B( 58-C , 59-S ) :   1.0970 B( 58-C , 60-C ) :   0.1111
B( 58-C , 62-C ) :   1.4181 B( 59-S , 60-C ) :   1.1409 B( 60-C , 61-C ) :   1.4202
B( 60-C , 66-C ) :   1.1156 B( 61-C , 62-C ) :   1.2715 B( 61-C , 65-N ) :   1.2671
B( 62-C , 63-O ) :   1.0979 B( 63-O , 64-C ) :   1.0948 B( 64-C , 65-N ) :   1.7926
B( 64-C , 98-H ) :   0.9885 B( 66-C , 67-C ) :   1.9104 B( 66-C , 99-H ) :   0.9509
B( 67-C ,100-H ) :   0.9369 B( 67-C ,101-H ) :   0.9497

-----------------------------------------------------------------------------
         ABSORPTION SPECTRUM VIA TRANSITION ELECTRIC DIPOLE MOMENTS
-----------------------------------------------------------------------------
State   Energy  Wavelength   fosc         T2         TX        TY        TZ
        (cm-1)    (nm)                  (au**2)     (au)      (au)      (au)
-----------------------------------------------------------------------------
   0   12295.9    813.3   0.042711687   1.14357   1.00671  -0.00418  -0.36067
   1   13262.0    754.0   0.208336766   5.17168  -1.34879  -1.44830   1.12021
   2   13622.9    734.1   0.062358395   1.50695   1.20397   0.05714   0.23268
   3   14845.1    673.6   0.090067384   1.99738  -0.79797  -1.04318  -0.52190
   4   16829.6    594.2   0.000722052   0.01412  -0.09294  -0.07104   0.02096
   5   19892.2    502.7   0.654961767  10.83949  -2.32076   0.68900  -2.23133
   6   20644.0    484.4   0.410178927   6.54118   1.51073  -0.77426   1.91295
   7   20925.7    477.9   0.001503569   0.02365  -0.05263  -0.11132   0.09216
   8   21893.0    456.8   0.013640917   0.20512  -0.33150   0.13719  -0.27642
   9   22133.1    451.8   0.000548180   0.00815   0.00159  -0.02572  -0.08654
  10   23662.8    422.6   0.312113042   4.34231  -0.50858  -1.66293   1.14818
  11   24387.4    410.0   0.018450725   0.24907   0.45180   0.00315  -0.21199
  12   24458.0    408.9   0.419172781   5.64218  -1.92565  -1.23835   0.63288
  13   24861.6    402.2   0.090532772   1.19882   0.60631   0.75614  -0.50938
  14   25153.8    397.6   0.028096174   0.36772  -0.35675   0.14439  -0.46862
  15   25435.4    393.2   0.189927628   2.45825  -0.33640  -1.34622   0.72990
  16   25696.5    389.2   0.013489787   0.17283  -0.39933  -0.06928  -0.09252
  17   25850.5    386.8   0.299253171   3.81105   1.39288   1.28560  -0.46707
  18   26137.0    382.6   0.211995636   2.67022  -1.53462  -0.47411   0.30061
  19   26266.7    380.7   0.027994973   0.35087  -0.57650   0.12412   0.05584
  20   27002.3    370.3   0.493679096   6.01894  -1.18073  -1.91869   0.97130
  21   27247.5    367.0   0.049909621   0.60302  -0.29333  -0.65741   0.29119
  22   27579.7    362.6   0.223676007   2.66996  -0.89264  -1.16385   0.72015
  23   27733.6    360.6   0.159912442   1.89824  -1.37535  -0.07439  -0.03332
  24   27892.4    358.5   0.036673134   0.43285  -0.63169  -0.01643   0.18316
  25   28893.1    346.1   0.139210658   1.58618   0.41076  -0.57522   1.04239
  26   29130.1    343.3   0.007236457   0.08178   0.05163   0.25929  -0.10902
  27   29408.2    340.0   0.006871688   0.07693  -0.21458   0.12784  -0.12058
  28   29504.2    338.9   0.020118553   0.22449   0.00016  -0.38612   0.27458
  29   29813.0    335.4   0.005076564   0.05606  -0.22074  -0.08521  -0.00833
  30   29960.3    333.8   0.140548289   1.54438  -0.19662   0.46955  -1.13368
  31   30201.2    331.1   0.002594263   0.02828   0.03163   0.15822  -0.04738
  32   30540.7    327.4   0.005459413   0.05885   0.01615   0.23203   0.06891
  33   30763.4    325.1   0.034283851   0.36689   0.53120  -0.19099   0.21963
  34   30947.2    323.1   0.004539349   0.04829   0.00247   0.18551  -0.11776
  35   31104.3    321.5   0.212291732   2.24692   0.14280  -1.14125   0.96129
  36   31489.7    317.6   0.004774647   0.04992  -0.08534   0.15831  -0.13256
  37   31813.1    314.3   0.026871211   0.27807   0.37708   0.19013   0.31581
  38   31931.8    313.2   0.023657271   0.24390  -0.09709  -0.48021  -0.06222
  39   32203.8    310.5   0.059748839   0.61080  -0.27562  -0.73098  -0.02241
  40   32552.6    307.2   0.062975742   0.63689   0.28481  -0.58020   0.46812
  41   32652.3    306.3   0.150174464   1.51411   0.11992  -1.05091   0.62875
  42   33037.2    302.7   0.049954948   0.49779  -0.35759   0.13702  -0.59258
  43   33394.0    299.5   0.215794730   2.12740   0.51498   1.24960  -0.54834
  44   33521.5    298.3   0.005922907   0.05817   0.16226   0.04828   0.17178
  45   33944.5    294.6   0.050293305   0.48777  -0.42518  -0.52134  -0.18760
  46   34043.1    293.7   0.013602347   0.13154   0.24343   0.22271   0.15060
  47   34439.9    290.4   0.002346233   0.02243   0.07918  -0.00822   0.12685
  48   34636.4    288.7   0.123924403   1.17788   0.90894   0.58481   0.09848
  49   34958.4    286.1   0.004936404   0.04649  -0.21166   0.02534  -0.03235
  50   35154.1    284.5   0.007897052   0.07395  -0.12183   0.21467  -0.11413
  51   35509.9    281.6   0.016738376   0.15518  -0.05843   0.32986  -0.20726
  52   35885.6    278.7   0.410695089   3.76769   0.22583  -1.52452   1.18005
  53   36295.7    275.5   0.030404252   0.27577  -0.50420   0.12789   0.07211
  54   36587.9    273.3   0.039306984   0.35368  -0.53123  -0.15085  -0.22071
  55   36727.3    272.3   0.142681376   1.27895   1.12332  -0.12491   0.03867
  56   37021.1    270.1   0.108720362   0.96680   0.69699  -0.58020   0.37998
  57   37323.5    267.9   0.000851803   0.00751   0.03952  -0.06397   0.04312
  58   37470.2    266.9   0.000947070   0.00832  -0.02253  -0.03374   0.08170
  59   37938.4    263.6   0.000386863   0.00336   0.03571   0.04435  -0.01073
  60   38152.7    262.1   0.038828512   0.33504  -0.37789   0.32033  -0.29939
  61   38323.1    260.9   0.017341441   0.14897   0.37619  -0.03932  -0.07687
  62   38577.4    259.2   0.075887959   0.64761   0.76265   0.02978   0.25513
  63   38772.7    257.9   0.245683478   2.08605  -0.99939   0.75194  -0.72240
  64   39328.8    254.3   0.030248212   0.25320   0.23148   0.37097  -0.24899
  65   39451.9    253.5   0.048687408   0.40628  -0.27727  -0.40239   0.40925
  66   39510.7    253.1   0.039196862   0.32660  -0.20410  -0.14648   0.51331
  67   39581.3    252.6   0.025530553   0.21235   0.10331   0.27108  -0.35803
  68   39781.7    251.4   0.008101980   0.06705   0.00399  -0.21523   0.14391
  69   40030.8    249.8   0.007853346   0.06459  -0.05213  -0.19033   0.16013
  70   40069.8    249.6   0.005030420   0.04133  -0.19564  -0.01851   0.05208

FINAL SINGLE POINT ENERGY     -3609.413473755791

DIPOLE MOMENT
-------------
                                X             Y             Z
Electronic contribution:     -3.23576     -23.53803      23.55961
Nuclear contribution   :      0.91772      23.90631     -25.04494
                        -----------------------------------------
Total Dipole Moment    :     -2.31804       0.36828      -1.48533
                        -----------------------------------------
Magnitude (a.u.)       :      2.77761
Magnitude (Debye)      :      7.06013

Rotational constants in cm-1:     0.001441     0.000533     0.000415
Rotational constants in MHz :    43.204309    15.979701    12.443523

                             ****ORCA TERMINATED NORMALLY****
TOTAL RUN TIME: 0 days 0 hours 11 minutes 14 seconds 126 msec
