                         Program Version 4.2.0 -  RELEASE  -
|  1> # ORCA input file
|  2> # SCF done       -195.484148725972          0.000660945242
|  3> ! CAM-B3LYP def2-SVP def2/J RIJCOSX Grid4 TightSCF
|  4> %maxcore 5000
|  5> %tddft
|  6>     Mode sTDDFT
|  7>     Ethresh 5.0
|  8>     maxcore 5000
|  9> end
| 10>
| 11> %pal
| 12>   nprocs 6
| 13>   end
| 14> * xyz 0 1
| 15>    C        2.63832        -5.42154         2.75616
| 16>    C        1.37657        -5.91448         2.80254
| 17>    C        0.13987        -5.17607         3.17069
| 18>    F        0.39462        -3.89153         3.45269
| 19>    F       -0.78122        -5.17753         2.19034
| 20>    F       -0.47454        -5.68938         4.25247
| 21>    S        1.29946        -7.58923         2.34907
| 22>    C        3.01207        -7.59585         2.06009
| 23>    O        3.49462        -8.78281         1.67048
| 24>    C        4.81635        -9.16977         2.01101
| 25>    C        3.60714        -6.37064         2.31722
| 26>    C        4.99360        -6.04716         2.10241
| 27>    C        5.59806        -4.93709         2.57635
| 28>    C        6.95898        -4.59829         2.34272
| 29>    C        7.96286        -5.31634         1.54995
| 30>    N        9.13462        -4.74892         1.52038
| 31>    C        9.01366        -3.62209         2.28393
| 32>    C        7.65469        -3.50749         2.81792
| 33>    C        7.52598        -2.30915         3.60399
| 34>    S        6.13711        -1.77857         4.31510
| 35>    C        8.83729        -1.70407         3.56017
| 36>    C        9.72361        -2.53400         2.72240
| 37>    N       10.96026        -1.97036         2.61695
| 38>    C       10.89038        -0.86073         3.29302
| 39>    C        9.59302        -0.60754         3.92431
| 40>    C        9.29614         0.53408         4.74455
| 41>    C       10.02611         1.70189         4.61201
| 42>    C        9.70983         2.81937         5.40066
| 43>    C       10.27572         4.09502         5.45554
| 44>    C       11.43426         4.57843         4.65203
| 45>    C       11.15797         5.92234         3.93448
| 46>    N       11.51044         7.07693         4.74398
| 47>    C       12.69474         4.64538         5.53763
| 48>    N       13.81289         5.19830         4.78868
| 49>    C        9.55040         4.82738         6.46184
| 50>    C        9.68927         6.09155         6.91415
| 51>    C        8.83069         6.60834         8.00859
| 52>    C        7.71919         5.69673         8.42906
| 53>    C        7.60531         4.43242         7.97476
| 54>    C        8.50785         3.94623         7.00296
| 55>    C        8.61908         2.72713         6.35655
| 56>    C        7.90352         1.51816         6.48446
| 57>    C        8.23729         0.45902         5.70210
| 58>    C        9.65126         6.75800         9.27013
| 59>    C        9.47703         7.76076        10.13840
| 60>    C       10.13703         7.87500        11.40064
| 61>    C       11.22239         7.05559        11.94198
| 62>    N       11.59485         7.37913        13.14872
| 63>    C       10.79173         8.42038        13.51220
| 64>    C        9.87479         8.76896        12.41244
| 65>    C        9.01515         9.85309        12.80229
| 66>    S        7.91938        10.65886        11.88344
| 67>    C        9.37979        10.10801        14.17762
| 68>    C       10.50397         9.23391        14.57695
| 69>    N       10.85692         9.47567        15.86796
| 70>    C       10.04152        10.40458        16.28633
| 71>    C        9.06961        10.84278        15.28568
| 72>    C        8.03219        11.83359        15.49673
| 73>    C        6.69254        11.60706        15.31980
| 74>    C        5.96141        10.35068        15.01623
| 75>    F        6.75161         9.27293        14.92705
| 76>    F        5.05330        10.05961        15.97561
| 77>    F        5.25927        10.40550        13.87076
| 78>    S        5.73744        13.01201        15.66067
| 79>    C        7.17087        13.92031        16.03528
| 80>    O        7.11055        15.20386        16.39506
| 81>    C        5.83853        15.81264        16.40440
| 82>    C        8.32208        13.17109        15.91360
| 83>    C        9.67962        13.64075        16.11910
| 84>    C       10.03283        14.82527        16.60349
| 85>    H        2.87243        -4.39968         2.99140
| 86>    H        4.78119       -10.24869         2.16454
| 87>    H        5.15659        -8.67856         2.92405
| 88>    H        5.50414        -8.95323         1.19009
| 89>    H        5.56681        -6.73595         1.50176
| 90>    H        5.05345        -4.23732         3.19424
| 91>    H        7.80240        -6.23752         1.01751
| 92>    H       11.75988        -0.23310         3.38389
| 93>    H       10.81515         1.76942         3.87790
| 94>    H       11.62451         3.83921         3.86618
| 95>    H       10.09025         5.97948         3.70166
| 96>    H       11.70968         5.90664         2.98235
| 97>    H       11.25168         7.92703         4.25449
| 98>    H       12.51889         7.08251         4.86970
| 99>    H       12.88714         3.63207         5.92891
|100>    H       12.50293         5.30200         6.38881
|101>    H       14.04715         4.59337         4.00762
|102>    H       14.63350         5.26349         5.38134
|103>    H       10.43927         6.75191         6.49450
|104>    H        8.43300         7.59279         7.73598
|105>    H        7.03994         6.09220         9.16817
|106>    H        6.81058         3.78947         8.32381
|107>    H        7.10161         1.44239         7.20305
|108>    H        7.70381        -0.47213         5.79498
|109>    H       10.32574         5.94086         9.47966
|110>    H        8.76789         8.54995         9.92151
|111>    H       11.71441         6.24932        11.42641
|112>    H       10.09588        10.77506        17.29514
|113>    H        5.17203        15.31601        17.11717
|114>    H        5.38215        15.78135        15.41046
|115>    H        5.99845        16.84559        16.70591
|116>    H       10.44284        12.92577        15.83748
|117>    H        9.30840        15.56201        16.89823
|118>    H       11.07027        15.08703        16.71959
|119> *
|120>
|121>                          ****END OF INPUT****

CARTESIAN COORDINATES (ANGSTROEM)
---------------------------------
  C      2.638320   -5.421540    2.756160
  C      1.376570   -5.914480    2.802540
  C      0.139870   -5.176070    3.170690
  F      0.394620   -3.891530    3.452690
  F     -0.781220   -5.177530    2.190340
  F     -0.474540   -5.689380    4.252470
  S      1.299460   -7.589230    2.349070
  C      3.012070   -7.595850    2.060090
  O      3.494620   -8.782810    1.670480
  C      4.816350   -9.169770    2.011010
  C      3.607140   -6.370640    2.317220
  C      4.993600   -6.047160    2.102410
  C      5.598060   -4.937090    2.576350
  C      6.958980   -4.598290    2.342720
  C      7.962860   -5.316340    1.549950
  N      9.134620   -4.748920    1.520380
  C      9.013660   -3.622090    2.283930
  C      7.654690   -3.507490    2.817920
  C      7.525980   -2.309150    3.603990
  S      6.137110   -1.778570    4.315100
  C      8.837290   -1.704070    3.560170
  C      9.723610   -2.534000    2.722400
  N     10.960260   -1.970360    2.616950
  C     10.890380   -0.860730    3.293020
  C      9.593020   -0.607540    3.924310
  C      9.296140    0.534080    4.744550
  C     10.026110    1.701890    4.612010
  C      9.709830    2.819370    5.400660
  C     10.275720    4.095020    5.455540
  C     11.434260    4.578430    4.652030
  C     11.157970    5.922340    3.934480
  N     11.510440    7.076930    4.743980
  C     12.694740    4.645380    5.537630
  N     13.812890    5.198300    4.788680
  C      9.550400    4.827380    6.461840
  C      9.689270    6.091550    6.914150
  C      8.830690    6.608340    8.008590
  C      7.719190    5.696730    8.429060
  C      7.605310    4.432420    7.974760
  C      8.507850    3.946230    7.002960
  C      8.619080    2.727130    6.356550
  C      7.903520    1.518160    6.484460
  C      8.237290    0.459020    5.702100
  C      9.651260    6.758000    9.270130
  C      9.477030    7.760760   10.138400
  C     10.137030    7.875000   11.400640
  C     11.222390    7.055590   11.941980
  N     11.594850    7.379130   13.148720
  C     10.791730    8.420380   13.512200
  C      9.874790    8.768960   12.412440
  C      9.015150    9.853090   12.802290
  S      7.919380   10.658860   11.883440
  C      9.379790   10.108010   14.177620
  C     10.503970    9.233910   14.576950
  N     10.856920    9.475670   15.867960
  C     10.041520   10.404580   16.286330
  C      9.069610   10.842780   15.285680
  C      8.032190   11.833590   15.496730
  C      6.692540   11.607060   15.319800
  C      5.961410   10.350680   15.016230
  F      6.751610    9.272930   14.927050
  F      5.053300   10.059610   15.975610
  F      5.259270   10.405500   13.870760
  S      5.737440   13.012010   15.660670
  C      7.170870   13.920310   16.035280
  O      7.110550   15.203860   16.395060
  C      5.838530   15.812640   16.404400
  C      8.322080   13.171090   15.913600
  C      9.679620   13.640750   16.119100
  C     10.032830   14.825270   16.603490
  H      2.872430   -4.399680    2.991400
  H      4.781190  -10.248690    2.164540
  H      5.156590   -8.678560    2.924050
  H      5.504140   -8.953230    1.190090
  H      5.566810   -6.735950    1.501760
  H      5.053450   -4.237320    3.194240
  H      7.802400   -6.237520    1.017510
  H     11.759880   -0.233100    3.383890
  H     10.815150    1.769420    3.877900
  H     11.624510    3.839210    3.866180
  H     10.090250    5.979480    3.701660
  H     11.709680    5.906640    2.982350
  H     11.251680    7.927030    4.254490
  H     12.518890    7.082510    4.869700
  H     12.887140    3.632070    5.928910
  H     12.502930    5.302000    6.388810
  H     14.047150    4.593370    4.007620
  H     14.633500    5.263490    5.381340
  H     10.439270    6.751910    6.494500
  H      8.433000    7.592790    7.735980
  H      7.039940    6.092200    9.168170
  H      6.810580    3.789470    8.323810
  H      7.101610    1.442390    7.203050
  H      7.703810   -0.472130    5.794980
  H     10.325740    5.940860    9.479660
  H      8.767890    8.549950    9.921510
  H     11.714410    6.249320   11.426410
  H     10.095880   10.775060   17.295140
  H      5.172030   15.316010   17.117170
  H      5.382150   15.781350   15.410460
  H      5.998450   16.845590   16.705910
  H     10.442840   12.925770   15.837480
  H      9.308400   15.562010   16.898230
  H     11.070270   15.087030   16.719590

 Total Charge           Charge          ....    0
 Multiplicity           Mult            ....    1
 Number of Electrons    NEL             ....  522
 Basis Dimension        Dim             .... 1166

ORBITAL ENERGIES
----------------

  NO   OCC          E(Eh)            E(eV)
   0   2.0000     -88.973146     -2421.0824
   1   2.0000     -88.966670     -2420.9062
   2   2.0000     -88.896236     -2418.9895
   3   2.0000     -88.889469     -2418.8054
   4   2.0000     -24.795390      -674.7169
   5   2.0000     -24.793458      -674.6643
   6   2.0000     -24.786994      -674.4884
   7   2.0000     -24.786652      -674.4791
   8   2.0000     -24.785503      -674.4478
   9   2.0000     -24.785371      -674.4442
  10   2.0000     -19.278660      -524.5990
  11   2.0000     -19.272254      -524.4247
  12   2.0000     -14.414445      -392.2370
  13   2.0000     -14.409932      -392.1142
  14   2.0000     -14.409880      -392.1128
  15   2.0000     -14.408372      -392.0717
  16   2.0000     -14.395469      -391.7206
  17   2.0000     -14.381648      -391.3445
  18   2.0000     -10.515482      -286.1408
  19   2.0000     -10.514184      -286.1055
  20   2.0000     -10.372811      -282.2585
  21   2.0000     -10.368642      -282.1451
  22   2.0000     -10.343206      -281.4529
  23   2.0000     -10.342429      -281.4318
  24   2.0000     -10.337359      -281.2938
  25   2.0000     -10.334930      -281.2277
  26   2.0000     -10.333357      -281.1850
  27   2.0000     -10.330785      -281.1149
  28   2.0000     -10.330167      -281.0981
  29   2.0000     -10.328245      -281.0458
  30   2.0000     -10.326586      -281.0007
  31   2.0000     -10.326515      -280.9988
  32   2.0000     -10.321381      -280.8591
  33   2.0000     -10.318885      -280.7911
  34   2.0000     -10.308703      -280.5141
  35   2.0000     -10.307185      -280.4728
  36   2.0000     -10.304656      -280.4040
  37   2.0000     -10.301973      -280.3309
  38   2.0000     -10.301163      -280.3089
  39   2.0000     -10.297567      -280.2111
  40   2.0000     -10.296507      -280.1822
  41   2.0000     -10.295771      -280.1622
  42   2.0000     -10.294525      -280.1283
  43   2.0000     -10.294410      -280.1251
  44   2.0000     -10.291152      -280.0365
  45   2.0000     -10.290734      -280.0251
  46   2.0000     -10.290515      -280.0192
  47   2.0000     -10.289045      -279.9791
  48   2.0000     -10.288795      -279.9724
  49   2.0000     -10.287828      -279.9460
  50   2.0000     -10.284251      -279.8487
  51   2.0000     -10.284033      -279.8428
  52   2.0000     -10.281990      -279.7872
  53   2.0000     -10.280952      -279.7589
  54   2.0000     -10.280705      -279.7522
  55   2.0000     -10.280545      -279.7478
  56   2.0000     -10.279986      -279.7326
  57   2.0000     -10.276785      -279.6455
  58   2.0000     -10.272839      -279.5381
  59   2.0000     -10.272504      -279.5291
  60   2.0000     -10.268423      -279.4180
  61   2.0000     -10.267851      -279.4024
  62   2.0000     -10.267703      -279.3984
  63   2.0000     -10.263128      -279.2739
  64   2.0000     -10.261979      -279.2427
  65   2.0000     -10.261945      -279.2417
  66   2.0000     -10.258211      -279.1401
  67   2.0000     -10.257068      -279.1090
  68   2.0000     -10.255627      -279.0698
  69   2.0000     -10.254807      -279.0475
  70   2.0000      -8.069173      -219.5734
  71   2.0000      -8.063122      -219.4087
  72   2.0000      -7.991707      -217.4654
  73   2.0000      -7.985084      -217.2852
  74   2.0000      -6.038509      -164.3162
  75   2.0000      -6.034472      -164.2063
  76   2.0000      -6.032463      -164.1517
  77   2.0000      -6.030922      -164.1097
  78   2.0000      -6.028554      -164.0453
  79   2.0000      -6.024629      -163.9385
  80   2.0000      -5.960479      -162.1929
  81   2.0000      -5.960354      -162.1895
  82   2.0000      -5.953963      -162.0156
  83   2.0000      -5.953454      -162.0017
  84   2.0000      -5.950976      -161.9343
  85   2.0000      -5.944497      -161.7580
  86   2.0000      -1.379776       -37.5456
  87   2.0000      -1.379554       -37.5396
  88   2.0000      -1.284291       -34.9473
  89   2.0000      -1.283978       -34.9388
  90   2.0000      -1.278303       -34.7844
  91   2.0000      -1.275715       -34.7140
  92   2.0000      -1.187164       -32.3044
  93   2.0000      -1.177611       -32.0444
  94   2.0000      -1.080788       -29.4097
  95   2.0000      -1.075265       -29.2594
  96   2.0000      -1.061600       -28.8876
  97   2.0000      -1.056682       -28.7538
  98   2.0000      -0.995739       -27.0954
  99   2.0000      -0.991681       -26.9850
 100   2.0000      -0.986947       -26.8562
 101   2.0000      -0.974663       -26.5219
 102   2.0000      -0.959181       -26.1007
 103   2.0000      -0.953702       -25.9516
 104   2.0000      -0.953042       -25.9336
 105   2.0000      -0.945286       -25.7225
 106   2.0000      -0.919893       -25.0316
 107   2.0000      -0.916037       -24.9266
 108   2.0000      -0.898988       -24.4627
 109   2.0000      -0.897313       -24.4171
 110   2.0000      -0.888018       -24.1642
 111   2.0000      -0.874643       -23.8002
 112   2.0000      -0.871575       -23.7168
 113   2.0000      -0.863459       -23.4959
 114   2.0000      -0.861698       -23.4480
 115   2.0000      -0.850876       -23.1535
 116   2.0000      -0.843047       -22.9405
 117   2.0000      -0.840377       -22.8678
 118   2.0000      -0.835601       -22.7379
 119   2.0000      -0.829866       -22.5818
 120   2.0000      -0.826119       -22.4798
 121   2.0000      -0.820915       -22.3382
 122   2.0000      -0.814793       -22.1716
 123   2.0000      -0.812407       -22.1067
 124   2.0000      -0.807587       -21.9756
 125   2.0000      -0.791561       -21.5395
 126   2.0000      -0.773007       -21.0346
 127   2.0000      -0.768667       -20.9165
 128   2.0000      -0.760920       -20.7057
 129   2.0000      -0.752973       -20.4894
 130   2.0000      -0.750885       -20.4326
 131   2.0000      -0.740899       -20.1609
 132   2.0000      -0.737091       -20.0573
 133   2.0000      -0.732599       -19.9350
 134   2.0000      -0.720021       -19.5928
 135   2.0000      -0.706454       -19.2236
 136   2.0000      -0.704813       -19.1789
 137   2.0000      -0.697850       -18.9895
 138   2.0000      -0.696541       -18.9539
 139   2.0000      -0.686749       -18.6874
 140   2.0000      -0.683375       -18.5956
 141   2.0000      -0.682849       -18.5813
 142   2.0000      -0.670515       -18.2457
 143   2.0000      -0.668750       -18.1976
 144   2.0000      -0.668524       -18.1915
 145   2.0000      -0.666360       -18.1326
 146   2.0000      -0.661977       -18.0133
 147   2.0000      -0.661069       -17.9886
 148   2.0000      -0.660066       -17.9613
 149   2.0000      -0.654333       -17.8053
 150   2.0000      -0.648935       -17.6584
 151   2.0000      -0.643673       -17.5152
 152   2.0000      -0.640850       -17.4384
 153   2.0000      -0.631855       -17.1937
 154   2.0000      -0.625747       -17.0274
 155   2.0000      -0.618365       -16.8266
 156   2.0000      -0.612250       -16.6602
 157   2.0000      -0.602554       -16.3963
 158   2.0000      -0.598636       -16.2897
 159   2.0000      -0.592098       -16.1118
 160   2.0000      -0.589812       -16.0496
 161   2.0000      -0.588237       -16.0067
 162   2.0000      -0.582515       -15.8510
 163   2.0000      -0.580673       -15.8009
 164   2.0000      -0.578519       -15.7423
 165   2.0000      -0.577715       -15.7204
 166   2.0000      -0.574840       -15.6422
 167   2.0000      -0.572614       -15.5816
 168   2.0000      -0.569873       -15.5070
 169   2.0000      -0.564745       -15.3675
 170   2.0000      -0.560824       -15.2608
 171   2.0000      -0.557296       -15.1648
 172   2.0000      -0.551758       -15.0141
 173   2.0000      -0.550741       -14.9864
 174   2.0000      -0.545432       -14.8420
 175   2.0000      -0.541040       -14.7225
 176   2.0000      -0.539302       -14.6752
 177   2.0000      -0.539030       -14.6678
 178   2.0000      -0.538648       -14.6574
 179   2.0000      -0.536675       -14.6037
 180   2.0000      -0.535289       -14.5660
 181   2.0000      -0.532521       -14.4906
 182   2.0000      -0.531494       -14.4627
 183   2.0000      -0.525688       -14.3047
 184   2.0000      -0.524644       -14.2763
 185   2.0000      -0.521563       -14.1924
 186   2.0000      -0.518189       -14.1006
 187   2.0000      -0.513000       -13.9594
 188   2.0000      -0.511056       -13.9065
 189   2.0000      -0.504977       -13.7411
 190   2.0000      -0.502440       -13.6721
 191   2.0000      -0.501680       -13.6514
 192   2.0000      -0.500549       -13.6206
 193   2.0000      -0.498470       -13.5640
 194   2.0000      -0.497776       -13.5452
 195   2.0000      -0.496568       -13.5123
 196   2.0000      -0.496037       -13.4979
 197   2.0000      -0.492209       -13.3937
 198   2.0000      -0.490913       -13.3584
 199   2.0000      -0.489675       -13.3247
 200   2.0000      -0.487526       -13.2663
 201   2.0000      -0.486512       -13.2387
 202   2.0000      -0.484897       -13.1947
 203   2.0000      -0.483212       -13.1489
 204   2.0000      -0.482243       -13.1225
 205   2.0000      -0.479989       -13.0612
 206   2.0000      -0.478807       -13.0290
 207   2.0000      -0.477367       -12.9898
 208   2.0000      -0.475758       -12.9460
 209   2.0000      -0.474764       -12.9190
 210   2.0000      -0.473827       -12.8935
 211   2.0000      -0.470346       -12.7988
 212   2.0000      -0.467538       -12.7224
 213   2.0000      -0.466257       -12.6875
 214   2.0000      -0.465503       -12.6670
 215   2.0000      -0.459592       -12.5061
 216   2.0000      -0.456240       -12.4149
 217   2.0000      -0.452005       -12.2997
 218   2.0000      -0.448738       -12.2108
 219   2.0000      -0.446082       -12.1385
 220   2.0000      -0.440509       -11.9869
 221   2.0000      -0.437529       -11.9058
 222   2.0000      -0.434154       -11.8139
 223   2.0000      -0.431500       -11.7417
 224   2.0000      -0.430848       -11.7240
 225   2.0000      -0.425842       -11.5877
 226   2.0000      -0.423579       -11.5262
 227   2.0000      -0.421210       -11.4617
 228   2.0000      -0.419395       -11.4123
 229   2.0000      -0.418326       -11.3832
 230   2.0000      -0.410710       -11.1760
 231   2.0000      -0.410010       -11.1569
 232   2.0000      -0.402643       -10.9565
 233   2.0000      -0.402352       -10.9486
 234   2.0000      -0.401026       -10.9125
 235   2.0000      -0.396592       -10.7918
 236   2.0000      -0.394285       -10.7290
 237   2.0000      -0.382487       -10.4080
 238   2.0000      -0.380851       -10.3635
 239   2.0000      -0.363500        -9.8913
 240   2.0000      -0.357236        -9.7209
 241   2.0000      -0.352277        -9.5860
 242   2.0000      -0.348813        -9.4917
 243   2.0000      -0.347057        -9.4439
 244   2.0000      -0.344536        -9.3753
 245   2.0000      -0.341727        -9.2989
 246   2.0000      -0.338030        -9.1983
 247   2.0000      -0.325312        -8.8522
 248   2.0000      -0.320118        -8.7109
 249   2.0000      -0.313772        -8.5382
 250   2.0000      -0.311560        -8.4780
 251   2.0000      -0.306400        -8.3376
 252   2.0000      -0.304901        -8.2968
 253   2.0000      -0.302377        -8.2281
 254   2.0000      -0.287423        -7.8212
 255   2.0000      -0.283513        -7.7148
 256   2.0000      -0.283071        -7.7027
 257   2.0000      -0.275142        -7.4870
 258   2.0000      -0.273582        -7.4445
 259   2.0000      -0.261840        -7.1250
 260   2.0000      -0.217590        -5.9209
 261   0.0000      -0.106384        -2.8949
 262   0.0000      -0.103734        -2.8228
 263   0.0000      -0.078240        -2.1290
 264   0.0000      -0.073786        -2.0078
 265   0.0000      -0.054825        -1.4919

MULLIKEN ATOMIC CHARGES
-----------------------
   0 C :    0.025933
   1 C :   -0.249671
   2 C :    0.539182
   3 F :   -0.155318
   4 F :   -0.165088
   5 F :   -0.165788
   6 S :    0.165829
   7 C :    0.011226
   8 O :   -0.297254
   9 C :    0.165310
  10 C :    0.069322
  11 C :   -0.008534
  12 C :   -0.022980
  13 C :    0.007628
  14 C :    0.046831
  15 N :   -0.031426
  16 C :    0.033942
  17 C :   -0.008780
  18 C :   -0.004579
  19 S :   -0.135109
  20 C :   -0.018964
  21 C :   -0.022875
  22 N :   -0.030794
  23 C :    0.049172
  24 C :    0.003642
  25 C :    0.090305
  26 C :   -0.123801
  27 C :    0.062516
  28 C :   -0.019359
  29 C :   -0.056198
  30 C :    0.152921
  31 N :   -0.219731
  32 C :    0.130158
  33 N :   -0.223205
  34 C :    0.059119
  35 C :   -0.103860
  36 C :    0.120984
  37 C :   -0.017584
  38 C :    0.013573
  39 C :    0.018507
  40 C :    0.042135
  41 C :   -0.012735
  42 C :    0.011247
  43 C :   -0.034302
  44 C :   -0.000475
  45 C :   -0.000077
  46 C :    0.058602
  47 N :   -0.031249
  48 C :    0.019983
  49 C :   -0.001549
  50 C :   -0.013269
  51 S :   -0.121016
  52 C :    0.045804
  53 C :    0.003213
  54 N :   -0.033552
  55 C :    0.063578
  56 C :   -0.128696
  57 C :    0.111095
  58 C :   -0.277633
  59 C :    0.541807
  60 F :   -0.151622
  61 F :   -0.173191
  62 F :   -0.158559
  63 S :    0.107166
  64 C :   -0.022453
  65 O :   -0.271600
  66 C :    0.169137
  67 C :    0.088072
  68 C :   -0.045887
  69 C :   -0.009328
  70 H :    0.012596
  71 H :    0.047487
  72 H :    0.045626
  73 H :    0.045131
  74 H :   -0.028212
  75 H :   -0.006164
  76 H :   -0.000497
  77 H :    0.003623
  78 H :   -0.042348
  79 H :   -0.028064
  80 H :    0.007625
  81 H :   -0.016149
  82 H :    0.098213
  83 H :    0.104092
  84 H :   -0.003235
  85 H :   -0.002077
  86 H :    0.096452
  87 H :    0.099519
  88 H :   -0.011563
  89 H :    0.026469
  90 H :   -0.006817
  91 H :   -0.032185
  92 H :   -0.035256
  93 H :   -0.033203
  94 H :    0.010258
  95 H :   -0.003580
  96 H :    0.010059
  97 H :    0.012284
  98 H :    0.039141
  99 H :    0.040223
 100 H :    0.053487
 101 H :   -0.001336
 102 H :    0.022000
 103 H :    0.016555
Sum of atomic charges:   -0.0000000

LOEWDIN ATOMIC CHARGES
----------------------
   0 C :   -0.011277
   1 C :   -0.250104
   2 C :    0.148748
   3 F :   -0.054835
   4 F :   -0.067479
   5 F :   -0.068508
   6 S :    0.448189
   7 C :   -0.080051
   8 O :   -0.104388
   9 C :    0.089163
  10 C :   -0.121761
  11 C :   -0.005527
  12 C :   -0.027008
  13 C :   -0.035497
  14 C :    0.077823
  15 N :   -0.080917
  16 C :    0.029988
  17 C :   -0.045845
  18 C :   -0.133918
  19 S :    0.051701
  20 C :   -0.052034
  21 C :    0.036582
  22 N :   -0.081427
  23 C :    0.081808
  24 C :   -0.019140
  25 C :   -0.028851
  26 C :   -0.003344
  27 C :   -0.025584
  28 C :   -0.025341
  29 C :   -0.039653
  30 C :    0.028405
  31 N :   -0.095199
  32 C :    0.022838
  33 N :   -0.114224
  34 C :   -0.028355
  35 C :    0.078173
  36 C :   -0.030359
  37 C :   -0.026021
  38 C :   -0.016902
  39 C :   -0.035071
  40 C :   -0.032785
  41 C :   -0.005670
  42 C :   -0.023011
  43 C :    0.028156
  44 C :   -0.036918
  45 C :   -0.033034
  46 C :    0.093748
  47 N :   -0.082207
  48 C :    0.045425
  49 C :   -0.039900
  50 C :   -0.145410
  51 S :    0.056930
  52 C :   -0.017095
  53 C :    0.034004
  54 N :   -0.087411
  55 C :    0.086992
  56 C :   -0.046547
  57 C :   -0.023634
  58 C :   -0.253561
  59 C :    0.149467
  60 F :   -0.048199
  61 F :   -0.077112
  62 F :   -0.063603
  63 S :    0.444457
  64 C :   -0.077518
  65 O :   -0.075157
  66 C :    0.070954
  67 C :   -0.102082
  68 C :   -0.030841
  69 C :   -0.044672
  70 H :    0.040241
  71 H :    0.032243
  72 H :    0.025409
  73 H :    0.020304
  74 H :    0.024153
  75 H :    0.026094
  76 H :    0.019396
  77 H :    0.022097
  78 H :    0.020451
  79 H :    0.022681
  80 H :    0.020473
  81 H :    0.003866
  82 H :    0.057679
  83 H :    0.047918
  84 H :    0.006658
  85 H :    0.017361
  86 H :    0.055454
  87 H :    0.058660
  88 H :    0.020983
  89 H :    0.053827
  90 H :    0.026376
  91 H :    0.031185
  92 H :    0.028625
  93 H :    0.012077
  94 H :    0.027050
  95 H :    0.030126
  96 H :    0.024807
  97 H :    0.028112
  98 H :    0.018435
  99 H :    0.019412
 100 H :    0.035496
 101 H :    0.030494
 102 H :    0.019768
 103 H :    0.023527

  Mayer bond orders larger than 0.100000
B(  0-C ,  1-C ) :   1.6264 B(  0-C , 10-C ) :   1.1948 B(  0-C , 70-H ) :   1.0002
B(  1-C ,  2-C ) :   0.9691 B(  1-C ,  6-S ) :   1.0845 B(  2-C ,  3-F ) :   1.1731
B(  2-C ,  4-F ) :   1.1728 B(  2-C ,  5-F ) :   1.1733 B(  6-S ,  7-C ) :   1.1597
B(  7-C ,  8-O ) :   1.2009 B(  7-C , 10-C ) :   1.3955 B(  8-O ,  9-C ) :   0.9228
B(  9-C , 71-H ) :   0.9768 B(  9-C , 72-H ) :   0.9677 B(  9-C , 73-H ) :   0.9735
B( 10-C , 11-C ) :   1.0653 B( 11-C , 12-C ) :   1.6711 B( 11-C , 74-H ) :   0.9757
B( 12-C , 13-C ) :   1.1121 B( 12-C , 75-H ) :   0.9671 B( 13-C , 14-C ) :   1.0120
B( 13-C , 17-C ) :   1.4983 B( 14-C , 15-N ) :   1.7380 B( 14-C , 76-H ) :   0.9878
B( 15-N , 16-C ) :   1.2553 B( 16-C , 17-C ) :   1.0698 B( 16-C , 21-C ) :   1.5180
B( 17-C , 18-C ) :   1.0424 B( 18-C , 19-S ) :   1.6764 B( 18-C , 20-C ) :   1.0357
B( 20-C , 21-C ) :   1.0772 B( 20-C , 24-C ) :   1.5194 B( 21-C , 22-N ) :   1.2611
B( 22-N , 23-C ) :   1.7249 B( 23-C , 24-C ) :   1.0380 B( 23-C , 77-H ) :   0.9853
B( 24-C , 25-C ) :   1.0246 B( 25-C , 26-C ) :   1.4777 B( 25-C , 42-C ) :   1.1484
B( 26-C , 27-C ) :   1.1509 B( 26-C , 78-H ) :   0.9916 B( 27-C , 28-C ) :   1.4600
B( 27-C , 40-C ) :   1.1213 B( 28-C , 29-C ) :   1.0379 B( 28-C , 34-C ) :   1.1000
B( 29-C , 30-C ) :   1.0252 B( 29-C , 32-C ) :   1.0618 B( 29-C , 79-H ) :   0.8757
B( 30-C , 31-N ) :   1.0755 B( 30-C , 80-H ) :   0.9528 B( 30-C , 81-H ) :   0.9342
B( 31-N , 82-H ) :   0.9630 B( 31-N , 83-H ) :   0.9434 B( 31-N , 88-H ) :   0.1814
B( 32-C , 33-N ) :   1.0700 B( 32-C , 84-H ) :   0.9427 B( 32-C , 85-H ) :   0.9322
B( 33-N , 86-H ) :   0.9684 B( 33-N , 87-H ) :   0.9667 B( 34-C , 35-C ) :   1.6501
B( 34-C , 39-C ) :   1.0492 B( 35-C , 36-C ) :   0.9532 B( 35-C , 88-H ) :   0.9205
B( 36-C , 37-C ) :   0.9873 B( 36-C , 43-C ) :   0.9533 B( 36-C , 89-H ) :   0.8856
B( 37-C , 38-C ) :   1.7031 B( 37-C , 90-H ) :   0.9695 B( 38-C , 39-C ) :   1.1389
B( 38-C , 91-H ) :   0.9908 B( 39-C , 40-C ) :   1.4196 B( 40-C , 41-C ) :   1.1400
B( 41-C , 42-C ) :   1.6026 B( 41-C , 92-H ) :   0.9959 B( 42-C , 93-H ) :   0.9663
B( 43-C , 44-C ) :   1.7542 B( 43-C , 94-H ) :   0.9639 B( 44-C , 45-C ) :   1.0934
B( 44-C , 95-H ) :   0.9673 B( 45-C , 46-C ) :   1.0140 B( 45-C , 49-C ) :   1.5327
B( 46-C , 47-N ) :   1.7224 B( 46-C , 96-H ) :   0.9895 B( 47-N , 48-C ) :   1.2640
B( 48-C , 49-C ) :   1.0578 B( 48-C , 53-C ) :   1.5111 B( 49-C , 50-C ) :   1.0241
B( 50-C , 51-S ) :   1.7079 B( 50-C , 52-C ) :   1.0082 B( 52-C , 53-C ) :   1.0509
B( 52-C , 56-C ) :   1.6393 B( 53-C , 54-N ) :   1.2811 B( 54-N , 55-C ) :   1.7010
B( 55-C , 56-C ) :   1.0432 B( 55-C , 97-H ) :   0.9970 B( 56-C , 57-C ) :   0.9374
B( 57-C , 58-C ) :   1.6257 B( 57-C , 67-C ) :   1.2609 B( 58-C , 59-C ) :   0.9569
B( 58-C , 63-S ) :   1.0765 B( 59-C , 60-F ) :   1.1529 B( 59-C , 61-F ) :   1.1678
B( 59-C , 62-F ) :   1.1808 B( 63-S , 64-C ) :   1.1320 B( 64-C , 65-O ) :   1.1772
B( 64-C , 67-C ) :   1.4497 B( 65-O , 66-C ) :   0.9358 B( 66-C , 98-H ) :   0.9658
B( 66-C , 99-H ) :   0.9661 B( 66-C ,100-H ) :   0.9809 B( 67-C , 68-C ) :   1.0817
B( 68-C , 69-C ) :   1.9588 B( 68-C ,101-H ) :   0.9482 B( 69-C ,102-H ) :   0.9469
B( 69-C ,103-H ) :   0.9424

-----------------------------------------------------------------------------
         ABSORPTION SPECTRUM VIA TRANSITION ELECTRIC DIPOLE MOMENTS
-----------------------------------------------------------------------------
State   Energy  Wavelength   fosc         T2         TX        TY        TZ
        (cm-1)    (nm)                  (au**2)     (au)      (au)      (au)
-----------------------------------------------------------------------------
   0   10167.1    983.6   0.178246489   5.77164  -0.73420  -2.09859  -0.91024
   1   12166.1    822.0   0.051699649   1.39898  -0.07561  -0.67795  -0.96626
   2   13973.6    715.6   0.050727373   1.19511   0.47445  -0.43979  -0.88125
   3   16219.9    616.5   0.069023422   1.40096   0.60664   0.95157   0.35701
   4   16421.3    609.0   0.001482745   0.02973  -0.14539   0.06374   0.06727
   5   16931.0    590.6   0.108071363   2.10137   0.99377   1.02014   0.27041
   6   17681.7    565.6   0.099221547   1.84739   0.21947  -0.97507  -0.92112
   7   18401.0    543.4   0.026972903   0.48257  -0.05913   0.47568   0.50279
   8   18714.0    534.4   0.000716822   0.01261   0.03764  -0.07744  -0.07209
   9   18736.5    533.7   0.102231688   1.79628   0.04127  -1.06664  -0.81046
  10   19297.0    518.2   0.096928555   1.65363   0.12982  -0.84411  -0.96139
  11   19942.0    501.5   0.011652689   0.19237  -0.15523  -0.32313  -0.25270
  12   20475.0    488.4   0.023757262   0.38199  -0.10928  -0.58149  -0.17866
  13   22210.4    450.2   0.002384374   0.03534  -0.14202   0.04655  -0.11405
  14   23599.8    423.7   0.437468410   6.10258  -1.57494  -1.81434  -0.57471
  15   24404.2    409.8   0.070022083   0.94460  -0.13556   0.76789   0.58014
  16   25259.2    395.9   0.603162709   7.86124  -1.16293  -2.39878  -0.86874
  17   26253.0    380.9   0.001132512   0.01420  -0.08399   0.02987   0.07909
  18   26350.2    379.5   0.011059922   0.13818   0.35244  -0.11727   0.01462
  19   26415.1    378.6   0.268106590   3.34142   0.25902   1.59723   0.85039
  20   26477.0    377.7   0.012013461   0.14937   0.02740  -0.31939  -0.21591
  21   26761.4    373.7   0.107566351   1.32326   0.55251   0.90615   0.44371
  22   26874.2    372.1   0.173354959   2.12361   0.52041   1.26619   0.49956
  23   27561.2    362.8   0.011443241   0.13669  -0.01810   0.27407   0.24747
  24   28615.3    349.5   0.011068221   0.12734  -0.16495   0.11300   0.29557
  25   28853.2    346.6   0.008436217   0.09626   0.23566  -0.13366  -0.15119
  26   29613.4    337.7   0.228856786   2.54420  -0.33347   0.84481   1.31122
  27   29719.2    336.5   0.161048505   1.78400   0.03389   1.07132   0.79694
  28   29891.1    334.5   0.036437239   0.40131  -0.00374  -0.47644  -0.41749
  29   30239.4    330.7   0.170520217   1.85643  -0.14728  -1.12627  -0.75250
  30   30360.2    329.4   0.144340198   1.56516  -0.80415   0.45680   0.84252
  31   30590.7    326.9   0.043063503   0.46344  -0.16388   0.33942   0.56690
  32   30973.2    322.9   0.002053699   0.02183  -0.04541   0.04242   0.13404
  33   31398.9    318.5   0.004534692   0.04755  -0.07299   0.17171   0.11284
  34   31661.0    315.8   0.132255455   1.37520  -0.19851  -0.98841  -0.59903
  35   32006.7    312.4   0.012173545   0.12521   0.28212   0.21135   0.03089
  36   32531.2    307.4   0.000158344   0.00160  -0.03159  -0.01115   0.02192
  37   32822.8    304.7   0.220955223   2.21617   0.31190   1.16355   0.87467
  38   33346.8    299.9   0.005467807   0.05398   0.16823   0.14555  -0.06705
  39   33473.8    298.7   0.100825697   0.99161   0.26815  -0.58383  -0.76082
  40   33547.1    298.1   0.163169475   1.60125  -0.14146   0.90748   0.87047
  41   33654.2    297.1   0.011196382   0.10953  -0.08661   0.25243   0.19572
  42   34012.8    294.0   0.016117746   0.15600  -0.35798   0.09805   0.13505
  43   34481.3    290.0   0.006763096   0.06457   0.15658   0.18266  -0.08178
  44   34711.2    288.1   0.098822605   0.93727  -0.06919  -0.82400  -0.50349
  45   34998.1    285.7   0.005001481   0.04705  -0.03604  -0.19996  -0.07592
  46   35103.6    284.9   0.046970496   0.44050   0.16727   0.59759   0.23541
  47   35147.4    284.5   0.018062634   0.16919   0.01907  -0.25237  -0.32424
  48   35580.7    281.1   0.000276961   0.00256   0.04732  -0.00946  -0.01529
  49   35724.8    279.9   0.121154301   1.11646   0.25416   0.95348   0.37781
  50   35814.0    279.2   0.030828292   0.28338   0.42130  -0.15874  -0.28407
  51   36113.1    276.9   0.471907585   4.30198  -0.76520   1.53556   1.16554
  52   36317.3    275.4   0.002410904   0.02185   0.11484   0.08479   0.03845
  53   36377.4    274.9   0.048861525   0.44219  -0.34478   0.32483   0.46670
  54   36477.8    274.1   0.012436104   0.11224  -0.23403   0.22465   0.08366
  55   36739.5    272.2   0.006862932   0.06150   0.24095  -0.02093   0.05479
  56   36768.2    272.0   0.010368367   0.09284   0.29471  -0.04587   0.06229
  57   36851.8    271.4   0.002979125   0.02661   0.07223   0.03171   0.14280
  58   37028.8    270.1   0.003896051   0.03464  -0.07163   0.10883   0.13290
  59   37050.2    269.9   0.165515854   1.47070  -0.51271   0.66930   0.87170
  60   37112.8    269.4   0.000560790   0.00497  -0.02329  -0.02676   0.06096
  61   37795.6    264.6   0.066012289   0.57499   0.73785   0.08568  -0.15238
  62   37967.2    263.4   0.000783459   0.00679   0.07884  -0.00484   0.02354
  63   38075.6    262.6   0.007946082   0.06870   0.00290  -0.26209   0.00227
  64   38182.0    261.9   0.275080391   2.37179  -1.05398   0.43834  -1.03382
  65   38346.4    260.8   0.124427197   1.06823  -0.45611  -0.85101   0.36875
  66   38653.5    258.7   0.125735351   1.07089  -0.66683   0.31797  -0.72465
  67   38801.2    257.7   0.047267428   0.40104   0.20069   0.56784   0.19577
  68   38992.3    256.5   0.002370290   0.02001   0.08979   0.10348   0.03523
  69   39430.2    253.6   0.022159026   0.18501  -0.10744  -0.14019  -0.39219
  70   39652.7    252.2   0.003043287   0.02527  -0.15866   0.00951   0.00190
  71   39952.6    250.3   0.120980167   0.99688   0.16726   0.91885   0.35301

FINAL SINGLE POINT ENERGY     -4668.279721539490

DIPOLE MOMENT
-------------
                                X             Y             Z
Electronic contribution:    -76.23487     -32.85688      24.25472
Nuclear contribution   :     77.59735      34.49645     -24.48293
                        -----------------------------------------
Total Dipole Moment    :      1.36249       1.63957      -0.22821
                        -----------------------------------------
Magnitude (a.u.)       :      2.14398
Magnitude (Debye)      :      5.44955

Rotational constants in cm-1:     0.001377     0.000203     0.000183
Rotational constants in MHz :    41.278179     6.084433     5.488364

                             ****ORCA TERMINATED NORMALLY****
TOTAL RUN TIME: 0 days 0 hours 9 minutes 52 seconds 703 msec
