                         Program Version 4.2.0 -  RELEASE  -
|  1> # ORCA input file
|  2> # SCF done       -196.973805655212          0.000947856954
|  3> ! CAM-B3LYP def2-SVP def2/J RIJCOSX Grid4 TightSCF
|  4> %maxcore 5000
|  5> %tddft
|  6>     Mode sTDDFT
|  7>     Ethresh 5.0
|  8>     maxcore 5000
|  9> end
| 10>
| 11> %pal
| 12>   nprocs 6
| 13>   end
| 14> * xyz 0 1
| 15>    C      -10.11165         4.66360        -1.25259
| 16>    C       -9.91181         5.09982        -2.53488
| 17>    C      -10.88415         5.79398        -3.28787
| 18>    N      -11.64101         6.35588        -3.94108
| 19>    C       -8.69385         4.97229        -3.23404
| 20>    N       -7.72012         4.91565        -3.84120
| 21>    C      -11.29232         4.86926        -0.43372
| 22>    C      -10.97747         4.54354         0.91314
| 23>    C      -11.89974         4.64131         1.92653
| 24>    C      -13.19208         5.06162         1.59616
| 25>    C      -13.49716         5.37940         0.24758
| 26>    C      -12.56362         5.29421        -0.77656
| 27>    S      -15.15249         5.86849         0.07574
| 28>    C      -15.41766         5.65025         1.76956
| 29>    C      -14.32277         5.23024         2.44209
| 30>    C       -9.56201         4.12916         1.00688
| 31>    O       -8.88801         4.03500         1.99694
| 32>    C       -9.13492         3.96405        -0.42459
| 33>    C       -8.12480         3.20801        -0.90613
| 34>    C       -7.23077         2.36463        -0.17752
| 35>    N       -7.49682         1.83237         0.99474
| 36>    C       -6.45258         1.02045         1.27847
| 37>    C       -5.46912         1.01394         0.18454
| 38>    C       -4.34537         0.12052         0.50560
| 39>    O       -3.38369        -0.15892        -0.17518
| 40>    C       -4.69610        -0.36297         1.85720
| 41>    C       -6.00043         0.20050         2.28027
| 42>    N       -6.32833        -0.23766         3.52225
| 43>    C       -5.33388        -1.00216         3.88993
| 44>    C       -4.27372        -1.11861         2.89872
| 45>    C       -5.94384         1.89139        -0.75685
| 46>    C       -5.41591         2.31149        -2.00922
| 47>    C       -4.41228         1.65112        -2.63588
| 48>    C       -3.87054         1.98105        -3.90801
| 49>    S       -3.13361         0.69778        -4.81222
| 50>    C       -2.78606         1.75884        -6.14466
| 51>    C       -3.19622         3.06734        -5.85589
| 52>    C       -3.82464         3.18332        -4.60885
| 53>    C       -4.32539         4.49245        -4.08939
| 54>    C       -3.68040         5.65424        -4.83943
| 55>    C       -3.83169         5.43223        -6.34889
| 56>    C       -3.40355         6.67960        -7.07847
| 57>    O       -2.47506         6.77270        -7.82622
| 58>    C       -3.01399         4.21684        -6.78092
| 59>    C       -2.16293         1.32826        -7.33819
| 60>    N       -1.63664         2.22764        -8.16603
| 61>    C       -1.13058         1.53835        -9.19964
| 62>    C       -1.38808         0.09713        -9.06138
| 63>    C       -0.83931        -0.63093       -10.22215
| 64>    O       -0.92628        -1.81318       -10.48715
| 65>    C       -0.19358         0.43480       -10.99813
| 66>    C       -0.41166         1.74675       -10.35417
| 67>    N        0.17472         2.73306       -11.06969
| 68>    C        0.74213         2.12829       -12.08780
| 69>    C        0.55471         0.69393       -12.10312
| 70>    C       -2.03598        -0.06148        -7.85961
| 71>    C       -2.53970        -1.25312        -7.26795
| 72>    C       -2.48023        -2.45195        -7.89731
| 73>    C       -3.01944        -3.64732        -7.36149
| 74>    C       -2.87346        -4.88052        -7.91459
| 75>    C       -2.02638        -5.31779        -9.00873
| 76>    C       -0.77875        -4.84011        -9.30454
| 77>    C        0.02406        -5.34674       -10.34772
| 78>    N        0.70624        -5.73249       -11.18587
| 79>    C       -0.09913        -3.87940        -8.52250
| 80>    N        0.52175        -3.16651        -7.87284
| 81>    C       -2.65380        -6.50290        -9.58174
| 82>    C       -3.69958        -6.92629        -8.71902
| 83>    C       -3.81813        -5.98457        -7.59025
| 84>    O       -4.56198        -6.04867        -6.63815
| 85>    C       -4.46255        -8.03922        -8.98131
| 86>    C       -4.19082        -8.75827       -10.14886
| 87>    C       -3.15249        -8.32083       -11.00659
| 88>    C       -2.37281        -7.20136       -10.73929
| 89>    S       -3.00818        -9.35202       -12.39442
| 90>    C       -4.30864       -10.34149       -11.82565
| 91>    C       -4.83323        -9.92471       -10.65304
| 92>    H      -11.63324         4.39250         2.94177
| 93>    H      -12.83886         5.54028        -1.78909
| 94>    H      -16.39426         5.85160         2.16525
| 95>    H      -14.30172         5.04106         3.49988
| 96>    H       -7.98044         3.18036        -1.97926
| 97>    H       -5.34652        -1.48829         4.85009
| 98>    H       -3.37620        -1.69378         3.01202
| 99>    H       -5.88746         3.15912        -2.48243
|100>    H       -4.01323         0.75560        -2.17504
|101>    H       -4.11290         4.57131        -3.02056
|102>    H       -5.41026         4.54616        -4.22118
|103>    H       -2.61865         5.71647        -4.59299
|104>    H       -4.15697         6.58915        -4.54050
|105>    H       -4.89512         5.27551        -6.56501
|106>    H       -4.03887         7.55682        -6.83748
|107>    H       -1.95308         4.48271        -6.81648
|108>    H       -3.26437         3.91869        -7.80086
|109>    H        1.28443         2.69773       -12.82247
|110>    H        0.93900         0.01990       -12.84279
|111>    H       -2.97607        -1.19552        -6.28165
|112>    H       -2.04040        -2.50117        -8.88309
|113>    H       -3.67683        -3.57616        -6.50171
|114>    H       -5.24873        -8.34254        -8.30731
|115>    H       -1.59740        -6.89771       -11.42323
|116>    H       -4.60567       -11.18614       -12.41641
|117>    H       -5.64778       -10.41346       -10.14975
|118> *
|119>
|120>                          ****END OF INPUT****

CARTESIAN COORDINATES (ANGSTROEM)
---------------------------------
  C    -10.111650    4.663600   -1.252590
  C     -9.911810    5.099820   -2.534880
  C    -10.884150    5.793980   -3.287870
  N    -11.641010    6.355880   -3.941080
  C     -8.693850    4.972290   -3.234040
  N     -7.720120    4.915650   -3.841200
  C    -11.292320    4.869260   -0.433720
  C    -10.977470    4.543540    0.913140
  C    -11.899740    4.641310    1.926530
  C    -13.192080    5.061620    1.596160
  C    -13.497160    5.379400    0.247580
  C    -12.563620    5.294210   -0.776560
  S    -15.152490    5.868490    0.075740
  C    -15.417660    5.650250    1.769560
  C    -14.322770    5.230240    2.442090
  C     -9.562010    4.129160    1.006880
  O     -8.888010    4.035000    1.996940
  C     -9.134920    3.964050   -0.424590
  C     -8.124800    3.208010   -0.906130
  C     -7.230770    2.364630   -0.177520
  N     -7.496820    1.832370    0.994740
  C     -6.452580    1.020450    1.278470
  C     -5.469120    1.013940    0.184540
  C     -4.345370    0.120520    0.505600
  O     -3.383690   -0.158920   -0.175180
  C     -4.696100   -0.362970    1.857200
  C     -6.000430    0.200500    2.280270
  N     -6.328330   -0.237660    3.522250
  C     -5.333880   -1.002160    3.889930
  C     -4.273720   -1.118610    2.898720
  C     -5.943840    1.891390   -0.756850
  C     -5.415910    2.311490   -2.009220
  C     -4.412280    1.651120   -2.635880
  C     -3.870540    1.981050   -3.908010
  S     -3.133610    0.697780   -4.812220
  C     -2.786060    1.758840   -6.144660
  C     -3.196220    3.067340   -5.855890
  C     -3.824640    3.183320   -4.608850
  C     -4.325390    4.492450   -4.089390
  C     -3.680400    5.654240   -4.839430
  C     -3.831690    5.432230   -6.348890
  C     -3.403550    6.679600   -7.078470
  O     -2.475060    6.772700   -7.826220
  C     -3.013990    4.216840   -6.780920
  C     -2.162930    1.328260   -7.338190
  N     -1.636640    2.227640   -8.166030
  C     -1.130580    1.538350   -9.199640
  C     -1.388080    0.097130   -9.061380
  C     -0.839310   -0.630930  -10.222150
  O     -0.926280   -1.813180  -10.487150
  C     -0.193580    0.434800  -10.998130
  C     -0.411660    1.746750  -10.354170
  N      0.174720    2.733060  -11.069690
  C      0.742130    2.128290  -12.087800
  C      0.554710    0.693930  -12.103120
  C     -2.035980   -0.061480   -7.859610
  C     -2.539700   -1.253120   -7.267950
  C     -2.480230   -2.451950   -7.897310
  C     -3.019440   -3.647320   -7.361490
  C     -2.873460   -4.880520   -7.914590
  C     -2.026380   -5.317790   -9.008730
  C     -0.778750   -4.840110   -9.304540
  C      0.024060   -5.346740  -10.347720
  N      0.706240   -5.732490  -11.185870
  C     -0.099130   -3.879400   -8.522500
  N      0.521750   -3.166510   -7.872840
  C     -2.653800   -6.502900   -9.581740
  C     -3.699580   -6.926290   -8.719020
  C     -3.818130   -5.984570   -7.590250
  O     -4.561980   -6.048670   -6.638150
  C     -4.462550   -8.039220   -8.981310
  C     -4.190820   -8.758270  -10.148860
  C     -3.152490   -8.320830  -11.006590
  C     -2.372810   -7.201360  -10.739290
  S     -3.008180   -9.352020  -12.394420
  C     -4.308640  -10.341490  -11.825650
  C     -4.833230   -9.924710  -10.653040
  H    -11.633240    4.392500    2.941770
  H    -12.838860    5.540280   -1.789090
  H    -16.394260    5.851600    2.165250
  H    -14.301720    5.041060    3.499880
  H     -7.980440    3.180360   -1.979260
  H     -5.346520   -1.488290    4.850090
  H     -3.376200   -1.693780    3.012020
  H     -5.887460    3.159120   -2.482430
  H     -4.013230    0.755600   -2.175040
  H     -4.112900    4.571310   -3.020560
  H     -5.410260    4.546160   -4.221180
  H     -2.618650    5.716470   -4.592990
  H     -4.156970    6.589150   -4.540500
  H     -4.895120    5.275510   -6.565010
  H     -4.038870    7.556820   -6.837480
  H     -1.953080    4.482710   -6.816480
  H     -3.264370    3.918690   -7.800860
  H      1.284430    2.697730  -12.822470
  H      0.939000    0.019900  -12.842790
  H     -2.976070   -1.195520   -6.281650
  H     -2.040400   -2.501170   -8.883090
  H     -3.676830   -3.576160   -6.501710
  H     -5.248730   -8.342540   -8.307310
  H     -1.597400   -6.897710  -11.423230
  H     -4.605670  -11.186140  -12.416410
  H     -5.647780  -10.413460  -10.149750

 Total Charge           Charge          ....    0
 Multiplicity           Mult            ....    1
 Number of Electrons    NEL             ....  536
 Basis Dimension        Dim             .... 1220

ORBITAL ENERGIES
----------------

  NO   OCC          E(Eh)            E(eV)
   0   2.0000     -88.980156     -2421.2731
   1   2.0000     -88.969890     -2420.9938
   2   2.0000     -88.960757     -2420.7453
   3   2.0000     -19.229544      -523.2625
   4   2.0000     -19.220881      -523.0268
   5   2.0000     -19.210084      -522.7330
   6   2.0000     -19.209288      -522.7113
   7   2.0000     -19.207495      -522.6625
   8   2.0000     -14.443637      -393.0314
   9   2.0000     -14.434903      -392.7937
  10   2.0000     -14.425577      -392.5399
  11   2.0000     -14.416764      -392.3001
  12   2.0000     -14.406008      -392.0074
  13   2.0000     -14.402870      -391.9220
  14   2.0000     -14.399823      -391.8391
  15   2.0000     -14.396855      -391.7584
  16   2.0000     -10.382316      -282.5172
  17   2.0000     -10.380527      -282.4685
  18   2.0000     -10.369641      -282.1723
  19   2.0000     -10.366969      -282.0996
  20   2.0000     -10.364242      -282.0254
  21   2.0000     -10.358511      -281.8694
  22   2.0000     -10.354893      -281.7710
  23   2.0000     -10.347620      -281.5731
  24   2.0000     -10.347418      -281.5676
  25   2.0000     -10.345544      -281.5166
  26   2.0000     -10.341938      -281.4184
  27   2.0000     -10.337904      -281.3087
  28   2.0000     -10.337874      -281.3078
  29   2.0000     -10.336642      -281.2743
  30   2.0000     -10.335553      -281.2447
  31   2.0000     -10.334852      -281.2256
  32   2.0000     -10.332676      -281.1664
  33   2.0000     -10.331988      -281.1477
  34   2.0000     -10.330043      -281.0948
  35   2.0000     -10.327814      -281.0341
  36   2.0000     -10.327518      -281.0261
  37   2.0000     -10.324362      -280.9402
  38   2.0000     -10.320628      -280.8386
  39   2.0000     -10.318430      -280.7788
  40   2.0000     -10.317295      -280.7479
  41   2.0000     -10.315339      -280.6946
  42   2.0000     -10.314844      -280.6812
  43   2.0000     -10.314824      -280.6806
  44   2.0000     -10.314614      -280.6749
  45   2.0000     -10.312711      -280.6231
  46   2.0000     -10.311593      -280.5927
  47   2.0000     -10.308209      -280.5006
  48   2.0000     -10.308077      -280.4970
  49   2.0000     -10.307376      -280.4780
  50   2.0000     -10.305233      -280.4196
  51   2.0000     -10.303595      -280.3751
  52   2.0000     -10.302879      -280.3556
  53   2.0000     -10.301980      -280.3311
  54   2.0000     -10.301811      -280.3265
  55   2.0000     -10.301373      -280.3146
  56   2.0000     -10.299805      -280.2719
  57   2.0000     -10.299298      -280.2581
  58   2.0000     -10.297864      -280.2191
  59   2.0000     -10.297275      -280.2031
  60   2.0000     -10.296391      -280.1790
  61   2.0000     -10.295666      -280.1593
  62   2.0000     -10.295119      -280.1444
  63   2.0000     -10.295057      -280.1427
  64   2.0000     -10.292741      -280.0797
  65   2.0000     -10.290895      -280.0295
  66   2.0000     -10.290334      -280.0142
  67   2.0000     -10.289982      -280.0046
  68   2.0000     -10.284000      -279.8419
  69   2.0000     -10.283582      -279.8305
  70   2.0000     -10.281425      -279.7718
  71   2.0000     -10.281189      -279.7654
  72   2.0000     -10.280547      -279.7479
  73   2.0000     -10.274504      -279.5835
  74   2.0000     -10.274115      -279.5729
  75   2.0000     -10.273765      -279.5634
  76   2.0000     -10.261988      -279.2429
  77   2.0000      -8.076427      -219.7707
  78   2.0000      -8.065059      -219.4614
  79   2.0000      -8.057005      -219.2423
  80   2.0000      -6.045924      -164.5180
  81   2.0000      -6.041625      -164.4010
  82   2.0000      -6.038096      -164.3050
  83   2.0000      -6.034238      -164.2000
  84   2.0000      -6.030192      -164.0899
  85   2.0000      -6.027290      -164.0109
  86   2.0000      -6.026532      -163.9903
  87   2.0000      -6.022213      -163.8727
  88   2.0000      -6.018669      -163.7763
  89   2.0000      -1.146757       -31.2048
  90   2.0000      -1.135544       -30.8997
  91   2.0000      -1.124396       -30.5964
  92   2.0000      -1.123809       -30.5804
  93   2.0000      -1.122017       -30.5316
  94   2.0000      -1.090455       -29.6728
  95   2.0000      -1.074024       -29.2257
  96   2.0000      -1.071723       -29.1631
  97   2.0000      -1.052178       -28.6312
  98   2.0000      -1.041981       -28.3537
  99   2.0000      -1.026511       -27.9328
 100   2.0000      -1.016603       -27.6632
 101   2.0000      -1.011018       -27.5112
 102   2.0000      -1.004156       -27.3245
 103   2.0000      -1.001980       -27.2653
 104   2.0000      -0.998966       -27.1832
 105   2.0000      -0.981888       -26.7185
 106   2.0000      -0.976047       -26.5596
 107   2.0000      -0.952986       -25.9321
 108   2.0000      -0.945244       -25.7214
 109   2.0000      -0.935802       -25.4645
 110   2.0000      -0.931824       -25.3562
 111   2.0000      -0.930296       -25.3146
 112   2.0000      -0.924987       -25.1702
 113   2.0000      -0.919017       -25.0077
 114   2.0000      -0.914554       -24.8863
 115   2.0000      -0.897032       -24.4095
 116   2.0000      -0.892273       -24.2800
 117   2.0000      -0.889273       -24.1983
 118   2.0000      -0.881009       -23.9735
 119   2.0000      -0.874335       -23.7919
 120   2.0000      -0.866853       -23.5883
 121   2.0000      -0.865897       -23.5623
 122   2.0000      -0.852694       -23.2030
 123   2.0000      -0.848566       -23.0907
 124   2.0000      -0.838465       -22.8158
 125   2.0000      -0.838039       -22.8042
 126   2.0000      -0.822247       -22.3745
 127   2.0000      -0.816491       -22.2179
 128   2.0000      -0.816232       -22.2108
 129   2.0000      -0.814477       -22.1630
 130   2.0000      -0.781759       -21.2727
 131   2.0000      -0.776496       -21.1295
 132   2.0000      -0.774769       -21.0825
 133   2.0000      -0.765932       -20.8421
 134   2.0000      -0.755193       -20.5498
 135   2.0000      -0.752111       -20.4660
 136   2.0000      -0.744824       -20.2677
 137   2.0000      -0.743378       -20.2283
 138   2.0000      -0.733478       -19.9589
 139   2.0000      -0.720134       -19.5958
 140   2.0000      -0.711075       -19.3493
 141   2.0000      -0.708742       -19.2858
 142   2.0000      -0.707393       -19.2491
 143   2.0000      -0.702791       -19.1239
 144   2.0000      -0.692453       -18.8426
 145   2.0000      -0.681563       -18.5463
 146   2.0000      -0.679835       -18.4992
 147   2.0000      -0.678128       -18.4528
 148   2.0000      -0.673831       -18.3359
 149   2.0000      -0.667315       -18.1586
 150   2.0000      -0.655351       -17.8330
 151   2.0000      -0.652816       -17.7640
 152   2.0000      -0.645207       -17.5570
 153   2.0000      -0.641686       -17.4612
 154   2.0000      -0.635748       -17.2996
 155   2.0000      -0.634759       -17.2727
 156   2.0000      -0.631755       -17.1909
 157   2.0000      -0.622873       -16.9492
 158   2.0000      -0.622118       -16.9287
 159   2.0000      -0.618076       -16.8187
 160   2.0000      -0.612420       -16.6648
 161   2.0000      -0.611776       -16.6473
 162   2.0000      -0.610988       -16.6258
 163   2.0000      -0.604399       -16.4465
 164   2.0000      -0.591406       -16.0930
 165   2.0000      -0.589587       -16.0435
 166   2.0000      -0.588851       -16.0234
 167   2.0000      -0.584604       -15.9079
 168   2.0000      -0.576561       -15.6890
 169   2.0000      -0.572050       -15.5663
 170   2.0000      -0.566812       -15.4237
 171   2.0000      -0.563540       -15.3347
 172   2.0000      -0.559433       -15.2229
 173   2.0000      -0.556678       -15.1480
 174   2.0000      -0.555312       -15.1108
 175   2.0000      -0.550574       -14.9819
 176   2.0000      -0.550201       -14.9717
 177   2.0000      -0.547244       -14.8913
 178   2.0000      -0.542900       -14.7730
 179   2.0000      -0.541787       -14.7428
 180   2.0000      -0.539834       -14.6896
 181   2.0000      -0.538288       -14.6476
 182   2.0000      -0.532628       -14.4936
 183   2.0000      -0.528673       -14.3859
 184   2.0000      -0.527371       -14.3505
 185   2.0000      -0.525945       -14.3117
 186   2.0000      -0.524551       -14.2738
 187   2.0000      -0.521603       -14.1936
 188   2.0000      -0.520716       -14.1694
 189   2.0000      -0.519359       -14.1325
 190   2.0000      -0.518290       -14.1034
 191   2.0000      -0.516950       -14.0669
 192   2.0000      -0.513684       -13.9781
 193   2.0000      -0.511721       -13.9246
 194   2.0000      -0.507593       -13.8123
 195   2.0000      -0.504789       -13.7360
 196   2.0000      -0.504157       -13.7188
 197   2.0000      -0.503204       -13.6929
 198   2.0000      -0.499136       -13.5822
 199   2.0000      -0.497328       -13.5330
 200   2.0000      -0.495578       -13.4854
 201   2.0000      -0.492101       -13.3907
 202   2.0000      -0.490868       -13.3572
 203   2.0000      -0.488412       -13.2904
 204   2.0000      -0.484739       -13.1904
 205   2.0000      -0.483884       -13.1672
 206   2.0000      -0.483251       -13.1499
 207   2.0000      -0.482216       -13.1218
 208   2.0000      -0.481270       -13.0960
 209   2.0000      -0.475429       -12.9371
 210   2.0000      -0.474987       -12.9251
 211   2.0000      -0.472250       -12.8506
 212   2.0000      -0.469907       -12.7868
 213   2.0000      -0.468154       -12.7391
 214   2.0000      -0.467360       -12.7175
 215   2.0000      -0.463849       -12.6220
 216   2.0000      -0.462958       -12.5977
 217   2.0000      -0.461436       -12.5563
 218   2.0000      -0.456159       -12.4127
 219   2.0000      -0.453530       -12.3412
 220   2.0000      -0.452858       -12.3229
 221   2.0000      -0.450451       -12.2574
 222   2.0000      -0.447433       -12.1753
 223   2.0000      -0.447230       -12.1697
 224   2.0000      -0.446238       -12.1428
 225   2.0000      -0.442091       -12.0299
 226   2.0000      -0.437566       -11.9068
 227   2.0000      -0.435885       -11.8610
 228   2.0000      -0.432923       -11.7804
 229   2.0000      -0.432443       -11.7674
 230   2.0000      -0.430991       -11.7279
 231   2.0000      -0.424751       -11.5581
 232   2.0000      -0.424323       -11.5464
 233   2.0000      -0.423813       -11.5325
 234   2.0000      -0.422116       -11.4864
 235   2.0000      -0.418141       -11.3782
 236   2.0000      -0.412459       -11.2236
 237   2.0000      -0.411211       -11.1896
 238   2.0000      -0.408770       -11.1232
 239   2.0000      -0.408258       -11.1093
 240   2.0000      -0.400212       -10.8903
 241   2.0000      -0.394940       -10.7469
 242   2.0000      -0.394155       -10.7255
 243   2.0000      -0.384269       -10.4565
 244   2.0000      -0.378489       -10.2992
 245   2.0000      -0.369090       -10.0434
 246   2.0000      -0.368665       -10.0319
 247   2.0000      -0.364250        -9.9118
 248   2.0000      -0.360344        -9.8055
 249   2.0000      -0.350844        -9.5470
 250   2.0000      -0.346761        -9.4358
 251   2.0000      -0.345659        -9.4059
 252   2.0000      -0.344923        -9.3858
 253   2.0000      -0.344287        -9.3685
 254   2.0000      -0.337330        -9.1792
 255   2.0000      -0.329084        -8.9548
 256   2.0000      -0.328322        -8.9341
 257   2.0000      -0.326340        -8.8802
 258   2.0000      -0.324720        -8.8361
 259   2.0000      -0.324276        -8.8240
 260   2.0000      -0.322939        -8.7876
 261   2.0000      -0.317681        -8.6445
 262   2.0000      -0.313689        -8.5359
 263   2.0000      -0.309537        -8.4229
 264   2.0000      -0.306272        -8.3341
 265   2.0000      -0.289017        -7.8645
 266   2.0000      -0.278454        -7.5771
 267   2.0000      -0.264305        -7.1921
 268   0.0000      -0.136988        -3.7276
 269   0.0000      -0.113226        -3.0810
 270   0.0000      -0.092785        -2.5248
 271   0.0000      -0.082300        -2.2395
 272   0.0000      -0.063330        -1.7233

MULLIKEN ATOMIC CHARGES
-----------------------
   0 C :    0.258915
   1 C :   -0.328827
   2 C :   -0.183315
   3 N :    0.167962
   4 C :   -0.175155
   5 N :    0.166942
   6 C :    0.026900
   7 C :   -0.010251
   8 C :   -0.063231
   9 C :    0.113374
  10 C :   -0.092118
  11 C :   -0.021157
  12 S :    0.149678
  13 C :   -0.044784
  14 C :    0.025892
  15 C :    0.144630
  16 O :   -0.091191
  17 C :   -0.030898
  18 C :   -0.075876
  19 C :    0.028244
  20 N :    0.002594
  21 C :    0.075558
  22 C :   -0.168015
  23 C :    0.220861
  24 O :   -0.132288
  25 C :   -0.015705
  26 C :   -0.019823
  27 N :   -0.049831
  28 C :    0.098563
  29 C :   -0.095013
  30 C :    0.053331
  31 C :   -0.058002
  32 C :    0.053961
  33 C :   -0.107188
  34 S :    0.149483
  35 C :   -0.159627
  36 C :   -0.071678
  37 C :   -0.107176
  38 C :    0.130685
  39 C :    0.030587
  40 C :   -0.129028
  41 C :    0.155652
  42 O :   -0.161961
  43 C :    0.242633
  44 C :    0.059491
  45 N :   -0.066364
  46 C :    0.068882
  47 C :   -0.167257
  48 C :    0.240474
  49 O :   -0.155370
  50 C :   -0.005991
  51 C :   -0.034103
  52 N :   -0.048187
  53 C :    0.089561
  54 C :   -0.095548
  55 C :    0.045598
  56 C :   -0.027175
  57 C :    0.016348
  58 C :    0.031565
  59 C :   -0.101057
  60 C :    0.255617
  61 C :   -0.296399
  62 C :   -0.179012
  63 N :    0.150085
  64 C :   -0.204392
  65 N :    0.166747
  66 C :    0.014884
  67 C :   -0.010414
  68 C :    0.140360
  69 O :   -0.143568
  70 C :   -0.069643
  71 C :    0.111464
  72 C :   -0.091424
  73 C :   -0.025770
  74 S :    0.137654
  75 C :   -0.051488
  76 C :    0.024886
  77 H :   -0.001209
  78 H :    0.000964
  79 H :    0.044496
  80 H :   -0.000112
  81 H :    0.035598
  82 H :    0.015738
  83 H :    0.002710
  84 H :   -0.011558
  85 H :    0.014495
  86 H :    0.016762
  87 H :    0.046313
  88 H :    0.017692
  89 H :    0.004996
  90 H :    0.020791
  91 H :   -0.010312
  92 H :    0.036697
  93 H :    0.024815
  94 H :    0.008337
  95 H :   -0.004313
  96 H :   -0.009788
  97 H :    0.038663
  98 H :    0.010702
  99 H :   -0.012920
 100 H :   -0.002964
 101 H :    0.036966
 102 H :   -0.008319
Sum of atomic charges:   -0.0000000

LOEWDIN ATOMIC CHARGES
----------------------
   0 C :    0.078592
   1 C :   -0.132797
   2 C :   -0.020650
   3 N :   -0.037292
   4 C :   -0.003641
   5 N :   -0.049436
   6 C :   -0.026036
   7 C :   -0.048174
   8 C :    0.026291
   9 C :   -0.027538
  10 C :   -0.144360
  11 C :   -0.004550
  12 S :    0.437008
  13 C :   -0.141948
  14 C :   -0.056029
  15 C :    0.079049
  16 O :   -0.091654
  17 C :   -0.021309
  18 C :    0.026228
  19 C :    0.052145
  20 N :   -0.061185
  21 C :    0.044071
  22 C :   -0.056457
  23 C :    0.069000
  24 O :   -0.134554
  25 C :   -0.037002
  26 C :    0.039473
  27 N :   -0.091509
  28 C :    0.085428
  29 C :   -0.025812
  30 C :   -0.020194
  31 C :   -0.037326
  32 C :    0.002057
  33 C :   -0.154152
  34 S :    0.475894
  35 C :   -0.196520
  36 C :    0.003140
  37 C :   -0.046174
  38 C :   -0.032806
  39 C :   -0.013268
  40 C :   -0.073888
  41 C :    0.116717
  42 O :   -0.113834
  43 C :   -0.018375
  44 C :    0.059286
  45 N :   -0.097110
  46 C :    0.046042
  47 C :   -0.027794
  48 C :    0.077813
  49 O :   -0.142589
  50 C :   -0.041116
  51 C :    0.019685
  52 N :   -0.093422
  53 C :    0.071551
  54 C :   -0.034592
  55 C :   -0.031240
  56 C :   -0.003374
  57 C :    0.002914
  58 C :    0.059302
  59 C :   -0.074445
  60 C :    0.065501
  61 C :   -0.119042
  62 C :   -0.012929
  63 N :   -0.051022
  64 C :   -0.018571
  65 N :   -0.050105
  66 C :   -0.016341
  67 C :   -0.056364
  68 C :    0.082087
  69 O :   -0.144621
  70 C :    0.022556
  71 C :   -0.037432
  72 C :   -0.144206
  73 C :   -0.011783
  74 S :    0.427105
  75 C :   -0.152012
  76 C :   -0.058148
  77 H :    0.044353
  78 H :    0.042154
  79 H :    0.032011
  80 H :    0.038021
  81 H :    0.046510
  82 H :    0.026379
  83 H :    0.037459
  84 H :    0.031678
  85 H :    0.036103
  86 H :    0.034124
  87 H :    0.034024
  88 H :    0.026853
  89 H :    0.025610
  90 H :    0.037655
  91 H :   -0.008498
  92 H :    0.049250
  93 H :    0.042869
  94 H :    0.023293
  95 H :    0.034880
  96 H :    0.013345
  97 H :    0.033106
  98 H :    0.042806
  99 H :    0.039744
 100 H :    0.040989
 101 H :    0.028515
 102 H :    0.034561

  Mayer bond orders larger than 0.100000
B(  0-C ,  1-C ) :   1.6602 B(  0-C ,  6-C ) :   1.0284 B(  0-C , 17-C ) :   1.0198
B(  1-C ,  2-C ) :   1.1300 B(  1-C ,  4-C ) :   1.1367 B(  2-C ,  3-N ) :   2.9906
B(  4-C ,  5-N ) :   2.9671 B(  6-C ,  7-C ) :   1.2538 B(  6-C , 11-C ) :   1.3981
B(  7-C ,  8-C ) :   1.4289 B(  7-C , 15-C ) :   0.9209 B(  8-C ,  9-C ) :   1.2548
B(  8-C , 77-H ) :   1.0160 B(  9-C , 10-C ) :   1.2858 B(  9-C , 14-C ) :   1.1786
B( 10-C , 11-C ) :   1.3391 B( 10-C , 12-S ) :   1.0998 B( 11-C , 78-H ) :   0.9846
B( 12-S , 13-C ) :   1.1300 B( 13-C , 14-C ) :   1.6245 B( 13-C , 79-H ) :   0.9678
B( 14-C , 80-H ) :   1.0002 B( 15-C , 16-O ) :   2.3092 B( 15-C , 17-C ) :   0.8867
B( 17-C , 18-C ) :   1.7441 B( 18-C , 19-C ) :   1.0762 B( 18-C , 81-H ) :   0.9310
B( 19-C , 20-N ) :   1.6390 B( 19-C , 21-C ) :   0.1147 B( 19-C , 30-C ) :   1.0110
B( 20-N , 21-C ) :   1.3161 B( 21-C , 22-C ) :   1.0553 B( 21-C , 26-C ) :   1.4449
B( 22-C , 23-C ) :   0.8989 B( 22-C , 30-C ) :   1.5520 B( 23-C , 24-O ) :   2.2163
B( 23-C , 25-C ) :   0.9156 B( 25-C , 26-C ) :   1.0564 B( 25-C , 29-C ) :   1.6324
B( 26-C , 27-N ) :   1.2957 B( 27-N , 28-C ) :   1.6753 B( 28-C , 29-C ) :   1.0465
B( 28-C , 82-H ) :   0.9881 B( 29-C , 83-H ) :   1.0103 B( 30-C , 31-C ) :   1.1257
B( 31-C , 32-C ) :   1.6775 B( 31-C , 84-H ) :   0.9491 B( 32-C , 33-C ) :   1.1075
B( 32-C , 85-H ) :   0.9369 B( 33-C , 34-S ) :   1.1398 B( 33-C , 35-C ) :   0.1025
B( 33-C , 37-C ) :   1.4580 B( 34-S , 35-C ) :   1.1202 B( 35-C , 36-C ) :   1.4339
B( 35-C , 44-C ) :   1.1356 B( 36-C , 37-C ) :   1.3532 B( 36-C , 43-C ) :   1.0782
B( 37-C , 38-C ) :   1.0447 B( 38-C , 39-C ) :   1.0891 B( 38-C , 86-H ) :   0.9109
B( 38-C , 87-H ) :   0.8794 B( 39-C , 40-C ) :   1.0312 B( 39-C , 88-H ) :   0.9417
B( 39-C , 89-H ) :   0.9324 B( 40-C , 41-C ) :   0.9205 B( 40-C , 43-C ) :   0.9962
B( 40-C , 90-H ) :   0.9041 B( 41-C , 42-O ) :   2.2217 B( 41-C , 91-H ) :   0.9504
B( 43-C , 92-H ) :   0.8858 B( 43-C , 93-H ) :   0.8922 B( 44-C , 45-N ) :   1.5612
B( 44-C , 46-C ) :   0.1202 B( 44-C , 55-C ) :   1.0184 B( 45-N , 46-C ) :   1.3736
B( 46-C , 47-C ) :   1.0543 B( 46-C , 51-C ) :   1.3914 B( 47-C , 48-C ) :   0.8890
B( 47-C , 55-C ) :   1.5670 B( 48-C , 49-O ) :   2.1321 B( 48-C , 50-C ) :   0.9450
B( 49-O , 97-H ) :   0.1085 B( 50-C , 51-C ) :   1.0758 B( 50-C , 54-C ) :   1.5843
B( 51-C , 52-N ) :   1.3302 B( 52-N , 53-C ) :   1.6369 B( 53-C , 54-C ) :   1.0824
B( 53-C , 94-H ) :   0.9894 B( 54-C , 95-H ) :   1.0112 B( 55-C , 56-C ) :   1.0883
B( 56-C , 57-C ) :   1.6845 B( 56-C , 96-H ) :   0.9612 B( 57-C , 58-C ) :   1.1009
B( 57-C , 97-H ) :   0.9301 B( 58-C , 59-C ) :   1.6395 B( 58-C , 98-H ) :   0.9667
B( 59-C , 60-C ) :   1.0258 B( 59-C , 68-C ) :   0.9333 B( 60-C , 61-C ) :   1.6737
B( 60-C , 66-C ) :   1.0153 B( 61-C , 62-C ) :   1.1382 B( 61-C , 64-C ) :   1.1502
B( 62-C , 63-N ) :   2.9883 B( 64-C , 65-N ) :   3.0092 B( 66-C , 67-C ) :   1.2673
B( 66-C , 73-C ) :   1.4196 B( 67-C , 68-C ) :   0.9241 B( 67-C , 70-C ) :   1.4255
B( 68-C , 69-O ) :   2.2725 B( 70-C , 71-C ) :   1.2538 B( 70-C , 99-H ) :   1.0162
B( 71-C , 72-C ) :   1.3042 B( 71-C , 76-C ) :   1.1704 B( 72-C , 73-C ) :   1.3174
B( 72-C , 74-S ) :   1.0972 B( 73-C ,100-H ) :   0.9868 B( 74-S , 75-C ) :   1.1245
B( 75-C , 76-C ) :   1.6309 B( 75-C ,101-H ) :   0.9686 B( 76-C ,102-H ) :   0.9999

-----------------------------------------------------------------------------
         ABSORPTION SPECTRUM VIA TRANSITION ELECTRIC DIPOLE MOMENTS
-----------------------------------------------------------------------------
State   Energy  Wavelength   fosc         T2         TX        TY        TZ
        (cm-1)    (nm)                  (au**2)     (au)      (au)      (au)
-----------------------------------------------------------------------------
   0   13033.7    767.2   0.111617153   2.81929  -0.27805  -0.39339   1.60849
   1   18025.0    554.8   0.092646564   1.69212   0.28319  -1.05316  -0.70906
   2   18740.5    533.6   1.164660225  20.45948  -2.27774   0.05982   3.90741
   3   19660.1    508.6   0.005310677   0.08893   0.28966  -0.04331   0.05613
   4   21157.5    472.6   0.045858870   0.71357  -0.05746  -0.84254   0.01998
   5   21832.3    458.0   0.025124518   0.37886  -0.26799   0.25513   0.49188
   6   21930.9    456.0   0.039409061   0.59158  -0.45361   0.60730  -0.13042
   7   22662.2    441.3   0.149591239   2.17310  -0.23737   1.44869  -0.13434
   8   22852.5    437.6   0.370128406   5.33206   0.79207  -1.48209  -1.58369
   9   23784.7    420.4   0.059001562   0.81666   0.37784   0.03505   0.82016
  10   24251.7    412.3   0.047001492   0.63804  -0.24535  -0.58948   0.47995
  11   24485.9    408.4   0.107175363   1.44097  -0.58068  -1.01834  -0.25837
  12   24715.9    404.6   0.025594198   0.34091   0.34725   0.22376  -0.41262
  13   24983.6    400.3   0.058701801   0.77352   0.73658   0.11694  -0.46615
  14   25060.4    399.0   0.027958167   0.36728   0.19849   0.37494   0.43278
  15   25388.0    393.9   0.236601940   3.06807  -0.56184   1.06574  -1.27145
  16   25488.0    392.3   0.014049920   0.18147   0.02247  -0.42175  -0.05560
  17   25568.2    391.1   0.070419437   0.90671   0.05259   0.82890  -0.46569
  18   25965.0    385.1   0.425421126   5.39394   1.40694  -1.68089   0.76750
  19   26102.7    383.1   0.066469754   0.83833  -0.83140   0.22582  -0.31001
  20   26248.3    381.0   0.230088182   2.88582   0.15621   0.98824  -1.37288
  21   26794.3    373.2   0.233274276   2.86616   1.42631  -0.88743   0.21037
  22   27161.3    368.2   0.006518317   0.07901  -0.08910   0.04961  -0.26193
  23   27479.2    363.9   0.024436753   0.29276   0.04195  -0.45026   0.29710
  24   27908.9    358.3   0.010625458   0.12534   0.01611   0.00089  -0.35366
  25   28653.8    349.0   0.002132714   0.02450   0.05150  -0.01657   0.14689
  26   28870.8    346.4   0.003731802   0.04255   0.02868   0.17734   0.10140
  27   29135.2    343.2   0.133229252   1.50542  -0.52839   0.79904  -0.76665
  28   29624.3    337.6   0.008982739   0.09982   0.08806   0.14871   0.26449
  29   29673.6    337.0   0.032973184   0.36582   0.15887  -0.11737   0.57167
  30   29859.5    334.9   0.000338800   0.00374  -0.05155  -0.00718  -0.03203
  31   30084.3    332.4   0.015029405   0.16447   0.22978  -0.08803  -0.32237
  32   30381.5    329.1   0.030687737   0.33253   0.27564  -0.20464  -0.46333
  33   30598.8    326.8   0.029611156   0.31859  -0.53538  -0.17842   0.01083
  34   30781.9    324.9   0.382778103   4.09380   0.74117   1.87228  -0.19759
  35   30815.4    324.5   0.089482747   0.95598  -0.51806  -0.68684   0.46459
  36   30919.5    323.4   0.087676920   0.93353  -0.83913  -0.47700   0.04318
  37   31219.0    320.3   0.274512221   2.89480  -1.33602  -0.11202   1.04752
  38   31355.4    318.9   0.093739178   0.98420  -0.60944  -0.12091   0.77341
  39   32071.0    311.8   0.092543919   0.94997  -0.56161  -0.77841  -0.16924
  40   32290.8    309.7   0.046556948   0.47466   0.33664   0.52789   0.28751
  41   32624.5    306.5   0.133841151   1.35058   1.06801  -0.44947  -0.08898
  42   32857.6    304.3   0.002120459   0.02125  -0.02590  -0.09733  -0.10537
  43   33114.5    302.0   0.006726962   0.06688   0.03359  -0.19205   0.16989
  44   33391.4    299.5   0.005493587   0.05416  -0.08242  -0.19042  -0.10541
  45   33678.5    296.9   0.065513191   0.64040   0.06813   0.02551   0.79694
  46   33857.1    295.4   0.117353995   1.14110  -0.40547  -0.95132  -0.26775
  47   33929.6    294.7   0.074644830   0.72426  -0.72706  -0.35762   0.26030
  48   34317.5    291.4   0.093438449   0.89637   0.39280  -0.68883  -0.51729
  49   34403.1    290.7   0.040216773   0.38484   0.11045   0.36372  -0.49026
  50   34727.3    288.0   0.106490704   1.00952  -0.24343  -0.57576  -0.78662
  51   34851.0    286.9   0.294249987   2.77956   0.63014   1.43682   0.56395
  52   34922.9    286.3   0.244531817   2.30516   1.17404   0.16242  -0.94890
  53   35166.8    284.4   0.135769991   1.27100  -1.00574  -0.41686   0.29278
  54   35246.1    283.7   0.032049299   0.29935   0.23268   0.09737  -0.48552
  55   35595.0    280.9   0.026550257   0.24556   0.36607  -0.30595  -0.13396
  56   35989.9    277.9   0.001511958   0.01383   0.05755  -0.10239  -0.00583
  57   36132.3    276.8   0.133077170   1.21250  -0.11662   0.56006  -0.94087
  58   36230.4    276.0   0.028483890   0.25882  -0.22044   0.28387  -0.36007
  59   36273.5    275.7   0.012198506   0.11071  -0.20776  -0.23429  -0.11250
  60   36515.2    273.9   0.034454203   0.31063  -0.46743   0.19433   0.23318
  61   36724.3    272.3   0.004384511   0.03930   0.01566  -0.19402   0.03763
  62   36866.9    271.2   0.083659475   0.74706  -0.43578   0.62727   0.40459
  63   37082.4    269.7   0.164695972   1.46215   0.67114   0.21818  -0.98189
  64   37153.6    269.2   0.034738024   0.30781  -0.13983   0.00830   0.53683
  65   37446.0    267.1   0.003100218   0.02726  -0.05299  -0.02989   0.15348
  66   37533.0    266.4   0.022188872   0.19462  -0.05157  -0.03140   0.43701
  67   37652.2    265.6   0.016367392   0.14311   0.01704   0.36228   0.10756
  68   37764.1    264.8   0.009606607   0.08375   0.17985  -0.22042  -0.05306
  69   37945.6    263.5   0.026935977   0.23369  -0.42668  -0.03653   0.22428
  70   38003.5    263.1   0.009679331   0.08385   0.26264   0.04178  -0.11456
  71   38233.3    261.6   0.051071485   0.43976  -0.51757  -0.41448  -0.00897
  72   38411.7    260.3   0.072817403   0.62409  -0.07988   0.71861  -0.31828
  73   38444.3    260.1   0.033812692   0.28955   0.33618   0.19062   0.37443
  74   38639.1    258.8   0.045737074   0.38969   0.23851  -0.11067  -0.56617
  75   38696.5    258.4   0.090910259   0.77342  -0.51145   0.09227   0.70946
  76   38879.2    257.2   0.063261323   0.53567  -0.25281   0.25782  -0.63662
  77   39037.1    256.2   0.029753728   0.25092   0.14621  -0.19724   0.43662
  78   39072.4    255.9   0.008900864   0.07500   0.22746  -0.09057   0.12269
  79   39302.9    254.4   0.018061084   0.15128   0.04516   0.00991  -0.38620
  80   39785.8    251.3   0.119345767   0.98754  -0.82236   0.04269   0.55628
  81   39838.8    251.0   0.058071918   0.47988   0.55138  -0.41157   0.08050
  82   40084.7    249.5   0.001597113   0.01312  -0.06787  -0.06847  -0.06182
  83   40147.8    249.1   0.174306181   1.42931   0.95722  -0.53672  -0.47431
  84   40308.2    248.1   0.026610437   0.21734  -0.32603  -0.27511   0.18803

FINAL SINGLE POINT ENERGY     -4344.276865118405

DIPOLE MOMENT
-------------
                                X             Y             Z
Electronic contribution:     -3.57213     -16.43247       1.55935
Nuclear contribution   :     -1.35989      16.27524       1.34756
                        -----------------------------------------
Total Dipole Moment    :     -4.93203      -0.15722       2.90690
                        -----------------------------------------
Magnitude (a.u.)       :      5.72710
Magnitude (Debye)      :     14.55714

Rotational constants in cm-1:     0.000994     0.000305     0.000276
Rotational constants in MHz :    29.806964     9.148161     8.285186

                             ****ORCA TERMINATED NORMALLY****
TOTAL RUN TIME: 0 days 0 hours 15 minutes 44 seconds 4 msec
