                         Program Version 4.2.0 -  RELEASE  -
|  1> # ORCA input file
|  2> # SCF done       -204.453835762340          0.000376862597
|  3> ! CAM-B3LYP def2-SVP def2/J RIJCOSX Grid4 TightSCF
|  4> %maxcore 5000
|  5> %tddft
|  6>     Mode sTDDFT
|  7>     Ethresh 5.0
|  8>     maxcore 5000
|  9> end
| 10>
| 11> %pal
| 12>   nprocs 6
| 13>   end
| 14> * xyz 0 1
| 15>    C       15.72156        -5.45940         9.41050
| 16>    C       15.89423        -5.24154        10.74912
| 17>    F       17.09032        -5.49608        11.31276
| 18>    C       14.86766        -4.75733        11.57032
| 19>    C       13.64659        -4.49233        11.01478
| 20>    C       13.41351        -4.69781         9.63987
| 21>    C       14.47054        -5.19209         8.82199
| 22>    C       14.25937        -5.41054         7.43963
| 23>    C       13.03480        -5.13445         6.89739
| 24>    C       11.98539        -4.62815         7.71719
| 25>    C       12.15742        -4.41880         9.05424
| 26>    C       10.79431        -4.37516         6.88078
| 27>    O        9.70468        -3.98547         7.23746
| 28>    C       11.23583        -4.64115         5.48764
| 29>    C       12.52513        -5.27679         5.53454
| 30>    C       13.07599        -6.07538         4.56147
| 31>    C       12.39764        -6.41779         3.37759
| 32>    N       11.85738        -6.72346         2.41116
| 33>    C       14.33618        -6.69254         4.66699
| 34>    N       15.37041        -7.19194         4.68498
| 35>    C       10.47621        -4.16826         4.44974
| 36>    C       10.86576        -3.88419         3.13559
| 37>    S        9.66338        -3.41741         1.93498
| 38>    C       10.82190        -3.10054         0.67568
| 39>    C       12.09380        -3.34502         1.18238
| 40>    C       12.10894        -3.77484         2.52758
| 41>    O       13.40183        -3.91804         2.89751
| 42>    C       14.09797        -3.59802         1.77609
| 43>    N       13.39870        -3.25526         0.75476
| 44>    C       10.46272        -2.61864        -0.61706
| 45>    C       11.46150        -2.35418        -1.53400
| 46>    C       11.13244        -1.79868        -2.78127
| 47>    C       11.93187        -1.39127        -3.84264
| 48>    C       13.41131        -1.49117        -3.98544
| 49>    C       14.13808        -0.62758        -2.93429
| 50>    N       15.45181        -0.27728        -3.43802
| 51>    C       13.87378        -2.95960        -3.92942
| 52>    N       15.27050        -3.06821        -4.32413
| 53>    C       11.04820        -0.80032        -4.81930
| 54>    C       11.30992        -0.15984        -5.97337
| 55>    C       10.22501         0.46684        -6.78180
| 56>    C        8.83974         0.19740        -6.27652
| 57>    C        8.59681        -0.43833        -5.11621
| 58>    C        9.66815        -0.92081        -4.32515
| 59>    C        9.73089        -1.52058        -3.08633
| 60>    C        8.72935        -1.84854        -2.13896
| 61>    C        9.08643        -2.37741        -0.94450
| 62>    C       10.34973         0.05556        -8.22185
| 63>    C       10.58079         0.92295        -9.21349
| 64>    C       10.71366         0.55703       -10.58786
| 65>    S       11.06610         1.75226       -11.80425
| 66>    C       11.15476         0.60188       -13.12309
| 67>    C       10.87935        -0.65927       -12.60861
| 68>    C       10.64109        -0.67067       -11.21163
| 69>    O       10.38238        -1.95346       -10.85331
| 70>    C       10.46581        -2.63573       -12.01492
| 71>    N       10.74187        -1.94766       -13.06749
| 72>    C       11.40842         1.05181       -14.43108
| 73>    C       11.73754         0.32379       -15.53578
| 74>    C       11.52103         0.92410       -16.88214
| 75>    O       11.30146         2.08801       -17.12830
| 76>    C       11.57538        -0.21134       -17.82168
| 77>    C       11.32920        -0.22612       -19.16426
| 78>    C       11.41291        -1.44908       -19.86664
| 79>    C       11.74780        -2.63961       -19.15763
| 80>    C       11.82240        -3.85601       -19.86362
| 81>    C       11.57543        -3.86847       -21.20825
| 82>    C       11.24605        -2.70886       -21.92312
| 83>    C       11.16847        -1.51951       -21.25349
| 84>    F       11.64679        -5.02991       -21.88388
| 85>    C       12.00535        -2.59285       -17.76722
| 86>    C       11.92604        -1.39545       -17.11011
| 87>    C       12.17342        -1.04110       -15.71450
| 88>    C       12.90837        -1.78392       -14.82834
| 89>    C       13.38848        -1.28282       -13.60359
| 90>    N       13.83154        -0.89684       -12.61681
| 91>    C       13.35135        -3.09782       -15.07853
| 92>    N       13.72470        -4.17389       -15.22163
| 93>    H       16.53432        -5.83599         8.80922
| 94>    H       15.06230        -4.60434        12.61998
| 95>    H       12.83978        -4.11814        11.62696
| 96>    H       15.07764        -5.78038         6.84195
| 97>    H       11.34681        -4.04162         9.65962
| 98>    H        9.46339        -3.88224         4.71404
| 99>    H       15.16783        -3.64950         1.81703
|100>    H       12.48645        -2.54918        -1.26557
|101>    H       13.70010        -1.09056        -4.96229
|102>    H       14.16050        -1.16888        -1.97584
|103>    H       13.57537         0.30057        -2.78204
|104>    H       15.96054        -1.13585        -3.63421
|105>    H       15.96818         0.25348        -2.74526
|106>    H       13.19858        -3.55980        -4.56385
|107>    H       13.78992        -3.33546        -2.90773
|108>    H       15.37699        -2.83194        -5.30593
|109>    H       15.59816        -4.01955        -4.19695
|110>    H       12.31617        -0.04033        -6.35076
|111>    H       10.39178         1.55581        -6.73639
|112>    H        8.03615         0.56965        -6.89329
|113>    H        7.58356        -0.58445        -4.77132
|114>    H        7.69265        -1.66092        -2.37547
|115>    H        8.34275        -2.62411        -0.20084
|116>    H       10.23479        -0.99925        -8.42495
|117>    H       10.69303         1.97894        -9.00631
|118>    H       10.29914        -3.69502       -11.99540
|119>    H       11.25473         2.11215       -14.60632
|120>    H       11.07316         0.68437       -19.68512
|121>    H       12.07669        -4.76805       -19.34661
|122>    H       11.06145        -2.77999       -22.98327
|123>    H       10.91670        -0.61241       -21.78208
|124>    H       12.24943        -3.50887       -17.25299
|125> *
|126>
|127>                          ****END OF INPUT****

CARTESIAN COORDINATES (ANGSTROEM)
---------------------------------
  C     15.721560   -5.459400    9.410500
  C     15.894230   -5.241540   10.749120
  F     17.090320   -5.496080   11.312760
  C     14.867660   -4.757330   11.570320
  C     13.646590   -4.492330   11.014780
  C     13.413510   -4.697810    9.639870
  C     14.470540   -5.192090    8.821990
  C     14.259370   -5.410540    7.439630
  C     13.034800   -5.134450    6.897390
  C     11.985390   -4.628150    7.717190
  C     12.157420   -4.418800    9.054240
  C     10.794310   -4.375160    6.880780
  O      9.704680   -3.985470    7.237460
  C     11.235830   -4.641150    5.487640
  C     12.525130   -5.276790    5.534540
  C     13.075990   -6.075380    4.561470
  C     12.397640   -6.417790    3.377590
  N     11.857380   -6.723460    2.411160
  C     14.336180   -6.692540    4.666990
  N     15.370410   -7.191940    4.684980
  C     10.476210   -4.168260    4.449740
  C     10.865760   -3.884190    3.135590
  S      9.663380   -3.417410    1.934980
  C     10.821900   -3.100540    0.675680
  C     12.093800   -3.345020    1.182380
  C     12.108940   -3.774840    2.527580
  O     13.401830   -3.918040    2.897510
  C     14.097970   -3.598020    1.776090
  N     13.398700   -3.255260    0.754760
  C     10.462720   -2.618640   -0.617060
  C     11.461500   -2.354180   -1.534000
  C     11.132440   -1.798680   -2.781270
  C     11.931870   -1.391270   -3.842640
  C     13.411310   -1.491170   -3.985440
  C     14.138080   -0.627580   -2.934290
  N     15.451810   -0.277280   -3.438020
  C     13.873780   -2.959600   -3.929420
  N     15.270500   -3.068210   -4.324130
  C     11.048200   -0.800320   -4.819300
  C     11.309920   -0.159840   -5.973370
  C     10.225010    0.466840   -6.781800
  C      8.839740    0.197400   -6.276520
  C      8.596810   -0.438330   -5.116210
  C      9.668150   -0.920810   -4.325150
  C      9.730890   -1.520580   -3.086330
  C      8.729350   -1.848540   -2.138960
  C      9.086430   -2.377410   -0.944500
  C     10.349730    0.055560   -8.221850
  C     10.580790    0.922950   -9.213490
  C     10.713660    0.557030  -10.587860
  S     11.066100    1.752260  -11.804250
  C     11.154760    0.601880  -13.123090
  C     10.879350   -0.659270  -12.608610
  C     10.641090   -0.670670  -11.211630
  O     10.382380   -1.953460  -10.853310
  C     10.465810   -2.635730  -12.014920
  N     10.741870   -1.947660  -13.067490
  C     11.408420    1.051810  -14.431080
  C     11.737540    0.323790  -15.535780
  C     11.521030    0.924100  -16.882140
  O     11.301460    2.088010  -17.128300
  C     11.575380   -0.211340  -17.821680
  C     11.329200   -0.226120  -19.164260
  C     11.412910   -1.449080  -19.866640
  C     11.747800   -2.639610  -19.157630
  C     11.822400   -3.856010  -19.863620
  C     11.575430   -3.868470  -21.208250
  C     11.246050   -2.708860  -21.923120
  C     11.168470   -1.519510  -21.253490
  F     11.646790   -5.029910  -21.883880
  C     12.005350   -2.592850  -17.767220
  C     11.926040   -1.395450  -17.110110
  C     12.173420   -1.041100  -15.714500
  C     12.908370   -1.783920  -14.828340
  C     13.388480   -1.282820  -13.603590
  N     13.831540   -0.896840  -12.616810
  C     13.351350   -3.097820  -15.078530
  N     13.724700   -4.173890  -15.221630
  H     16.534320   -5.835990    8.809220
  H     15.062300   -4.604340   12.619980
  H     12.839780   -4.118140   11.626960
  H     15.077640   -5.780380    6.841950
  H     11.346810   -4.041620    9.659620
  H      9.463390   -3.882240    4.714040
  H     15.167830   -3.649500    1.817030
  H     12.486450   -2.549180   -1.265570
  H     13.700100   -1.090560   -4.962290
  H     14.160500   -1.168880   -1.975840
  H     13.575370    0.300570   -2.782040
  H     15.960540   -1.135850   -3.634210
  H     15.968180    0.253480   -2.745260
  H     13.198580   -3.559800   -4.563850
  H     13.789920   -3.335460   -2.907730
  H     15.376990   -2.831940   -5.305930
  H     15.598160   -4.019550   -4.196950
  H     12.316170   -0.040330   -6.350760
  H     10.391780    1.555810   -6.736390
  H      8.036150    0.569650   -6.893290
  H      7.583560   -0.584450   -4.771320
  H      7.692650   -1.660920   -2.375470
  H      8.342750   -2.624110   -0.200840
  H     10.234790   -0.999250   -8.424950
  H     10.693030    1.978940   -9.006310
  H     10.299140   -3.695020  -11.995400
  H     11.254730    2.112150  -14.606320
  H     11.073160    0.684370  -19.685120
  H     12.076690   -4.768050  -19.346610
  H     11.061450   -2.779990  -22.983270
  H     10.916700   -0.612410  -21.782080
  H     12.249430   -3.508870  -17.252990

 Total Charge           Charge          ....    0
 Multiplicity           Mult            ....    1
 Number of Electrons    NEL             ....  542
 Basis Dimension        Dim             .... 1260

ORBITAL ENERGIES
----------------

  NO   OCC          E(Eh)            E(eV)
   0   2.0000     -88.983933     -2421.3759
   1   2.0000     -88.977670     -2421.2055
   2   2.0000     -24.783125      -674.3831
   3   2.0000     -24.780786      -674.3195
   4   2.0000     -19.324911      -525.8576
   5   2.0000     -19.320136      -525.7276
   6   2.0000     -19.210680      -522.7492
   7   2.0000     -19.205623      -522.6116
   8   2.0000     -14.434001      -392.7691
   9   2.0000     -14.431328      -392.6964
  10   2.0000     -14.411395      -392.1540
  11   2.0000     -14.411016      -392.1437
  12   2.0000     -14.409064      -392.0906
  13   2.0000     -14.407694      -392.0533
  14   2.0000     -14.389305      -391.5529
  15   2.0000     -14.355152      -390.6235
  16   2.0000     -10.395115      -282.8655
  17   2.0000     -10.383638      -282.5531
  18   2.0000     -10.366398      -282.0840
  19   2.0000     -10.363922      -282.0167
  20   2.0000     -10.361803      -281.9590
  21   2.0000     -10.357362      -281.8382
  22   2.0000     -10.356588      -281.8171
  23   2.0000     -10.353479      -281.7325
  24   2.0000     -10.338318      -281.3199
  25   2.0000     -10.336698      -281.2758
  26   2.0000     -10.332987      -281.1749
  27   2.0000     -10.332645      -281.1656
  28   2.0000     -10.332458      -281.1605
  29   2.0000     -10.330261      -281.1007
  30   2.0000     -10.329651      -281.0841
  31   2.0000     -10.326429      -280.9964
  32   2.0000     -10.323244      -280.9097
  33   2.0000     -10.320710      -280.8408
  34   2.0000     -10.318269      -280.7744
  35   2.0000     -10.315623      -280.7024
  36   2.0000     -10.314133      -280.6618
  37   2.0000     -10.313202      -280.6365
  38   2.0000     -10.312297      -280.6119
  39   2.0000     -10.310755      -280.5699
  40   2.0000     -10.309359      -280.5319
  41   2.0000     -10.305732      -280.4332
  42   2.0000     -10.304796      -280.4077
  43   2.0000     -10.302855      -280.3549
  44   2.0000     -10.302381      -280.3421
  45   2.0000     -10.301172      -280.3092
  46   2.0000     -10.299691      -280.2688
  47   2.0000     -10.298219      -280.2288
  48   2.0000     -10.297158      -280.1999
  49   2.0000     -10.296236      -280.1748
  50   2.0000     -10.294709      -280.1333
  51   2.0000     -10.294632      -280.1312
  52   2.0000     -10.294427      -280.1256
  53   2.0000     -10.293604      -280.1032
  54   2.0000     -10.293001      -280.0868
  55   2.0000     -10.292837      -280.0823
  56   2.0000     -10.292115      -280.0627
  57   2.0000     -10.291154      -280.0365
  58   2.0000     -10.290402      -280.0161
  59   2.0000     -10.288719      -279.9703
  60   2.0000     -10.288422      -279.9622
  61   2.0000     -10.286360      -279.9061
  62   2.0000     -10.285621      -279.8860
  63   2.0000     -10.285589      -279.8851
  64   2.0000     -10.283404      -279.8256
  65   2.0000     -10.282302      -279.7957
  66   2.0000     -10.282137      -279.7912
  67   2.0000     -10.280874      -279.7568
  68   2.0000     -10.280719      -279.7526
  69   2.0000     -10.278803      -279.7005
  70   2.0000     -10.278237      -279.6850
  71   2.0000     -10.278153      -279.6828
  72   2.0000     -10.272706      -279.5345
  73   2.0000     -10.272448      -279.5275
  74   2.0000     -10.271998      -279.5153
  75   2.0000     -10.270861      -279.4843
  76   2.0000     -10.269668      -279.4519
  77   2.0000     -10.266303      -279.3603
  78   2.0000      -8.078877      -219.8374
  79   2.0000      -8.072303      -219.6585
  80   2.0000      -6.048196      -164.5798
  81   2.0000      -6.044184      -164.4706
  82   2.0000      -6.041727      -164.4037
  83   2.0000      -6.040865      -164.3803
  84   2.0000      -6.037648      -164.2928
  85   2.0000      -6.034177      -164.1983
  86   2.0000      -1.298003       -35.3205
  87   2.0000      -1.295312       -35.2472
  88   2.0000      -1.253204       -34.1014
  89   2.0000      -1.247758       -33.9532
  90   2.0000      -1.125910       -30.6376
  91   2.0000      -1.120579       -30.4925
  92   2.0000      -1.048255       -28.5245
  93   2.0000      -1.040974       -28.3263
  94   2.0000      -1.013422       -27.5766
  95   2.0000      -1.012285       -27.5457
  96   2.0000      -1.003682       -27.3116
  97   2.0000      -0.998370       -27.1670
  98   2.0000      -0.996350       -27.1121
  99   2.0000      -0.993558       -27.0361
 100   2.0000      -0.990397       -26.9501
 101   2.0000      -0.989727       -26.9318
 102   2.0000      -0.986453       -26.8427
 103   2.0000      -0.972288       -26.4573
 104   2.0000      -0.971970       -26.4486
 105   2.0000      -0.969103       -26.3706
 106   2.0000      -0.954532       -25.9741
 107   2.0000      -0.937294       -25.5051
 108   2.0000      -0.930803       -25.3284
 109   2.0000      -0.924619       -25.1602
 110   2.0000      -0.919765       -25.0281
 111   2.0000      -0.909367       -24.7451
 112   2.0000      -0.898015       -24.4362
 113   2.0000      -0.892295       -24.2806
 114   2.0000      -0.883775       -24.0487
 115   2.0000      -0.882982       -24.0272
 116   2.0000      -0.879019       -23.9193
 117   2.0000      -0.875488       -23.8232
 118   2.0000      -0.867928       -23.6175
 119   2.0000      -0.860122       -23.4051
 120   2.0000      -0.856271       -23.3003
 121   2.0000      -0.848390       -23.0859
 122   2.0000      -0.839644       -22.8479
 123   2.0000      -0.833756       -22.6877
 124   2.0000      -0.830423       -22.5970
 125   2.0000      -0.828254       -22.5379
 126   2.0000      -0.820910       -22.3381
 127   2.0000      -0.805957       -21.9312
 128   2.0000      -0.787036       -21.4163
 129   2.0000      -0.776495       -21.1295
 130   2.0000      -0.763335       -20.7714
 131   2.0000      -0.757259       -20.6061
 132   2.0000      -0.754247       -20.5241
 133   2.0000      -0.750656       -20.4264
 134   2.0000      -0.747327       -20.3358
 135   2.0000      -0.739247       -20.1159
 136   2.0000      -0.728571       -19.8254
 137   2.0000      -0.725111       -19.7313
 138   2.0000      -0.720799       -19.6139
 139   2.0000      -0.711845       -19.3703
 140   2.0000      -0.707414       -19.2497
 141   2.0000      -0.704874       -19.1806
 142   2.0000      -0.703896       -19.1540
 143   2.0000      -0.702768       -19.1233
 144   2.0000      -0.694381       -18.8951
 145   2.0000      -0.679519       -18.4907
 146   2.0000      -0.677664       -18.4402
 147   2.0000      -0.674735       -18.3605
 148   2.0000      -0.673167       -18.3178
 149   2.0000      -0.668133       -18.1808
 150   2.0000      -0.667872       -18.1737
 151   2.0000      -0.660360       -17.9693
 152   2.0000      -0.658541       -17.9198
 153   2.0000      -0.640455       -17.4277
 154   2.0000      -0.637363       -17.3435
 155   2.0000      -0.631887       -17.1945
 156   2.0000      -0.629417       -17.1273
 157   2.0000      -0.625503       -17.0208
 158   2.0000      -0.624554       -16.9950
 159   2.0000      -0.620355       -16.8807
 160   2.0000      -0.610206       -16.6046
 161   2.0000      -0.603093       -16.4110
 162   2.0000      -0.602286       -16.3890
 163   2.0000      -0.598347       -16.2819
 164   2.0000      -0.596921       -16.2430
 165   2.0000      -0.594467       -16.1763
 166   2.0000      -0.591137       -16.0857
 167   2.0000      -0.588403       -16.0112
 168   2.0000      -0.586875       -15.9697
 169   2.0000      -0.578602       -15.7446
 170   2.0000      -0.571617       -15.5545
 171   2.0000      -0.568860       -15.4795
 172   2.0000      -0.563006       -15.3202
 173   2.0000      -0.562064       -15.2945
 174   2.0000      -0.560591       -15.2545
 175   2.0000      -0.558301       -15.1922
 176   2.0000      -0.555630       -15.1195
 177   2.0000      -0.554669       -15.0933
 178   2.0000      -0.553346       -15.0573
 179   2.0000      -0.552827       -15.0432
 180   2.0000      -0.551017       -14.9939
 181   2.0000      -0.545859       -14.8536
 182   2.0000      -0.543883       -14.7998
 183   2.0000      -0.541463       -14.7340
 184   2.0000      -0.533226       -14.5098
 185   2.0000      -0.531406       -14.4603
 186   2.0000      -0.530552       -14.4370
 187   2.0000      -0.529604       -14.4113
 188   2.0000      -0.527974       -14.3669
 189   2.0000      -0.523263       -14.2387
 190   2.0000      -0.520136       -14.1536
 191   2.0000      -0.519901       -14.1472
 192   2.0000      -0.517549       -14.0832
 193   2.0000      -0.516446       -14.0532
 194   2.0000      -0.514601       -14.0030
 195   2.0000      -0.513658       -13.9774
 196   2.0000      -0.510424       -13.8893
 197   2.0000      -0.506264       -13.7761
 198   2.0000      -0.503676       -13.7057
 199   2.0000      -0.502409       -13.6712
 200   2.0000      -0.499494       -13.5919
 201   2.0000      -0.499334       -13.5876
 202   2.0000      -0.495205       -13.4752
 203   2.0000      -0.492787       -13.4094
 204   2.0000      -0.490664       -13.3516
 205   2.0000      -0.487788       -13.2734
 206   2.0000      -0.485978       -13.2241
 207   2.0000      -0.483247       -13.1498
 208   2.0000      -0.481632       -13.1059
 209   2.0000      -0.478582       -13.0229
 210   2.0000      -0.475962       -12.9516
 211   2.0000      -0.475464       -12.9380
 212   2.0000      -0.472720       -12.8634
 213   2.0000      -0.468278       -12.7425
 214   2.0000      -0.467261       -12.7148
 215   2.0000      -0.464221       -12.6321
 216   2.0000      -0.461495       -12.5579
 217   2.0000      -0.459818       -12.5123
 218   2.0000      -0.458812       -12.4849
 219   2.0000      -0.454609       -12.3705
 220   2.0000      -0.452241       -12.3061
 221   2.0000      -0.451189       -12.2775
 222   2.0000      -0.449525       -12.2322
 223   2.0000      -0.447244       -12.1701
 224   2.0000      -0.445940       -12.1346
 225   2.0000      -0.445114       -12.1122
 226   2.0000      -0.442277       -12.0350
 227   2.0000      -0.442125       -12.0308
 228   2.0000      -0.439640       -11.9632
 229   2.0000      -0.436945       -11.8899
 230   2.0000      -0.434964       -11.8360
 231   2.0000      -0.433337       -11.7917
 232   2.0000      -0.431669       -11.7463
 233   2.0000      -0.424361       -11.5474
 234   2.0000      -0.423196       -11.5157
 235   2.0000      -0.422897       -11.5076
 236   2.0000      -0.420595       -11.4450
 237   2.0000      -0.417353       -11.3567
 238   2.0000      -0.415548       -11.3076
 239   2.0000      -0.414850       -11.2886
 240   2.0000      -0.412557       -11.2262
 241   2.0000      -0.411322       -11.1926
 242   2.0000      -0.407615       -11.0918
 243   2.0000      -0.405572       -11.0362
 244   2.0000      -0.403591       -10.9823
 245   2.0000      -0.399185       -10.8624
 246   2.0000      -0.393128       -10.6976
 247   2.0000      -0.391267       -10.6469
 248   2.0000      -0.389089       -10.5877
 249   2.0000      -0.381440       -10.3795
 250   2.0000      -0.380351       -10.3499
 251   2.0000      -0.376668       -10.2497
 252   2.0000      -0.374660       -10.1950
 253   2.0000      -0.371241       -10.1020
 254   2.0000      -0.358537        -9.7563
 255   2.0000      -0.348271        -9.4769
 256   2.0000      -0.339178        -9.2295
 257   2.0000      -0.332668        -9.0523
 258   2.0000      -0.330434        -8.9916
 259   2.0000      -0.329890        -8.9768
 260   2.0000      -0.325766        -8.8645
 261   2.0000      -0.321232        -8.7412
 262   2.0000      -0.311488        -8.4760
 263   2.0000      -0.307664        -8.3720
 264   2.0000      -0.305749        -8.3199
 265   2.0000      -0.294759        -8.0208
 266   2.0000      -0.292352        -7.9553
 267   2.0000      -0.284294        -7.7360
 268   2.0000      -0.273392        -7.4394
 269   2.0000      -0.269711        -7.3392
 270   2.0000      -0.227682        -6.1956
 271   0.0000      -0.097751        -2.6599
 272   0.0000      -0.093585        -2.5466
 273   0.0000      -0.069405        -1.8886
 274   0.0000      -0.054065        -1.4712
 275   0.0000      -0.049484        -1.3465

MULLIKEN ATOMIC CHARGES
-----------------------
   0 C :   -0.098045
   1 C :    0.301855
   2 F :   -0.192870
   3 C :   -0.033376
   4 C :   -0.009476
   5 C :    0.098260
   6 C :    0.103415
   7 C :   -0.093740
   8 C :    0.047542
   9 C :    0.007722
  10 C :   -0.082153
  11 C :    0.138089
  12 O :   -0.148365
  13 C :   -0.156540
  14 C :    0.276727
  15 C :   -0.325399
  16 C :   -0.225053
  17 N :    0.164613
  18 C :   -0.178012
  19 N :    0.144023
  20 C :    0.115908
  21 C :   -0.202763
  22 S :    0.162808
  23 C :   -0.154135
  24 C :    0.037300
  25 C :    0.212768
  26 O :   -0.199340
  27 C :    0.196812
  28 N :   -0.071669
  29 C :    0.134035
  30 C :   -0.101512
  31 C :    0.052667
  32 C :   -0.013865
  33 C :   -0.055256
  34 C :    0.152044
  35 N :   -0.226515
  36 C :    0.138775
  37 N :   -0.219347
  38 C :    0.103731
  39 C :   -0.138858
  40 C :    0.129697
  41 C :   -0.042600
  42 C :    0.022211
  43 C :    0.015231
  44 C :    0.032351
  45 C :   -0.000359
  46 C :   -0.043745
  47 C :   -0.055314
  48 C :    0.088800
  49 C :   -0.179993
  50 S :    0.180246
  51 C :   -0.218875
  52 C :    0.052756
  53 C :    0.190664
  54 O :   -0.194253
  55 C :    0.212638
  56 N :   -0.072507
  57 C :    0.094524
  58 C :   -0.144692
  59 C :    0.135702
  60 O :   -0.145272
  61 C :    0.006888
  62 C :   -0.079776
  63 C :    0.098775
  64 C :    0.103774
  65 C :   -0.098070
  66 C :    0.303550
  67 C :   -0.034458
  68 C :   -0.008410
  69 F :   -0.191556
  70 C :   -0.091191
  71 C :    0.044776
  72 C :    0.293807
  73 C :   -0.306369
  74 C :   -0.213755
  75 N :    0.163282
  76 C :   -0.185154
  77 N :    0.149992
  78 H :   -0.004214
  79 H :    0.001920
  80 H :   -0.011157
  81 H :   -0.009155
  82 H :   -0.014330
  83 H :    0.014929
  84 H :    0.045133
  85 H :   -0.006757
  86 H :   -0.033952
  87 H :   -0.013613
  88 H :   -0.006910
  89 H :    0.082148
  90 H :    0.080846
  91 H :   -0.003759
  92 H :   -0.000088
  93 H :    0.102491
  94 H :    0.100002
  95 H :    0.005796
  96 H :    0.046820
  97 H :   -0.010318
  98 H :   -0.032297
  99 H :   -0.032533
 100 H :   -0.015022
 101 H :    0.023216
 102 H :   -0.017941
 103 H :    0.047807
 104 H :    0.016085
 105 H :   -0.013212
 106 H :   -0.003481
 107 H :    0.003124
 108 H :   -0.010932
 109 H :   -0.006767
Sum of atomic charges:   -0.0000000

LOEWDIN ATOMIC CHARGES
----------------------
   0 C :   -0.043845
   1 C :    0.092042
   2 F :   -0.067319
   3 C :   -0.040210
   4 C :    0.003982
   5 C :   -0.020706
   6 C :    0.003060
   7 C :    0.005391
   8 C :   -0.014112
   9 C :   -0.059239
  10 C :    0.032258
  11 C :    0.081343
  12 O :   -0.151589
  13 C :   -0.102784
  14 C :    0.062523
  15 C :   -0.144300
  16 C :   -0.023667
  17 N :   -0.056934
  18 C :   -0.019317
  19 N :   -0.062558
  20 C :    0.045554
  21 C :   -0.209308
  22 S :    0.477579
  23 C :   -0.126062
  24 C :   -0.067253
  25 C :    0.026554
  26 O :    0.010552
  27 C :    0.104206
  28 N :   -0.089064
  29 C :   -0.053812
  30 C :    0.021859
  31 C :   -0.024522
  32 C :   -0.009075
  33 C :   -0.041609
  34 C :    0.032284
  35 N :   -0.131651
  36 C :    0.028637
  37 N :   -0.100818
  38 C :   -0.016605
  39 C :    0.070600
  40 C :   -0.029341
  41 C :   -0.036088
  42 C :   -0.012312
  43 C :   -0.038896
  44 C :   -0.026967
  45 C :   -0.003879
  46 C :   -0.033884
  47 C :    0.016120
  48 C :   -0.053968
  49 C :   -0.169869
  50 S :    0.483546
  51 C :   -0.194448
  52 C :   -0.037615
  53 C :   -0.002548
  54 O :    0.000619
  55 C :    0.120548
  56 N :   -0.093139
  57 C :    0.042323
  58 C :   -0.087093
  59 C :    0.082470
  60 O :   -0.147263
  61 C :   -0.060640
  62 C :    0.033879
  63 C :   -0.020401
  64 C :    0.004018
  65 C :   -0.043454
  66 C :    0.092645
  67 C :   -0.039457
  68 C :    0.004514
  69 F :   -0.065878
  70 C :    0.007650
  71 C :   -0.012483
  72 C :    0.067991
  73 C :   -0.126358
  74 C :   -0.016622
  75 N :   -0.059776
  76 C :   -0.015669
  77 N :   -0.058649
  78 H :    0.042227
  79 H :    0.040966
  80 H :    0.034926
  81 H :    0.037796
  82 H :    0.038617
  83 H :    0.046023
  84 H :    0.032496
  85 H :    0.028379
  86 H :    0.021368
  87 H :    0.001553
  88 H :    0.015048
  89 H :    0.034937
  90 H :    0.049176
  91 H :    0.003458
  92 H :    0.020262
  93 H :    0.057033
  94 H :    0.059111
  95 H :    0.035013
  96 H :    0.063056
  97 H :    0.025666
  98 H :    0.031004
  99 H :    0.029408
 100 H :    0.020715
 101 H :    0.032232
 102 H :    0.031142
 103 H :    0.034323
 104 H :    0.045904
 105 H :    0.038952
 106 H :    0.042521
 107 H :    0.041386
 108 H :    0.035114
 109 H :    0.038497

  Mayer bond orders larger than 0.100000
B(  0-C ,  1-C ) :   1.4402 B(  0-C ,  6-C ) :   1.2036 B(  0-C , 78-H ) :   1.0054
B(  1-C ,  2-F ) :   1.0864 B(  1-C ,  3-C ) :   1.2586 B(  3-C ,  4-C ) :   1.4578
B(  3-C , 79-H ) :   0.9929 B(  4-C ,  5-C ) :   1.2387 B(  4-C , 80-H ) :   0.9957
B(  5-C ,  6-C ) :   1.2607 B(  5-C , 10-C ) :   1.1854 B(  6-C ,  7-C ) :   1.1982
B(  7-C ,  8-C ) :   1.4694 B(  7-C , 81-H ) :   0.9935 B(  8-C ,  9-C ) :   1.2187
B(  8-C , 14-C ) :   0.9936 B(  9-C , 10-C ) :   1.4787 B(  9-C , 11-C ) :   0.9165
B( 10-C , 82-H ) :   1.0141 B( 11-C , 12-O ) :   2.2675 B( 11-C , 13-C ) :   0.9516
B( 13-C , 14-C ) :   1.0840 B( 13-C , 20-C ) :   1.5767 B( 14-C , 15-C ) :   1.6182
B( 15-C , 16-C ) :   1.1690 B( 15-C , 18-C ) :   1.1440 B( 16-C , 17-N ) :   2.9983
B( 18-C , 19-N ) :   2.9791 B( 20-C , 21-C ) :   1.2220 B( 20-C , 83-H ) :   0.9284
B( 21-C , 22-S ) :   1.0698 B( 21-C , 23-C ) :   0.1020 B( 21-C , 25-C ) :   1.3906
B( 22-S , 23-C ) :   1.1618 B( 23-C , 24-C ) :   1.4024 B( 23-C , 29-C ) :   1.1225
B( 24-C , 25-C ) :   1.2897 B( 24-C , 28-N ) :   1.2721 B( 25-C , 26-O ) :   1.1189
B( 26-O , 27-C ) :   1.0970 B( 27-C , 28-N ) :   1.7867 B( 27-C , 84-H ) :   0.9843
B( 29-C , 30-C ) :   1.5170 B( 29-C , 46-C ) :   1.0779 B( 30-C , 31-C ) :   1.1278
B( 30-C , 85-H ) :   0.9791 B( 31-C , 32-C ) :   1.4563 B( 31-C , 44-C ) :   1.1112
B( 32-C , 33-C ) :   1.0280 B( 32-C , 38-C ) :   1.1160 B( 33-C , 34-C ) :   1.0251
B( 33-C , 36-C ) :   1.0401 B( 33-C , 86-H ) :   0.8784 B( 34-C , 35-N ) :   1.1076
B( 34-C , 87-H ) :   0.9275 B( 34-C , 88-H ) :   0.9451 B( 35-N , 89-H ) :   0.9411
B( 35-N , 90-H ) :   0.9668 B( 36-C , 37-N ) :   1.0833 B( 36-C , 91-H ) :   0.9471
B( 36-C , 92-H ) :   0.9331 B( 37-N , 89-H ) :   0.1031 B( 37-N , 93-H ) :   0.9633
B( 37-N , 94-H ) :   0.9666 B( 38-C , 39-C ) :   1.6374 B( 38-C , 43-C ) :   1.0420
B( 39-C , 40-C ) :   0.9589 B( 39-C , 95-H ) :   0.9818 B( 40-C , 41-C ) :   0.9800
B( 40-C , 47-C ) :   0.9629 B( 40-C , 96-H ) :   0.8614 B( 41-C , 42-C ) :   1.7108
B( 41-C , 97-H ) :   0.9777 B( 42-C , 43-C ) :   1.1261 B( 42-C , 98-H ) :   0.9897
B( 43-C , 44-C ) :   1.4523 B( 44-C , 45-C ) :   1.1362 B( 45-C , 46-C ) :   1.6313
B( 45-C , 99-H ) :   0.9914 B( 46-C ,100-H ) :   0.9842 B( 47-C , 48-C ) :   1.7892
B( 47-C ,101-H ) :   0.9686 B( 48-C , 49-C ) :   1.0852 B( 48-C ,102-H ) :   0.9567
B( 49-C , 50-S ) :   1.1440 B( 49-C , 51-C ) :   0.1112 B( 49-C , 53-C ) :   1.4729
B( 50-S , 51-C ) :   1.1055 B( 51-C , 52-C ) :   1.3938 B( 51-C , 57-C ) :   1.1753
B( 52-C , 53-C ) :   1.2638 B( 52-C , 56-N ) :   1.2777 B( 53-C , 54-O ) :   1.1006
B( 54-O , 55-C ) :   1.1383 B( 55-C , 56-N ) :   1.7443 B( 55-C ,103-H ) :   0.9829
B( 57-C , 58-C ) :   1.6405 B( 57-C ,104-H ) :   0.9285 B( 58-C , 59-C ) :   0.9421
B( 58-C , 72-C ) :   1.0546 B( 59-C , 60-O ) :   2.2695 B( 59-C , 61-C ) :   0.9206
B( 61-C , 62-C ) :   1.4722 B( 61-C , 71-C ) :   1.2174 B( 62-C , 63-C ) :   1.1915
B( 62-C ,105-H ) :   1.0147 B( 63-C , 64-C ) :   1.2575 B( 63-C , 68-C ) :   1.2344
B( 64-C , 65-C ) :   1.2032 B( 64-C , 70-C ) :   1.2000 B( 65-C , 66-C ) :   1.4405
B( 65-C ,106-H ) :   1.0065 B( 66-C , 67-C ) :   1.2562 B( 66-C , 69-F ) :   1.0875
B( 67-C , 68-C ) :   1.4609 B( 67-C ,107-H ) :   0.9926 B( 68-C ,108-H ) :   0.9967
B( 70-C , 71-C ) :   1.4663 B( 70-C ,109-H ) :   0.9946 B( 71-C , 72-C ) :   0.9976
B( 72-C , 73-C ) :   1.6488 B( 73-C , 74-C ) :   1.1669 B( 73-C , 76-C ) :   1.1436
B( 74-C , 75-N ) :   3.0005 B( 76-C , 77-N ) :   2.9865

-----------------------------------------------------------------------------
         ABSORPTION SPECTRUM VIA TRANSITION ELECTRIC DIPOLE MOMENTS
-----------------------------------------------------------------------------
State   Energy  Wavelength   fosc         T2         TX        TY        TZ
        (cm-1)    (nm)                  (au**2)     (au)      (au)      (au)
-----------------------------------------------------------------------------
   0   13051.7    766.2   0.195746194   4.93743  -0.55453  -0.62628   2.05857
   1   17615.6    567.7   0.033471800   0.62554   0.44716  -0.49300  -0.42725
   2   18040.8    554.3   1.164082361  21.24238   1.09061  -1.50055   4.21916
   3   21684.0    461.2   0.954035552  14.48440  -0.75834  -0.07322   3.72880
   4   22146.0    451.5   0.237992337   3.53788   1.10065  -1.47325   0.39495
   5   24497.6    408.2   0.011471341   0.15416   0.38670   0.00822   0.06747
   6   25578.9    390.9   0.262321407   3.37620   0.09007  -0.46649   1.77496
   7   26312.0    380.1   0.028734728   0.35952   0.12260   0.13411   0.57141
   8   27346.1    365.7   0.041357915   0.49790  -0.12693   0.16505  -0.67420
   9   27742.1    360.5   0.147440379   1.74966  -0.00103   0.00700   1.32273
  10   27795.3    359.8   0.034867614   0.41298   0.16215   0.05768   0.61916
  11   27861.7    358.9   0.065651083   0.77573   0.46542  -0.27875   0.69384
  12   28580.5    349.9   0.009485068   0.10926   0.19781  -0.25553   0.06951
  13   28651.7    349.0   0.283837534   3.26134   0.11015   0.16797  -1.79471
  14   29401.4    340.1   0.001777608   0.01990   0.00123  -0.13951  -0.02095
  15   29498.3    339.0   0.041337498   0.46134   0.33296  -0.20620   0.55494
  16   29838.3    335.1   0.048750185   0.53787  -0.15509   0.38738  -0.60312
  17   30177.0    331.4   0.059974647   0.65429  -0.05538   0.11757   0.79837
  18   30355.7    329.4   0.004160945   0.04513   0.17857   0.02682   0.11189
  19   30867.7    324.0   0.303579685   3.23776  -0.08970   0.02987  -1.79689
  20   31056.4    322.0   0.003629505   0.03847  -0.03029  -0.02335  -0.19239
  21   32074.9    311.8   0.019308972   0.19818   0.42419   0.07666  -0.11122
  22   32536.6    307.3   0.416564239   4.21489  -0.44936  -0.00634  -2.00323
  23   32623.4    306.5   0.166846726   1.68370  -0.21752   0.02595  -1.27895
  24   32814.9    304.7   0.140851993   1.41308   0.17650  -0.28639  -1.14014
  25   32921.0    303.8   0.112533337   1.12534   0.05441  -0.65406   0.83341
  26   33304.3    300.3   0.234503118   2.31806  -0.26404  -0.35978  -1.45564
  27   33388.0    299.5   0.137219909   1.35301   0.27671   0.38007   1.06395
  28   34064.2    293.6   0.112173508   1.08409   0.67502   0.59497   0.52389
  29   34391.9    290.8   0.203218822   1.94528   0.71794   0.14608   1.18681
  30   34528.0    289.6   0.019296890   0.18399  -0.31880  -0.22293  -0.18072
  31   34763.0    287.7   0.035091083   0.33232  -0.05263   0.53140   0.21717
  32   35245.8    283.7   0.221568012   2.06955  -0.23386  -0.32381  -1.38203
  33   35814.0    279.2   0.027388380   0.25176  -0.30294  -0.17945  -0.35747
  34   36031.2    277.5   0.099744336   0.91135  -0.16408   0.14381  -0.92938
  35   36638.4    272.9   0.001622199   0.01458   0.06665   0.02309   0.09798
  36   36666.5    272.7   0.043096009   0.38694  -0.27748   0.23605  -0.50421
  37   36806.0    271.7   0.003789519   0.03390   0.01152   0.18346  -0.01025
  38   37114.8    269.4   0.043908291   0.38947   0.01291  -0.61950   0.07430
  39   37322.8    267.9   0.011634793   0.10263  -0.17878   0.26469  -0.02461
  40   37492.7    266.7   0.118397345   1.03961  -0.53376   0.09210  -0.86384
  41   38091.8    262.5   0.007238270   0.06256  -0.05041   0.24321  -0.02942
  42   38313.7    261.0   0.219954897   1.88997   0.55977  -1.05439  -0.68183
  43   38481.1    259.9   0.274249932   2.34625  -0.37129  -0.38145   1.43628
  44   38552.9    259.4   0.001519002   0.01297   0.02529  -0.09217   0.06193
  45   38933.7    256.8   0.031502330   0.26637   0.23482  -0.04128  -0.45775
  46   39412.9    253.7   0.027015833   0.22566  -0.07887  -0.40677   0.23233
  47   39510.4    253.1   0.012153244   0.10126  -0.04200  -0.31542   0.00346
  48   39921.5    250.5   0.025376031   0.20926  -0.25368   0.08766   0.37044
  49   40104.2    249.4   0.034134229   0.28021  -0.06572   0.49839   0.16580

FINAL SINGLE POINT ENERGY     -4112.290988653278

DIPOLE MOMENT
-------------
                                X             Y             Z
Electronic contribution:     -5.67873     -17.33446      -6.28007
Nuclear contribution   :      3.96277      19.35246       5.63978
                        -----------------------------------------
Total Dipole Moment    :     -1.71596       2.01799      -0.64029
                        -----------------------------------------
Magnitude (a.u.)       :      2.72521
Magnitude (Debye)      :      6.92694

Rotational constants in cm-1:     0.002568     0.000157     0.000154
Rotational constants in MHz :    76.976501     4.702314     4.612327

                             ****ORCA TERMINATED NORMALLY****
TOTAL RUN TIME: 0 days 0 hours 11 minutes 58 seconds 139 msec
