                         Program Version 4.2.0 -  RELEASE  -
|  1> # ORCA input file
|  2> # SCF done       -194.831563474213          0.000549127780
|  3> ! CAM-B3LYP def2-SVP def2/J RIJCOSX Grid4 TightSCF
|  4> %maxcore 5000
|  5> %tddft
|  6>     Mode sTDDFT
|  7>     Ethresh 5.0
|  8>     maxcore 5000
|  9> end
| 10>
| 11> %pal
| 12>   nprocs 6
| 13>   end
| 14> * xyz 0 1
| 15>    C       -9.37296        -9.28713        -4.14733
| 16>    C      -10.03935       -10.25881        -4.87780
| 17>    C      -10.95033       -11.08145        -4.21433
| 18>    C      -11.64668       -12.07654        -4.94592
| 19>    N      -12.20774       -12.87253        -5.54715
| 20>    C      -11.19824       -10.93783        -2.83470
| 21>    C      -12.13675       -11.78353        -2.19418
| 22>    N      -12.90199       -12.45003        -1.66441
| 23>    C      -10.53102        -9.95631        -2.10388
| 24>    C       -9.62926        -9.15146        -2.76962
| 25>    C       -8.80808        -8.06507        -2.21108
| 26>    O       -8.86966        -7.62263        -1.08681
| 27>    C       -7.98283        -7.55731        -3.34961
| 28>    C       -8.36675        -8.30548        -4.54454
| 29>    C       -7.83606        -8.17485        -5.79583
| 30>    C       -8.23512        -8.94465        -6.91359
| 31>    N       -8.51898        -9.52832        -7.85854
| 32>    C       -6.81092        -7.27272        -6.16239
| 33>    N       -5.97269        -6.58208        -6.53176
| 34>    C       -7.12753        -6.50709        -3.30147
| 35>    C       -6.58012        -5.89811        -2.11261
| 36>    C       -6.27685        -4.57558        -2.06681
| 37>    C       -5.70038        -3.94014        -0.93057
| 38>    C       -5.42616        -2.56854        -0.95305
| 39>    C       -4.84721        -1.91281         0.14381
| 40>    N       -4.37590        -1.38016         1.04678
| 41>    C       -5.70967        -1.76718        -2.06872
| 42>    N       -5.94840        -1.11196        -2.98196
| 43>    C       -5.39645        -4.68134         0.24002
| 44>    C       -5.58785        -6.02180         0.42554
| 45>    S       -6.25771        -7.04125        -0.82162
| 46>    C       -5.27342        -6.65405         1.68675
| 47>    C       -5.61931        -8.00358         1.91355
| 48>    C       -5.40620        -8.69441         3.15927
| 49>    N       -5.90299        -9.93381         3.30965
| 50>    C       -6.53152       -10.51779         2.32242
| 51>    C       -6.64693        -9.87464         1.04734
| 52>    N       -6.18642        -8.65851         0.89625
| 53>    C       -7.28256       -10.48584        -0.06058
| 54>    N       -7.82538       -10.95809        -0.95215
| 55>    C       -7.10911       -11.79893         2.52428
| 56>    N       -7.59985       -12.82579         2.64195
| 57>    C       -4.73843        -8.06122         4.22932
| 58>    C       -4.41433        -6.70866         4.02410
| 59>    C       -4.66798        -6.00599         2.78310
| 60>    N       -4.24700        -4.74006         2.86039
| 61>    S       -3.62021        -4.45689         4.30211
| 62>    N       -3.83021        -5.91549         4.92655
| 63>    C       -4.43053        -8.73150         5.47206
| 64>    C       -4.26071       -10.07912         5.53852
| 65>    C       -4.01423       -10.83168         6.71869
| 66>    C       -3.87007       -12.21563         6.64521
| 67>    C       -3.71265       -12.98413         7.80829
| 68>    N       -3.59822       -13.56971         8.79063
| 69>    C       -3.89393       -12.89622         5.41775
| 70>    N       -3.89231       -13.43010         4.40074
| 71>    C       -3.96345       -10.17948         7.98298
| 72>    C       -4.10027        -8.84387         8.17077
| 73>    S       -4.26863        -7.68613         6.86871
| 74>    C       -4.05510        -8.24693         9.48201
| 75>    C       -4.51391        -8.77953        10.63352
| 76>    C       -4.07559        -8.19496        11.94229
| 77>    O       -3.55573        -7.12271        12.11185
| 78>    C       -4.36794        -9.24461        12.94108
| 79>    C       -4.03076        -9.27389        14.27886
| 80>    C       -4.38524       -10.40079        15.02143
| 81>    C       -5.05552       -11.47618        14.40477
| 82>    C       -5.40024       -11.43450        13.05322
| 83>    C       -5.06310       -10.30584        12.32475
| 84>    C       -5.31688        -9.96017        10.92758
| 85>    C       -6.30842       -10.49065        10.15399
| 86>    C       -6.66995        -9.98843         8.88467
| 87>    N       -7.02160        -9.59116         7.86773
| 88>    C       -7.14850       -11.54834        10.57307
| 89>    N       -7.85542       -12.39746        10.87659
| 90>    C       -5.38438       -12.62062        15.17518
| 91>    N       -5.65059       -13.54514        15.79463
| 92>    C       -4.06380       -10.46701        16.39972
| 93>    N       -3.79668       -10.50061        17.51224
| 94>    H       -9.87989       -10.39949        -5.93492
| 95>    H      -10.70788        -9.83265        -1.04676
| 96>    H       -6.77095        -6.07927        -4.23054
| 97>    H       -6.51256        -3.95389        -2.92172
| 98>    H       -4.97716        -4.12613         1.06894
| 99>    H       -4.33334       -10.64255         4.61950
|100>    H       -3.78578       -10.80391         8.84972
|101>    H       -3.56840        -7.28033         9.56148
|102>    H       -3.50706        -8.44866        14.73703
|103>    H       -5.90220       -12.27865        12.60703
|104> *
|105>
|106>                          ****END OF INPUT****

CARTESIAN COORDINATES (ANGSTROEM)
---------------------------------
  C     -9.372960   -9.287130   -4.147330
  C    -10.039350  -10.258810   -4.877800
  C    -10.950330  -11.081450   -4.214330
  C    -11.646680  -12.076540   -4.945920
  N    -12.207740  -12.872530   -5.547150
  C    -11.198240  -10.937830   -2.834700
  C    -12.136750  -11.783530   -2.194180
  N    -12.901990  -12.450030   -1.664410
  C    -10.531020   -9.956310   -2.103880
  C     -9.629260   -9.151460   -2.769620
  C     -8.808080   -8.065070   -2.211080
  O     -8.869660   -7.622630   -1.086810
  C     -7.982830   -7.557310   -3.349610
  C     -8.366750   -8.305480   -4.544540
  C     -7.836060   -8.174850   -5.795830
  C     -8.235120   -8.944650   -6.913590
  N     -8.518980   -9.528320   -7.858540
  C     -6.810920   -7.272720   -6.162390
  N     -5.972690   -6.582080   -6.531760
  C     -7.127530   -6.507090   -3.301470
  C     -6.580120   -5.898110   -2.112610
  C     -6.276850   -4.575580   -2.066810
  C     -5.700380   -3.940140   -0.930570
  C     -5.426160   -2.568540   -0.953050
  C     -4.847210   -1.912810    0.143810
  N     -4.375900   -1.380160    1.046780
  C     -5.709670   -1.767180   -2.068720
  N     -5.948400   -1.111960   -2.981960
  C     -5.396450   -4.681340    0.240020
  C     -5.587850   -6.021800    0.425540
  S     -6.257710   -7.041250   -0.821620
  C     -5.273420   -6.654050    1.686750
  C     -5.619310   -8.003580    1.913550
  C     -5.406200   -8.694410    3.159270
  N     -5.902990   -9.933810    3.309650
  C     -6.531520  -10.517790    2.322420
  C     -6.646930   -9.874640    1.047340
  N     -6.186420   -8.658510    0.896250
  C     -7.282560  -10.485840   -0.060580
  N     -7.825380  -10.958090   -0.952150
  C     -7.109110  -11.798930    2.524280
  N     -7.599850  -12.825790    2.641950
  C     -4.738430   -8.061220    4.229320
  C     -4.414330   -6.708660    4.024100
  C     -4.667980   -6.005990    2.783100
  N     -4.247000   -4.740060    2.860390
  S     -3.620210   -4.456890    4.302110
  N     -3.830210   -5.915490    4.926550
  C     -4.430530   -8.731500    5.472060
  C     -4.260710  -10.079120    5.538520
  C     -4.014230  -10.831680    6.718690
  C     -3.870070  -12.215630    6.645210
  C     -3.712650  -12.984130    7.808290
  N     -3.598220  -13.569710    8.790630
  C     -3.893930  -12.896220    5.417750
  N     -3.892310  -13.430100    4.400740
  C     -3.963450  -10.179480    7.982980
  C     -4.100270   -8.843870    8.170770
  S     -4.268630   -7.686130    6.868710
  C     -4.055100   -8.246930    9.482010
  C     -4.513910   -8.779530   10.633520
  C     -4.075590   -8.194960   11.942290
  O     -3.555730   -7.122710   12.111850
  C     -4.367940   -9.244610   12.941080
  C     -4.030760   -9.273890   14.278860
  C     -4.385240  -10.400790   15.021430
  C     -5.055520  -11.476180   14.404770
  C     -5.400240  -11.434500   13.053220
  C     -5.063100  -10.305840   12.324750
  C     -5.316880   -9.960170   10.927580
  C     -6.308420  -10.490650   10.153990
  C     -6.669950   -9.988430    8.884670
  N     -7.021600   -9.591160    7.867730
  C     -7.148500  -11.548340   10.573070
  N     -7.855420  -12.397460   10.876590
  C     -5.384380  -12.620620   15.175180
  N     -5.650590  -13.545140   15.794630
  C     -4.063800  -10.467010   16.399720
  N     -3.796680  -10.500610   17.512240
  H     -9.879890  -10.399490   -5.934920
  H    -10.707880   -9.832650   -1.046760
  H     -6.770950   -6.079270   -4.230540
  H     -6.512560   -3.953890   -2.921720
  H     -4.977160   -4.126130    1.068940
  H     -4.333340  -10.642550    4.619500
  H     -3.785780  -10.803910    8.849720
  H     -3.568400   -7.280330    9.561480
  H     -3.507060   -8.448660   14.737030
  H     -5.902200  -12.278650   12.607030

 Total Charge           Charge          ....    0
 Multiplicity           Mult            ....    1
 Number of Electrons    NEL             ....  536
 Basis Dimension        Dim             .... 1168

ORBITAL ENERGIES
----------------

  NO   OCC          E(Eh)            E(eV)
   0   2.0000     -89.095375     -2424.4084
   1   2.0000     -89.011956     -2422.1385
   2   2.0000     -89.000392     -2421.8238
   3   2.0000     -19.266180      -524.2594
   4   2.0000     -19.260706      -524.1105
   5   2.0000     -14.508909      -394.8075
   6   2.0000     -14.503178      -394.6515
   7   2.0000     -14.500263      -394.5722
   8   2.0000     -14.498605      -394.5271
   9   2.0000     -14.474551      -393.8726
  10   2.0000     -14.459648      -393.4670
  11   2.0000     -14.458801      -393.4440
  12   2.0000     -14.453281      -393.2938
  13   2.0000     -14.453002      -393.2862
  14   2.0000     -14.449840      -393.2001
  15   2.0000     -14.443211      -393.0197
  16   2.0000     -14.441839      -392.9824
  17   2.0000     -14.436413      -392.8348
  18   2.0000     -14.436134      -392.8272
  19   2.0000     -14.428391      -392.6165
  20   2.0000     -14.425998      -392.5514
  21   2.0000     -14.424262      -392.5041
  22   2.0000     -14.422310      -392.4510
  23   2.0000     -10.428797      -283.7820
  24   2.0000     -10.426226      -283.7120
  25   2.0000     -10.416762      -283.4545
  26   2.0000     -10.411785      -283.3191
  27   2.0000     -10.399828      -282.9937
  28   2.0000     -10.398175      -282.9487
  29   2.0000     -10.394479      -282.8482
  30   2.0000     -10.394223      -282.8412
  31   2.0000     -10.393597      -282.8242
  32   2.0000     -10.388062      -282.6735
  33   2.0000     -10.387901      -282.6692
  34   2.0000     -10.382020      -282.5091
  35   2.0000     -10.380975      -282.4807
  36   2.0000     -10.379333      -282.4360
  37   2.0000     -10.378169      -282.4043
  38   2.0000     -10.377990      -282.3995
  39   2.0000     -10.376306      -282.3536
  40   2.0000     -10.374419      -282.3023
  41   2.0000     -10.373286      -282.2715
  42   2.0000     -10.371500      -282.2229
  43   2.0000     -10.370125      -282.1854
  44   2.0000     -10.368929      -282.1529
  45   2.0000     -10.366815      -282.0954
  46   2.0000     -10.362794      -281.9860
  47   2.0000     -10.362486      -281.9776
  48   2.0000     -10.362004      -281.9645
  49   2.0000     -10.361541      -281.9519
  50   2.0000     -10.358797      -281.8772
  51   2.0000     -10.357681      -281.8468
  52   2.0000     -10.354408      -281.7578
  53   2.0000     -10.354372      -281.7568
  54   2.0000     -10.353713      -281.7388
  55   2.0000     -10.353574      -281.7351
  56   2.0000     -10.353415      -281.7308
  57   2.0000     -10.353153      -281.7236
  58   2.0000     -10.352791      -281.7138
  59   2.0000     -10.350636      -281.6551
  60   2.0000     -10.350348      -281.6473
  61   2.0000     -10.350020      -281.6384
  62   2.0000     -10.348390      -281.5940
  63   2.0000     -10.348045      -281.5846
  64   2.0000     -10.345951      -281.5276
  65   2.0000     -10.345816      -281.5240
  66   2.0000     -10.341816      -281.4151
  67   2.0000     -10.339952      -281.3644
  68   2.0000     -10.339144      -281.3424
  69   2.0000     -10.338574      -281.3269
  70   2.0000     -10.337315      -281.2927
  71   2.0000     -10.337198      -281.2895
  72   2.0000     -10.332997      -281.1752
  73   2.0000     -10.332460      -281.1605
  74   2.0000     -10.331980      -281.1475
  75   2.0000     -10.330696      -281.1125
  76   2.0000     -10.328034      -281.0401
  77   2.0000     -10.326522      -280.9989
  78   2.0000     -10.323895      -280.9275
  79   2.0000      -8.185863      -222.7487
  80   2.0000      -8.106591      -220.5916
  81   2.0000      -8.093872      -220.2455
  82   2.0000      -6.156800      -167.5350
  83   2.0000      -6.149138      -167.3265
  84   2.0000      -6.148868      -167.3192
  85   2.0000      -6.076442      -165.3484
  86   2.0000      -6.071777      -165.2214
  87   2.0000      -6.067786      -165.1128
  88   2.0000      -6.063877      -165.0065
  89   2.0000      -6.058745      -164.8668
  90   2.0000      -6.055009      -164.7652
  91   2.0000      -1.191201       -32.4142
  92   2.0000      -1.182615       -32.1806
  93   2.0000      -1.177297       -32.0359
  94   2.0000      -1.169468       -31.8229
  95   2.0000      -1.096005       -29.8238
  96   2.0000      -1.067275       -29.0420
  97   2.0000      -1.059584       -28.8327
  98   2.0000      -1.057680       -28.7809
  99   2.0000      -1.052817       -28.6486
 100   2.0000      -1.049464       -28.5574
 101   2.0000      -1.043912       -28.4063
 102   2.0000      -1.042581       -28.3701
 103   2.0000      -1.036707       -28.2102
 104   2.0000      -1.034114       -28.1397
 105   2.0000      -1.032976       -28.1087
 106   2.0000      -1.030189       -28.0329
 107   2.0000      -1.028835       -27.9960
 108   2.0000      -1.025727       -27.9115
 109   2.0000      -1.024122       -27.8678
 110   2.0000      -1.021472       -27.7957
 111   2.0000      -1.016439       -27.6587
 112   2.0000      -1.015369       -27.6296
 113   2.0000      -1.010509       -27.4974
 114   2.0000      -1.005659       -27.3654
 115   2.0000      -1.001111       -27.2416
 116   2.0000      -0.999939       -27.2097
 117   2.0000      -0.993330       -27.0299
 118   2.0000      -0.971268       -26.4295
 119   2.0000      -0.965292       -26.2669
 120   2.0000      -0.960983       -26.1497
 121   2.0000      -0.954699       -25.9787
 122   2.0000      -0.950849       -25.8739
 123   2.0000      -0.947007       -25.7694
 124   2.0000      -0.943990       -25.6873
 125   2.0000      -0.924657       -25.1612
 126   2.0000      -0.919841       -25.0301
 127   2.0000      -0.916763       -24.9464
 128   2.0000      -0.905911       -24.6511
 129   2.0000      -0.893080       -24.3020
 130   2.0000      -0.881087       -23.9756
 131   2.0000      -0.877535       -23.8789
 132   2.0000      -0.873275       -23.7630
 133   2.0000      -0.853301       -23.2195
 134   2.0000      -0.851339       -23.1661
 135   2.0000      -0.841705       -22.9040
 136   2.0000      -0.831605       -22.6291
 137   2.0000      -0.825563       -22.4647
 138   2.0000      -0.813396       -22.1336
 139   2.0000      -0.786931       -21.4135
 140   2.0000      -0.784487       -21.3470
 141   2.0000      -0.781352       -21.2617
 142   2.0000      -0.777515       -21.1573
 143   2.0000      -0.771393       -20.9907
 144   2.0000      -0.766347       -20.8534
 145   2.0000      -0.750161       -20.4129
 146   2.0000      -0.741243       -20.1703
 147   2.0000      -0.738369       -20.0920
 148   2.0000      -0.733171       -19.9506
 149   2.0000      -0.731894       -19.9159
 150   2.0000      -0.721451       -19.6317
 151   2.0000      -0.717959       -19.5367
 152   2.0000      -0.707092       -19.2410
 153   2.0000      -0.704034       -19.1577
 154   2.0000      -0.700117       -19.0512
 155   2.0000      -0.688358       -18.7312
 156   2.0000      -0.682613       -18.5748
 157   2.0000      -0.679268       -18.4838
 158   2.0000      -0.677768       -18.4430
 159   2.0000      -0.676084       -18.3972
 160   2.0000      -0.667981       -18.1767
 161   2.0000      -0.657950       -17.9037
 162   2.0000      -0.651850       -17.7378
 163   2.0000      -0.645473       -17.5642
 164   2.0000      -0.642848       -17.4928
 165   2.0000      -0.636134       -17.3101
 166   2.0000      -0.627428       -17.0732
 167   2.0000      -0.624280       -16.9875
 168   2.0000      -0.621563       -16.9136
 169   2.0000      -0.618900       -16.8411
 170   2.0000      -0.614232       -16.7141
 171   2.0000      -0.610697       -16.6179
 172   2.0000      -0.606126       -16.4935
 173   2.0000      -0.603816       -16.4307
 174   2.0000      -0.594631       -16.1807
 175   2.0000      -0.589058       -16.0291
 176   2.0000      -0.587383       -15.9835
 177   2.0000      -0.584547       -15.9063
 178   2.0000      -0.581553       -15.8249
 179   2.0000      -0.581499       -15.8234
 180   2.0000      -0.576367       -15.6837
 181   2.0000      -0.576086       -15.6761
 182   2.0000      -0.571653       -15.5555
 183   2.0000      -0.566973       -15.4281
 184   2.0000      -0.563783       -15.3413
 185   2.0000      -0.560388       -15.2489
 186   2.0000      -0.556545       -15.1444
 187   2.0000      -0.555156       -15.1066
 188   2.0000      -0.552954       -15.0466
 189   2.0000      -0.545070       -14.8321
 190   2.0000      -0.542380       -14.7589
 191   2.0000      -0.539005       -14.6671
 192   2.0000      -0.535300       -14.5663
 193   2.0000      -0.534172       -14.5356
 194   2.0000      -0.532320       -14.4852
 195   2.0000      -0.531357       -14.4590
 196   2.0000      -0.529127       -14.3983
 197   2.0000      -0.525362       -14.2958
 198   2.0000      -0.522240       -14.2109
 199   2.0000      -0.514193       -13.9919
 200   2.0000      -0.511947       -13.9308
 201   2.0000      -0.508192       -13.8286
 202   2.0000      -0.506817       -13.7912
 203   2.0000      -0.504979       -13.7412
 204   2.0000      -0.501401       -13.6438
 205   2.0000      -0.496046       -13.4981
 206   2.0000      -0.494996       -13.4695
 207   2.0000      -0.489469       -13.3191
 208   2.0000      -0.488870       -13.3028
 209   2.0000      -0.486050       -13.2261
 210   2.0000      -0.481656       -13.1065
 211   2.0000      -0.480933       -13.0869
 212   2.0000      -0.479788       -13.0557
 213   2.0000      -0.478359       -13.0168
 214   2.0000      -0.476203       -12.9581
 215   2.0000      -0.475311       -12.9339
 216   2.0000      -0.471918       -12.8415
 217   2.0000      -0.470928       -12.8146
 218   2.0000      -0.468713       -12.7543
 219   2.0000      -0.467595       -12.7239
 220   2.0000      -0.465829       -12.6759
 221   2.0000      -0.464703       -12.6452
 222   2.0000      -0.464399       -12.6369
 223   2.0000      -0.463463       -12.6115
 224   2.0000      -0.462853       -12.5949
 225   2.0000      -0.461697       -12.5634
 226   2.0000      -0.460673       -12.5355
 227   2.0000      -0.460257       -12.5242
 228   2.0000      -0.459756       -12.5106
 229   2.0000      -0.459270       -12.4974
 230   2.0000      -0.457795       -12.4572
 231   2.0000      -0.457304       -12.4439
 232   2.0000      -0.455771       -12.4022
 233   2.0000      -0.451879       -12.2963
 234   2.0000      -0.451257       -12.2793
 235   2.0000      -0.449954       -12.2439
 236   2.0000      -0.447067       -12.1653
 237   2.0000      -0.445632       -12.1263
 238   2.0000      -0.444129       -12.0854
 239   2.0000      -0.442872       -12.0512
 240   2.0000      -0.441769       -12.0211
 241   2.0000      -0.441412       -12.0114
 242   2.0000      -0.440135       -11.9767
 243   2.0000      -0.439164       -11.9503
 244   2.0000      -0.438575       -11.9342
 245   2.0000      -0.436022       -11.8648
 246   2.0000      -0.435141       -11.8408
 247   2.0000      -0.430824       -11.7233
 248   2.0000      -0.424994       -11.5647
 249   2.0000      -0.421855       -11.4792
 250   2.0000      -0.420256       -11.4357
 251   2.0000      -0.416542       -11.3347
 252   2.0000      -0.415611       -11.3094
 253   2.0000      -0.411787       -11.2053
 254   2.0000      -0.407996       -11.1021
 255   2.0000      -0.392400       -10.6777
 256   2.0000      -0.389101       -10.5880
 257   2.0000      -0.388151       -10.5621
 258   2.0000      -0.386027       -10.5043
 259   2.0000      -0.381637       -10.3849
 260   2.0000      -0.376711       -10.2508
 261   2.0000      -0.372298       -10.1308
 262   2.0000      -0.363580        -9.8935
 263   2.0000      -0.355270        -9.6674
 264   2.0000      -0.344880        -9.3847
 265   2.0000      -0.336450        -9.1553
 266   2.0000      -0.300714        -8.1829
 267   2.0000      -0.288638        -7.8542
 268   0.0000      -0.175497        -4.7755
 269   0.0000      -0.137626        -3.7450
 270   0.0000      -0.134723        -3.6660
 271   0.0000      -0.117087        -3.1861
 272   0.0000      -0.114494        -3.1155

MULLIKEN ATOMIC CHARGES
-----------------------
   0 C :    0.054947
   1 C :   -0.040878
   2 C :   -0.051728
   3 C :   -0.177709
   4 N :    0.209527
   5 C :   -0.058027
   6 C :   -0.176908
   7 N :    0.204288
   8 C :   -0.004286
   9 C :    0.011684
  10 C :    0.144579
  11 O :   -0.127471
  12 C :   -0.069841
  13 C :    0.296034
  14 C :   -0.310194
  15 C :   -0.185365
  16 N :    0.186088
  17 C :   -0.196338
  18 N :    0.178008
  19 C :   -0.017720
  20 C :    0.006511
  21 C :   -0.061475
  22 C :    0.287158
  23 C :   -0.334167
  24 C :   -0.148420
  25 N :    0.129324
  26 C :   -0.170308
  27 N :    0.146187
  28 C :   -0.145646
  29 C :   -0.037603
  30 S :    0.196377
  31 C :    0.141443
  32 C :   -0.026262
  33 C :   -0.033949
  34 N :    0.045271
  35 C :   -0.105676
  36 C :   -0.081255
  37 N :   -0.026849
  38 C :   -0.215216
  39 N :    0.243339
  40 C :   -0.220745
  41 N :    0.273795
  42 C :    0.115577
  43 C :    0.001449
  44 C :    0.029129
  45 N :   -0.288505
  46 S :    0.625481
  47 N :   -0.311277
  48 C :   -0.063234
  49 C :   -0.057845
  50 C :    0.244353
  51 C :   -0.306726
  52 C :   -0.165493
  53 N :    0.127882
  54 C :   -0.156524
  55 N :    0.134626
  56 C :   -0.061696
  57 C :   -0.065220
  58 S :    0.193128
  59 C :    0.083003
  60 C :   -0.099202
  61 C :    0.141051
  62 O :   -0.107815
  63 C :    0.011038
  64 C :   -0.029864
  65 C :   -0.064035
  66 C :   -0.059592
  67 C :   -0.022313
  68 C :    0.032150
  69 C :    0.243655
  70 C :   -0.298671
  71 C :   -0.173616
  72 N :    0.183760
  73 C :   -0.179088
  74 N :    0.193913
  75 C :   -0.172180
  76 N :    0.213359
  77 C :   -0.172788
  78 N :    0.206386
  79 H :    0.023395
  80 H :    0.011930
  81 H :    0.053447
  82 H :    0.030111
  83 H :    0.049431
  84 H :    0.036024
  85 H :    0.037781
  86 H :    0.043097
  87 H :    0.023690
  88 H :    0.036312
Sum of atomic charges:   -0.0000000

LOEWDIN ATOMIC CHARGES
----------------------
   0 C :    0.002627
   1 C :    0.036045
   2 C :   -0.016566
   3 C :   -0.031939
   4 N :   -0.003999
   5 C :   -0.020865
   6 C :   -0.031765
   7 N :   -0.006242
   8 C :    0.061470
   9 C :   -0.028557
  10 C :    0.076335
  11 O :   -0.131388
  12 C :   -0.071969
  13 C :    0.066067
  14 C :   -0.103782
  15 C :   -0.021422
  16 N :   -0.017596
  17 C :   -0.023178
  18 N :   -0.019674
  19 C :    0.055638
  20 C :   -0.147073
  21 C :   -0.004130
  22 C :    0.035359
  23 C :   -0.144564
  24 C :   -0.026038
  25 N :   -0.060115
  26 C :   -0.032315
  27 N :   -0.047502
  28 C :   -0.006598
  29 C :   -0.131181
  30 S :    0.520784
  31 C :   -0.021515
  32 C :   -0.001553
  33 C :    0.008025
  34 N :    0.009616
  35 C :   -0.004971
  36 C :   -0.010725
  37 N :   -0.014442
  38 C :   -0.023102
  39 N :   -0.001969
  40 C :   -0.039787
  41 N :    0.029030
  42 C :   -0.026825
  43 C :   -0.040668
  44 C :   -0.028924
  45 N :   -0.265705
  46 S :    0.740802
  47 N :   -0.293607
  48 C :   -0.120161
  49 C :    0.006943
  50 C :    0.040177
  51 C :   -0.146733
  52 C :   -0.027904
  53 N :   -0.058067
  54 C :   -0.027958
  55 N :   -0.051018
  56 C :   -0.014462
  57 C :   -0.143567
  58 S :    0.487313
  59 C :    0.048311
  60 C :   -0.058571
  61 C :    0.087572
  62 O :   -0.108915
  63 C :   -0.035428
  64 C :    0.054184
  65 C :   -0.023551
  66 C :   -0.014935
  67 C :    0.040156
  68 C :    0.005179
  69 C :    0.055487
  70 C :   -0.101063
  71 C :   -0.015182
  72 N :   -0.027958
  73 C :   -0.023680
  74 N :   -0.009624
  75 C :   -0.032251
  76 N :    0.001446
  77 C :   -0.033122
  78 N :   -0.003867
  79 H :    0.053147
  80 H :    0.052483
  81 H :    0.055629
  82 H :    0.050244
  83 H :    0.043395
  84 H :    0.045049
  85 H :    0.045809
  86 H :    0.051684
  87 H :    0.057058
  88 H :    0.057205

  Mayer bond orders larger than 0.100000
B(  0-C ,  1-C ) :   1.3465 B(  0-C ,  9-C ) :   1.3299 B(  0-C , 13-C ) :   0.9754
B(  1-C ,  2-C ) :   1.4046 B(  1-C , 79-H ) :   0.9835 B(  2-C ,  3-C ) :   1.0876
B(  2-C ,  5-C ) :   1.3928 B(  3-C ,  4-N ) :   3.0444 B(  5-C ,  6-C ) :   1.0864
B(  5-C ,  8-C ) :   1.3788 B(  6-C ,  7-N ) :   3.0439 B(  8-C ,  9-C ) :   1.3525
B(  8-C , 80-H ) :   1.0117 B(  9-C , 10-C ) :   0.9346 B( 10-C , 11-O ) :   2.2392
B( 10-C , 12-C ) :   0.9178 B( 12-C , 13-C ) :   1.0424 B( 12-C , 19-C ) :   1.6965
B( 13-C , 14-C ) :   1.6862 B( 14-C , 15-C ) :   1.1419 B( 14-C , 17-C ) :   1.1342
B( 15-C , 16-N ) :   2.9649 B( 17-C , 18-N ) :   2.9709 B( 19-C , 20-C ) :   1.0687
B( 19-C , 81-H ) :   0.9437 B( 20-C , 21-C ) :   1.5785 B( 20-C , 30-S ) :   1.0325
B( 21-C , 22-C ) :   1.1101 B( 21-C , 82-H ) :   0.9779 B( 22-C , 23-C ) :   1.5097
B( 22-C , 28-C ) :   1.1216 B( 23-C , 24-C ) :   1.1396 B( 23-C , 26-C ) :   1.1329
B( 24-C , 25-N ) :   2.9803 B( 26-C , 27-N ) :   2.9947 B( 28-C , 29-C ) :   1.5534
B( 28-C , 83-H ) :   0.9396 B( 29-C , 30-S ) :   1.0994 B( 29-C , 31-C ) :   1.1453
B( 31-C , 32-C ) :   1.2673 B( 31-C , 42-C ) :   0.1245 B( 31-C , 44-C ) :   1.2244
B( 32-C , 33-C ) :   1.1240 B( 32-C , 37-N ) :   1.3637 B( 33-C , 34-N ) :   1.4085
B( 33-C , 42-C ) :   1.3116 B( 34-N , 35-C ) :   1.7326 B( 35-C , 36-C ) :   1.1976
B( 35-C , 40-C ) :   1.1706 B( 36-C , 37-N ) :   1.6854 B( 36-C , 38-C ) :   1.1702
B( 38-C , 39-N ) :   2.9981 B( 40-C , 41-N ) :   3.0379 B( 42-C , 43-C ) :   1.2285
B( 42-C , 48-C ) :   1.0885 B( 43-C , 44-C ) :   1.1084 B( 43-C , 47-N ) :   1.4654
B( 44-C , 45-N ) :   1.4750 B( 45-N , 46-S ) :   1.3020 B( 45-N , 47-N ) :   0.1493
B( 46-S , 47-N ) :   1.2996 B( 48-C , 49-C ) :   1.5897 B( 48-C , 58-S ) :   1.0698
B( 49-C , 50-C ) :   1.1490 B( 49-C , 84-H ) :   0.9490 B( 50-C , 51-C ) :   1.5382
B( 50-C , 56-C ) :   1.1396 B( 51-C , 52-C ) :   1.1321 B( 51-C , 54-C ) :   1.1257
B( 52-C , 53-N ) :   2.9809 B( 54-C , 55-N ) :   2.9799 B( 56-C , 57-C ) :   1.6082
B( 56-C , 85-H ) :   0.9622 B( 57-C , 58-S ) :   1.0511 B( 57-C , 59-C ) :   1.0089
B( 59-C , 60-C ) :   1.7989 B( 59-C , 86-H ) :   0.9248 B( 60-C , 61-C ) :   0.9217
B( 60-C , 69-C ) :   0.9989 B( 61-C , 62-O ) :   2.3010 B( 61-C , 63-C ) :   0.9026
B( 63-C , 64-C ) :   1.3614 B( 63-C , 68-C ) :   1.3309 B( 64-C , 65-C ) :   1.3747
B( 64-C , 87-H ) :   1.0141 B( 65-C , 66-C ) :   1.3958 B( 65-C , 77-C ) :   1.0889
B( 66-C , 67-C ) :   1.3945 B( 66-C , 75-C ) :   1.0870 B( 67-C , 68-C ) :   1.3608
B( 67-C , 88-H ) :   0.9892 B( 68-C , 69-C ) :   0.9810 B( 69-C , 70-C ) :   1.7158
B( 70-C , 71-C ) :   1.1594 B( 70-C , 73-C ) :   1.1249 B( 71-C , 72-N ) :   2.9930
B( 73-C , 74-N ) :   2.9941 B( 75-C , 76-N ) :   3.0424 B( 77-C , 78-N ) :   3.0446

-----------------------------------------------------------------------------
         ABSORPTION SPECTRUM VIA TRANSITION ELECTRIC DIPOLE MOMENTS
-----------------------------------------------------------------------------
State   Energy  Wavelength   fosc         T2         TX        TY        TZ
        (cm-1)    (nm)                  (au**2)     (au)      (au)      (au)
-----------------------------------------------------------------------------
   0    9280.2   1077.6   0.234691653   8.32556  -0.33269   2.17598  -1.86547
   1   11466.7    872.1   0.043802707   1.25758  -0.42298   0.69394  -0.77273
   2   17128.5    583.8   0.139190743   2.67527   0.26107   1.61406  -0.04391
   3   17214.4    580.9   0.022513520   0.43055  -0.60165   0.23387   0.11780
   4   18175.1    550.2   0.253314304   4.58837   0.40772  -0.48479   2.04624
   5   20694.4    483.2   0.024239522   0.38561  -0.27955  -0.37021  -0.41280
   6   22542.5    443.6   0.009798333   0.14310  -0.16329  -0.33831   0.04444
   7   23172.2    431.6   0.030121285   0.42794   0.19725   0.59888  -0.17430
   8   23411.4    427.1   0.020132018   0.28310  -0.02210  -0.00039  -0.53161
   9   24183.1    413.5   0.051970061   0.70749   0.18178  -0.72473  -0.38627
  10   24528.5    407.7   0.004338559   0.05823  -0.03860  -0.00391  -0.23817
  11   25342.0    394.6   0.011926471   0.15493   0.25172  -0.21879  -0.20904
  12   25806.8    387.5   0.007597427   0.09692  -0.08697   0.14257   0.26273
  13   26261.5    380.8   0.109874693   1.37738  -0.50596  -0.57976  -0.88615
  14   26502.8    377.3   0.055525158   0.68972   0.10068   0.80240  -0.18905
  15   26841.4    372.6   0.083526400   1.02446   0.34540  -0.93556   0.17287
  16   27504.9    363.6   0.105629603   1.26430   0.21530  -0.88381   0.66092
  17   27863.9    358.9   0.030669133   0.36236   0.58202   0.04848  -0.14582
  18   28388.9    352.3   0.065041879   0.75426  -0.51831   0.15150  -0.68019
  19   28413.3    351.9   0.080817924   0.93640   0.14554   0.05138   0.95529
  20   28718.3    348.2   0.080346843   0.92106   0.59238   0.61687  -0.43544
  21   28921.9    345.8   0.125121997   1.42424   0.34795   0.82917   0.78463
  22   29184.1    342.7   0.082457792   0.93017   0.33465   0.54249  -0.72380
  23   29415.4    340.0   0.027968242   0.31302   0.36922  -0.32028   0.27223
  24   29676.6    337.0   0.203019599   2.25216   0.20185   1.43173   0.40197
  25   29838.3    335.1   0.194697930   2.14814   0.02400  -1.42283  -0.35086
  26   30046.4    332.8   0.055940204   0.61293   0.03126  -0.28380  -0.72898
  27   30238.6    330.7   0.012456866   0.13562   0.22291   0.01418  -0.29280
  28   30426.4    328.7   0.183626608   1.98683  -0.05492  -0.98735   1.00447
  29   30502.9    327.8   0.140575518   1.51720   0.53741   1.06223   0.31634
  30   30873.3    323.9   0.054789894   0.58424  -0.40939  -0.48822  -0.42224
  31   31473.5    317.7   0.032556160   0.34054   0.36290  -0.28731  -0.35537
  32   31729.1    315.2   0.045594155   0.47307   0.62996  -0.10873   0.25377
  33   31932.2    313.2   0.180991142   1.86597   0.63131   0.78309   0.92422
  34   32263.1    310.0   0.025896857   0.26425   0.33496  -0.17219   0.34986
  35   33119.8    301.9   0.210452904   2.09191   0.74763   0.67298   1.03926
  36   33338.9    299.9   0.127865909   1.26264   0.60084  -0.06508  -0.94731
  37   33450.4    299.0   0.239706990   2.35915  -0.04505   0.05868   1.53417
  38   33580.0    297.8   0.000529771   0.00519  -0.02379  -0.06517  -0.01951
  39   33944.9    294.6   0.086446348   0.83839   0.74089   0.27173  -0.46437
  40   34063.5    293.6   0.275662900   2.66419   0.94169   0.83247   1.04134
  41   34280.3    291.7   0.215951029   2.07389   0.45383   0.74464  -1.14606
  42   34486.7    290.0   0.012142601   0.11591  -0.33393  -0.02750   0.06040
  43   34664.0    288.5   0.005214870   0.04953  -0.07431  -0.05324   0.20290
  44   34753.3    287.7   0.263027591   2.49161   0.10731   1.47442  -0.55334
  45   34813.3    287.2   0.174580363   1.65092   0.13795   0.43812   1.19998
  46   35193.6    284.1   0.515017846   4.81764   0.54934   0.26631  -2.10830
  47   35269.0    283.5   0.312574747   2.91767   1.01507   0.50602   1.27721
  48   35544.1    281.3   0.346703110   3.21119  -0.05336  -1.14338   1.37878
  49   35895.6    278.6   0.237540810   2.17857  -0.45898  -1.30214  -0.52186
  50   36292.0    275.5   0.099885420   0.90608   0.70152   0.58081   0.27677
  51   36508.1    273.9   0.012603654   0.11365  -0.30748  -0.13502  -0.02962
  52   36581.4    273.4   0.114048821   1.02637  -0.36228  -0.87303  -0.36461
  53   36733.4    272.2   0.330223666   2.95953   0.90319   1.37993   0.48947
  54   36882.4    271.1   0.202918176   1.81125   0.73775   1.04277   0.42380
  55   37088.4    269.6   0.089380837   0.79338  -0.57432  -0.67710  -0.07125
  56   37433.4    267.1   0.034476172   0.30320  -0.32352  -0.44557  -0.00221
  57   37596.1    266.0   0.015983730   0.13996   0.26031   0.26866  -0.00508
  58   37828.7    264.3   0.165710725   1.44213   0.55724   0.93905   0.49979
  59   38068.7    262.7   0.038864906   0.33610   0.40672  -0.12008  -0.39530
  60   38344.1    260.8   0.033758467   0.28984   0.29230   0.10805   0.43900
  61   38466.9    260.0   0.285226743   2.44106  -0.57046  -1.36279  -0.50837
  62   38789.1    257.8   0.134962400   1.14546   0.52159   0.76589   0.53555
  63   38921.9    256.9   0.060385217   0.51075   0.46448   0.27471   0.46855
  64   39204.3    255.1   0.023565020   0.19788   0.24519   0.32221   0.18425
  65   39439.4    253.6   0.127179603   1.06161  -0.09650  -0.63964   0.80196
  66   39572.5    252.7   0.036659586   0.30498   0.29409   0.00310   0.46742
  67   39952.3    250.3   0.097484592   0.80329  -0.19751  -0.81938   0.30478
  68   40067.0    249.6   0.061091753   0.50196  -0.14140  -0.64026   0.26840

FINAL SINGLE POINT ENERGY     -4465.646283399833

DIPOLE MOMENT
-------------
                                X             Y             Z
Electronic contribution:      0.53263       0.70713      -1.29858
Nuclear contribution   :      1.70626       3.03151       2.59704
                        -----------------------------------------
Total Dipole Moment    :      2.23889       3.73864       1.29846
                        -----------------------------------------
Magnitude (a.u.)       :      4.54709
Magnitude (Debye)      :     11.55779

Rotational constants in cm-1:     0.001411     0.000342     0.000291
Rotational constants in MHz :    42.310536    10.258918     8.725315

                             ****ORCA TERMINATED NORMALLY****
TOTAL RUN TIME: 0 days 0 hours 9 minutes 56 seconds 51 msec
