                         Program Version 4.2.0 -  RELEASE  -
|  1> # ORCA input file
|  2> # SCF done       -228.774603535293          0.000621373008
|  3> ! CAM-B3LYP def2-SVP def2/J RIJCOSX Grid4 TightSCF
|  4> %maxcore 5000
|  5> %tddft
|  6>     Mode sTDDFT
|  7>     Ethresh 5.0
|  8>     maxcore 5000
|  9> end
| 10>
| 11> %pal
| 12>   nprocs 6
| 13>   end
| 14> * xyz 0 1
| 15>    C       20.88317        -3.35702         5.83459
| 16>    O       19.75062        -3.54195         6.23146
| 17>    C       22.07940        -3.03813         6.62942
| 18>    C       22.41775        -2.83990         7.92922
| 19>    F       21.64561        -2.88201         8.99718
| 20>    S       24.11566        -2.49280         8.11602
| 21>    C       24.37055        -2.61573         6.41537
| 22>    C       23.21413        -2.90257         5.76358
| 23>    C       22.77654        -3.11586         4.39266
| 24>    N       23.43924        -3.00562         3.30477
| 25>    N       24.76654        -2.75352         3.22507
| 26>    O       25.07091        -1.73282         2.65570
| 27>    O       25.52959        -3.58796         3.64824
| 28>    C       23.85946         0.50672         3.60958
| 29>    O       24.13396         1.19590         2.74410
| 30>    O       23.55675        -0.15175         4.50017
| 31>    C       21.35330        -3.40962         4.44050
| 32>    C       20.61773        -3.67047         3.31540
| 33>    C       19.24815        -3.93372         3.17305
| 34>    C       18.65227        -4.16050         1.92495
| 35>    C       17.29016        -4.35760         2.01990
| 36>    C       16.82830        -4.28431         3.36058
| 37>    S       18.07023        -3.98424         4.48553
| 38>    C       15.42616        -4.45854         3.35419
| 39>    C       14.99947        -4.64250         2.01893
| 40>    C       16.15605        -4.59347         1.14077
| 41>    C       16.16846        -4.72689        -0.21625
| 42>    C       17.36321        -4.65344        -0.96380
| 43>    N       18.33249        -4.59295        -1.57274
| 44>    C       14.98852        -4.94380        -0.95983
| 45>    N       14.03205        -5.11751        -1.56759
| 46>    C       13.62538        -4.78255         1.90664
| 47>    C       12.99374        -4.70254         3.14439
| 48>    S       14.12665        -4.47076         4.46597
| 49>    C       11.59632        -4.73469         3.38233
| 50>    C       11.07471        -4.60118         4.69007
| 51>    C        9.66226        -4.51771         4.94976
| 52>    N        9.22905        -4.37514         6.20658
| 53>    C       10.08887        -4.31520         7.19423
| 54>    C       11.49585        -4.39675         6.93562
| 55>    N       11.93810        -4.53318         5.70933
| 56>    C       12.42386        -4.33269         8.00527
| 57>    N       13.14733        -4.27696         8.89076
| 58>    C        9.60773        -4.16990         8.51948
| 59>    N        9.24338        -4.05351         9.59868
| 60>    C        8.69815        -4.55720         3.91566
| 61>    C        9.21268        -4.76389         2.61397
| 62>    C       10.63235        -4.85134         2.35288
| 63>    N       10.87623        -5.03192         1.05389
| 64>    S        9.49306        -5.09157         0.24953
| 65>    N        8.50371        -4.88760         1.49112
| 66>    C        7.32404        -4.34572         4.18981
| 67>    C        6.29306        -4.27537         3.25625
| 68>    C        5.07885        -3.97286         3.84897
| 69>    C        5.17699        -3.81968         5.25135
| 70>    S        6.77111        -4.05020         5.82881
| 71>    C        3.90768        -3.45310         5.74616
| 72>    C        3.00208        -3.37726         4.66053
| 73>    C        3.71233        -3.69880         3.43543
| 74>    C        3.21541        -3.67298         2.16691
| 75>    C        4.01565        -3.96572         1.04177
| 76>    N        4.66673        -4.21290         0.13123
| 77>    C        1.86314        -3.36176         1.90550
| 78>    N        0.75920        -3.13014         1.70316
| 79>    C        1.74812        -2.91950         5.02983
| 80>    C        1.67678        -2.61778         6.38468
| 81>    S        3.18549        -3.00589         7.22132
| 82>    C        0.64724        -1.99765         7.11843
| 83>    C       -0.28214        -1.10142         6.67175
| 84>    C       -1.25225        -0.50721         7.63715
| 85>    O       -1.43213        -0.86085         8.77546
| 86>    C       -1.89483         0.58632         6.88914
| 87>    C       -2.83959         1.53850         7.09063
| 88>    S       -3.08589         2.52623         5.67360
| 89>    C       -1.89421         1.64117         4.80066
| 90>    C       -1.35011         0.65325         5.56272
| 91>    C       -0.36358        -0.40430         5.40161
| 92>    N        0.42608        -0.66042         4.42015
| 93>    N        0.47418        -0.03467         3.22436
| 94>    O       -0.54863         0.25920         2.65601
| 95>    O        1.59633         0.10495         2.78983
| 96>    C        3.41422         0.11846         4.74620
| 97>    O        2.75850         0.86790         5.30956
| 98>    O        4.10582        -0.64421         4.24664
| 99>    F       -3.54920         1.77969         8.17508
|100>    H       25.35910        -2.47924         6.02262
|101>    H       21.18018        -3.66049         2.38752
|102>    H       19.21952        -4.16625         1.01120
|103>    H       13.07490        -4.92548         0.99505
|104>    H        6.46457        -4.42881         2.20665
|105>    H        0.90531        -2.83534         4.37310
|106>    H        0.62905        -2.17790         8.18933
|107>    H       -1.69646         1.88984         3.77594
|108> *
|109>
|110>                          ****END OF INPUT****

CARTESIAN COORDINATES (ANGSTROEM)
---------------------------------
  C     20.883170   -3.357020    5.834590
  O     19.750620   -3.541950    6.231460
  C     22.079400   -3.038130    6.629420
  C     22.417750   -2.839900    7.929220
  F     21.645610   -2.882010    8.997180
  S     24.115660   -2.492800    8.116020
  C     24.370550   -2.615730    6.415370
  C     23.214130   -2.902570    5.763580
  C     22.776540   -3.115860    4.392660
  N     23.439240   -3.005620    3.304770
  N     24.766540   -2.753520    3.225070
  O     25.070910   -1.732820    2.655700
  O     25.529590   -3.587960    3.648240
  C     23.859460    0.506720    3.609580
  O     24.133960    1.195900    2.744100
  O     23.556750   -0.151750    4.500170
  C     21.353300   -3.409620    4.440500
  C     20.617730   -3.670470    3.315400
  C     19.248150   -3.933720    3.173050
  C     18.652270   -4.160500    1.924950
  C     17.290160   -4.357600    2.019900
  C     16.828300   -4.284310    3.360580
  S     18.070230   -3.984240    4.485530
  C     15.426160   -4.458540    3.354190
  C     14.999470   -4.642500    2.018930
  C     16.156050   -4.593470    1.140770
  C     16.168460   -4.726890   -0.216250
  C     17.363210   -4.653440   -0.963800
  N     18.332490   -4.592950   -1.572740
  C     14.988520   -4.943800   -0.959830
  N     14.032050   -5.117510   -1.567590
  C     13.625380   -4.782550    1.906640
  C     12.993740   -4.702540    3.144390
  S     14.126650   -4.470760    4.465970
  C     11.596320   -4.734690    3.382330
  C     11.074710   -4.601180    4.690070
  C      9.662260   -4.517710    4.949760
  N      9.229050   -4.375140    6.206580
  C     10.088870   -4.315200    7.194230
  C     11.495850   -4.396750    6.935620
  N     11.938100   -4.533180    5.709330
  C     12.423860   -4.332690    8.005270
  N     13.147330   -4.276960    8.890760
  C      9.607730   -4.169900    8.519480
  N      9.243380   -4.053510    9.598680
  C      8.698150   -4.557200    3.915660
  C      9.212680   -4.763890    2.613970
  C     10.632350   -4.851340    2.352880
  N     10.876230   -5.031920    1.053890
  S      9.493060   -5.091570    0.249530
  N      8.503710   -4.887600    1.491120
  C      7.324040   -4.345720    4.189810
  C      6.293060   -4.275370    3.256250
  C      5.078850   -3.972860    3.848970
  C      5.176990   -3.819680    5.251350
  S      6.771110   -4.050200    5.828810
  C      3.907680   -3.453100    5.746160
  C      3.002080   -3.377260    4.660530
  C      3.712330   -3.698800    3.435430
  C      3.215410   -3.672980    2.166910
  C      4.015650   -3.965720    1.041770
  N      4.666730   -4.212900    0.131230
  C      1.863140   -3.361760    1.905500
  N      0.759200   -3.130140    1.703160
  C      1.748120   -2.919500    5.029830
  C      1.676780   -2.617780    6.384680
  S      3.185490   -3.005890    7.221320
  C      0.647240   -1.997650    7.118430
  C     -0.282140   -1.101420    6.671750
  C     -1.252250   -0.507210    7.637150
  O     -1.432130   -0.860850    8.775460
  C     -1.894830    0.586320    6.889140
  C     -2.839590    1.538500    7.090630
  S     -3.085890    2.526230    5.673600
  C     -1.894210    1.641170    4.800660
  C     -1.350110    0.653250    5.562720
  C     -0.363580   -0.404300    5.401610
  N      0.426080   -0.660420    4.420150
  N      0.474180   -0.034670    3.224360
  O     -0.548630    0.259200    2.656010
  O      1.596330    0.104950    2.789830
  C      3.414220    0.118460    4.746200
  O      2.758500    0.867900    5.309560
  O      4.105820   -0.644210    4.246640
  F     -3.549200    1.779690    8.175080
  H     25.359100   -2.479240    6.022620
  H     21.180180   -3.660490    2.387520
  H     19.219520   -4.166250    1.011200
  H     13.074900   -4.925480    0.995050
  H      6.464570   -4.428810    2.206650
  H      0.905310   -2.835340    4.373100
  H      0.629050   -2.177900    8.189330
  H     -1.696460    1.889840    3.775940

 Total Charge           Charge          ....    0
 Multiplicity           Mult            ....    1
 Number of Electrons    NEL             ....  628
 Basis Dimension        Dim             .... 1258

ORBITAL ENERGIES
----------------

  NO   OCC          E(Eh)            E(eV)
   0   2.0000     -89.064780     -2423.5759
   1   2.0000     -89.002794     -2421.8891
   2   2.0000     -88.997695     -2421.7504
   3   2.0000     -88.997274     -2421.7390
   4   2.0000     -88.997149     -2421.7355
   5   2.0000     -88.995833     -2421.6997
   6   2.0000     -88.994994     -2421.6769
   7   2.0000     -24.825286      -675.5304
   8   2.0000     -24.825227      -675.5288
   9   2.0000     -19.284923      -524.7694
  10   2.0000     -19.283155      -524.7213
  11   2.0000     -19.281470      -524.6755
  12   2.0000     -19.280906      -524.6601
  13   2.0000     -19.251100      -523.8491
  14   2.0000     -19.248178      -523.7696
  15   2.0000     -19.247379      -523.7478
  16   2.0000     -19.246317      -523.7189
  17   2.0000     -19.229045      -523.2489
  18   2.0000     -19.220755      -523.0233
  19   2.0000     -14.679873      -399.4597
  20   2.0000     -14.677257      -399.3885
  21   2.0000     -14.489682      -394.2843
  22   2.0000     -14.489317      -394.2744
  23   2.0000     -14.472442      -393.8152
  24   2.0000     -14.472145      -393.8071
  25   2.0000     -14.458002      -393.4222
  26   2.0000     -14.457422      -393.4065
  27   2.0000     -14.449628      -393.1944
  28   2.0000     -14.449036      -393.1783
  29   2.0000     -14.436900      -392.8480
  30   2.0000     -14.436819      -392.8458
  31   2.0000     -14.434539      -392.7838
  32   2.0000     -14.433264      -392.7491
  33   2.0000     -10.450784      -284.3803
  34   2.0000     -10.447416      -284.2887
  35   2.0000     -10.412972      -283.3514
  36   2.0000     -10.412923      -283.3500
  37   2.0000     -10.407216      -283.1947
  38   2.0000     -10.406873      -283.1854
  39   2.0000     -10.385685      -282.6089
  40   2.0000     -10.378856      -282.4230
  41   2.0000     -10.378172      -282.4044
  42   2.0000     -10.371930      -282.2346
  43   2.0000     -10.370986      -282.2089
  44   2.0000     -10.370737      -282.2021
  45   2.0000     -10.370396      -282.1928
  46   2.0000     -10.370075      -282.1841
  47   2.0000     -10.365266      -282.0532
  48   2.0000     -10.365020      -282.0465
  49   2.0000     -10.360170      -281.9145
  50   2.0000     -10.356619      -281.8179
  51   2.0000     -10.349842      -281.6335
  52   2.0000     -10.343328      -281.4563
  53   2.0000     -10.342718      -281.4397
  54   2.0000     -10.342471      -281.4330
  55   2.0000     -10.341852      -281.4161
  56   2.0000     -10.341217      -281.3988
  57   2.0000     -10.340100      -281.3684
  58   2.0000     -10.339556      -281.3536
  59   2.0000     -10.337105      -281.2869
  60   2.0000     -10.337047      -281.2854
  61   2.0000     -10.336951      -281.2827
  62   2.0000     -10.336905      -281.2815
  63   2.0000     -10.335376      -281.2399
  64   2.0000     -10.334891      -281.2267
  65   2.0000     -10.334665      -281.2205
  66   2.0000     -10.333686      -281.1939
  67   2.0000     -10.333453      -281.1876
  68   2.0000     -10.333438      -281.1871
  69   2.0000     -10.332445      -281.1601
  70   2.0000     -10.330758      -281.1142
  71   2.0000     -10.320501      -280.8351
  72   2.0000     -10.316005      -280.7128
  73   2.0000     -10.314340      -280.6675
  74   2.0000     -10.314115      -280.6613
  75   2.0000     -10.313882      -280.6550
  76   2.0000     -10.313745      -280.6513
  77   2.0000     -10.313073      -280.6330
  78   2.0000     -10.310342      -280.5587
  79   2.0000     -10.310141      -280.5532
  80   2.0000     -10.309927      -280.5474
  81   2.0000     -10.305729      -280.4331
  82   2.0000     -10.302840      -280.3545
  83   2.0000     -10.300815      -280.2994
  84   2.0000     -10.300805      -280.2992
  85   2.0000      -8.155718      -221.9284
  86   2.0000      -8.097446      -220.3427
  87   2.0000      -8.092309      -220.2029
  88   2.0000      -8.091371      -220.1774
  89   2.0000      -8.090241      -220.1466
  90   2.0000      -8.089925      -220.1380
  91   2.0000      -8.089559      -220.1281
  92   2.0000      -6.126764      -166.7177
  93   2.0000      -6.118799      -166.5010
  94   2.0000      -6.118724      -166.4989
  95   2.0000      -6.066584      -165.0801
  96   2.0000      -6.062478      -164.9684
  97   2.0000      -6.061584      -164.9441
  98   2.0000      -6.060659      -164.9189
  99   2.0000      -6.059933      -164.8992
 100   2.0000      -6.059724      -164.8935
 101   2.0000      -6.059497      -164.8873
 102   2.0000      -6.058897      -164.8710
 103   2.0000      -6.057134      -164.8230
 104   2.0000      -6.056268      -164.7994
 105   2.0000      -6.054990      -164.7647
 106   2.0000      -6.054676      -164.7561
 107   2.0000      -6.054470      -164.7505
 108   2.0000      -6.054205      -164.7433
 109   2.0000      -6.053468      -164.7232
 110   2.0000      -6.052765      -164.7041
 111   2.0000      -6.052334      -164.6924
 112   2.0000      -6.052206      -164.6889
 113   2.0000      -1.348416       -36.6923
 114   2.0000      -1.346637       -36.6438
 115   2.0000      -1.344749       -36.5925
 116   2.0000      -1.344612       -36.5888
 117   2.0000      -1.237489       -33.6738
 118   2.0000      -1.234753       -33.5994
 119   2.0000      -1.196332       -32.5538
 120   2.0000      -1.193799       -32.4849
 121   2.0000      -1.162733       -31.6396
 122   2.0000      -1.157754       -31.5041
 123   2.0000      -1.155299       -31.4373
 124   2.0000      -1.148643       -31.2562
 125   2.0000      -1.147368       -31.2215
 126   2.0000      -1.139000       -30.9938
 127   2.0000      -1.077312       -29.3152
 128   2.0000      -1.073747       -29.2181
 129   2.0000      -1.072378       -29.1809
 130   2.0000      -1.053778       -28.6748
 131   2.0000      -1.052923       -28.6515
 132   2.0000      -1.035027       -28.1645
 133   2.0000      -1.028829       -27.9959
 134   2.0000      -1.026466       -27.9316
 135   2.0000      -1.024619       -27.8813
 136   2.0000      -1.019850       -27.7515
 137   2.0000      -1.018833       -27.7239
 138   2.0000      -1.018614       -27.7179
 139   2.0000      -1.014917       -27.6173
 140   2.0000      -1.013626       -27.5822
 141   2.0000      -1.011234       -27.5171
 142   2.0000      -1.003954       -27.3190
 143   2.0000      -0.994060       -27.0497
 144   2.0000      -0.969925       -26.3930
 145   2.0000      -0.965406       -26.2700
 146   2.0000      -0.954644       -25.9772
 147   2.0000      -0.954403       -25.9706
 148   2.0000      -0.932437       -25.3729
 149   2.0000      -0.931858       -25.3572
 150   2.0000      -0.922688       -25.1076
 151   2.0000      -0.907968       -24.7071
 152   2.0000      -0.890593       -24.2343
 153   2.0000      -0.887312       -24.1450
 154   2.0000      -0.876748       -23.8575
 155   2.0000      -0.871957       -23.7272
 156   2.0000      -0.866075       -23.5671
 157   2.0000      -0.864815       -23.5328
 158   2.0000      -0.859996       -23.4017
 159   2.0000      -0.858238       -23.3538
 160   2.0000      -0.855995       -23.2928
 161   2.0000      -0.833963       -22.6933
 162   2.0000      -0.832297       -22.6480
 163   2.0000      -0.824414       -22.4334
 164   2.0000      -0.818420       -22.2703
 165   2.0000      -0.805383       -21.9156
 166   2.0000      -0.798574       -21.7303
 167   2.0000      -0.786850       -21.4113
 168   2.0000      -0.783684       -21.3251
 169   2.0000      -0.768009       -20.8986
 170   2.0000      -0.760863       -20.7041
 171   2.0000      -0.745354       -20.2821
 172   2.0000      -0.729245       -19.8438
 173   2.0000      -0.722974       -19.6731
 174   2.0000      -0.720991       -19.6192
 175   2.0000      -0.716904       -19.5079
 176   2.0000      -0.715818       -19.4784
 177   2.0000      -0.708449       -19.2779
 178   2.0000      -0.708197       -19.2710
 179   2.0000      -0.696381       -18.9495
 180   2.0000      -0.695379       -18.9222
 181   2.0000      -0.693055       -18.8590
 182   2.0000      -0.690888       -18.8000
 183   2.0000      -0.683268       -18.5927
 184   2.0000      -0.677373       -18.4323
 185   2.0000      -0.671656       -18.2767
 186   2.0000      -0.660529       -17.9739
 187   2.0000      -0.656995       -17.8778
 188   2.0000      -0.656014       -17.8511
 189   2.0000      -0.652385       -17.7523
 190   2.0000      -0.648518       -17.6471
 191   2.0000      -0.646239       -17.5851
 192   2.0000      -0.643398       -17.5078
 193   2.0000      -0.641924       -17.4676
 194   2.0000      -0.636065       -17.3082
 195   2.0000      -0.633749       -17.2452
 196   2.0000      -0.627620       -17.0784
 197   2.0000      -0.626259       -17.0414
 198   2.0000      -0.624290       -16.9878
 199   2.0000      -0.623871       -16.9764
 200   2.0000      -0.621180       -16.9032
 201   2.0000      -0.620826       -16.8935
 202   2.0000      -0.610006       -16.5991
 203   2.0000      -0.606737       -16.5102
 204   2.0000      -0.605018       -16.4634
 205   2.0000      -0.603502       -16.4221
 206   2.0000      -0.601454       -16.3664
 207   2.0000      -0.598761       -16.2931
 208   2.0000      -0.595731       -16.2107
 209   2.0000      -0.595672       -16.2090
 210   2.0000      -0.594462       -16.1761
 211   2.0000      -0.591984       -16.1087
 212   2.0000      -0.591082       -16.0842
 213   2.0000      -0.588149       -16.0043
 214   2.0000      -0.586684       -15.9645
 215   2.0000      -0.584097       -15.8941
 216   2.0000      -0.580282       -15.7903
 217   2.0000      -0.578473       -15.7410
 218   2.0000      -0.575345       -15.6559
 219   2.0000      -0.574624       -15.6363
 220   2.0000      -0.572844       -15.5879
 221   2.0000      -0.569679       -15.5017
 222   2.0000      -0.563617       -15.3368
 223   2.0000      -0.556550       -15.1445
 224   2.0000      -0.556011       -15.1298
 225   2.0000      -0.551245       -15.0001
 226   2.0000      -0.548116       -14.9150
 227   2.0000      -0.547872       -14.9083
 228   2.0000      -0.540060       -14.6958
 229   2.0000      -0.539045       -14.6681
 230   2.0000      -0.532559       -14.4917
 231   2.0000      -0.530610       -14.4386
 232   2.0000      -0.525536       -14.3006
 233   2.0000      -0.521175       -14.1819
 234   2.0000      -0.520744       -14.1702
 235   2.0000      -0.518177       -14.1003
 236   2.0000      -0.515014       -14.0142
 237   2.0000      -0.513638       -13.9768
 238   2.0000      -0.509546       -13.8654
 239   2.0000      -0.508194       -13.8287
 240   2.0000      -0.506860       -13.7924
 241   2.0000      -0.504243       -13.7211
 242   2.0000      -0.503050       -13.6887
 243   2.0000      -0.500590       -13.6217
 244   2.0000      -0.495379       -13.4799
 245   2.0000      -0.492253       -13.3949
 246   2.0000      -0.490479       -13.3466
 247   2.0000      -0.488310       -13.2876
 248   2.0000      -0.485225       -13.2037
 249   2.0000      -0.482903       -13.1405
 250   2.0000      -0.482107       -13.1188
 251   2.0000      -0.480397       -13.0723
 252   2.0000      -0.478801       -13.0288
 253   2.0000      -0.477727       -12.9996
 254   2.0000      -0.475629       -12.9425
 255   2.0000      -0.471838       -12.8394
 256   2.0000      -0.469326       -12.7710
 257   2.0000      -0.467839       -12.7305
 258   2.0000      -0.467771       -12.7287
 259   2.0000      -0.465248       -12.6600
 260   2.0000      -0.464066       -12.6279
 261   2.0000      -0.463170       -12.6035
 262   2.0000      -0.462730       -12.5915
 263   2.0000      -0.462090       -12.5741
 264   2.0000      -0.458767       -12.4837
 265   2.0000      -0.457995       -12.4627
 266   2.0000      -0.457922       -12.4607
 267   2.0000      -0.454818       -12.3762
 268   2.0000      -0.447030       -12.1643
 269   2.0000      -0.446768       -12.1572
 270   2.0000      -0.445898       -12.1335
 271   2.0000      -0.443962       -12.0808
 272   2.0000      -0.443138       -12.0584
 273   2.0000      -0.442480       -12.0405
 274   2.0000      -0.438629       -11.9357
 275   2.0000      -0.438005       -11.9187
 276   2.0000      -0.436480       -11.8772
 277   2.0000      -0.435436       -11.8488
 278   2.0000      -0.433223       -11.7886
 279   2.0000      -0.432316       -11.7639
 280   2.0000      -0.432031       -11.7562
 281   2.0000      -0.431912       -11.7529
 282   2.0000      -0.427577       -11.6350
 283   2.0000      -0.424381       -11.5480
 284   2.0000      -0.423336       -11.5196
 285   2.0000      -0.419548       -11.4165
 286   2.0000      -0.417560       -11.3624
 287   2.0000      -0.406971       -11.0742
 288   2.0000      -0.404902       -11.0179
 289   2.0000      -0.401176       -10.9166
 290   2.0000      -0.397292       -10.8109
 291   2.0000      -0.396171       -10.7804
 292   2.0000      -0.389103       -10.5880
 293   2.0000      -0.388232       -10.5643
 294   2.0000      -0.385445       -10.4885
 295   2.0000      -0.373781       -10.1711
 296   2.0000      -0.372838       -10.1454
 297   2.0000      -0.370219       -10.0742
 298   2.0000      -0.367176        -9.9914
 299   2.0000      -0.362968        -9.8769
 300   2.0000      -0.357161        -9.7188
 301   2.0000      -0.354684        -9.6515
 302   2.0000      -0.351965        -9.5774
 303   2.0000      -0.348491        -9.4829
 304   2.0000      -0.347624        -9.4593
 305   2.0000      -0.347000        -9.4423
 306   2.0000      -0.343690        -9.3523
 307   2.0000      -0.330048        -8.9811
 308   2.0000      -0.329599        -8.9688
 309   2.0000      -0.327995        -8.9252
 310   2.0000      -0.326605        -8.8874
 311   2.0000      -0.317535        -8.6406
 312   2.0000      -0.288140        -7.8407
 313   2.0000      -0.254186        -6.9168
 314   0.0000      -0.151934        -4.1343
 315   0.0000      -0.114798        -3.1238
 316   0.0000      -0.109282        -2.9737
 317   0.0000      -0.089605        -2.4383
 318   0.0000      -0.088289        -2.4025

MULLIKEN ATOMIC CHARGES
-----------------------
   0 C :    0.209511
   1 O :   -0.169473
   2 C :   -0.026200
   3 C :    0.043723
   4 F :   -0.125764
   5 S :    0.130065
   6 C :   -0.141415
   7 C :    0.100131
   8 C :    0.046127
   9 N :    0.009910
  10 N :    0.290212
  11 O :   -0.235934
  12 O :   -0.231135
  13 C :    0.243761
  14 O :   -0.103204
  15 O :   -0.151334
  16 C :   -0.105104
  17 C :   -0.031827
  18 C :   -0.038066
  19 C :   -0.050330
  20 C :    0.040215
  21 C :   -0.075336
  22 S :    0.252742
  23 C :   -0.065092
  24 C :    0.042076
  25 C :    0.306841
  26 C :   -0.295229
  27 C :   -0.194248
  28 N :    0.177549
  29 C :   -0.184538
  30 N :    0.172151
  31 C :   -0.062987
  32 C :   -0.174404
  33 S :    0.216939
  34 C :    0.189700
  35 C :   -0.065761
  36 C :   -0.059132
  37 N :    0.001661
  38 C :   -0.102515
  39 C :   -0.095274
  40 N :    0.001344
  41 C :   -0.244515
  42 N :    0.261532
  43 C :   -0.240948
  44 N :    0.256038
  45 C :    0.191255
  46 C :   -0.015415
  47 C :   -0.006876
  48 N :   -0.282252
  49 S :    0.597245
  50 N :   -0.280103
  51 C :   -0.172124
  52 C :   -0.062686
  53 C :    0.051634
  54 C :   -0.055326
  55 S :    0.209497
  56 C :   -0.092432
  57 C :   -0.015141
  58 C :    0.315078
  59 C :   -0.285459
  60 C :   -0.185992
  61 N :    0.170753
  62 C :   -0.182987
  63 N :    0.176601
  64 C :    0.069743
  65 C :   -0.128654
  66 S :    0.208387
  67 C :    0.039307
  68 C :   -0.114913
  69 C :    0.160845
  70 O :   -0.126538
  71 C :    0.000517
  72 C :    0.040881
  73 S :    0.132821
  74 C :   -0.133915
  75 C :    0.032514
  76 C :    0.123297
  77 N :   -0.059015
  78 N :    0.303149
  79 O :   -0.225824
  80 O :   -0.234466
  81 C :    0.250296
  82 O :   -0.130383
  83 O :   -0.132555
  84 F :   -0.125378
  85 H :    0.048152
  86 H :    0.027102
  87 H :    0.019351
  88 H :    0.023372
  89 H :    0.025421
  90 H :    0.022624
  91 H :    0.027887
  92 H :    0.058245
Sum of atomic charges:   -0.0000000

LOEWDIN ATOMIC CHARGES
----------------------
   0 C :    0.084006
   1 O :   -0.163504
   2 C :   -0.128065
   3 C :   -0.045441
   4 F :   -0.022138
   5 S :    0.466549
   6 C :   -0.143685
   7 C :   -0.070494
   8 C :    0.060159
   9 N :   -0.090265
  10 N :    0.291883
  11 O :   -0.204200
  12 O :   -0.213514
  13 C :    0.110403
  14 O :   -0.043279
  15 O :   -0.084887
  16 C :   -0.114619
  17 C :    0.065457
  18 C :   -0.180499
  19 C :    0.008317
  20 C :   -0.072017
  21 C :   -0.168573
  22 S :    0.555776
  23 C :   -0.180383
  24 C :   -0.063125
  25 C :    0.077896
  26 C :   -0.101416
  27 C :   -0.018460
  28 N :   -0.028942
  29 C :   -0.016495
  30 N :   -0.031319
  31 C :   -0.008075
  32 C :   -0.160762
  33 S :    0.517688
  34 C :   -0.037600
  35 C :   -0.013179
  36 C :   -0.014173
  37 N :   -0.015258
  38 C :   -0.019891
  39 C :   -0.018137
  40 N :   -0.015993
  41 C :   -0.040736
  42 N :    0.008648
  43 C :   -0.040005
  44 N :    0.005583
  45 C :   -0.034118
  46 C :   -0.036416
  47 C :   -0.035527
  48 N :   -0.270757
  49 S :    0.715293
  50 N :   -0.268856
  51 C :   -0.161429
  52 C :   -0.003792
  53 C :   -0.056337
  54 C :   -0.178062
  55 S :    0.513092
  56 C :   -0.161212
  57 C :   -0.065743
  58 C :    0.080809
  59 C :   -0.090618
  60 C :   -0.014223
  61 N :   -0.030928
  62 C :   -0.013630
  63 N :   -0.029703
  64 C :    0.020935
  65 C :   -0.182583
  66 S :    0.490054
  67 C :    0.055397
  68 C :   -0.097313
  69 C :    0.079680
  70 O :   -0.133722
  71 C :   -0.130867
  72 C :   -0.045553
  73 S :    0.466965
  74 C :   -0.142051
  75 C :   -0.075861
  76 C :    0.072225
  77 N :   -0.090992
  78 N :    0.294777
  79 O :   -0.204838
  80 O :   -0.204958
  81 C :    0.104074
  82 O :   -0.067177
  83 O :   -0.065448
  84 F :   -0.021584
  85 H :    0.034445
  86 H :    0.055471
  87 H :    0.045757
  88 H :    0.038855
  89 H :    0.039732
  90 H :    0.041700
  91 H :    0.047563
  92 H :    0.034243

  Mayer bond orders larger than 0.100000
B(  0-C ,  1-O ) :   2.1525 B(  0-C ,  2-C ) :   0.9508 B(  0-C , 16-C ) :   0.9840
B(  2-C ,  3-C ) :   1.4118 B(  2-C ,  7-C ) :   1.2187 B(  3-C ,  4-F ) :   1.2025
B(  3-C ,  5-S ) :   1.1727 B(  5-S ,  6-C ) :   1.1435 B(  6-C ,  7-C ) :   1.5731
B(  6-C , 85-H ) :   0.9648 B(  7-C ,  8-C ) :   0.9865 B(  8-C ,  9-N ) :   1.8670
B(  8-C , 16-C ) :   1.0679 B(  9-N , 10-N ) :   0.9744 B( 10-N , 11-O ) :   1.5560
B( 10-N , 12-O ) :   1.5713 B( 11-O , 12-O ) :   0.2356 B( 13-C , 14-O ) :   2.2283
B( 13-C , 15-O ) :   2.1356 B( 14-O , 15-O ) :   0.2539 B( 16-C , 17-C ) :   1.5576
B( 17-C , 18-C ) :   1.2115 B( 17-C , 86-H ) :   0.9671 B( 18-C , 19-C ) :   1.3266
B( 18-C , 22-S ) :   1.0800 B( 19-C , 20-C ) :   1.3378 B( 19-C , 87-H ) :   1.0090
B( 20-C , 21-C ) :   1.3474 B( 20-C , 25-C ) :   0.9850 B( 21-C , 22-S ) :   1.1275
B( 21-C , 23-C ) :   1.2162 B( 23-C , 24-C ) :   1.3904 B( 23-C , 33-S ) :   1.0883
B( 24-C , 25-C ) :   0.9952 B( 24-C , 31-C ) :   1.2853 B( 25-C , 26-C ) :   1.7149
B( 26-C , 27-C ) :   1.1325 B( 26-C , 29-C ) :   1.1368 B( 27-C , 28-N ) :   2.9938
B( 29-C , 30-N ) :   2.9839 B( 31-C , 32-C ) :   1.4019 B( 31-C , 88-H ) :   0.9815
B( 32-C , 33-S ) :   1.0941 B( 32-C , 34-C ) :   1.2129 B( 34-C , 35-C ) :   1.2516
B( 34-C , 45-C ) :   0.1210 B( 34-C , 47-C ) :   1.1981 B( 35-C , 36-C ) :   1.1130
B( 35-C , 40-N ) :   1.4060 B( 36-C , 37-N ) :   1.4054 B( 36-C , 45-C ) :   1.2501
B( 37-N , 38-C ) :   1.6947 B( 38-C , 39-C ) :   1.2197 B( 38-C , 43-C ) :   1.1655
B( 39-C , 40-N ) :   1.6967 B( 39-C , 41-C ) :   1.1663 B( 41-C , 42-N ) :   3.0418
B( 43-C , 44-N ) :   3.0412 B( 45-C , 46-C ) :   1.1976 B( 45-C , 51-C ) :   1.2152
B( 46-C , 47-C ) :   1.0992 B( 46-C , 50-N ) :   1.5153 B( 47-C , 48-N ) :   1.5141
B( 48-N , 49-S ) :   1.2880 B( 48-N , 50-N ) :   0.1459 B( 49-S , 50-N ) :   1.2907
B( 51-C , 52-C ) :   1.3976 B( 51-C , 55-S ) :   1.0940 B( 52-C , 53-C ) :   1.2920
B( 52-C , 89-H ) :   0.9816 B( 53-C , 54-C ) :   1.3935 B( 53-C , 58-C ) :   0.9931
B( 54-C , 55-S ) :   1.0813 B( 54-C , 56-C ) :   1.2188 B( 56-C , 57-C ) :   1.3790
B( 56-C , 66-S ) :   1.1527 B( 57-C , 58-C ) :   0.9930 B( 57-C , 64-C ) :   1.3524
B( 58-C , 59-C ) :   1.7258 B( 59-C , 60-C ) :   1.1383 B( 59-C , 62-C ) :   1.1338
B( 60-C , 61-N ) :   2.9834 B( 62-C , 63-N ) :   2.9776 B( 64-C , 65-C ) :   1.3988
B( 64-C , 90-H ) :   0.9758 B( 65-C , 66-S ) :   1.0715 B( 65-C , 67-C ) :   1.1442
B( 67-C , 68-C ) :   1.6432 B( 67-C , 91-H ) :   0.9393 B( 68-C , 69-C ) :   0.9557
B( 68-C , 76-C ) :   1.0844 B( 69-C , 70-O ) :   2.2892 B( 69-C , 71-C ) :   0.9056
B( 71-C , 72-C ) :   1.4268 B( 71-C , 75-C ) :   1.2077 B( 72-C , 73-S ) :   1.1657
B( 72-C , 84-F ) :   1.2042 B( 73-S , 74-C ) :   1.1501 B( 74-C , 75-C ) :   1.5776
B( 74-C , 92-H ) :   0.9547 B( 75-C , 76-C ) :   1.0125 B( 76-C , 77-N ) :   1.7264
B( 77-N , 78-N ) :   1.0016 B( 78-N , 79-O ) :   1.5648 B( 78-N , 80-O ) :   1.5622
B( 79-O , 80-O ) :   0.2304 B( 81-C , 82-O ) :   2.1893 B( 81-C , 83-O ) :   2.1665
B( 82-O , 83-O ) :   0.2519

-----------------------------------------------------------------------------
         ABSORPTION SPECTRUM VIA TRANSITION ELECTRIC DIPOLE MOMENTS
-----------------------------------------------------------------------------
State   Energy  Wavelength   fosc         T2         TX        TY        TZ
        (cm-1)    (nm)                  (au**2)     (au)      (au)      (au)
-----------------------------------------------------------------------------
   0    7369.5   1356.9   0.708506083  31.65062   5.56327  -0.55976  -0.62235
   1   14147.5    706.8   0.028397122   0.66080   0.16124   0.76144   0.23454
   2   14777.2    676.7   0.089226440   1.98782   1.36782  -0.33781  -0.05274
   3   16163.9    618.7   0.023906647   0.48691   0.08664   0.68587   0.09477
   4   20983.2    476.6   1.091313527  17.12198  -3.92005   1.32017   0.11106
   5   21646.2    462.0   0.460375481   7.00174   2.51264   0.78437   0.27044
   6   22100.0    452.5   0.057478380   0.85622   0.90258  -0.19463   0.06075
   7   23021.8    434.4   0.007679119   0.10981  -0.08126   0.03953  -0.31882
   8   23375.3    427.8   0.009711176   0.13677  -0.05764  -0.27495   0.24052
   9   23897.1    418.5   0.250017091   3.44429  -1.20081  -0.79344  -1.17167
  10   25000.4    400.0   0.034666581   0.45650  -0.26865   0.20195  -0.58613
  11   25112.8    398.2   0.037975458   0.49783  -0.43164  -0.26417  -0.49166
  12   25140.5    397.8   0.005519204   0.07227  -0.11612  -0.09827  -0.22166
  13   25299.9    395.3   0.021241359   0.27640  -0.34523  -0.22680  -0.32524
  14   26906.5    371.7   0.011802358   0.14441   0.10634  -0.00081   0.36482
  15   27373.3    365.3   0.001270081   0.01527   0.04385  -0.10477   0.04872
  16   27832.7    359.3   0.007345814   0.08689   0.28301   0.00061   0.08242
  17   28279.4    353.6   0.001798237   0.02093  -0.09827   0.10401   0.02144
  18   28792.9    347.3   0.015782104   0.18045   0.02195  -0.11513  -0.40830
  19   28914.6    345.8   0.092799705   1.05659   0.66738   0.16838   0.76344
  20   29430.1    339.8   0.066259325   0.74119  -0.81839  -0.20293  -0.17391
  21   29606.7    337.8   0.062715504   0.69737   0.18533   0.36890   0.72590
  22   30089.7    332.3   0.272320626   2.97947   1.29269  -0.25332  -1.11546
  23   30496.4    327.9   0.002367947   0.02556  -0.14201   0.01798  -0.07121
  24   30571.6    327.1   0.140301617   1.51085   0.76554  -0.68512  -0.67483
  25   30656.7    326.2   0.148232716   1.59182   0.54462   0.44705   1.04659
  26   30985.6    322.7   0.192135367   2.04137  -0.10647   0.07275  -1.42294
  27   31289.7    319.6   0.071827192   0.75572  -0.48642   0.16548   0.70124
  28   31604.9    316.4   0.428869253   4.46731   1.92928  -0.17763   0.84476
  29   31865.3    313.8   0.083759351   0.86535  -0.29195  -0.17457   0.86582
  30   31906.2    313.4   0.144232822   1.48821  -0.61156  -0.07744  -1.05271
  31   32290.4    309.7   0.746754401   7.61342  -0.13832  -0.09718  -2.75406
  32   32420.0    308.5   0.084522131   0.85829  -0.28572   0.07322   0.87823
  33   32481.6    307.9   0.288825976   2.92735  -0.05994  -0.44719  -1.65039
  34   32809.6    304.8   0.075329489   0.75586  -0.84869   0.04553  -0.18304
  35   33320.7    300.1   0.001783711   0.01762  -0.12228  -0.01559  -0.04928
  36   33414.4    299.3   0.021050425   0.20740   0.40598  -0.20027  -0.04967
  37   33530.4    298.2   0.066703867   0.65492  -0.00237   0.34058   0.73411
  38   33803.2    295.8   0.003576310   0.03483   0.07174   0.16421   0.05214
  39   34008.1    294.0   0.025386434   0.24575  -0.17887   0.11881   0.44681
  40   34103.5    293.2   0.204460900   1.97372   1.38238  -0.08734   0.23476
  41   34163.5    292.7   0.135110653   1.30197  -1.11424   0.07049  -0.23552
  42   34455.7    290.2   0.076071748   0.72684   0.82595   0.20477  -0.05215
  43   34522.6    289.7   0.003161728   0.03015  -0.10839   0.10692  -0.08350
  44   34692.6    288.2   0.081948262   0.77764  -0.60492   0.58793  -0.25699
  45   34822.2    287.2   0.067672240   0.63978   0.06767   0.26833   0.75046
  46   35083.8    285.0   0.038427658   0.36059  -0.13357   0.09254  -0.57809
  47   35402.4    282.5   0.116061383   1.07927   0.40378  -0.28119  -0.91497
  48   35591.9    281.0   0.005006867   0.04631   0.01377  -0.14247  -0.16070
  49   35793.2    279.4   0.192017712   1.76611   0.24247   0.15962   1.29686
  50   35839.9    279.0   0.002230953   0.02049  -0.04060  -0.06214  -0.12240
  51   36160.5    276.5   0.008280760   0.07539  -0.25171   0.07850   0.07661
  52   36399.9    274.7   0.037692106   0.34090  -0.13784  -0.05834  -0.56435
  53   36879.0    271.2   0.029279975   0.26138  -0.37936   0.17952  -0.29195
  54   37209.0    268.8   0.037038445   0.32770  -0.22527  -0.03090  -0.52536
  55   37280.6    268.2   0.042448749   0.37485   0.11060   0.02285   0.60174
  56   37707.5    265.2   0.030724744   0.26825  -0.46078   0.10553   0.21165
  57   37922.7    263.7   0.017824724   0.15474  -0.32899   0.02580  -0.21410
  58   38112.0    262.4   0.080796071   0.69792   0.07015  -0.16083  -0.81678
  59   38308.8    261.0   0.119956639   1.03086  -0.82875   0.29329   0.50795
  60   38621.1    258.9   0.001132275   0.00965   0.09384  -0.02868   0.00490
  61   38706.4    258.4   0.009239811   0.07859  -0.21304  -0.08047  -0.16349
  62   38926.7    256.9   0.006071867   0.05135   0.19209  -0.10418   0.05998
  63   38997.1    256.4   0.022471838   0.18971  -0.39997   0.06783   0.15853
  64   39027.3    256.2   0.049283136   0.41572  -0.21321  -0.25563  -0.55219
  65   39099.1    255.8   0.061192408   0.51524  -0.31660  -0.13095   0.63075
  66   39452.6    253.5   0.062740098   0.52353   0.50469  -0.51196  -0.08195
  67   39569.7    252.7   0.133075401   1.10716   0.09888   0.09840   1.04293
  68   39664.9    252.1   0.078485028   0.65141  -0.16359   0.31150   0.72637
  69   39806.4    251.2   0.026735313   0.22111  -0.21304  -0.09636   0.40797
  70   39815.4    251.2   0.145900980   1.20638   0.23168  -0.59076  -0.89650
  71   40088.1    249.5   0.037629123   0.30902   0.52883  -0.17129  -0.00396

FINAL SINGLE POINT ENERGY     -6486.387441504752

DIPOLE MOMENT
-------------
                                X             Y             Z
Electronic contribution:     -4.03943       3.93160      15.41379
Nuclear contribution   :      3.12467      -4.06985     -13.99377
                        -----------------------------------------
Total Dipole Moment    :     -0.91476      -0.13825       1.42002
                        -----------------------------------------
Magnitude (a.u.)       :      1.69480
Magnitude (Debye)      :      4.30785

Rotational constants in cm-1:     0.001334     0.000166     0.000158
Rotational constants in MHz :    39.999442     4.983788     4.743597

                             ****ORCA TERMINATED NORMALLY****
TOTAL RUN TIME: 0 days 0 hours 20 minutes 4 seconds 912 msec
