                         Program Version 4.2.0 -  RELEASE  -
|  1> # ORCA input file
|  2> # SCF done       -194.448639964659          0.000506973048
|  3> ! CAM-B3LYP def2-SVP def2/J RIJCOSX Grid4 TightSCF
|  4> %maxcore 5000
|  5> %tddft
|  6>     Mode sTDDFT
|  7>     Ethresh 5.0
|  8>     maxcore 5000
|  9> end
| 10>
| 11> %pal
| 12>   nprocs 6
| 13>   end
| 14> * xyz 0 1
| 15>    C        0.21790         2.24920        -2.70599
| 16>    C        0.84450         2.32188        -4.10195
| 17>    C       -0.70147         3.44381        -2.43868
| 18>    C        1.23839         2.04399        -1.60291
| 19>    C        0.99237         0.81339        -1.03571
| 20>    C       -0.13987         0.23019        -1.71514
| 21>    C       -0.73402        -0.98300        -1.49321
| 22>    C       -0.30383        -1.89114        -0.50803
| 23>    N       -0.00033        -2.67033         0.27658
| 24>    C       -1.83926        -1.38747        -2.27094
| 25>    N       -2.73596        -1.71715        -2.90460
| 26>    O       -0.58611         1.06306        -2.66385
| 27>    C        1.70796         0.17609        -0.01064
| 28>    N        2.32245        -0.32956         0.81494
| 29>    C        2.24010         2.97274        -1.24725
| 30>    C        3.11346         2.89979        -0.16563
| 31>    C        3.98468         3.97900        -0.11707
| 32>    C        3.79263         4.89312        -1.17677
| 33>    S        2.52318         4.42651        -2.20888
| 34>    C        4.74379         5.92891        -1.07233
| 35>    C        5.54490         5.67780         0.06358
| 36>    C        5.09118         4.45128         0.70228
| 37>    C        5.60661         3.87330         1.82278
| 38>    C        6.72119         4.42501         2.49358
| 39>    N        7.63693         4.86508         3.02355
| 40>    C        5.07288         2.69426         2.38923
| 41>    N        4.63904         1.74781         2.86694
| 42>    C        6.53139         6.63429         0.24711
| 43>    C        6.50453         7.61068        -0.74419
| 44>    S        5.22343         7.33562        -1.91648
| 45>    C        7.38819         8.70715        -0.92130
| 46>    C        8.42051         9.05796        -0.01325
| 47>    C        9.36234        10.10235        -0.32836
| 48>    N       10.35771        10.37932         0.52114
| 49>    C       10.45582         9.73263         1.65633
| 50>    C        9.48209         8.73931         1.99769
| 51>    N        8.52011         8.42681         1.16512
| 52>    C        9.54736         8.10172         3.26404
| 53>    N        9.63660         7.63022         4.30310
| 54>    C       11.52476        10.04290         2.53317
| 55>    N       12.38481        10.28212         3.25016
| 56>    C        9.31112        10.86665        -1.51897
| 57>    C        8.22885        10.57522        -2.37861
| 58>    C        7.29821         9.51753        -2.07570
| 59>    N        6.36750         9.39606        -3.02320
| 60>    S        6.62542        10.49405        -4.16755
| 61>    N        7.92744        11.17295        -3.53209
| 62>    C       10.31071        11.82542        -1.81441
| 63>    C       10.38875        12.61651        -2.95727
| 64>    C       11.52585        13.40834        -2.96146
| 65>    C       12.32260        13.22381        -1.80929
| 66>    S       11.65854        12.08098        -0.72021
| 67>    C       13.46304        14.04408        -1.93123
| 68>    C       13.40036        14.74913        -3.15448
| 69>    C       12.16531        14.38307        -3.83212
| 70>    C       11.69211        14.85512        -5.01925
| 71>    C       12.36989        15.83528        -5.77821
| 72>    N       12.89837        16.63994        -6.39911
| 73>    C       10.47041        14.40332        -5.56508
| 74>    N        9.48088        14.03441        -6.01078
| 75>    C       14.51092        15.55027        -3.37712
| 76>    C       15.43173        15.47864        -2.33463
| 77>    S       14.87930        14.39267        -1.05689
| 78>    C       16.67200        16.14601        -2.24139
| 79>    C       17.28549        16.92014        -3.20133
| 80>    C       18.52937        17.40454        -2.65184
| 81>    C       19.46897        18.20271        -3.24750
| 82>    C       19.34970        18.69761        -4.55933
| 83>    N       19.30843        19.13042        -5.62042
| 84>    C       20.63679        18.57344        -2.54840
| 85>    N       21.58769        18.87361        -1.98274
| 86>    O       18.68482        16.95668        -1.40030
| 87>    C       17.57636        16.12841        -1.02398
| 88>    C       18.13623        14.73755        -0.70970
| 89>    C       16.92000        16.76180         0.20550
| 90>    C       16.84424        17.18983        -4.50564
| 91>    N       16.46875        17.37909        -5.57253
| 92>    H        1.35569         3.26726        -4.25183
| 93>    H        0.05206         2.22571        -4.83964
| 94>    H        1.54968         1.50503        -4.24221
| 95>    H       -0.15567         4.37772        -2.53056
| 96>    H       -1.12754         3.37381        -1.43978
| 97>    H       -1.51149         3.43066        -3.16286
| 98>    H        3.09775         2.09263         0.54371
| 99>    H        7.25070         6.64752         1.04437
|100>    H        9.63866        12.58045        -3.72572
|101>    H       14.66038        16.16299        -4.24726
|102>    H       18.52890        14.27509        -1.61315
|103>    H       17.37276        14.09669        -0.28082
|104>    H       18.94843        14.84751         0.00414
|105>    H       16.51912        17.74202        -0.04503
|106>    H       17.67279        16.88246         0.97974
|107>    H       16.11953        16.13282         0.58234
|108> *
|109>
|110>                          ****END OF INPUT****

CARTESIAN COORDINATES (ANGSTROEM)
---------------------------------
  C      0.217900    2.249200   -2.705990
  C      0.844500    2.321880   -4.101950
  C     -0.701470    3.443810   -2.438680
  C      1.238390    2.043990   -1.602910
  C      0.992370    0.813390   -1.035710
  C     -0.139870    0.230190   -1.715140
  C     -0.734020   -0.983000   -1.493210
  C     -0.303830   -1.891140   -0.508030
  N     -0.000330   -2.670330    0.276580
  C     -1.839260   -1.387470   -2.270940
  N     -2.735960   -1.717150   -2.904600
  O     -0.586110    1.063060   -2.663850
  C      1.707960    0.176090   -0.010640
  N      2.322450   -0.329560    0.814940
  C      2.240100    2.972740   -1.247250
  C      3.113460    2.899790   -0.165630
  C      3.984680    3.979000   -0.117070
  C      3.792630    4.893120   -1.176770
  S      2.523180    4.426510   -2.208880
  C      4.743790    5.928910   -1.072330
  C      5.544900    5.677800    0.063580
  C      5.091180    4.451280    0.702280
  C      5.606610    3.873300    1.822780
  C      6.721190    4.425010    2.493580
  N      7.636930    4.865080    3.023550
  C      5.072880    2.694260    2.389230
  N      4.639040    1.747810    2.866940
  C      6.531390    6.634290    0.247110
  C      6.504530    7.610680   -0.744190
  S      5.223430    7.335620   -1.916480
  C      7.388190    8.707150   -0.921300
  C      8.420510    9.057960   -0.013250
  C      9.362340   10.102350   -0.328360
  N     10.357710   10.379320    0.521140
  C     10.455820    9.732630    1.656330
  C      9.482090    8.739310    1.997690
  N      8.520110    8.426810    1.165120
  C      9.547360    8.101720    3.264040
  N      9.636600    7.630220    4.303100
  C     11.524760   10.042900    2.533170
  N     12.384810   10.282120    3.250160
  C      9.311120   10.866650   -1.518970
  C      8.228850   10.575220   -2.378610
  C      7.298210    9.517530   -2.075700
  N      6.367500    9.396060   -3.023200
  S      6.625420   10.494050   -4.167550
  N      7.927440   11.172950   -3.532090
  C     10.310710   11.825420   -1.814410
  C     10.388750   12.616510   -2.957270
  C     11.525850   13.408340   -2.961460
  C     12.322600   13.223810   -1.809290
  S     11.658540   12.080980   -0.720210
  C     13.463040   14.044080   -1.931230
  C     13.400360   14.749130   -3.154480
  C     12.165310   14.383070   -3.832120
  C     11.692110   14.855120   -5.019250
  C     12.369890   15.835280   -5.778210
  N     12.898370   16.639940   -6.399110
  C     10.470410   14.403320   -5.565080
  N      9.480880   14.034410   -6.010780
  C     14.510920   15.550270   -3.377120
  C     15.431730   15.478640   -2.334630
  S     14.879300   14.392670   -1.056890
  C     16.672000   16.146010   -2.241390
  C     17.285490   16.920140   -3.201330
  C     18.529370   17.404540   -2.651840
  C     19.468970   18.202710   -3.247500
  C     19.349700   18.697610   -4.559330
  N     19.308430   19.130420   -5.620420
  C     20.636790   18.573440   -2.548400
  N     21.587690   18.873610   -1.982740
  O     18.684820   16.956680   -1.400300
  C     17.576360   16.128410   -1.023980
  C     18.136230   14.737550   -0.709700
  C     16.920000   16.761800    0.205500
  C     16.844240   17.189830   -4.505640
  N     16.468750   17.379090   -5.572530
  H      1.355690    3.267260   -4.251830
  H      0.052060    2.225710   -4.839640
  H      1.549680    1.505030   -4.242210
  H     -0.155670    4.377720   -2.530560
  H     -1.127540    3.373810   -1.439780
  H     -1.511490    3.430660   -3.162860
  H      3.097750    2.092630    0.543710
  H      7.250700    6.647520    1.044370
  H      9.638660   12.580450   -3.725720
  H     14.660380   16.162990   -4.247260
  H     18.528900   14.275090   -1.613150
  H     17.372760   14.096690   -0.280820
  H     18.948430   14.847510    0.004140
  H     16.519120   17.742020   -0.045030
  H     17.672790   16.882460    0.979740
  H     16.119530   16.132820    0.582340

 Total Charge           Charge          ....    0
 Multiplicity           Mult            ....    1
 Number of Electrons    NEL             ....  548
 Basis Dimension        Dim             .... 1178

ORBITAL ENERGIES
----------------

  NO   OCC          E(Eh)            E(eV)
   0   2.0000     -89.083798     -2424.0934
   1   2.0000     -89.025858     -2422.5167
   2   2.0000     -89.025104     -2422.4962
   3   2.0000     -89.014020     -2422.1946
   4   2.0000     -89.013476     -2422.1798
   5   2.0000     -19.302825      -525.2566
   6   2.0000     -19.301851      -525.2301
   7   2.0000     -14.500850      -394.5882
   8   2.0000     -14.494709      -394.4211
   9   2.0000     -14.491706      -394.3394
  10   2.0000     -14.491373      -394.3303
  11   2.0000     -14.460302      -393.4848
  12   2.0000     -14.451641      -393.2491
  13   2.0000     -14.451591      -393.2478
  14   2.0000     -14.448734      -393.1700
  15   2.0000     -14.446429      -393.1073
  16   2.0000     -14.445470      -393.0812
  17   2.0000     -14.431922      -392.7126
  18   2.0000     -14.431754      -392.7080
  19   2.0000     -14.402815      -391.9205
  20   2.0000     -14.402724      -391.9181
  21   2.0000     -14.402261      -391.9055
  22   2.0000     -14.401835      -391.8939
  23   2.0000     -10.417940      -283.4865
  24   2.0000     -10.414963      -283.4055
  25   2.0000     -10.403506      -283.0938
  26   2.0000     -10.402715      -283.0723
  27   2.0000     -10.391838      -282.7763
  28   2.0000     -10.390538      -282.7409
  29   2.0000     -10.389026      -282.6998
  30   2.0000     -10.388549      -282.6868
  31   2.0000     -10.385936      -282.6157
  32   2.0000     -10.383735      -282.5558
  33   2.0000     -10.381162      -282.4858
  34   2.0000     -10.380071      -282.4561
  35   2.0000     -10.374422      -282.3024
  36   2.0000     -10.373271      -282.2711
  37   2.0000     -10.369277      -282.1624
  38   2.0000     -10.368370      -282.1377
  39   2.0000     -10.363584      -282.0075
  40   2.0000     -10.362940      -281.9899
  41   2.0000     -10.361085      -281.9395
  42   2.0000     -10.360642      -281.9274
  43   2.0000     -10.358143      -281.8594
  44   2.0000     -10.357562      -281.8436
  45   2.0000     -10.357118      -281.8315
  46   2.0000     -10.355542      -281.7886
  47   2.0000     -10.355155      -281.7781
  48   2.0000     -10.353090      -281.7219
  49   2.0000     -10.352486      -281.7055
  50   2.0000     -10.352236      -281.6987
  51   2.0000     -10.351623      -281.6820
  52   2.0000     -10.351153      -281.6692
  53   2.0000     -10.347599      -281.5725
  54   2.0000     -10.344401      -281.4855
  55   2.0000     -10.343282      -281.4550
  56   2.0000     -10.343086      -281.4497
  57   2.0000     -10.338033      -281.3122
  58   2.0000     -10.337700      -281.3031
  59   2.0000     -10.336093      -281.2594
  60   2.0000     -10.335565      -281.2450
  61   2.0000     -10.335494      -281.2431
  62   2.0000     -10.335291      -281.2376
  63   2.0000     -10.330538      -281.1082
  64   2.0000     -10.330300      -281.1018
  65   2.0000     -10.330269      -281.1009
  66   2.0000     -10.330132      -281.0972
  67   2.0000     -10.326364      -280.9947
  68   2.0000     -10.324807      -280.9523
  69   2.0000     -10.307110      -280.4707
  70   2.0000     -10.306594      -280.4567
  71   2.0000     -10.306192      -280.4457
  72   2.0000     -10.306070      -280.4424
  73   2.0000     -10.304996      -280.4132
  74   2.0000     -10.303989      -280.3858
  75   2.0000     -10.302927      -280.3569
  76   2.0000     -10.302137      -280.3354
  77   2.0000      -8.174521      -222.4400
  78   2.0000      -8.119877      -220.9531
  79   2.0000      -8.119134      -220.9329
  80   2.0000      -8.107165      -220.6072
  81   2.0000      -8.105800      -220.5700
  82   2.0000      -6.145572      -167.2295
  83   2.0000      -6.137758      -167.0169
  84   2.0000      -6.137431      -167.0080
  85   2.0000      -6.089100      -165.6928
  86   2.0000      -6.088337      -165.6721
  87   2.0000      -6.084910      -165.5788
  88   2.0000      -6.084120      -165.5573
  89   2.0000      -6.082350      -165.5092
  90   2.0000      -6.081658      -165.4903
  91   2.0000      -6.076628      -165.3535
  92   2.0000      -6.075415      -165.3204
  93   2.0000      -6.072002      -165.2276
  94   2.0000      -6.070535      -165.1877
  95   2.0000      -6.069540      -165.1606
  96   2.0000      -6.068219      -165.1246
  97   2.0000      -1.226533       -33.3757
  98   2.0000      -1.225632       -33.3511
  99   2.0000      -1.180816       -32.1316
 100   2.0000      -1.157759       -31.5042
 101   2.0000      -1.085294       -29.5323
 102   2.0000      -1.073190       -29.2030
 103   2.0000      -1.072263       -29.1778
 104   2.0000      -1.044364       -28.4186
 105   2.0000      -1.042504       -28.3680
 106   2.0000      -1.041710       -28.3464
 107   2.0000      -1.040507       -28.3136
 108   2.0000      -1.032315       -28.0907
 109   2.0000      -1.028156       -27.9775
 110   2.0000      -1.026247       -27.9256
 111   2.0000      -1.025363       -27.9015
 112   2.0000      -1.023622       -27.8542
 113   2.0000      -1.019604       -27.7448
 114   2.0000      -1.017484       -27.6872
 115   2.0000      -1.010479       -27.4965
 116   2.0000      -0.999865       -27.2077
 117   2.0000      -0.999092       -27.1867
 118   2.0000      -0.988877       -26.9087
 119   2.0000      -0.983906       -26.7734
 120   2.0000      -0.981112       -26.6974
 121   2.0000      -0.980419       -26.6786
 122   2.0000      -0.967380       -26.3237
 123   2.0000      -0.967266       -26.3206
 124   2.0000      -0.952679       -25.9237
 125   2.0000      -0.951728       -25.8978
 126   2.0000      -0.945007       -25.7150
 127   2.0000      -0.943072       -25.6623
 128   2.0000      -0.929784       -25.3007
 129   2.0000      -0.913883       -24.8680
 130   2.0000      -0.901544       -24.5323
 131   2.0000      -0.900028       -24.4910
 132   2.0000      -0.891331       -24.2544
 133   2.0000      -0.889708       -24.2102
 134   2.0000      -0.882805       -24.0223
 135   2.0000      -0.882265       -24.0077
 136   2.0000      -0.872430       -23.7400
 137   2.0000      -0.852055       -23.1856
 138   2.0000      -0.846686       -23.0395
 139   2.0000      -0.831899       -22.6371
 140   2.0000      -0.824480       -22.4352
 141   2.0000      -0.822593       -22.3839
 142   2.0000      -0.817588       -22.2477
 143   2.0000      -0.804224       -21.8841
 144   2.0000      -0.799923       -21.7670
 145   2.0000      -0.787949       -21.4412
 146   2.0000      -0.778019       -21.1710
 147   2.0000      -0.768521       -20.9125
 148   2.0000      -0.765942       -20.8424
 149   2.0000      -0.763311       -20.7707
 150   2.0000      -0.751057       -20.4373
 151   2.0000      -0.741181       -20.1686
 152   2.0000      -0.731673       -19.9098
 153   2.0000      -0.729560       -19.8523
 154   2.0000      -0.721978       -19.6460
 155   2.0000      -0.715092       -19.4586
 156   2.0000      -0.710820       -19.3424
 157   2.0000      -0.708534       -19.2802
 158   2.0000      -0.700786       -19.0694
 159   2.0000      -0.693343       -18.8668
 160   2.0000      -0.690050       -18.7772
 161   2.0000      -0.683837       -18.6082
 162   2.0000      -0.667985       -18.1768
 163   2.0000      -0.666667       -18.1409
 164   2.0000      -0.663562       -18.0564
 165   2.0000      -0.658969       -17.9315
 166   2.0000      -0.655286       -17.8312
 167   2.0000      -0.652013       -17.7422
 168   2.0000      -0.646258       -17.5856
 169   2.0000      -0.642205       -17.4753
 170   2.0000      -0.638987       -17.3877
 171   2.0000      -0.631501       -17.1840
 172   2.0000      -0.629351       -17.1255
 173   2.0000      -0.620274       -16.8785
 174   2.0000      -0.616955       -16.7882
 175   2.0000      -0.616177       -16.7670
 176   2.0000      -0.602433       -16.3930
 177   2.0000      -0.601176       -16.3588
 178   2.0000      -0.593923       -16.1615
 179   2.0000      -0.592234       -16.1155
 180   2.0000      -0.587693       -15.9919
 181   2.0000      -0.583140       -15.8680
 182   2.0000      -0.574714       -15.6388
 183   2.0000      -0.573896       -15.6165
 184   2.0000      -0.573420       -15.6036
 185   2.0000      -0.570322       -15.5193
 186   2.0000      -0.567157       -15.4331
 187   2.0000      -0.562436       -15.3047
 188   2.0000      -0.554325       -15.0839
 189   2.0000      -0.551247       -15.0002
 190   2.0000      -0.535516       -14.5721
 191   2.0000      -0.533515       -14.5177
 192   2.0000      -0.531584       -14.4651
 193   2.0000      -0.529913       -14.4197
 194   2.0000      -0.528193       -14.3728
 195   2.0000      -0.527240       -14.3469
 196   2.0000      -0.526605       -14.3296
 197   2.0000      -0.525744       -14.3062
 198   2.0000      -0.521965       -14.2034
 199   2.0000      -0.520529       -14.1643
 200   2.0000      -0.518867       -14.1191
 201   2.0000      -0.517870       -14.0920
 202   2.0000      -0.517616       -14.0851
 203   2.0000      -0.514888       -14.0108
 204   2.0000      -0.512921       -13.9573
 205   2.0000      -0.508887       -13.8475
 206   2.0000      -0.505915       -13.7666
 207   2.0000      -0.502759       -13.6808
 208   2.0000      -0.499745       -13.5987
 209   2.0000      -0.498983       -13.5780
 210   2.0000      -0.498385       -13.5617
 211   2.0000      -0.496417       -13.5082
 212   2.0000      -0.486732       -13.2446
 213   2.0000      -0.484225       -13.1764
 214   2.0000      -0.483120       -13.1464
 215   2.0000      -0.481818       -13.1109
 216   2.0000      -0.480992       -13.0885
 217   2.0000      -0.480215       -13.0673
 218   2.0000      -0.479472       -13.0471
 219   2.0000      -0.477717       -12.9993
 220   2.0000      -0.477109       -12.9828
 221   2.0000      -0.476479       -12.9657
 222   2.0000      -0.472913       -12.8686
 223   2.0000      -0.471617       -12.8334
 224   2.0000      -0.471503       -12.8303
 225   2.0000      -0.470763       -12.8101
 226   2.0000      -0.469148       -12.7662
 227   2.0000      -0.467046       -12.7090
 228   2.0000      -0.466223       -12.6866
 229   2.0000      -0.458976       -12.4894
 230   2.0000      -0.457977       -12.4622
 231   2.0000      -0.457260       -12.4427
 232   2.0000      -0.455928       -12.4064
 233   2.0000      -0.454903       -12.3785
 234   2.0000      -0.453589       -12.3428
 235   2.0000      -0.453171       -12.3314
 236   2.0000      -0.451937       -12.2978
 237   2.0000      -0.449516       -12.2320
 238   2.0000      -0.447752       -12.1840
 239   2.0000      -0.446558       -12.1515
 240   2.0000      -0.446010       -12.1365
 241   2.0000      -0.444549       -12.0968
 242   2.0000      -0.440998       -12.0002
 243   2.0000      -0.440105       -11.9759
 244   2.0000      -0.439699       -11.9648
 245   2.0000      -0.435446       -11.8491
 246   2.0000      -0.434316       -11.8183
 247   2.0000      -0.433653       -11.8003
 248   2.0000      -0.432616       -11.7721
 249   2.0000      -0.431523       -11.7423
 250   2.0000      -0.430872       -11.7246
 251   2.0000      -0.427639       -11.6367
 252   2.0000      -0.419607       -11.4181
 253   2.0000      -0.417588       -11.3631
 254   2.0000      -0.415559       -11.3079
 255   2.0000      -0.414815       -11.2877
 256   2.0000      -0.412687       -11.2298
 257   2.0000      -0.411902       -11.2084
 258   2.0000      -0.408072       -11.1042
 259   2.0000      -0.397808       -10.8249
 260   2.0000      -0.397206       -10.8085
 261   2.0000      -0.393502       -10.7077
 262   2.0000      -0.386458       -10.5161
 263   2.0000      -0.383235       -10.4284
 264   2.0000      -0.379112       -10.3162
 265   2.0000      -0.376703       -10.2506
 266   2.0000      -0.376388       -10.2420
 267   2.0000      -0.351972        -9.5776
 268   2.0000      -0.345597        -9.4042
 269   2.0000      -0.345051        -9.3893
 270   2.0000      -0.328472        -8.9382
 271   2.0000      -0.309065        -8.4101
 272   2.0000      -0.294312        -8.0086
 273   2.0000      -0.269211        -7.3256
 274   0.0000      -0.166343        -4.5264
 275   0.0000      -0.130686        -3.5561
 276   0.0000      -0.125531        -3.4159
 277   0.0000      -0.096127        -2.6157
 278   0.0000      -0.095470        -2.5979

MULLIKEN ATOMIC CHARGES
-----------------------
   0 C :   -0.126809
   1 C :    0.107267
   2 C :    0.114709
   3 C :    0.132513
   4 C :   -0.160578
   5 C :    0.337418
   6 C :   -0.414543
   7 C :   -0.199562
   8 N :    0.189991
   9 C :   -0.163905
  10 N :    0.160784
  11 O :   -0.245406
  12 C :   -0.251807
  13 N :    0.237310
  14 C :   -0.148667
  15 C :   -0.029655
  16 C :    0.030390
  17 C :   -0.084900
  18 S :    0.186633
  19 C :   -0.069593
  20 C :    0.048800
  21 C :    0.303957
  22 C :   -0.287713
  23 C :   -0.189932
  24 N :    0.190978
  25 C :   -0.198139
  26 N :    0.215710
  27 C :   -0.059328
  28 C :   -0.175060
  29 S :    0.214807
  30 C :    0.205683
  31 C :   -0.070909
  32 C :   -0.051796
  33 N :   -0.018105
  34 C :   -0.092344
  35 C :   -0.112459
  36 N :    0.051833
  37 C :   -0.219800
  38 N :    0.265730
  39 C :   -0.236597
  40 N :    0.258392
  41 C :    0.182654
  42 C :   -0.002035
  43 C :   -0.022788
  44 N :   -0.335837
  45 S :    0.594354
  46 N :   -0.273793
  47 C :   -0.166936
  48 C :   -0.065555
  49 C :    0.042237
  50 C :   -0.062626
  51 S :    0.217508
  52 C :   -0.088655
  53 C :    0.033660
  54 C :    0.308606
  55 C :   -0.290388
  56 C :   -0.199983
  57 N :    0.210001
  58 C :   -0.185482
  59 N :    0.179753
  60 C :   -0.029679
  61 C :   -0.152376
  62 S :    0.196419
  63 C :    0.135572
  64 C :   -0.161101
  65 C :    0.338281
  66 C :   -0.418423
  67 C :   -0.199149
  68 N :    0.191846
  69 C :   -0.165353
  70 N :    0.162246
  71 O :   -0.244342
  72 C :   -0.127810
  73 C :    0.105278
  74 C :    0.115432
  75 C :   -0.251589
  76 N :    0.235450
  77 H :    0.024676
  78 H :    0.049778
  79 H :    0.034784
  80 H :    0.020599
  81 H :    0.033712
  82 H :    0.047317
  83 H :    0.035704
  84 H :    0.025311
  85 H :    0.025727
  86 H :    0.033767
  87 H :    0.034154
  88 H :    0.027823
  89 H :    0.051545
  90 H :    0.032670
  91 H :    0.048097
  92 H :    0.023641
Sum of atomic charges:   -0.0000000

LOEWDIN ATOMIC CHARGES
----------------------
   0 C :    0.053380
   1 C :   -0.041659
   2 C :   -0.039578
   3 C :    0.028712
   4 C :   -0.097398
   5 C :    0.130831
   6 C :   -0.180013
   7 C :   -0.036520
   8 N :   -0.036201
   9 C :   -0.024134
  10 N :   -0.050166
  11 O :   -0.043069
  12 C :   -0.041279
  13 N :   -0.001908
  14 C :   -0.180666
  15 C :    0.014818
  16 C :   -0.061682
  17 C :   -0.162487
  18 S :    0.499089
  19 C :   -0.188028
  20 C :   -0.057282
  21 C :    0.068419
  22 C :   -0.081543
  23 C :   -0.016761
  24 N :   -0.014871
  25 C :   -0.027586
  26 N :    0.001598
  27 C :   -0.007891
  28 C :   -0.156011
  29 S :    0.515665
  30 C :   -0.039592
  31 C :   -0.001829
  32 C :   -0.011689
  33 N :   -0.020056
  34 C :   -0.014895
  35 C :   -0.014136
  36 N :    0.010435
  37 C :   -0.042167
  38 N :    0.022227
  39 C :   -0.039533
  40 N :    0.009230
  41 C :   -0.034064
  42 C :   -0.036904
  43 C :   -0.044604
  44 N :   -0.302989
  45 S :    0.709569
  46 N :   -0.264511
  47 C :   -0.159583
  48 C :   -0.006467
  49 C :   -0.059998
  50 C :   -0.185671
  51 S :    0.516511
  52 C :   -0.162282
  53 C :   -0.061759
  54 C :    0.071003
  55 C :   -0.085632
  56 C :   -0.028034
  57 N :    0.000056
  58 C :   -0.014179
  59 N :   -0.025857
  60 C :    0.014350
  61 C :   -0.180192
  62 S :    0.506410
  63 C :    0.029113
  64 C :   -0.097415
  65 C :    0.130729
  66 C :   -0.180346
  67 C :   -0.036496
  68 N :   -0.036890
  69 C :   -0.024281
  70 N :   -0.049760
  71 O :   -0.042386
  72 C :    0.053370
  73 C :   -0.041538
  74 C :   -0.039353
  75 C :   -0.040659
  76 N :   -0.003123
  77 H :    0.019506
  78 H :    0.044722
  79 H :    0.037070
  80 H :    0.021118
  81 H :    0.037346
  82 H :    0.043097
  83 H :    0.051637
  84 H :    0.038976
  85 H :    0.039725
  86 H :    0.051283
  87 H :    0.036827
  88 H :    0.020789
  89 H :    0.045374
  90 H :    0.036893
  91 H :    0.043740
  92 H :    0.021989

  Mayer bond orders larger than 0.100000
B(  0-C ,  1-C ) :   1.0419 B(  0-C ,  2-C ) :   1.0445 B(  0-C ,  3-C ) :   0.9534
B(  0-C , 11-O ) :   0.9210 B(  1-C , 77-H ) :   0.9517 B(  1-C , 78-H ) :   0.9526
B(  1-C , 79-H ) :   0.9536 B(  2-C , 80-H ) :   0.9512 B(  2-C , 81-H ) :   0.9524
B(  2-C , 82-H ) :   0.9555 B(  3-C ,  4-C ) :   1.6607 B(  3-C , 14-C ) :   1.2002
B(  4-C ,  5-C ) :   1.0573 B(  4-C , 12-C ) :   1.1576 B(  5-C ,  6-C ) :   1.6160
B(  5-C , 11-O ) :   1.2391 B(  6-C ,  7-C ) :   1.1794 B(  6-C ,  9-C ) :   1.1093
B(  7-C ,  8-N ) :   3.0261 B(  9-C , 10-N ) :   3.0544 B( 12-C , 13-N ) :   2.9533
B( 14-C , 15-C ) :   1.4127 B( 14-C , 18-S ) :   1.0700 B( 15-C , 16-C ) :   1.3252
B( 15-C , 83-H ) :   0.9795 B( 16-C , 17-C ) :   1.3869 B( 16-C , 21-C ) :   0.9833
B( 17-C , 18-S ) :   1.1435 B( 17-C , 19-C ) :   1.2156 B( 19-C , 20-C ) :   1.3877
B( 19-C , 29-S ) :   1.0900 B( 20-C , 21-C ) :   0.9926 B( 20-C , 27-C ) :   1.2880
B( 21-C , 22-C ) :   1.7292 B( 22-C , 23-C ) :   1.1375 B( 22-C , 25-C ) :   1.1344
B( 23-C , 24-N ) :   2.9873 B( 25-C , 26-N ) :   2.9946 B( 27-C , 28-C ) :   1.3980
B( 27-C , 84-H ) :   0.9827 B( 28-C , 29-S ) :   1.1046 B( 28-C , 30-C ) :   1.1959
B( 30-C , 31-C ) :   1.2522 B( 30-C , 41-C ) :   0.1224 B( 30-C , 43-C ) :   1.1953
B( 31-C , 32-C ) :   1.1110 B( 31-C , 36-N ) :   1.4533 B( 32-C , 33-N ) :   1.3943
B( 32-C , 41-C ) :   1.2466 B( 33-N , 34-C ) :   1.6901 B( 34-C , 35-C ) :   1.2123
B( 34-C , 39-C ) :   1.1628 B( 35-C , 36-N ) :   1.7235 B( 35-C , 37-C ) :   1.1601
B( 37-C , 38-N ) :   3.0283 B( 39-C , 40-N ) :   3.0410 B( 41-C , 42-C ) :   1.2045
B( 41-C , 47-C ) :   1.2136 B( 42-C , 43-C ) :   1.1114 B( 42-C , 46-N ) :   1.5121
B( 43-C , 44-N ) :   1.4693 B( 44-N , 45-S ) :   1.2744 B( 44-N , 46-N ) :   0.1491
B( 45-S , 46-N ) :   1.2964 B( 47-C , 48-C ) :   1.4025 B( 47-C , 51-S ) :   1.0935
B( 48-C , 49-C ) :   1.2907 B( 48-C , 85-H ) :   0.9817 B( 49-C , 50-C ) :   1.3909
B( 49-C , 54-C ) :   0.9886 B( 50-C , 51-S ) :   1.0757 B( 50-C , 52-C ) :   1.2183
B( 52-C , 53-C ) :   1.3840 B( 52-C , 62-S ) :   1.1485 B( 53-C , 54-C ) :   0.9821
B( 53-C , 60-C ) :   1.3256 B( 54-C , 55-C ) :   1.7252 B( 55-C , 56-C ) :   1.1332
B( 55-C , 58-C ) :   1.1416 B( 56-C , 57-N ) :   2.9949 B( 58-C , 59-N ) :   2.9829
B( 60-C , 61-C ) :   1.4123 B( 60-C , 86-H ) :   0.9793 B( 61-C , 62-S ) :   1.0717
B( 61-C , 63-C ) :   1.2000 B( 63-C , 64-C ) :   1.6606 B( 63-C , 72-C ) :   0.9529
B( 64-C , 65-C ) :   1.0570 B( 64-C , 75-C ) :   1.1587 B( 65-C , 66-C ) :   1.6162
B( 65-C , 71-O ) :   1.2407 B( 66-C , 67-C ) :   1.1802 B( 66-C , 69-C ) :   1.1104
B( 67-C , 68-N ) :   3.0266 B( 69-C , 70-N ) :   3.0545 B( 71-O , 72-C ) :   0.9204
B( 72-C , 73-C ) :   1.0417 B( 72-C , 74-C ) :   1.0448 B( 73-C , 87-H ) :   0.9537
B( 73-C , 88-H ) :   0.9518 B( 73-C , 89-H ) :   0.9527 B( 74-C , 90-H ) :   0.9521
B( 74-C , 91-H ) :   0.9550 B( 74-C , 92-H ) :   0.9511 B( 75-C , 76-N ) :   2.9506

-----------------------------------------------------------------------------
         ABSORPTION SPECTRUM VIA TRANSITION ELECTRIC DIPOLE MOMENTS
-----------------------------------------------------------------------------
State   Energy  Wavelength   fosc         T2         TX        TY        TZ
        (cm-1)    (nm)                  (au**2)     (au)      (au)      (au)
-----------------------------------------------------------------------------
   0    8030.2   1245.3   0.868613845  35.61044   4.04799   4.28867  -0.91188
   1   14231.4    702.7   0.016187920   0.37447  -0.04264  -0.44758  -0.41512
   2   14773.0    676.9   0.101614661   2.26445   1.12367   1.00087  -0.00878
   3   16147.8    619.3   0.014375215   0.29307  -0.21953   0.20619   0.44985
   4   20100.1    497.5   0.097903148   1.60352   0.93246   0.85657  -0.01811
   5   22381.2    446.8   0.911164786  13.40260   2.57483   2.60208   0.04512
   6   22631.5    441.9   0.521388516   7.58445  -1.90509  -1.86332   0.69505
   7   23095.5    433.0   0.044090611   0.62848  -0.04533  -0.36364  -0.70299
   8   23380.6    427.7   0.016349528   0.23021   0.39745   0.19526   0.18470
   9   23405.0    427.3   0.186973609   2.62995  -1.44039  -0.71650  -0.20458
  10   24642.0    405.8   0.455779699   6.08912   1.71077   1.71866  -0.45672
  11   24917.9    401.3   0.028603822   0.37791   0.17024   0.40449   0.43049
  12   25010.4    399.8   0.064222032   0.84536  -0.62230  -0.67674  -0.01059
  13   25234.6    396.3   0.037833007   0.49357  -0.29916  -0.63495  -0.03027
  14   25742.3    388.5   0.017601399   0.22510   0.30126  -0.32922  -0.16112
  15   26459.7    377.9   0.080069580   0.99623  -0.82880  -0.54816  -0.09400
  16   28053.0    356.5   0.009284451   0.10896   0.16699  -0.03813   0.28216
  17   28907.7    345.9   0.024011932   0.27346  -0.20220  -0.39402   0.27806
  18   30025.3    333.1   0.100115679   1.09772  -0.80776  -0.00801  -0.66722
  19   30119.4    332.0   0.109847742   1.20066   0.63007  -0.20992   0.87156
  20   30165.9    331.5   0.018007824   0.19653   0.32611   0.03021   0.29878
  21   30355.3    329.4   0.029786416   0.32304   0.32894   0.28497   0.36556
  22   30689.9    325.8   0.149651514   1.60532  -0.36405   0.62295  -1.04150
  23   30728.3    325.4   0.266666270   2.85697   1.22254   0.38967   1.10024
  24   31311.5    319.4   0.065125306   0.68473  -0.35483  -0.66301   0.34532
  25   31773.7    314.7   0.539086296   5.58556  -0.18349   1.28975  -1.97191
  26   32519.8    307.5   0.351919557   3.56264  -0.37497   0.79203  -1.67174
  27   32653.8    306.2   0.480960119   4.84899   0.53996  -1.17980   1.77919
  28   33257.7    300.7   0.101922290   1.00891  -0.73532  -0.51140   0.45463
  29   33343.4    299.9   0.076287535   0.75322   0.51936   0.66546   0.20161
  30   33745.1    296.3   0.044001134   0.42927  -0.45756  -0.46610  -0.05159
  31   34494.2    289.9   0.059331694   0.56626  -0.67962  -0.28161  -0.15832
  32   34602.3    289.0   0.010772297   0.10249  -0.20781  -0.09667  -0.22351
  33   34821.8    287.2   0.142781232   1.34988  -0.90168  -0.59326  -0.43000
  34   35640.3    280.6   0.036980598   0.34159  -0.31382  -0.21904  -0.44174
  35   35989.9    277.9   0.179616093   1.64301  -1.10439  -0.64166  -0.10770
  36   36058.7    277.3   0.085560372   0.78116   0.62000   0.60889   0.16125
  37   36213.9    276.1   0.111593248   1.01447  -0.81676  -0.36039  -0.46635
  38   36546.1    273.6   0.016013310   0.14425  -0.05194   0.29169  -0.23764
  39   36991.9    270.3   0.042305983   0.37650   0.34261  -0.18291   0.47504
  40   37077.7    269.7   0.080175960   0.71188   0.01790  -0.51192   0.67045
  41   37234.0    268.6   0.160948581   1.42306  -0.56145   0.26479  -1.01868
  42   37475.5    266.8   0.020779950   0.18255   0.29572  -0.03697   0.30615
  43   37507.6    266.6   0.055748568   0.48932   0.41238  -0.09348   0.55725
  44   38375.8    260.6   0.004243840   0.03641  -0.10259   0.13632  -0.08544
  45   38640.7    258.8   0.232259712   1.97881   0.60735  -0.41630   1.19860
  46   39020.0    256.3   0.013561024   0.11441  -0.19919   0.17810  -0.20742
  47   39628.0    252.3   0.034567973   0.28718  -0.41239  -0.34221   0.00147
  48   39705.6    251.9   0.005766405   0.04781  -0.08691   0.07154  -0.18746
  49   40292.8    248.2   0.060622958   0.49532   0.40449  -0.08296   0.56994

FINAL SINGLE POINT ENERGY     -5079.999045771266

DIPOLE MOMENT
-------------
                                X             Y             Z
Electronic contribution:     -0.86565       0.90405       2.49103
Nuclear contribution   :     -1.45689       0.93965      -3.10404
                        -----------------------------------------
Total Dipole Moment    :     -2.32254       1.84371      -0.61301
                        -----------------------------------------
Magnitude (a.u.)       :      3.02807
Magnitude (Debye)      :      7.69675

Rotational constants in cm-1:     0.002286     0.000212     0.000197
Rotational constants in MHz :    68.521765     6.357135     5.913697

                             ****ORCA TERMINATED NORMALLY****
TOTAL RUN TIME: 0 days 0 hours 10 minutes 44 seconds 924 msec
