                         Program Version 4.2.0 -  RELEASE  -
|  1> # ORCA input file
|  2> # SCF done       -185.239980782011          0.000657795346
|  3> ! CAM-B3LYP def2-SVP def2/J RIJCOSX Grid4 TightSCF
|  4> %maxcore 5000
|  5> %tddft
|  6>     Mode sTDDFT
|  7>     Ethresh 5.0
|  8>     maxcore 5000
|  9> end
| 10>
| 11> %pal
| 12>   nprocs 6
| 13>   end
| 14> * xyz 0 1
| 15>    C       -5.14745        -1.09716         0.51734
| 16>    C       -4.70341        -1.50018         1.75053
| 17>    C       -4.69899        -2.84192         2.18744
| 18>    N       -4.66753        -3.91041         2.60617
| 19>    C       -4.19354        -0.66167         2.76462
| 20>    N       -3.77162        -0.06459         3.65033
| 21>    C       -5.68864        -1.97574        -0.51498
| 22>    C       -6.07172        -1.18711        -1.63016
| 23>    C       -6.62448        -1.72186        -2.76889
| 24>    C       -6.79850        -3.10807        -2.81599
| 25>    C       -6.40662        -3.89109        -1.70302
| 26>    C       -5.85593        -3.34703        -0.54776
| 27>    S       -6.70361        -5.57663        -1.98633
| 28>    C       -7.33642        -5.22687        -3.55787
| 29>    C       -7.32983        -3.91114        -3.86395
| 30>    C       -5.76425         0.22055        -1.35192
| 31>    O       -5.94272         1.16243        -2.10488
| 32>    C       -5.17756         0.25730        -0.00343
| 33>    C       -4.71292         1.38500         0.62189
| 34>    C       -4.69381         2.70657         0.15459
| 35>    C       -4.14177         3.74635         0.91697
| 36>    C       -4.17210         5.00826         0.27836
| 37>    S       -3.46494         6.19316         1.31420
| 38>    C       -3.20108         4.89656         2.51273
| 39>    N       -3.58882         3.73090         2.15236
| 40>    C       -2.56523         5.20338         3.80853
| 41>    C       -4.79034         4.97506        -0.96757
| 42>    S       -5.31418         3.34500        -1.34688
| 43>    C       -4.98131         6.00984        -1.91302
| 44>    C       -5.82370         5.80464        -3.03887
| 45>    C       -5.97666         6.77340        -4.09216
| 46>    N       -6.66163         6.44277        -5.19195
| 47>    C       -7.27245         5.28811        -5.25662
| 48>    C       -7.24085         4.37845        -4.14787
| 49>    N       -6.50619         4.65833        -3.10115
| 50>    C       -7.98722         3.17491        -4.18181
| 51>    N       -8.60743         2.21606        -4.27153
| 52>    C       -7.99483         4.97908        -6.43604
| 53>    N       -8.60803         4.73176        -7.37146
| 54>    C       -5.34965         8.03956        -4.02470
| 55>    C       -4.51257         8.24735        -2.90677
| 56>    C       -4.34086         7.26888        -1.86095
| 57>    N       -3.50332         7.70882        -0.92209
| 58>    S       -2.99118         9.18203        -1.29908
| 59>    N       -3.79132         9.34492        -2.67990
| 60>    C       -5.50061         9.05126        -5.00515
| 61>    C       -6.48307         9.24653        -5.97417
| 62>    C       -6.25192        10.40934        -6.76224
| 63>    S       -7.49770        10.58809        -7.93613
| 64>    C       -8.24587         9.10055        -7.26391
| 65>    N       -7.61447         8.57155        -6.29187
| 66>    C       -9.50381         8.58977        -7.83903
| 67>    C       -5.11999        11.13334        -6.41906
| 68>    S       -4.33152        10.33366        -5.07342
| 69>    C       -4.59095        12.24485        -7.10033
| 70>    C       -3.50143        13.00217        -6.78354
| 71>    C       -2.71036        13.08804        -5.57561
| 72>    C       -3.19388        13.04033        -4.29310
| 73>    C       -2.38985        13.09228        -3.14034
| 74>    N       -1.77401        13.07576        -2.17081
| 75>    C       -4.57481        12.99282        -4.00683
| 76>    N       -5.69246        13.02906        -3.74796
| 77>    C       -1.37100        13.50405        -5.96976
| 78>    C       -1.41200        13.92687        -7.32466
| 79>    C       -2.77262        13.72371        -7.86200
| 80>    O       -3.19206        14.01309        -8.95867
| 81>    C       -0.30373        14.41540        -7.97311
| 82>    C        0.89761        14.47641        -7.25925
| 83>    C        0.92767        14.04305        -5.91160
| 84>    C       -0.19522        13.56070        -5.24881
| 85>    S        2.51920        14.19722        -5.23762
| 86>    C        3.11787        14.83063        -6.73192
| 87>    C        2.17639        14.92463        -7.69580
| 88>    H       -6.91259        -1.08778        -3.59299
| 89>    H       -5.57662        -3.98850         0.27116
| 90>    H       -7.67883        -6.04238        -4.16481
| 91>    H       -7.68429        -3.50616        -4.79435
| 92>    H       -4.27452         1.28537         1.60811
| 93>    H       -3.14399         5.95500         4.34347
| 94>    H       -1.56381         5.60224         3.65216
| 95>    H       -2.50666         4.29590         4.40321
| 96>    H       -9.52135         8.74372        -8.91548
| 97>    H      -10.35310         9.12018        -7.40666
| 98>    H       -9.60184         7.53028        -7.61376
| 99>    H       -5.04201        12.45371        -8.06636
|100>    H       -0.36067        14.73925        -9.00070
|101>    H       -0.13084        13.23581        -4.22306
|102>    H        4.15515        15.09608        -6.79646
|103>    H        2.36479        15.29442        -8.68738
|104> *
|105>
|106>                          ****END OF INPUT****

CARTESIAN COORDINATES (ANGSTROEM)
---------------------------------
  C     -5.147450   -1.097160    0.517340
  C     -4.703410   -1.500180    1.750530
  C     -4.698990   -2.841920    2.187440
  N     -4.667530   -3.910410    2.606170
  C     -4.193540   -0.661670    2.764620
  N     -3.771620   -0.064590    3.650330
  C     -5.688640   -1.975740   -0.514980
  C     -6.071720   -1.187110   -1.630160
  C     -6.624480   -1.721860   -2.768890
  C     -6.798500   -3.108070   -2.815990
  C     -6.406620   -3.891090   -1.703020
  C     -5.855930   -3.347030   -0.547760
  S     -6.703610   -5.576630   -1.986330
  C     -7.336420   -5.226870   -3.557870
  C     -7.329830   -3.911140   -3.863950
  C     -5.764250    0.220550   -1.351920
  O     -5.942720    1.162430   -2.104880
  C     -5.177560    0.257300   -0.003430
  C     -4.712920    1.385000    0.621890
  C     -4.693810    2.706570    0.154590
  C     -4.141770    3.746350    0.916970
  C     -4.172100    5.008260    0.278360
  S     -3.464940    6.193160    1.314200
  C     -3.201080    4.896560    2.512730
  N     -3.588820    3.730900    2.152360
  C     -2.565230    5.203380    3.808530
  C     -4.790340    4.975060   -0.967570
  S     -5.314180    3.345000   -1.346880
  C     -4.981310    6.009840   -1.913020
  C     -5.823700    5.804640   -3.038870
  C     -5.976660    6.773400   -4.092160
  N     -6.661630    6.442770   -5.191950
  C     -7.272450    5.288110   -5.256620
  C     -7.240850    4.378450   -4.147870
  N     -6.506190    4.658330   -3.101150
  C     -7.987220    3.174910   -4.181810
  N     -8.607430    2.216060   -4.271530
  C     -7.994830    4.979080   -6.436040
  N     -8.608030    4.731760   -7.371460
  C     -5.349650    8.039560   -4.024700
  C     -4.512570    8.247350   -2.906770
  C     -4.340860    7.268880   -1.860950
  N     -3.503320    7.708820   -0.922090
  S     -2.991180    9.182030   -1.299080
  N     -3.791320    9.344920   -2.679900
  C     -5.500610    9.051260   -5.005150
  C     -6.483070    9.246530   -5.974170
  C     -6.251920   10.409340   -6.762240
  S     -7.497700   10.588090   -7.936130
  C     -8.245870    9.100550   -7.263910
  N     -7.614470    8.571550   -6.291870
  C     -9.503810    8.589770   -7.839030
  C     -5.119990   11.133340   -6.419060
  S     -4.331520   10.333660   -5.073420
  C     -4.590950   12.244850   -7.100330
  C     -3.501430   13.002170   -6.783540
  C     -2.710360   13.088040   -5.575610
  C     -3.193880   13.040330   -4.293100
  C     -2.389850   13.092280   -3.140340
  N     -1.774010   13.075760   -2.170810
  C     -4.574810   12.992820   -4.006830
  N     -5.692460   13.029060   -3.747960
  C     -1.371000   13.504050   -5.969760
  C     -1.412000   13.926870   -7.324660
  C     -2.772620   13.723710   -7.862000
  O     -3.192060   14.013090   -8.958670
  C     -0.303730   14.415400   -7.973110
  C      0.897610   14.476410   -7.259250
  C      0.927670   14.043050   -5.911600
  C     -0.195220   13.560700   -5.248810
  S      2.519200   14.197220   -5.237620
  C      3.117870   14.830630   -6.731920
  C      2.176390   14.924630   -7.695800
  H     -6.912590   -1.087780   -3.592990
  H     -5.576620   -3.988500    0.271160
  H     -7.678830   -6.042380   -4.164810
  H     -7.684290   -3.506160   -4.794350
  H     -4.274520    1.285370    1.608110
  H     -3.143990    5.955000    4.343470
  H     -1.563810    5.602240    3.652160
  H     -2.506660    4.295900    4.403210
  H     -9.521350    8.743720   -8.915480
  H    -10.353100    9.120180   -7.406660
  H     -9.601840    7.530280   -7.613760
  H     -5.042010   12.453710   -8.066360
  H     -0.360670   14.739250   -9.000700
  H     -0.130840   13.235810   -4.223060
  H      4.155150   15.096080   -6.796460
  H      2.364790   15.294420   -8.687380

 Total Charge           Charge          ....    0
 Multiplicity           Mult            ....    1
 Number of Electrons    NEL             ....  540
 Basis Dimension        Dim             .... 1130

ORBITAL ENERGIES
----------------

  NO   OCC          E(Eh)            E(eV)
   0   2.0000     -89.057579     -2423.3799
   1   2.0000     -88.975121     -2421.1361
   2   2.0000     -88.968536     -2420.9569
   3   2.0000     -88.967872     -2420.9389
   4   2.0000     -88.967782     -2420.9364
   5   2.0000     -88.964183     -2420.8385
   6   2.0000     -88.963448     -2420.8185
   7   2.0000     -19.219783      -522.9969
   8   2.0000     -19.213734      -522.8323
   9   2.0000     -14.467457      -393.6795
  10   2.0000     -14.466821      -393.6622
  11   2.0000     -14.464951      -393.6113
  12   2.0000     -14.461039      -393.5049
  13   2.0000     -14.433804      -392.7638
  14   2.0000     -14.432251      -392.7215
  15   2.0000     -14.420507      -392.4019
  16   2.0000     -14.417616      -392.3233
  17   2.0000     -14.413853      -392.2209
  18   2.0000     -14.412092      -392.1730
  19   2.0000     -14.411243      -392.1499
  20   2.0000     -14.411138      -392.1470
  21   2.0000     -10.387206      -282.6503
  22   2.0000     -10.383970      -282.5622
  23   2.0000     -10.366658      -282.0911
  24   2.0000     -10.365903      -282.0706
  25   2.0000     -10.357597      -281.8445
  26   2.0000     -10.357218      -281.8342
  27   2.0000     -10.355992      -281.8009
  28   2.0000     -10.354975      -281.7732
  29   2.0000     -10.354204      -281.7522
  30   2.0000     -10.346111      -281.5320
  31   2.0000     -10.343718      -281.4669
  32   2.0000     -10.342416      -281.4314
  33   2.0000     -10.338855      -281.3345
  34   2.0000     -10.337598      -281.3004
  35   2.0000     -10.334708      -281.2217
  36   2.0000     -10.334481      -281.2155
  37   2.0000     -10.329222      -281.0724
  38   2.0000     -10.328056      -281.0407
  39   2.0000     -10.326100      -280.9875
  40   2.0000     -10.325632      -280.9747
  41   2.0000     -10.325589      -280.9736
  42   2.0000     -10.323728      -280.9229
  43   2.0000     -10.323553      -280.9182
  44   2.0000     -10.323220      -280.9091
  45   2.0000     -10.322860      -280.8993
  46   2.0000     -10.322580      -280.8917
  47   2.0000     -10.318811      -280.7891
  48   2.0000     -10.317313      -280.7484
  49   2.0000     -10.317217      -280.7458
  50   2.0000     -10.316474      -280.7255
  51   2.0000     -10.315514      -280.6994
  52   2.0000     -10.314674      -280.6766
  53   2.0000     -10.314180      -280.6631
  54   2.0000     -10.314093      -280.6607
  55   2.0000     -10.313307      -280.6393
  56   2.0000     -10.310568      -280.5648
  57   2.0000     -10.308567      -280.5104
  58   2.0000     -10.305313      -280.4218
  59   2.0000     -10.303051      -280.3603
  60   2.0000     -10.302933      -280.3571
  61   2.0000     -10.300303      -280.2855
  62   2.0000     -10.299509      -280.2639
  63   2.0000     -10.297914      -280.2205
  64   2.0000     -10.297594      -280.2118
  65   2.0000     -10.297416      -280.2069
  66   2.0000     -10.295014      -280.1416
  67   2.0000     -10.292327      -280.0685
  68   2.0000     -10.290529      -280.0195
  69   2.0000     -10.286619      -279.9131
  70   2.0000     -10.285433      -279.8809
  71   2.0000     -10.283646      -279.8322
  72   2.0000     -10.280980      -279.7597
  73   2.0000      -8.148362      -221.7282
  74   2.0000      -8.068654      -219.5593
  75   2.0000      -8.064761      -219.4533
  76   2.0000      -8.064096      -219.4352
  77   2.0000      -8.059633      -219.3138
  78   2.0000      -8.059274      -219.3040
  79   2.0000      -8.058976      -219.2959
  80   2.0000      -6.119420      -166.5179
  81   2.0000      -6.111618      -166.3056
  82   2.0000      -6.111215      -166.2946
  83   2.0000      -6.038188      -164.3075
  84   2.0000      -6.034284      -164.2012
  85   2.0000      -6.033715      -164.1857
  86   2.0000      -6.033512      -164.1802
  87   2.0000      -6.030571      -164.1002
  88   2.0000      -6.029981      -164.0841
  89   2.0000      -6.029523      -164.0717
  90   2.0000      -6.029124      -164.0608
  91   2.0000      -6.028869      -164.0539
  92   2.0000      -6.028612      -164.0469
  93   2.0000      -6.026439      -163.9877
  94   2.0000      -6.025572      -163.9641
  95   2.0000      -6.024844      -163.9443
  96   2.0000      -6.024272      -163.9288
  97   2.0000      -6.024163      -163.9258
  98   2.0000      -6.021350      -163.8493
  99   2.0000      -6.021177      -163.8446
 100   2.0000      -6.020462      -163.8251
 101   2.0000      -1.155326       -31.4380
 102   2.0000      -1.135097       -30.8876
 103   2.0000      -1.129111       -30.7247
 104   2.0000      -1.128104       -30.6973
 105   2.0000      -1.080896       -29.4127
 106   2.0000      -1.075602       -29.2686
 107   2.0000      -1.053710       -28.6729
 108   2.0000      -1.022698       -27.8290
 109   2.0000      -1.018739       -27.7213
 110   2.0000      -1.016431       -27.6585
 111   2.0000      -1.014777       -27.6135
 112   2.0000      -1.009641       -27.4737
 113   2.0000      -1.007063       -27.4036
 114   2.0000      -1.004527       -27.3346
 115   2.0000      -1.000488       -27.2247
 116   2.0000      -0.995221       -27.0813
 117   2.0000      -0.989520       -26.9262
 118   2.0000      -0.988277       -26.8924
 119   2.0000      -0.984404       -26.7870
 120   2.0000      -0.981973       -26.7208
 121   2.0000      -0.973604       -26.4931
 122   2.0000      -0.934126       -25.4189
 123   2.0000      -0.929963       -25.3056
 124   2.0000      -0.922916       -25.1138
 125   2.0000      -0.917818       -24.9751
 126   2.0000      -0.911976       -24.8161
 127   2.0000      -0.901257       -24.5245
 128   2.0000      -0.893750       -24.3202
 129   2.0000      -0.893073       -24.3018
 130   2.0000      -0.882950       -24.0263
 131   2.0000      -0.877604       -23.8808
 132   2.0000      -0.876356       -23.8469
 133   2.0000      -0.868013       -23.6198
 134   2.0000      -0.867120       -23.5955
 135   2.0000      -0.859847       -23.3976
 136   2.0000      -0.845040       -22.9947
 137   2.0000      -0.824687       -22.4409
 138   2.0000      -0.823354       -22.4046
 139   2.0000      -0.819857       -22.3094
 140   2.0000      -0.818247       -22.2656
 141   2.0000      -0.806074       -21.9344
 142   2.0000      -0.798042       -21.7158
 143   2.0000      -0.790284       -21.5047
 144   2.0000      -0.786568       -21.4036
 145   2.0000      -0.766582       -20.8598
 146   2.0000      -0.757111       -20.6020
 147   2.0000      -0.754165       -20.5219
 148   2.0000      -0.748093       -20.3567
 149   2.0000      -0.736067       -20.0294
 150   2.0000      -0.718868       -19.5614
 151   2.0000      -0.712108       -19.3774
 152   2.0000      -0.706006       -19.2114
 153   2.0000      -0.695702       -18.9310
 154   2.0000      -0.691960       -18.8292
 155   2.0000      -0.686216       -18.6729
 156   2.0000      -0.685387       -18.6503
 157   2.0000      -0.682874       -18.5820
 158   2.0000      -0.676607       -18.4114
 159   2.0000      -0.670097       -18.2343
 160   2.0000      -0.663273       -18.0486
 161   2.0000      -0.659516       -17.9463
 162   2.0000      -0.657115       -17.8810
 163   2.0000      -0.654275       -17.8037
 164   2.0000      -0.643386       -17.5074
 165   2.0000      -0.634444       -17.2641
 166   2.0000      -0.631646       -17.1880
 167   2.0000      -0.628268       -17.0960
 168   2.0000      -0.620766       -16.8919
 169   2.0000      -0.618177       -16.8215
 170   2.0000      -0.609444       -16.5838
 171   2.0000      -0.600645       -16.3444
 172   2.0000      -0.598314       -16.2809
 173   2.0000      -0.595941       -16.2164
 174   2.0000      -0.588463       -16.0129
 175   2.0000      -0.587107       -15.9760
 176   2.0000      -0.584596       -15.9077
 177   2.0000      -0.580570       -15.7981
 178   2.0000      -0.570767       -15.5314
 179   2.0000      -0.567124       -15.4322
 180   2.0000      -0.557993       -15.1838
 181   2.0000      -0.557202       -15.1622
 182   2.0000      -0.551981       -15.0202
 183   2.0000      -0.548384       -14.9223
 184   2.0000      -0.546015       -14.8578
 185   2.0000      -0.544704       -14.8222
 186   2.0000      -0.539933       -14.6923
 187   2.0000      -0.538871       -14.6634
 188   2.0000      -0.536613       -14.6020
 189   2.0000      -0.535077       -14.5602
 190   2.0000      -0.533152       -14.5078
 191   2.0000      -0.532613       -14.4931
 192   2.0000      -0.527064       -14.3421
 193   2.0000      -0.522392       -14.2150
 194   2.0000      -0.520206       -14.1555
 195   2.0000      -0.516787       -14.0625
 196   2.0000      -0.512302       -13.9404
 197   2.0000      -0.510570       -13.8933
 198   2.0000      -0.508747       -13.8437
 199   2.0000      -0.504756       -13.7351
 200   2.0000      -0.502878       -13.6840
 201   2.0000      -0.501127       -13.6364
 202   2.0000      -0.497362       -13.5339
 203   2.0000      -0.495243       -13.4762
 204   2.0000      -0.494085       -13.4447
 205   2.0000      -0.492746       -13.4083
 206   2.0000      -0.491322       -13.3696
 207   2.0000      -0.489491       -13.3197
 208   2.0000      -0.487238       -13.2584
 209   2.0000      -0.486031       -13.2256
 210   2.0000      -0.484944       -13.1960
 211   2.0000      -0.475889       -12.9496
 212   2.0000      -0.472705       -12.8630
 213   2.0000      -0.470090       -12.7918
 214   2.0000      -0.467477       -12.7207
 215   2.0000      -0.461838       -12.5673
 216   2.0000      -0.460089       -12.5197
 217   2.0000      -0.457865       -12.4591
 218   2.0000      -0.457360       -12.4454
 219   2.0000      -0.456771       -12.4294
 220   2.0000      -0.452913       -12.3244
 221   2.0000      -0.451376       -12.2826
 222   2.0000      -0.449697       -12.2369
 223   2.0000      -0.448055       -12.1922
 224   2.0000      -0.445399       -12.1199
 225   2.0000      -0.444209       -12.0875
 226   2.0000      -0.443532       -12.0691
 227   2.0000      -0.443126       -12.0581
 228   2.0000      -0.440374       -11.9832
 229   2.0000      -0.438464       -11.9312
 230   2.0000      -0.435013       -11.8373
 231   2.0000      -0.433769       -11.8035
 232   2.0000      -0.433287       -11.7903
 233   2.0000      -0.432779       -11.7765
 234   2.0000      -0.430259       -11.7079
 235   2.0000      -0.429301       -11.6819
 236   2.0000      -0.428500       -11.6601
 237   2.0000      -0.427739       -11.6394
 238   2.0000      -0.422845       -11.5062
 239   2.0000      -0.422371       -11.4933
 240   2.0000      -0.421315       -11.4646
 241   2.0000      -0.418477       -11.3874
 242   2.0000      -0.415949       -11.3185
 243   2.0000      -0.411233       -11.1902
 244   2.0000      -0.406625       -11.0648
 245   2.0000      -0.404322       -11.0022
 246   2.0000      -0.400291       -10.8925
 247   2.0000      -0.397751       -10.8234
 248   2.0000      -0.391332       -10.6487
 249   2.0000      -0.386858       -10.5270
 250   2.0000      -0.380650       -10.3580
 251   2.0000      -0.375336       -10.2134
 252   2.0000      -0.372419       -10.1340
 253   2.0000      -0.364686        -9.9236
 254   2.0000      -0.356929        -9.7125
 255   2.0000      -0.355094        -9.6626
 256   2.0000      -0.347610        -9.4590
 257   2.0000      -0.343333        -9.3426
 258   2.0000      -0.336871        -9.1667
 259   2.0000      -0.335276        -9.1233
 260   2.0000      -0.327767        -8.9190
 261   2.0000      -0.321989        -8.7618
 262   2.0000      -0.314399        -8.5552
 263   2.0000      -0.312908        -8.5147
 264   2.0000      -0.311472        -8.4756
 265   2.0000      -0.304545        -8.2871
 266   2.0000      -0.296871        -8.0783
 267   2.0000      -0.292388        -7.9563
 268   2.0000      -0.284359        -7.7378
 269   2.0000      -0.246837        -6.7168
 270   0.0000      -0.139917        -3.8073
 271   0.0000      -0.091350        -2.4858
 272   0.0000      -0.084091        -2.2882
 273   0.0000      -0.060529        -1.6471
 274   0.0000      -0.057260        -1.5581

MULLIKEN ATOMIC CHARGES
-----------------------
   0 C :    0.331625
   1 C :   -0.353120
   2 C :   -0.186348
   3 N :    0.147606
   4 C :   -0.197412
   5 N :    0.162303
   6 C :    0.013670
   7 C :   -0.017384
   8 C :   -0.062357
   9 C :    0.113562
  10 C :   -0.098348
  11 C :   -0.022943
  12 S :    0.140083
  13 C :   -0.048208
  14 C :    0.025994
  15 C :    0.175567
  16 O :   -0.179754
  17 C :   -0.082950
  18 C :   -0.060085
  19 C :   -0.095830
  20 C :    0.079682
  21 C :    0.031967
  22 S :    0.131785
  23 C :   -0.193738
  24 N :   -0.017284
  25 C :    0.120409
  26 C :   -0.268324
  27 S :    0.226744
  28 C :    0.173066
  29 C :   -0.059054
  30 C :   -0.091621
  31 N :    0.091139
  32 C :   -0.156573
  33 C :   -0.097852
  34 N :    0.010612
  35 C :   -0.201851
  36 N :    0.232120
  37 C :   -0.180384
  38 N :    0.214130
  39 C :    0.168885
  40 C :   -0.014062
  41 C :    0.009681
  42 N :   -0.302830
  43 S :    0.585753
  44 N :   -0.311916
  45 C :   -0.259341
  46 C :    0.139077
  47 C :    0.013287
  48 S :    0.109291
  49 C :   -0.194166
  50 N :    0.002457
  51 C :    0.122342
  52 C :   -0.157646
  53 S :    0.185267
  54 C :    0.050191
  55 C :   -0.138291
  56 C :    0.236672
  57 C :   -0.311201
  58 C :   -0.176358
  59 N :    0.140872
  60 C :   -0.215031
  61 N :    0.171549
  62 C :    0.016581
  63 C :   -0.004047
  64 C :    0.137766
  65 O :   -0.143871
  66 C :   -0.065514
  67 C :    0.106002
  68 C :   -0.089775
  69 C :   -0.027473
  70 S :    0.135680
  71 C :   -0.051267
  72 C :    0.029524
  73 H :   -0.004439
  74 H :   -0.008337
  75 H :    0.038438
  76 H :   -0.004271
  77 H :    0.023560
  78 H :    0.041717
  79 H :    0.040425
  80 H :    0.054221
  81 H :    0.032658
  82 H :    0.052668
  83 H :    0.053085
  84 H :    0.017494
  85 H :   -0.010439
  86 H :   -0.008179
  87 H :    0.039010
  88 H :   -0.006341
Sum of atomic charges:   -0.0000000

LOEWDIN ATOMIC CHARGES
----------------------
   0 C :    0.074146
   1 C :   -0.137192
   2 C :   -0.017091
   3 N :   -0.054551
   4 C :   -0.025181
   5 N :   -0.043355
   6 C :   -0.021412
   7 C :   -0.054227
   8 C :    0.027820
   9 C :   -0.035027
  10 C :   -0.145324
  11 C :   -0.009604
  12 S :    0.429432
  13 C :   -0.149978
  14 C :   -0.055903
  15 C :    0.087146
  16 O :   -0.164062
  17 C :   -0.093443
  18 C :    0.058189
  19 C :   -0.186995
  20 C :   -0.044312
  21 C :   -0.196956
  22 S :    0.407708
  23 C :   -0.095469
  24 N :   -0.096623
  25 C :   -0.066863
  26 C :   -0.180027
  27 S :    0.560639
  28 C :   -0.032089
  29 C :   -0.010878
  30 C :    0.000450
  31 N :    0.029103
  32 C :   -0.026542
  33 C :   -0.019404
  34 N :   -0.013366
  35 C :   -0.031988
  36 N :   -0.005065
  37 C :   -0.026730
  38 N :   -0.015911
  39 C :   -0.046184
  40 C :   -0.041522
  41 C :   -0.039111
  42 N :   -0.285716
  43 S :    0.702900
  44 N :   -0.295905
  45 C :   -0.147402
  46 C :   -0.051345
  47 C :   -0.175893
  48 S :    0.374384
  49 C :   -0.083526
  50 N :   -0.081166
  51 C :   -0.065533
  52 C :   -0.202155
  53 S :    0.531142
  54 C :    0.047635
  55 C :   -0.095577
  56 C :    0.061939
  57 C :   -0.150253
  58 C :   -0.017894
  59 N :   -0.064382
  60 C :   -0.042111
  61 N :   -0.048344
  62 C :   -0.018012
  63 C :   -0.053912
  64 C :    0.082670
  65 O :   -0.144842
  66 C :    0.023896
  67 C :   -0.036342
  68 C :   -0.145132
  69 C :   -0.014414
  70 S :    0.426463
  71 C :   -0.150292
  72 C :   -0.056880
  73 H :    0.043671
  74 H :    0.040392
  75 H :    0.029278
  76 H :    0.036429
  77 H :    0.053570
  78 H :    0.044956
  79 H :    0.044964
  80 H :    0.052257
  81 H :    0.040999
  82 H :    0.051058
  83 H :    0.051842
  84 H :    0.049133
  85 H :    0.041006
  86 H :    0.039197
  87 H :    0.029451
  88 H :    0.035548

  Mayer bond orders larger than 0.100000
B(  0-C ,  1-C ) :   1.6259 B(  0-C ,  6-C ) :   0.9987 B(  0-C , 17-C ) :   1.0701
B(  1-C ,  2-C ) :   1.1454 B(  1-C ,  4-C ) :   1.1469 B(  2-C ,  3-N ) :   2.9673
B(  4-C ,  5-N ) :   2.9645 B(  6-C ,  7-C ) :   1.2663 B(  6-C , 11-C ) :   1.4142
B(  7-C ,  8-C ) :   1.4244 B(  7-C , 15-C ) :   0.9650 B(  8-C ,  9-C ) :   1.2412
B(  8-C , 73-H ) :   1.0167 B(  9-C , 10-C ) :   1.3002 B(  9-C , 14-C ) :   1.1738
B( 10-C , 11-C ) :   1.3217 B( 10-C , 12-S ) :   1.1015 B( 11-C , 74-H ) :   0.9820
B( 12-S , 13-C ) :   1.1248 B( 13-C , 14-C ) :   1.6288 B( 13-C , 75-H ) :   0.9680
B( 14-C , 76-H ) :   0.9990 B( 15-C , 16-O ) :   2.1059 B( 15-C , 17-C ) :   0.9731
B( 17-C , 18-C ) :   1.4913 B( 18-C , 19-C ) :   1.2768 B( 18-C , 77-H ) :   0.9399
B( 19-C , 20-C ) :   1.3166 B( 19-C , 27-S ) :   1.0747 B( 20-C , 21-C ) :   1.2807
B( 20-C , 24-N ) :   1.3187 B( 21-C , 22-S ) :   1.0678 B( 21-C , 26-C ) :   1.4013
B( 22-S , 23-C ) :   1.0524 B( 23-C , 24-N ) :   1.7815 B( 23-C , 25-C ) :   1.0685
B( 25-C , 78-H ) :   0.9438 B( 25-C , 79-H ) :   0.9437 B( 25-C , 80-H ) :   0.9482
B( 26-C , 27-S ) :   1.1027 B( 26-C , 28-C ) :   1.2466 B( 28-C , 29-C ) :   1.2257
B( 28-C , 39-C ) :   0.1190 B( 28-C , 41-C ) :   1.1845 B( 29-C , 30-C ) :   1.1137
B( 29-C , 34-N ) :   1.4147 B( 30-C , 31-N ) :   1.4812 B( 30-C , 39-C ) :   1.2463
B( 31-N , 32-C ) :   1.7269 B( 32-C , 33-C ) :   1.2000 B( 32-C , 37-C ) :   1.1652
B( 33-C , 34-N ) :   1.7019 B( 33-C , 35-C ) :   1.1597 B( 35-C , 36-N ) :   3.0187
B( 37-C , 38-N ) :   2.9908 B( 39-C , 40-C ) :   1.1992 B( 39-C , 45-C ) :   1.1789
B( 40-C , 41-C ) :   1.1136 B( 40-C , 44-N ) :   1.4842 B( 41-C , 42-N ) :   1.4955
B( 42-N , 43-S ) :   1.2826 B( 42-N , 44-N ) :   0.1464 B( 43-S , 44-N ) :   1.2767
B( 45-C , 46-C ) :   1.3601 B( 45-C , 52-C ) :   0.1104 B( 45-C , 53-S ) :   1.1832
B( 46-C , 47-C ) :   1.2612 B( 46-C , 50-N ) :   1.3087 B( 47-C , 48-S ) :   1.0757
B( 47-C , 52-C ) :   1.4478 B( 48-S , 49-C ) :   1.0344 B( 48-S , 50-N ) :   0.1001
B( 49-C , 50-N ) :   1.7876 B( 49-C , 51-C ) :   1.0730 B( 51-C , 81-H ) :   0.9420
B( 51-C , 82-H ) :   0.9410 B( 51-C , 83-H ) :   0.9460 B( 52-C , 53-S ) :   1.0687
B( 52-C , 54-C ) :   1.1973 B( 54-C , 55-C ) :   1.6240 B( 54-C , 84-H ) :   0.9466
B( 55-C , 56-C ) :   1.0385 B( 55-C , 64-C ) :   0.9432 B( 56-C , 57-C ) :   1.6404
B( 56-C , 62-C ) :   1.0273 B( 57-C , 58-C ) :   1.1393 B( 57-C , 60-C ) :   1.1419
B( 58-C , 59-N ) :   2.9849 B( 60-C , 61-N ) :   3.0344 B( 62-C , 63-C ) :   1.2662
B( 62-C , 69-C ) :   1.4218 B( 63-C , 64-C ) :   0.9213 B( 63-C , 66-C ) :   1.4328
B( 64-C , 65-O ) :   2.2669 B( 66-C , 67-C ) :   1.2522 B( 66-C , 85-H ) :   1.0147
B( 67-C , 68-C ) :   1.3057 B( 67-C , 72-C ) :   1.1735 B( 68-C , 69-C ) :   1.3171
B( 68-C , 70-S ) :   1.0957 B( 69-C , 86-H ) :   0.9868 B( 70-S , 71-C ) :   1.1262
B( 71-C , 72-C ) :   1.6297 B( 71-C , 87-H ) :   0.9684 B( 72-C , 88-H ) :   0.9992

-----------------------------------------------------------------------------
         ABSORPTION SPECTRUM VIA TRANSITION ELECTRIC DIPOLE MOMENTS
-----------------------------------------------------------------------------
State   Energy  Wavelength   fosc         T2         TX        TY        TZ
        (cm-1)    (nm)                  (au**2)     (au)      (au)      (au)
-----------------------------------------------------------------------------
   0    8184.7   1221.8   0.628033929  25.26117   0.23036   4.29746  -2.59613
   1   16435.7    608.4   0.020811120   0.41685   0.54839  -0.18686   0.28497
   2   18301.7    546.4   0.173315866   3.11762   0.76901   1.51771  -0.47203
   3   18447.5    542.1   0.194777793   3.47598   1.15733   1.44973   0.18668
   4   19960.1    501.0   0.063996822   1.05553   0.34027  -0.75194   0.61183
   5   20423.4    489.6   0.242612546   3.91076   0.54062   1.89445  -0.17188
   6   20603.1    485.4   0.130211639   2.08063   0.31390  -1.35256   0.39075
   7   21234.2    470.9   0.017725254   0.27481  -0.30547   0.32553  -0.27482
   8   21629.6    462.3   0.023302721   0.35468   0.44446  -0.02727  -0.39546
   9   23015.3    434.5   0.003366786   0.04816  -0.15343  -0.15576  -0.01890
  10   24519.4    407.8   0.101144407   1.35803  -0.06242  -1.01289   0.57287
  11   24849.1    402.4   0.023105044   0.30611   0.05675  -0.28409   0.47136
  12   25089.6    398.6   0.031863001   0.41809  -0.31970  -0.23748  -0.50939
  13   25511.4    392.0   0.004079585   0.05265   0.01723   0.16187  -0.16170
  14   25871.2    386.5   0.010758070   0.13690   0.23283  -0.07728   0.27697
  15   26042.3    384.0   0.031604411   0.39952  -0.38197  -0.46810   0.18574
  16   26618.2    375.7   0.150186108   1.85749  -0.65838  -1.12045  -0.41064
  17   27033.1    369.9   0.077656365   0.94571   0.35750   0.66805  -0.60960
  18   27484.6    363.8   0.086456731   1.03558  -0.21157  -0.82676   0.55433
  19   27787.7    359.9   0.009441165   0.11185   0.17891   0.09057  -0.26766
  20   28063.1    356.3   0.016660005   0.19544   0.19839   0.33197   0.21419
  21   29044.3    344.3   0.015792372   0.17900   0.09364   0.27341  -0.30900
  22   29459.2    339.5   0.355564913   3.97350   1.87901   0.48413  -0.45655
  23   29532.8    338.6   0.105797248   1.17936  -0.02634   0.65571   0.86528
  24   29827.5    335.3   0.067978679   0.75029   0.27829   0.81754  -0.06690
  25   30284.5    330.2   0.321459562   3.49447  -0.68617  -1.30277  -1.15171
  26   30848.4    324.2   0.014641247   0.15625  -0.34805  -0.16551   0.08785
  27   31061.6    321.9   0.085591690   0.90716  -0.30973  -0.73138  -0.52565
  28   31280.9    319.7   0.546253150   5.74897  -1.35846  -1.72556  -0.96228
  29   31716.6    315.3   0.031477147   0.32673   0.11124  -0.19961   0.52393
  30   31792.0    314.5   0.020169779   0.20886   0.12298   0.42780   0.10357
  31   32116.6    311.4   0.013313864   0.13647  -0.13779  -0.26192  -0.22111
  32   32360.3    309.0   0.004812311   0.04896   0.00694   0.19590   0.10263
  33   32708.8    305.7   0.001430917   0.01440   0.04391   0.05652   0.09633
  34   32904.8    303.9   0.123541186   1.23603   0.07133   0.09858   1.10509
  35   32955.3    303.4   0.072197872   0.72123   0.67264   0.51423  -0.06599
  36   33184.9    301.3   0.337314258   3.34634   1.45160   0.24373   1.08618
  37   33802.1    295.8   0.017363884   0.16911   0.22028  -0.07717   0.33858
  38   34249.5    292.0   0.070388197   0.67658  -0.42183  -0.12220  -0.69549
  39   34518.3    289.7   0.639861894   6.10256  -1.21334  -0.55085  -2.08013
  40   34820.8    287.2   0.398854800   3.77096   1.47849   0.33898  -1.21248
  41   34901.5    286.5   0.139599706   1.31679   1.01696   0.48693   0.21325
  42   35138.6    284.6   0.045302988   0.42444  -0.56633  -0.23776   0.21722
  43   35613.8    280.8   0.015431896   0.14265   0.21691  -0.09297   0.29488
  44   35689.0    280.2   0.110981801   1.02375  -0.51351  -0.56169  -0.66676
  45   36197.8    276.3   0.017461411   0.15881  -0.26278  -0.08718   0.28662
  46   36269.4    275.7   0.026928690   0.24443   0.09804  -0.32962  -0.35520
  47   36599.1    273.2   0.039259855   0.35315   0.26346   0.52939  -0.05901
  48   36770.2    272.0   0.005386471   0.04823  -0.10547  -0.17905   0.07102
  49   36801.2    271.7   0.060088992   0.53754   0.13836  -0.45214   0.56032
  50   36925.1    270.8   0.033143096   0.29549  -0.43837   0.26914  -0.17575
  51   37026.8    270.1   0.007133002   0.06342  -0.20637  -0.12768  -0.06730
  52   37199.6    268.8   0.036845274   0.32608   0.01416   0.52740   0.21847
  53   37493.0    266.7   0.067119767   0.58935   0.54035   0.54301  -0.05011
  54   37759.5    264.8   0.043941755   0.38311  -0.47287  -0.34847  -0.19514
  55   37865.1    264.1   0.119111548   1.03560  -0.32739  -0.96244   0.04612
  56   38282.6    261.2   0.021928144   0.18857  -0.36689   0.22254   0.06665
  57   38407.2    260.4   0.040491114   0.34707   0.30132   0.34753   0.36810
  58   38576.7    259.2   0.026336438   0.22475  -0.34575   0.19806  -0.25687
  59   38654.2    258.7   0.013811970   0.11763  -0.09035  -0.32905  -0.03458
  60   38830.9    257.5   0.057661588   0.48886   0.11979   0.68659  -0.05567
  61   39056.2    256.0   0.056744506   0.47831   0.21876   0.64983   0.09045
  62   39291.5    254.5   0.139603677   1.16970   0.17301  -0.75858   0.75122
  63   39525.2    253.0   0.061726999   0.51414   0.22499   0.57301   0.36766
  64   39746.8    251.6   0.089484038   0.74117  -0.00133  -0.44993   0.73398
  65   39908.5    250.6   0.030146580   0.24868   0.11418   0.43929   0.20656
  66   40036.1    249.8   0.014383996   0.11828  -0.00598  -0.20118   0.27887
  67   40144.1    249.1   0.044865354   0.36793   0.10065   0.11367   0.58726
  68   40231.8    248.6   0.082172201   0.67241  -0.48386  -0.29743  -0.59145

FINAL SINGLE POINT ENERGY     -5581.475289305637

DIPOLE MOMENT
-------------
                                X             Y             Z
Electronic contribution:     -2.18963       3.47397       5.33036
Nuclear contribution   :      3.91796      -2.05793      -7.41043
                        -----------------------------------------
Total Dipole Moment    :      1.72833       1.41604      -2.08007
                        -----------------------------------------
Magnitude (a.u.)       :      3.05270
Magnitude (Debye)      :      7.75935

Rotational constants in cm-1:     0.001442     0.000349     0.000307
Rotational constants in MHz :    43.241303    10.475720     9.216139

                             ****ORCA TERMINATED NORMALLY****
TOTAL RUN TIME: 0 days 0 hours 10 minutes 16 seconds 483 msec
