                         Program Version 4.2.0 -  RELEASE  -
|  1> # ORCA input file
|  2> # SCF done       -166.380283107080          0.000259866116
|  3> ! CAM-B3LYP def2-SVP def2/J RIJCOSX Grid4 TightSCF
|  4> %maxcore 5000
|  5> %tddft
|  6>     Mode sTDDFT
|  7>     Ethresh 5.0
|  8>     maxcore 5000
|  9> end
| 10>
| 11> %pal
| 12>   nprocs 6
| 13>   end
| 14> * xyz 0 1
| 15>    C        2.26547         1.70331         0.23299
| 16>    C        2.59658         3.00526         0.50952
| 17>    C        3.83422         3.39732         1.05765
| 18>    N        4.82334         3.76025         1.51337
| 19>    C        1.76908         4.09997         0.19497
| 20>    N        1.15341         5.02799        -0.08677
| 21>    C        3.17196         0.56323         0.30858
| 22>    C        2.64139        -0.49081        -0.49292
| 23>    C        3.29688        -1.67923        -0.63712
| 24>    C        4.52490        -1.87558         0.03497
| 25>    C        5.04898        -0.83358         0.85364
| 26>    C        4.35359         0.39132         0.97732
| 27>    C        6.26736        -1.04773         1.52925
| 28>    C        6.94029        -2.23222         1.40058
| 29>    C        6.42586        -3.25615         0.59144
| 30>    C        5.24445        -3.08146        -0.07710
| 31>    C        1.34516        -0.06896        -1.05630
| 32>    O        0.63055        -0.67021        -1.82586
| 33>    C        1.05734         1.24476        -0.41841
| 34>    C       -0.20776         1.74889        -0.42240
| 35>    C       -0.73706         2.76746         0.40760
| 36>    C       -0.41031         2.91025         1.73579
| 37>    C       -0.99775         4.00239         2.41866
| 38>    C       -1.83288         4.79833         1.66152
| 39>   Si       -2.01453         4.07648        -0.05814
| 40>    C       -2.46772         5.99020         2.08701
| 41>    C       -2.27549         6.68143         3.31590
| 42>    C       -2.99031         7.89831         3.64061
| 43>    N       -2.75529         8.50314         4.81247
| 44>    C       -1.89138         7.99302         5.65602
| 45>    C       -1.19014         6.78959         5.33752
| 46>    N       -1.39654         6.18188         4.19444
| 47>    C       -0.26333         6.23191         6.25328
| 48>    N        0.47205         5.79576         7.01563
| 49>    C       -1.65708         8.65470         6.88736
| 50>    N       -1.44553         9.16443         7.89110
| 51>    C       -3.94521         8.47826         2.75832
| 52>    C       -4.10939         7.79206         1.53308
| 53>    C       -3.39036         6.59709         1.20564
| 54>    N       -3.71499         6.13711        -0.00252
| 55>    S       -4.80891         7.11275        -0.66251
| 56>    N       -4.93222         8.16028         0.55117
| 57>    C       -4.74204         9.62790         2.98282
| 58>    C       -4.68316        10.46516         4.08134
| 59>    C       -5.63717        11.50963         4.11299
| 60>    C       -6.52918        11.55427         3.06063
| 61>   Si       -6.06691        10.23150         1.80202
| 62>    C       -7.59230        12.47751         2.94275
| 63>    C       -8.36608        12.98869         3.95050
| 64>    C       -9.41889        13.97193         3.79451
| 65>    C       -9.60918        14.79335         2.71134
| 66>    C      -10.63673        15.75412         2.62091
| 67>    N      -11.45602        16.54704         2.48385
| 68>    C       -8.79796        14.81311         1.55856
| 69>    N       -8.17639        14.90117         0.59636
| 70>    C      -10.19843        13.99748         5.02650
| 71>    C       -9.61616        13.08006         5.94613
| 72>    C       -8.43814        12.44211         5.33231
| 73>    O       -7.72596        11.60710         5.84851
| 74>    C      -10.12946        12.88461         7.19551
| 75>    C      -11.27122        13.61599         7.59258
| 76>    C      -11.86228        14.53446         6.67779
| 77>    C      -11.30903        14.71266         5.38844
| 78>    C      -13.00172        15.25788         7.08445
| 79>    C      -13.53205        15.08488         8.33408
| 80>    C      -12.94904        14.18026         9.23377
| 81>    C      -11.84226        13.46163         8.87091
| 82>    H        2.88393        -2.46270        -1.25504
| 83>    H        4.76696         1.16159         1.60976
| 84>    H        6.66067        -0.25485         2.14831
| 85>    H        7.87328        -2.38638         1.92158
| 86>    H        6.96985        -4.18442         0.50096
| 87>    H        4.84352        -3.86683        -0.70102
| 88>    H       -0.88971         1.28871        -1.13095
| 89>    H        0.23081         2.21410         2.26016
| 90>    H       -0.78468         4.18450         3.45904
| 91>    H       -1.57076         4.88698        -1.17935
| 92>    H       -3.30122         3.40444        -0.24683
| 93>    H       -3.96908        10.34510         4.87903
| 94>    H       -5.61711        12.24278         4.90324
| 95>    H       -5.54942        10.86109         0.59196
| 96>    H       -7.17975         9.31145         1.58062
| 97>    H       -7.86499        12.73045         1.92447
| 98>    H       -9.66733        12.18271         7.87383
| 99>    H      -11.78380        15.41031         4.71694
|100>    H      -13.44657        15.95434         6.38891
|101>    H      -14.40419        15.64501         8.63643
|102>    H      -13.38088        14.05560        10.21554
|103>    H      -11.38828        12.76366         9.55915
|104> *
|105>
|106>                          ****END OF INPUT****

CARTESIAN COORDINATES (ANGSTROEM)
---------------------------------
  C      2.265470    1.703310    0.232990
  C      2.596580    3.005260    0.509520
  C      3.834220    3.397320    1.057650
  N      4.823340    3.760250    1.513370
  C      1.769080    4.099970    0.194970
  N      1.153410    5.027990   -0.086770
  C      3.171960    0.563230    0.308580
  C      2.641390   -0.490810   -0.492920
  C      3.296880   -1.679230   -0.637120
  C      4.524900   -1.875580    0.034970
  C      5.048980   -0.833580    0.853640
  C      4.353590    0.391320    0.977320
  C      6.267360   -1.047730    1.529250
  C      6.940290   -2.232220    1.400580
  C      6.425860   -3.256150    0.591440
  C      5.244450   -3.081460   -0.077100
  C      1.345160   -0.068960   -1.056300
  O      0.630550   -0.670210   -1.825860
  C      1.057340    1.244760   -0.418410
  C     -0.207760    1.748890   -0.422400
  C     -0.737060    2.767460    0.407600
  C     -0.410310    2.910250    1.735790
  C     -0.997750    4.002390    2.418660
  C     -1.832880    4.798330    1.661520
  Si    -2.014530    4.076480   -0.058140
  C     -2.467720    5.990200    2.087010
  C     -2.275490    6.681430    3.315900
  C     -2.990310    7.898310    3.640610
  N     -2.755290    8.503140    4.812470
  C     -1.891380    7.993020    5.656020
  C     -1.190140    6.789590    5.337520
  N     -1.396540    6.181880    4.194440
  C     -0.263330    6.231910    6.253280
  N      0.472050    5.795760    7.015630
  C     -1.657080    8.654700    6.887360
  N     -1.445530    9.164430    7.891100
  C     -3.945210    8.478260    2.758320
  C     -4.109390    7.792060    1.533080
  C     -3.390360    6.597090    1.205640
  N     -3.714990    6.137110   -0.002520
  S     -4.808910    7.112750   -0.662510
  N     -4.932220    8.160280    0.551170
  C     -4.742040    9.627900    2.982820
  C     -4.683160   10.465160    4.081340
  C     -5.637170   11.509630    4.112990
  C     -6.529180   11.554270    3.060630
  Si    -6.066910   10.231500    1.802020
  C     -7.592300   12.477510    2.942750
  C     -8.366080   12.988690    3.950500
  C     -9.418890   13.971930    3.794510
  C     -9.609180   14.793350    2.711340
  C    -10.636730   15.754120    2.620910
  N    -11.456020   16.547040    2.483850
  C     -8.797960   14.813110    1.558560
  N     -8.176390   14.901170    0.596360
  C    -10.198430   13.997480    5.026500
  C     -9.616160   13.080060    5.946130
  C     -8.438140   12.442110    5.332310
  O     -7.725960   11.607100    5.848510
  C    -10.129460   12.884610    7.195510
  C    -11.271220   13.615990    7.592580
  C    -11.862280   14.534460    6.677790
  C    -11.309030   14.712660    5.388440
  C    -13.001720   15.257880    7.084450
  C    -13.532050   15.084880    8.334080
  C    -12.949040   14.180260    9.233770
  C    -11.842260   13.461630    8.870910
  H      2.883930   -2.462700   -1.255040
  H      4.766960    1.161590    1.609760
  H      6.660670   -0.254850    2.148310
  H      7.873280   -2.386380    1.921580
  H      6.969850   -4.184420    0.500960
  H      4.843520   -3.866830   -0.701020
  H     -0.889710    1.288710   -1.130950
  H      0.230810    2.214100    2.260160
  H     -0.784680    4.184500    3.459040
  H     -1.570760    4.886980   -1.179350
  H     -3.301220    3.404440   -0.246830
  H     -3.969080   10.345100    4.879030
  H     -5.617110   12.242780    4.903240
  H     -5.549420   10.861090    0.591960
  H     -7.179750    9.311450    1.580620
  H     -7.864990   12.730450    1.924470
  H     -9.667330   12.182710    7.873830
  H    -11.783800   15.410310    4.716940
  H    -13.446570   15.954340    6.388910
  H    -14.404190   15.645010    8.636430
  H    -13.380880   14.055600   10.215540
  H    -11.388280   12.763660    9.559150

 Total Charge           Charge          ....    0
 Multiplicity           Mult            ....    1
 Number of Electrons    NEL             ....  464
 Basis Dimension        Dim             .... 1060

ORBITAL ENERGIES
----------------

  NO   OCC          E(Eh)            E(eV)
   0   2.0000     -89.066938     -2423.6346
   1   2.0000     -66.204243     -1801.5090
   2   2.0000     -66.202751     -1801.4684
   3   2.0000     -19.215165      -522.8712
   4   2.0000     -19.211113      -522.7610
   5   2.0000     -14.478146      -393.9704
   6   2.0000     -14.477233      -393.9455
   7   2.0000     -14.470259      -393.7558
   8   2.0000     -14.469738      -393.7416
   9   2.0000     -14.437246      -392.8574
  10   2.0000     -14.437067      -392.8526
  11   2.0000     -14.418571      -392.3493
  12   2.0000     -14.415996      -392.2792
  13   2.0000     -14.410444      -392.1281
  14   2.0000     -14.409795      -392.1105
  15   2.0000     -10.390934      -282.7517
  16   2.0000     -10.390216      -282.7322
  17   2.0000     -10.366662      -282.0912
  18   2.0000     -10.363313      -282.0001
  19   2.0000     -10.359172      -281.8874
  20   2.0000     -10.358613      -281.8722
  21   2.0000     -10.356021      -281.8017
  22   2.0000     -10.355732      -281.7938
  23   2.0000     -10.343723      -281.4670
  24   2.0000     -10.342966      -281.4464
  25   2.0000     -10.335997      -281.2568
  26   2.0000     -10.334904      -281.2270
  27   2.0000     -10.330096      -281.0962
  28   2.0000     -10.330006      -281.0938
  29   2.0000     -10.326719      -281.0043
  30   2.0000     -10.324740      -280.9505
  31   2.0000     -10.322088      -280.8783
  32   2.0000     -10.318764      -280.7878
  33   2.0000     -10.318119      -280.7703
  34   2.0000     -10.313565      -280.6464
  35   2.0000     -10.312950      -280.6296
  36   2.0000     -10.312246      -280.6105
  37   2.0000     -10.305300      -280.4215
  38   2.0000     -10.301269      -280.3118
  39   2.0000     -10.299592      -280.2661
  40   2.0000     -10.299351      -280.2596
  41   2.0000     -10.299140      -280.2538
  42   2.0000     -10.298947      -280.2486
  43   2.0000     -10.298893      -280.2471
  44   2.0000     -10.298799      -280.2446
  45   2.0000     -10.298634      -280.2401
  46   2.0000     -10.298499      -280.2364
  47   2.0000     -10.294904      -280.1386
  48   2.0000     -10.294688      -280.1327
  49   2.0000     -10.294422      -280.1255
  50   2.0000     -10.293320      -280.0955
  51   2.0000     -10.293172      -280.0914
  52   2.0000     -10.293029      -280.0876
  53   2.0000     -10.291202      -280.0378
  54   2.0000     -10.288093      -279.9533
  55   2.0000     -10.287608      -279.9400
  56   2.0000     -10.287372      -279.9336
  57   2.0000     -10.286874      -279.9201
  58   2.0000     -10.286631      -279.9135
  59   2.0000     -10.285071      -279.8710
  60   2.0000     -10.284745      -279.8621
  61   2.0000     -10.284084      -279.8442
  62   2.0000     -10.283534      -279.8292
  63   2.0000     -10.283284      -279.8224
  64   2.0000     -10.282759      -279.8081
  65   2.0000     -10.282670      -279.8057
  66   2.0000     -10.271772      -279.5091
  67   2.0000      -8.157769      -221.9842
  68   2.0000      -6.128800      -166.7731
  69   2.0000      -6.121188      -166.5660
  70   2.0000      -6.120497      -166.5472
  71   2.0000      -5.372488      -146.1928
  72   2.0000      -5.371439      -146.1643
  73   2.0000      -3.736077      -101.6638
  74   2.0000      -3.734774      -101.6284
  75   2.0000      -3.734322      -101.6161
  76   2.0000      -3.733253      -101.5870
  77   2.0000      -3.733200      -101.5855
  78   2.0000      -3.732333      -101.5620
  79   2.0000      -1.163239       -31.6534
  80   2.0000      -1.129846       -30.7447
  81   2.0000      -1.129560       -30.7369
  82   2.0000      -1.126428       -30.6517
  83   2.0000      -1.055527       -28.7224
  84   2.0000      -1.021297       -27.7909
  85   2.0000      -1.020529       -27.7700
  86   2.0000      -1.019465       -27.7411
  87   2.0000      -1.013035       -27.5661
  88   2.0000      -1.010733       -27.5034
  89   2.0000      -1.000544       -27.2262
  90   2.0000      -0.995908       -27.1000
  91   2.0000      -0.994145       -27.0521
  92   2.0000      -0.989638       -26.9294
  93   2.0000      -0.988643       -26.9024
  94   2.0000      -0.973806       -26.4986
  95   2.0000      -0.967947       -26.3392
  96   2.0000      -0.948537       -25.8110
  97   2.0000      -0.941509       -25.6198
  98   2.0000      -0.925250       -25.1773
  99   2.0000      -0.920857       -25.0578
 100   2.0000      -0.919898       -25.0317
 101   2.0000      -0.908821       -24.7303
 102   2.0000      -0.899103       -24.4658
 103   2.0000      -0.890830       -24.2407
 104   2.0000      -0.883028       -24.0284
 105   2.0000      -0.878042       -23.8927
 106   2.0000      -0.874195       -23.7881
 107   2.0000      -0.865759       -23.5585
 108   2.0000      -0.848267       -23.0825
 109   2.0000      -0.829955       -22.5842
 110   2.0000      -0.826212       -22.4824
 111   2.0000      -0.824834       -22.4449
 112   2.0000      -0.820255       -22.3203
 113   2.0000      -0.810806       -22.0631
 114   2.0000      -0.798018       -21.7152
 115   2.0000      -0.771594       -20.9961
 116   2.0000      -0.761528       -20.7222
 117   2.0000      -0.756969       -20.5982
 118   2.0000      -0.752704       -20.4821
 119   2.0000      -0.746826       -20.3222
 120   2.0000      -0.733936       -19.9714
 121   2.0000      -0.714859       -19.4523
 122   2.0000      -0.713334       -19.4108
 123   2.0000      -0.707141       -19.2423
 124   2.0000      -0.703967       -19.1559
 125   2.0000      -0.701657       -19.0931
 126   2.0000      -0.700341       -19.0573
 127   2.0000      -0.695214       -18.9177
 128   2.0000      -0.686491       -18.6804
 129   2.0000      -0.680035       -18.5047
 130   2.0000      -0.678010       -18.4496
 131   2.0000      -0.670661       -18.2496
 132   2.0000      -0.666031       -18.1236
 133   2.0000      -0.650579       -17.7032
 134   2.0000      -0.640248       -17.4220
 135   2.0000      -0.636335       -17.3156
 136   2.0000      -0.630013       -17.1435
 137   2.0000      -0.625937       -17.0326
 138   2.0000      -0.622900       -16.9500
 139   2.0000      -0.621576       -16.9139
 140   2.0000      -0.608958       -16.5706
 141   2.0000      -0.603321       -16.4172
 142   2.0000      -0.600277       -16.3344
 143   2.0000      -0.599792       -16.3212
 144   2.0000      -0.594975       -16.1901
 145   2.0000      -0.592176       -16.1139
 146   2.0000      -0.590177       -16.0595
 147   2.0000      -0.574243       -15.6259
 148   2.0000      -0.572676       -15.5833
 149   2.0000      -0.570978       -15.5371
 150   2.0000      -0.564198       -15.3526
 151   2.0000      -0.554580       -15.0909
 152   2.0000      -0.549104       -14.9419
 153   2.0000      -0.548476       -14.9248
 154   2.0000      -0.544097       -14.8056
 155   2.0000      -0.543154       -14.7800
 156   2.0000      -0.539765       -14.6877
 157   2.0000      -0.534360       -14.5407
 158   2.0000      -0.533514       -14.5176
 159   2.0000      -0.532437       -14.4883
 160   2.0000      -0.523887       -14.2557
 161   2.0000      -0.520082       -14.1522
 162   2.0000      -0.517497       -14.0818
 163   2.0000      -0.516464       -14.0537
 164   2.0000      -0.514100       -13.9894
 165   2.0000      -0.513207       -13.9651
 166   2.0000      -0.508429       -13.8351
 167   2.0000      -0.504818       -13.7368
 168   2.0000      -0.504363       -13.7244
 169   2.0000      -0.503362       -13.6972
 170   2.0000      -0.501598       -13.6492
 171   2.0000      -0.499661       -13.5965
 172   2.0000      -0.496548       -13.5117
 173   2.0000      -0.492753       -13.4085
 174   2.0000      -0.491588       -13.3768
 175   2.0000      -0.487128       -13.2554
 176   2.0000      -0.482483       -13.1290
 177   2.0000      -0.480919       -13.0865
 178   2.0000      -0.478945       -13.0328
 179   2.0000      -0.474996       -12.9253
 180   2.0000      -0.465638       -12.6706
 181   2.0000      -0.465371       -12.6634
 182   2.0000      -0.462870       -12.5953
 183   2.0000      -0.460766       -12.5381
 184   2.0000      -0.460509       -12.5311
 185   2.0000      -0.453837       -12.3495
 186   2.0000      -0.451976       -12.2989
 187   2.0000      -0.449036       -12.2189
 188   2.0000      -0.445087       -12.1114
 189   2.0000      -0.444619       -12.0987
 190   2.0000      -0.443908       -12.0793
 191   2.0000      -0.443496       -12.0681
 192   2.0000      -0.441277       -12.0078
 193   2.0000      -0.440352       -11.9826
 194   2.0000      -0.438465       -11.9313
 195   2.0000      -0.436918       -11.8891
 196   2.0000      -0.435349       -11.8464
 197   2.0000      -0.433136       -11.7862
 198   2.0000      -0.430988       -11.7278
 199   2.0000      -0.430180       -11.7058
 200   2.0000      -0.430043       -11.7021
 201   2.0000      -0.428543       -11.6612
 202   2.0000      -0.427365       -11.6292
 203   2.0000      -0.421904       -11.4806
 204   2.0000      -0.419806       -11.4235
 205   2.0000      -0.418867       -11.3979
 206   2.0000      -0.418453       -11.3867
 207   2.0000      -0.415893       -11.3170
 208   2.0000      -0.414253       -11.2724
 209   2.0000      -0.409433       -11.1412
 210   2.0000      -0.407453       -11.0874
 211   2.0000      -0.405220       -11.0266
 212   2.0000      -0.403866       -10.9898
 213   2.0000      -0.401493       -10.9252
 214   2.0000      -0.393871       -10.7178
 215   2.0000      -0.390586       -10.6284
 216   2.0000      -0.380188       -10.3454
 217   2.0000      -0.376303       -10.2397
 218   2.0000      -0.370855       -10.0915
 219   2.0000      -0.364508        -9.9188
 220   2.0000      -0.361464        -9.8359
 221   2.0000      -0.357696        -9.7334
 222   2.0000      -0.351742        -9.5714
 223   2.0000      -0.335796        -9.1375
 224   2.0000      -0.333611        -9.0780
 225   2.0000      -0.324828        -8.8390
 226   2.0000      -0.317219        -8.6320
 227   2.0000      -0.312916        -8.5149
 228   2.0000      -0.298627        -8.1261
 229   2.0000      -0.293890        -7.9972
 230   2.0000      -0.286438        -7.7944
 231   2.0000      -0.249190        -6.7808
 232   0.0000      -0.143871        -3.9149
 233   0.0000      -0.093742        -2.5509
 234   0.0000      -0.088824        -2.4170
 235   0.0000      -0.063973        -1.7408
 236   0.0000      -0.058082        -1.5805

MULLIKEN ATOMIC CHARGES
-----------------------
   0 C :    0.263846
   1 C :   -0.344565
   2 C :   -0.183621
   3 N :    0.157817
   4 C :   -0.156572
   5 N :    0.151708
   6 C :    0.032376
   7 C :    0.016045
   8 C :   -0.084952
   9 C :    0.097050
  10 C :    0.094475
  11 C :   -0.080160
  12 C :   -0.018551
  13 C :    0.036685
  14 C :    0.037543
  15 C :   -0.016373
  16 C :    0.139360
  17 O :   -0.143460
  18 C :   -0.129176
  19 C :    0.062924
  20 C :   -0.197120
  21 C :    0.040022
  22 C :    0.008038
  23 C :   -0.275848
  24 Si:    0.567146
  25 C :    0.207327
  26 C :   -0.052593
  27 C :   -0.046523
  28 N :    0.046478
  29 C :   -0.116790
  30 C :   -0.118767
  31 N :    0.042230
  32 C :   -0.223981
  33 N :    0.247417
  34 C :   -0.224788
  35 N :    0.249028
  36 C :    0.199909
  37 C :    0.041546
  38 C :    0.036860
  39 N :   -0.351589
  40 S :    0.578858
  41 N :   -0.354451
  42 C :   -0.291427
  43 C :   -0.008057
  44 C :    0.102114
  45 C :   -0.185421
  46 Si:    0.560597
  47 C :    0.006611
  48 C :   -0.097730
  49 C :    0.304249
  50 C :   -0.347882
  51 C :   -0.181306
  52 N :    0.145118
  53 C :   -0.202571
  54 N :    0.154550
  55 C :    0.053263
  56 C :   -0.007115
  57 C :    0.145788
  58 O :   -0.152420
  59 C :   -0.084693
  60 C :    0.100762
  61 C :    0.098971
  62 C :   -0.088559
  63 C :   -0.021749
  64 C :    0.036465
  65 C :    0.037069
  66 C :   -0.018624
  67 H :   -0.011365
  68 H :   -0.004661
  69 H :   -0.009568
  70 H :   -0.004222
  71 H :   -0.004680
  72 H :   -0.016854
  73 H :    0.026618
  74 H :    0.004245
  75 H :    0.011089
  76 H :   -0.051849
  77 H :   -0.074539
  78 H :    0.014487
  79 H :    0.005181
  80 H :   -0.060438
  81 H :   -0.078159
  82 H :    0.025077
  83 H :   -0.014460
  84 H :   -0.008720
  85 H :   -0.009324
  86 H :   -0.006099
  87 H :   -0.006604
  88 H :   -0.017966
Sum of atomic charges:   -0.0000000

LOEWDIN ATOMIC CHARGES
----------------------
   0 C :    0.071421
   1 C :   -0.141903
   2 C :   -0.020954
   3 N :   -0.051802
   4 C :   -0.005173
   5 N :   -0.054605
   6 C :   -0.024614
   7 C :   -0.056584
   8 C :    0.032112
   9 C :   -0.008422
  10 C :   -0.005767
  11 C :    0.017800
  12 C :   -0.005775
  13 C :   -0.012243
  14 C :   -0.012012
  15 C :   -0.009302
  16 C :    0.082263
  17 O :   -0.143663
  18 C :   -0.087263
  19 C :    0.062451
  20 C :   -0.159234
  21 C :    0.007037
  22 C :    0.024777
  23 C :   -0.154846
  24 Si:    0.544377
  25 C :   -0.019900
  26 C :   -0.003257
  27 C :   -0.000961
  28 N :    0.010191
  29 C :   -0.022499
  30 C :   -0.025190
  31 N :    0.011346
  32 C :   -0.038513
  33 N :   -0.000908
  34 C :   -0.038282
  35 N :    0.000778
  36 C :   -0.030804
  37 C :   -0.032925
  38 C :   -0.034293
  39 N :   -0.262554
  40 S :    0.695814
  41 N :   -0.265204
  42 C :   -0.156457
  43 C :    0.018858
  44 C :    0.049585
  45 C :   -0.179924
  46 Si:    0.547787
  47 C :    0.060330
  48 C :   -0.096086
  49 C :    0.074643
  50 C :   -0.143263
  51 C :   -0.017418
  52 N :   -0.057844
  53 C :   -0.023803
  54 N :   -0.055907
  55 C :   -0.025652
  56 C :   -0.054694
  57 C :    0.081696
  58 O :   -0.143220
  59 C :    0.030177
  60 C :   -0.008732
  61 C :   -0.006507
  62 C :    0.017864
  63 C :   -0.005995
  64 C :   -0.014248
  65 C :   -0.013274
  66 C :   -0.010244
  67 H :    0.039496
  68 H :    0.039170
  69 H :    0.034734
  70 H :    0.033515
  71 H :    0.033011
  72 H :    0.032052
  73 H :    0.046506
  74 H :    0.029293
  75 H :    0.029162
  76 H :   -0.076732
  77 H :   -0.084653
  78 H :    0.029786
  79 H :    0.032957
  80 H :   -0.078883
  81 H :   -0.088442
  82 H :    0.042481
  83 H :    0.038191
  84 H :    0.038688
  85 H :    0.034516
  86 H :    0.032714
  87 H :    0.032297
  88 H :    0.031560

  Mayer bond orders larger than 0.100000
B(  0-C ,  1-C ) :   1.6565 B(  0-C ,  6-C ) :   1.0002 B(  0-C , 18-C ) :   1.0294
B(  1-C ,  2-C ) :   1.1321 B(  1-C ,  4-C ) :   1.1720 B(  2-C ,  3-N ) :   2.9894
B(  4-C ,  5-N ) :   2.9492 B(  6-C ,  7-C ) :   1.2134 B(  6-C , 11-C ) :   1.4562
B(  7-C ,  8-C ) :   1.4733 B(  7-C , 16-C ) :   0.9169 B(  8-C ,  9-C ) :   1.1840
B(  8-C , 67-H ) :   1.0160 B(  9-C , 10-C ) :   1.2563 B(  9-C , 15-C ) :   1.2448
B( 10-C , 11-C ) :   1.2036 B( 10-C , 12-C ) :   1.2408 B( 11-C , 68-H ) :   0.9943
B( 12-C , 13-C ) :   1.4892 B( 12-C , 69-H ) :   0.9978 B( 13-C , 14-C ) :   1.2608
B( 13-C , 70-H ) :   0.9888 B( 14-C , 15-C ) :   1.4881 B( 14-C , 71-H ) :   0.9889
B( 15-C , 72-H ) :   0.9980 B( 16-C , 17-O ) :   2.2746 B( 16-C , 18-C ) :   0.9360
B( 18-C , 19-C ) :   1.6847 B( 19-C , 20-C ) :   1.0971 B( 19-C , 73-H ) :   0.9362
B( 20-C , 21-C ) :   1.6348 B( 20-C , 24-Si) :   0.8319 B( 21-C , 22-C ) :   1.1251
B( 21-C , 74-H ) :   0.9951 B( 22-C , 23-C ) :   1.5735 B( 22-C , 75-H ) :   0.9879
B( 23-C , 24-Si) :   0.8905 B( 23-C , 25-C ) :   1.2331 B( 24-Si, 39-N ) :   0.1150
B( 24-Si, 76-H ) :   0.9704 B( 24-Si, 77-H ) :   0.9486 B( 25-C , 26-C ) :   1.1745
B( 25-C , 36-C ) :   0.1241 B( 25-C , 38-C ) :   1.1997 B( 26-C , 27-C ) :   1.0945
B( 26-C , 31-N ) :   1.4580 B( 27-C , 28-N ) :   1.4566 B( 27-C , 36-C ) :   1.1801
B( 28-N , 29-C ) :   1.7237 B( 29-C , 30-C ) :   1.2197 B( 29-C , 34-C ) :   1.1532
B( 30-C , 31-N ) :   1.7187 B( 30-C , 32-C ) :   1.1525 B( 32-C , 33-N ) :   3.0472
B( 34-C , 35-N ) :   3.0461 B( 36-C , 37-C ) :   1.1945 B( 36-C , 42-C ) :   1.2245
B( 37-C , 38-C ) :   1.1273 B( 37-C , 41-N ) :   1.4152 B( 38-C , 39-N ) :   1.4163
B( 39-N , 40-S ) :   1.2785 B( 39-N , 41-N ) :   0.1565 B( 40-S , 41-N ) :   1.2766
B( 41-N , 46-Si) :   0.1135 B( 42-C , 43-C ) :   1.5618 B( 42-C , 46-Si) :   0.8892
B( 43-C , 44-C ) :   1.1390 B( 43-C , 78-H ) :   0.9889 B( 44-C , 45-C ) :   1.5950
B( 44-C , 79-H ) :   0.9871 B( 45-C , 46-Si) :   0.8530 B( 45-C , 47-C ) :   1.1807
B( 46-Si, 80-H ) :   0.9590 B( 46-Si, 81-H ) :   0.9585 B( 47-C , 48-C ) :   1.5789
B( 47-C , 82-H ) :   0.9432 B( 48-C , 49-C ) :   1.0708 B( 48-C , 57-C ) :   0.9425
B( 49-C , 50-C ) :   1.6317 B( 49-C , 55-C ) :   0.9884 B( 50-C , 51-C ) :   1.1442
B( 50-C , 53-C ) :   1.1428 B( 51-C , 52-N ) :   2.9655 B( 53-C , 54-N ) :   2.9927
B( 55-C , 56-C ) :   1.2123 B( 55-C , 62-C ) :   1.4498 B( 56-C , 57-C ) :   0.9445
B( 56-C , 59-C ) :   1.4734 B( 57-C , 58-O ) :   2.2141 B( 59-C , 60-C ) :   1.1760
B( 59-C , 83-H ) :   1.0165 B( 60-C , 61-C ) :   1.2571 B( 60-C , 66-C ) :   1.2438
B( 61-C , 62-C ) :   1.2030 B( 61-C , 63-C ) :   1.2403 B( 62-C , 84-H ) :   0.9907
B( 63-C , 64-C ) :   1.4876 B( 63-C , 85-H ) :   0.9976 B( 64-C , 65-C ) :   1.2603
B( 64-C , 86-H ) :   0.9892 B( 65-C , 66-C ) :   1.4870 B( 65-C , 87-H ) :   0.9889
B( 66-C , 88-H ) :   0.9981

-----------------------------------------------------------------------------
         ABSORPTION SPECTRUM VIA TRANSITION ELECTRIC DIPOLE MOMENTS
-----------------------------------------------------------------------------
State   Energy  Wavelength   fosc         T2         TX        TY        TZ
        (cm-1)    (nm)                  (au**2)     (au)      (au)      (au)
-----------------------------------------------------------------------------
   0    7787.0   1284.2   0.572963969  24.22329  -3.07411   3.67694   1.11949
   1   16668.8    599.9   0.013099874   0.25872   0.17993  -0.09922   0.46530
   2   18196.3    549.6   0.538739008   9.74702  -2.26654   1.93889   0.92225
   3   19139.4    522.5   0.342296260   5.88774   1.77222  -1.64777   0.17847
   4   21049.9    475.1   0.003822129   0.05978   0.01810  -0.22947  -0.08241
   5   21668.6    461.5   0.008944222   0.13589   0.05429   0.33005  -0.15494
   6   23459.0    426.3   0.000836866   0.01174  -0.02959  -0.03815   0.09702
   7   23608.8    423.6   0.008236804   0.11486  -0.18423   0.28147  -0.04115
   8   24229.7    412.7   0.046206619   0.62782  -0.00966   0.65139   0.45101
   9   24340.1    410.8   0.030585544   0.41369   0.29116  -0.53348  -0.21051
  10   24921.4    401.3   0.027734065   0.36637  -0.59862   0.03726  -0.08146
  11   25167.6    397.3   0.042424217   0.55494   0.18866  -0.71998  -0.03118
  12   26435.7    378.3   0.067556805   0.84130   0.74076  -0.53943  -0.03987
  13   26911.2    371.6   0.023150489   0.28321   0.02293   0.23180   0.47848
  14   27144.8    368.4   0.311398722   3.77664   1.03671  -1.13361  -1.19029
  15   27752.4    360.3   0.058683751   0.69613  -0.50173  -0.57982  -0.32896
  16   28111.3    355.7   0.110206256   1.29063   0.29677  -1.09561   0.04692
  17   28633.5    349.2   0.054085511   0.62185  -0.05837  -0.78635   0.00965
  18   28799.8    347.2   0.027916545   0.31912  -0.36101  -0.17959   0.39564
  19   29757.6    336.0   0.081225849   0.89861  -0.17276  -0.01915   0.93188
  20   29866.6    334.8   0.149754408   1.65070  -1.19745   0.46308   0.04874
  21   30783.9    324.8   0.487651926   5.21508  -1.06902   0.17502  -2.01038
  22   30907.8    323.5   0.022473717   0.23938  -0.14665   0.35783   0.29971
  23   31002.8    322.6   0.092502714   0.98227   0.38574   0.15128   0.90032
  24   31345.9    319.0   0.024447415   0.25676  -0.03103   0.25366   0.43756
  25   32283.1    309.8   0.024331814   0.24813  -0.17010   0.45651   0.10388
  26   32655.7    306.2   0.064915816   0.65444   0.01337   0.17322   0.79010
  27   33143.7    301.7   0.119348360   1.18547  -0.06503   1.03014   0.34650
  28   33465.2    298.8   0.032212058   0.31688   0.40537   0.37446   0.11110
  29   33790.7    295.9   0.021778329   0.21218  -0.26388   0.09587   0.36518
  30   34249.1    292.0   0.099260243   0.95412  -0.23685   0.57245  -0.75519
  31   34376.8    290.9   0.369462898   3.53819   0.80889   0.03409  -1.69786
  32   34579.4    289.2   0.028074735   0.26728   0.45933  -0.22311  -0.08076
  33   34864.6    286.8   0.031126784   0.29392   0.27583  -0.18443  -0.42874
  34   34982.5    285.9   0.247446073   2.32866  -0.57189  -1.07019   0.92537
  35   35297.5    283.3   0.690196863   6.43732   1.62407  -1.93250  -0.25524
  36   35732.8    279.9   0.054715508   0.50410   0.03857   0.27297  -0.65430
  37   35858.3    278.9   0.089311873   0.81997  -0.84178   0.13745  -0.30410
  38   36132.7    276.8   0.022344077   0.20358  -0.25671  -0.07939  -0.36246
  39   36765.2    272.0   0.257847274   2.30888   0.34877   0.07125  -1.47721
  40   37005.3    270.2   0.086111589   0.76608  -0.58081   0.38486  -0.52974
  41   37139.5    269.3   0.022156025   0.19640  -0.15458   0.33468   0.24595
  42   37871.3    264.1   0.023055420   0.20042  -0.11249   0.32089  -0.29119
  43   38104.9    262.4   0.006508946   0.05623  -0.01395  -0.23286   0.04262
  44   38381.3    260.5   0.040099261   0.34395  -0.02033   0.20794   0.54799
  45   38589.9    259.1   0.009835690   0.08391  -0.04754   0.08920  -0.27146
  46   38854.3    257.4   0.035749974   0.30291  -0.09149  -0.10200   0.53304
  47   39065.1    256.0   0.027821195   0.23446   0.24479  -0.13038  -0.39691
  48   39280.2    254.6   0.030241517   0.25346   0.31154   0.22980  -0.32185
  49   39322.8    254.3   0.046177067   0.38660   0.47608  -0.06275   0.39498
  50   39700.6    251.9   0.060041538   0.49789  -0.38471   0.58373  -0.09563
  51   39802.3    251.2   0.003576154   0.02958  -0.00448  -0.06440  -0.15941
  52   39873.3    250.8   0.024125830   0.19919   0.05228   0.01016  -0.44312
  53   40009.7    249.9   0.078902842   0.64924   0.04891   0.80089   0.07366
  54   40323.9    248.0   0.154025918   1.25750  -0.81941   0.64725  -0.40881

FINAL SINGLE POINT ENERGY     -3666.027887533506

DIPOLE MOMENT
-------------
                                X             Y             Z
Electronic contribution:      3.25841       9.84045      -8.54413
Nuclear contribution   :     -4.08105     -13.19133       8.62683
                        -----------------------------------------
Total Dipole Moment    :     -0.82264      -3.35088       0.08269
                        -----------------------------------------
Magnitude (a.u.)       :      3.45137
Magnitude (Debye)      :      8.77269

Rotational constants in cm-1:     0.003015     0.000292     0.000278
Rotational constants in MHz :    90.391427     8.752869     8.335738

                             ****ORCA TERMINATED NORMALLY****
TOTAL RUN TIME: 0 days 0 hours 8 minutes 35 seconds 512 msec
