                         Program Version 4.2.0 -  RELEASE  -
|  1> # ORCA input file
|  2> # SCF done       -190.569856746443          0.000706576765
|  3> ! CAM-B3LYP def2-SVP def2/J RIJCOSX Grid4 TightSCF
|  4> %maxcore 5000
|  5> %tddft
|  6>     Mode sTDDFT
|  7>     Ethresh 5.0
|  8>     maxcore 5000
|  9> end
| 10>
| 11> %pal
| 12>   nprocs 6
| 13>   end
| 14> * xyz 0 1
| 15>    C       -0.25643        -2.34598        -5.36742
| 16>    S       -1.48183        -2.06366        -6.52598
| 17>    C       -2.71106        -2.73591        -5.49692
| 18>    C       -2.13126        -3.19807        -4.32253
| 19>    C       -0.74388        -2.98697        -4.26016
| 20>    O       -0.00048        -3.39416        -3.18636
| 21>    C       -0.60409        -4.05588        -2.17637
| 22>    O        0.02799        -4.40887        -1.22490
| 23>    C       -2.11169        -4.34578        -2.27783
| 24>    O       -2.68941        -4.96602        -1.43051
| 25>    O       -2.79406        -3.88121        -3.34086
| 26>    C       -4.08838        -2.86147        -5.83439
| 27>    C       -4.67929        -3.13314        -7.06081
| 28>    N       -4.07627        -3.07202        -8.31579
| 29>    O       -3.01205        -2.46074        -8.40962
| 30>    O       -4.63196        -3.60734        -9.25533
| 31>    C       -6.04003        -3.55601        -6.84851
| 32>    C       -6.29249        -3.55506        -5.51643
| 33>    C       -5.13077        -3.05896        -4.82829
| 34>    C       -5.08680        -2.59745        -3.52346
| 35>    C       -4.40771        -1.43236        -3.06674
| 36>    C       -4.84532        -1.13328        -1.80594
| 37>    C       -5.74884        -2.14980        -1.37216
| 38>    N       -6.31859        -2.17733        -0.09081
| 39>    O       -7.08882        -3.08588         0.18636
| 40>    O       -6.02411        -1.27634         0.67505
| 41>    C       -5.88340        -3.10048        -2.39035
| 42>    C       -6.39735        -4.40057        -2.27353
| 43>    C       -6.00996        -5.41316        -3.11281
| 44>    C       -6.39723        -6.76058        -3.16268
| 45>    N       -7.31996        -7.47660        -2.44311
| 46>    C       -8.08423        -7.03391        -1.29959
| 47>    C       -7.23480        -7.00321        -0.03171
| 48>    C       -7.39770        -8.81940        -2.87516
| 49>    O       -8.13930        -9.64263        -2.38946
| 50>    C       -6.44399        -8.90082        -3.96784
| 51>    C       -5.85205        -7.63925        -4.11365
| 52>    C       -4.90940        -7.70638        -5.20710
| 53>    O       -4.18365        -6.87406        -5.70664
| 54>    N       -4.97479        -9.05632        -5.64029
| 55>    C       -4.29327        -9.45053        -6.85263
| 56>    C       -5.27302        -9.75171        -7.98241
| 57>    C       -5.88448        -9.77243        -4.90953
| 58>    C       -6.24182       -11.14731        -5.00921
| 59>    C       -5.53129       -12.16050        -5.54134
| 60>    C       -6.01338       -13.52277        -5.57809
| 61>    C       -5.22405       -14.60882        -5.31557
| 62>    S       -6.08789       -16.08804        -5.35386
| 63>    C       -7.53277       -15.27503        -5.76340
| 64>    C       -7.36560       -13.92084        -5.85557
| 65>    C       -8.40706       -13.01941        -6.36647
| 66>    O       -8.22048       -11.94343        -6.87207
| 67>    O       -9.63639       -13.58701        -6.24501
| 68>    C      -10.71520       -12.88079        -6.68414
| 69>    C      -11.93283       -13.43316        -6.64701
| 70>    C      -13.13097       -12.77798        -7.07749
| 71>    S      -14.64631       -13.62482        -7.05820
| 72>    C      -15.51308       -12.27925        -7.66717
| 73>    C      -14.67837       -11.22161        -7.87701
| 74>    C      -13.33061       -11.49692        -7.54601
| 75>    O      -12.35259       -10.55147        -7.68150
| 76>    C      -12.68385        -9.31987        -8.13028
| 77>    O      -11.84374        -8.47579        -8.23131
| 78>    C      -14.14887        -9.02875        -8.50798
| 79>    O      -14.47219        -7.95861        -8.92864
| 80>    O      -15.07102       -10.00547        -8.35759
| 81>    H        0.76200        -2.07392        -5.55373
| 82>    H       -6.70962        -3.81073        -7.64734
| 83>    H       -7.22972        -3.76654        -5.03988
| 84>    H       -3.76374        -0.82562        -3.67493
| 85>    H       -4.57261        -0.28481        -1.20643
| 86>    H       -7.02343        -4.58225        -1.41236
| 87>    H       -5.25228        -5.18767        -3.85294
| 88>    H       -8.89531        -7.75818        -1.18065
| 89>    H       -8.51851        -6.05420        -1.51050
| 90>    H       -6.92948        -8.01188         0.23613
| 91>    H       -7.81268        -6.58296         0.78597
| 92>    H       -6.34167        -6.39859        -0.16926
| 93>    H       -3.63856       -10.30329        -6.65739
| 94>    H       -3.66513        -8.59620        -7.12332
| 95>    H       -5.96699       -10.54209        -7.70694
| 96>    H       -4.72343       -10.05832        -8.86776
| 97>    H       -5.84681        -8.86062        -8.22370
| 98>    H       -7.18470       -11.36580        -4.52462
| 99>    H       -4.52633       -12.01252        -5.90699
|100>    H       -4.18248       -14.60809        -5.06147
|101>    H       -8.43074       -15.83031        -5.94746
|102>    H      -10.50812       -11.88376        -7.05027
|103>    H      -12.04863       -14.44074        -6.27517
|104>    H      -16.56814       -12.32659        -7.83804
|105> *
|106>
|107>                          ****END OF INPUT****

CARTESIAN COORDINATES (ANGSTROEM)
---------------------------------
  C     -0.256430   -2.345980   -5.367420
  S     -1.481830   -2.063660   -6.525980
  C     -2.711060   -2.735910   -5.496920
  C     -2.131260   -3.198070   -4.322530
  C     -0.743880   -2.986970   -4.260160
  O     -0.000480   -3.394160   -3.186360
  C     -0.604090   -4.055880   -2.176370
  O      0.027990   -4.408870   -1.224900
  C     -2.111690   -4.345780   -2.277830
  O     -2.689410   -4.966020   -1.430510
  O     -2.794060   -3.881210   -3.340860
  C     -4.088380   -2.861470   -5.834390
  C     -4.679290   -3.133140   -7.060810
  N     -4.076270   -3.072020   -8.315790
  O     -3.012050   -2.460740   -8.409620
  O     -4.631960   -3.607340   -9.255330
  C     -6.040030   -3.556010   -6.848510
  C     -6.292490   -3.555060   -5.516430
  C     -5.130770   -3.058960   -4.828290
  C     -5.086800   -2.597450   -3.523460
  C     -4.407710   -1.432360   -3.066740
  C     -4.845320   -1.133280   -1.805940
  C     -5.748840   -2.149800   -1.372160
  N     -6.318590   -2.177330   -0.090810
  O     -7.088820   -3.085880    0.186360
  O     -6.024110   -1.276340    0.675050
  C     -5.883400   -3.100480   -2.390350
  C     -6.397350   -4.400570   -2.273530
  C     -6.009960   -5.413160   -3.112810
  C     -6.397230   -6.760580   -3.162680
  N     -7.319960   -7.476600   -2.443110
  C     -8.084230   -7.033910   -1.299590
  C     -7.234800   -7.003210   -0.031710
  C     -7.397700   -8.819400   -2.875160
  O     -8.139300   -9.642630   -2.389460
  C     -6.443990   -8.900820   -3.967840
  C     -5.852050   -7.639250   -4.113650
  C     -4.909400   -7.706380   -5.207100
  O     -4.183650   -6.874060   -5.706640
  N     -4.974790   -9.056320   -5.640290
  C     -4.293270   -9.450530   -6.852630
  C     -5.273020   -9.751710   -7.982410
  C     -5.884480   -9.772430   -4.909530
  C     -6.241820  -11.147310   -5.009210
  C     -5.531290  -12.160500   -5.541340
  C     -6.013380  -13.522770   -5.578090
  C     -5.224050  -14.608820   -5.315570
  S     -6.087890  -16.088040   -5.353860
  C     -7.532770  -15.275030   -5.763400
  C     -7.365600  -13.920840   -5.855570
  C     -8.407060  -13.019410   -6.366470
  O     -8.220480  -11.943430   -6.872070
  O     -9.636390  -13.587010   -6.245010
  C    -10.715200  -12.880790   -6.684140
  C    -11.932830  -13.433160   -6.647010
  C    -13.130970  -12.777980   -7.077490
  S    -14.646310  -13.624820   -7.058200
  C    -15.513080  -12.279250   -7.667170
  C    -14.678370  -11.221610   -7.877010
  C    -13.330610  -11.496920   -7.546010
  O    -12.352590  -10.551470   -7.681500
  C    -12.683850   -9.319870   -8.130280
  O    -11.843740   -8.475790   -8.231310
  C    -14.148870   -9.028750   -8.507980
  O    -14.472190   -7.958610   -8.928640
  O    -15.071020  -10.005470   -8.357590
  H      0.762000   -2.073920   -5.553730
  H     -6.709620   -3.810730   -7.647340
  H     -7.229720   -3.766540   -5.039880
  H     -3.763740   -0.825620   -3.674930
  H     -4.572610   -0.284810   -1.206430
  H     -7.023430   -4.582250   -1.412360
  H     -5.252280   -5.187670   -3.852940
  H     -8.895310   -7.758180   -1.180650
  H     -8.518510   -6.054200   -1.510500
  H     -6.929480   -8.011880    0.236130
  H     -7.812680   -6.582960    0.785970
  H     -6.341670   -6.398590   -0.169260
  H     -3.638560  -10.303290   -6.657390
  H     -3.665130   -8.596200   -7.123320
  H     -5.966990  -10.542090   -7.706940
  H     -4.723430  -10.058320   -8.867760
  H     -5.846810   -8.860620   -8.223700
  H     -7.184700  -11.365800   -4.524620
  H     -4.526330  -12.012520   -5.906990
  H     -4.182480  -14.608090   -5.061470
  H     -8.430740  -15.830310   -5.947460
  H    -10.508120  -11.883760   -7.050270
  H    -12.048630  -14.440740   -6.275170
  H    -16.568140  -12.326590   -7.838040

 Total Charge           Charge          ....    0
 Multiplicity           Mult            ....    1
 Number of Electrons    NEL             ....  486
 Basis Dimension        Dim             .... 1056

ORBITAL ENERGIES
----------------

  NO   OCC          E(Eh)            E(eV)
   0   2.0000     -88.985942     -2421.4306
   1   2.0000     -88.983495     -2421.3640
   2   2.0000     -88.980092     -2421.2714
   3   2.0000     -19.316720      -525.6347
   4   2.0000     -19.315873      -525.6116
   5   2.0000     -19.312058      -525.5078
   6   2.0000     -19.308834      -525.4201
   7   2.0000     -19.296480      -525.0839
   8   2.0000     -19.242649      -523.6191
   9   2.0000     -19.241195      -523.5795
  10   2.0000     -19.240905      -523.5716
  11   2.0000     -19.238828      -523.5151
  12   2.0000     -19.238064      -523.4943
  13   2.0000     -19.237931      -523.4907
  14   2.0000     -19.230017      -523.2754
  15   2.0000     -19.227441      -523.2053
  16   2.0000     -19.226679      -523.1845
  17   2.0000     -19.208180      -522.6811
  18   2.0000     -19.191112      -522.2167
  19   2.0000     -14.644699      -398.5025
  20   2.0000     -14.636893      -398.2901
  21   2.0000     -14.464365      -393.5954
  22   2.0000     -14.455322      -393.3493
  23   2.0000     -10.444434      -284.2075
  24   2.0000     -10.443200      -284.1739
  25   2.0000     -10.443196      -284.1738
  26   2.0000     -10.440625      -284.1039
  27   2.0000     -10.429386      -283.7980
  28   2.0000     -10.387717      -282.6641
  29   2.0000     -10.377315      -282.3811
  30   2.0000     -10.368735      -282.1476
  31   2.0000     -10.368208      -282.1333
  32   2.0000     -10.365842      -282.0689
  33   2.0000     -10.363783      -282.0129
  34   2.0000     -10.353354      -281.7291
  35   2.0000     -10.349204      -281.6162
  36   2.0000     -10.342907      -281.4448
  37   2.0000     -10.331437      -281.1327
  38   2.0000     -10.330752      -281.1140
  39   2.0000     -10.327961      -281.0381
  40   2.0000     -10.327033      -281.0128
  41   2.0000     -10.326912      -281.0096
  42   2.0000     -10.323189      -280.9082
  43   2.0000     -10.321363      -280.8586
  44   2.0000     -10.318378      -280.7773
  45   2.0000     -10.318361      -280.7769
  46   2.0000     -10.317829      -280.7624
  47   2.0000     -10.317004      -280.7400
  48   2.0000     -10.312425      -280.6153
  49   2.0000     -10.311499      -280.5902
  50   2.0000     -10.309576      -280.5378
  51   2.0000     -10.308706      -280.5142
  52   2.0000     -10.307907      -280.4924
  53   2.0000     -10.304372      -280.3962
  54   2.0000     -10.304168      -280.3907
  55   2.0000     -10.299913      -280.2749
  56   2.0000     -10.299817      -280.2723
  57   2.0000     -10.299427      -280.2617
  58   2.0000     -10.298707      -280.2421
  59   2.0000     -10.288803      -279.9726
  60   2.0000     -10.283451      -279.8269
  61   2.0000     -10.282345      -279.7968
  62   2.0000     -10.276536      -279.6388
  63   2.0000     -10.269159      -279.4380
  64   2.0000     -10.259919      -279.1866
  65   2.0000     -10.254882      -279.0495
  66   2.0000      -8.082282      -219.9301
  67   2.0000      -8.079195      -219.8461
  68   2.0000      -8.073537      -219.6921
  69   2.0000      -6.051406      -164.6671
  70   2.0000      -6.048537      -164.5890
  71   2.0000      -6.046886      -164.5441
  72   2.0000      -6.044975      -164.4921
  73   2.0000      -6.044498      -164.4792
  74   2.0000      -6.043027      -164.4391
  75   2.0000      -6.041020      -164.3845
  76   2.0000      -6.038518      -164.3164
  77   2.0000      -6.035592      -164.2368
  78   2.0000      -1.315429       -35.7946
  79   2.0000      -1.306101       -35.5408
  80   2.0000      -1.257384       -34.2151
  81   2.0000      -1.256840       -34.2004
  82   2.0000      -1.225718       -33.3535
  83   2.0000      -1.223303       -33.2878
  84   2.0000      -1.221716       -33.2446
  85   2.0000      -1.161525       -31.6067
  86   2.0000      -1.158291       -31.5187
  87   2.0000      -1.144265       -31.1370
  88   2.0000      -1.134023       -30.8583
  89   2.0000      -1.133190       -30.8357
  90   2.0000      -1.131096       -30.7787
  91   2.0000      -1.130951       -30.7748
  92   2.0000      -1.130523       -30.7631
  93   2.0000      -1.123368       -30.5684
  94   2.0000      -1.072872       -29.1943
  95   2.0000      -1.059580       -28.8326
  96   2.0000      -1.020405       -27.7666
  97   2.0000      -1.012820       -27.5602
  98   2.0000      -1.011960       -27.5368
  99   2.0000      -1.005059       -27.3491
 100   2.0000      -0.990343       -26.9486
 101   2.0000      -0.934875       -25.4392
 102   2.0000      -0.921443       -25.0737
 103   2.0000      -0.916439       -24.9376
 104   2.0000      -0.915898       -24.9229
 105   2.0000      -0.907973       -24.7072
 106   2.0000      -0.882219       -24.0064
 107   2.0000      -0.879263       -23.9260
 108   2.0000      -0.876620       -23.8540
 109   2.0000      -0.875850       -23.8331
 110   2.0000      -0.868053       -23.6209
 111   2.0000      -0.866179       -23.5699
 112   2.0000      -0.856542       -23.3077
 113   2.0000      -0.842789       -22.9335
 114   2.0000      -0.838334       -22.8122
 115   2.0000      -0.821563       -22.3559
 116   2.0000      -0.821060       -22.3422
 117   2.0000      -0.802237       -21.8300
 118   2.0000      -0.801783       -21.8176
 119   2.0000      -0.797096       -21.6901
 120   2.0000      -0.790254       -21.5039
 121   2.0000      -0.778639       -21.1878
 122   2.0000      -0.761130       -20.7114
 123   2.0000      -0.760017       -20.6811
 124   2.0000      -0.743959       -20.2441
 125   2.0000      -0.740146       -20.1404
 126   2.0000      -0.727634       -19.7999
 127   2.0000      -0.723446       -19.6860
 128   2.0000      -0.722492       -19.6600
 129   2.0000      -0.715580       -19.4719
 130   2.0000      -0.708038       -19.2667
 131   2.0000      -0.702770       -19.1234
 132   2.0000      -0.698918       -19.0185
 133   2.0000      -0.692594       -18.8464
 134   2.0000      -0.690479       -18.7889
 135   2.0000      -0.681318       -18.5396
 136   2.0000      -0.671043       -18.2600
 137   2.0000      -0.670622       -18.2485
 138   2.0000      -0.656662       -17.8687
 139   2.0000      -0.654261       -17.8034
 140   2.0000      -0.648721       -17.6526
 141   2.0000      -0.637434       -17.3455
 142   2.0000      -0.631400       -17.1813
 143   2.0000      -0.626871       -17.0580
 144   2.0000      -0.626075       -17.0364
 145   2.0000      -0.618606       -16.8331
 146   2.0000      -0.617442       -16.8014
 147   2.0000      -0.616062       -16.7639
 148   2.0000      -0.614538       -16.7224
 149   2.0000      -0.612380       -16.6637
 150   2.0000      -0.603464       -16.4211
 151   2.0000      -0.600311       -16.3353
 152   2.0000      -0.594063       -16.1653
 153   2.0000      -0.589616       -16.0443
 154   2.0000      -0.587938       -15.9986
 155   2.0000      -0.587847       -15.9961
 156   2.0000      -0.580078       -15.7847
 157   2.0000      -0.577278       -15.7085
 158   2.0000      -0.574826       -15.6418
 159   2.0000      -0.572733       -15.5849
 160   2.0000      -0.569417       -15.4946
 161   2.0000      -0.567130       -15.4324
 162   2.0000      -0.559229       -15.2174
 163   2.0000      -0.557029       -15.1575
 164   2.0000      -0.556344       -15.1389
 165   2.0000      -0.553887       -15.0720
 166   2.0000      -0.548794       -14.9334
 167   2.0000      -0.547149       -14.8887
 168   2.0000      -0.545455       -14.8426
 169   2.0000      -0.544162       -14.8074
 170   2.0000      -0.542167       -14.7531
 171   2.0000      -0.540562       -14.7094
 172   2.0000      -0.536353       -14.5949
 173   2.0000      -0.535525       -14.5724
 174   2.0000      -0.533572       -14.5192
 175   2.0000      -0.530077       -14.4241
 176   2.0000      -0.523820       -14.2539
 177   2.0000      -0.523616       -14.2483
 178   2.0000      -0.522644       -14.2219
 179   2.0000      -0.521523       -14.1914
 180   2.0000      -0.517143       -14.0722
 181   2.0000      -0.516702       -14.0602
 182   2.0000      -0.513621       -13.9763
 183   2.0000      -0.509785       -13.8720
 184   2.0000      -0.506026       -13.7697
 185   2.0000      -0.501584       -13.6488
 186   2.0000      -0.501484       -13.6461
 187   2.0000      -0.500396       -13.6165
 188   2.0000      -0.496495       -13.5103
 189   2.0000      -0.492179       -13.3929
 190   2.0000      -0.484035       -13.1713
 191   2.0000      -0.480141       -13.0653
 192   2.0000      -0.476721       -12.9722
 193   2.0000      -0.475809       -12.9474
 194   2.0000      -0.473133       -12.8746
 195   2.0000      -0.472123       -12.8471
 196   2.0000      -0.466491       -12.6939
 197   2.0000      -0.463681       -12.6174
 198   2.0000      -0.463352       -12.6084
 199   2.0000      -0.460138       -12.5210
 200   2.0000      -0.457408       -12.4467
 201   2.0000      -0.456100       -12.4111
 202   2.0000      -0.454497       -12.3675
 203   2.0000      -0.453573       -12.3424
 204   2.0000      -0.449452       -12.2302
 205   2.0000      -0.448271       -12.1981
 206   2.0000      -0.447332       -12.1725
 207   2.0000      -0.445503       -12.1228
 208   2.0000      -0.443752       -12.0751
 209   2.0000      -0.442959       -12.0535
 210   2.0000      -0.441096       -12.0028
 211   2.0000      -0.436365       -11.8741
 212   2.0000      -0.433303       -11.7908
 213   2.0000      -0.431150       -11.7322
 214   2.0000      -0.420914       -11.4537
 215   2.0000      -0.418376       -11.3846
 216   2.0000      -0.403838       -10.9890
 217   2.0000      -0.402000       -10.9390
 218   2.0000      -0.392385       -10.6773
 219   2.0000      -0.386583       -10.5195
 220   2.0000      -0.379719       -10.3327
 221   2.0000      -0.378992       -10.3129
 222   2.0000      -0.378813       -10.3080
 223   2.0000      -0.375967       -10.2306
 224   2.0000      -0.375440       -10.2162
 225   2.0000      -0.373394       -10.1606
 226   2.0000      -0.370239       -10.0747
 227   2.0000      -0.365766        -9.9530
 228   2.0000      -0.360936        -9.8216
 229   2.0000      -0.358305        -9.7500
 230   2.0000      -0.354937        -9.6583
 231   2.0000      -0.351381        -9.5616
 232   2.0000      -0.343683        -9.3521
 233   2.0000      -0.337501        -9.1839
 234   2.0000      -0.326976        -8.8975
 235   2.0000      -0.324075        -8.8185
 236   2.0000      -0.324049        -8.8178
 237   2.0000      -0.318883        -8.6773
 238   2.0000      -0.316014        -8.5992
 239   2.0000      -0.301025        -8.1913
 240   2.0000      -0.287967        -7.8360
 241   2.0000      -0.279453        -7.6043
 242   2.0000      -0.240157        -6.5350
 243   0.0000      -0.135322        -3.6823
 244   0.0000      -0.085760        -2.3337
 245   0.0000      -0.049048        -1.3347
 246   0.0000      -0.046283        -1.2594
 247   0.0000      -0.040594        -1.1046

MULLIKEN ATOMIC CHARGES
-----------------------
   0 C :   -0.135875
   1 S :    0.242079
   2 C :   -0.234119
   3 C :    0.177020
   4 C :    0.195335
   5 O :   -0.190112
   6 C :    0.149554
   7 O :   -0.101155
   8 C :    0.157039
   9 O :   -0.110298
  10 O :   -0.211539
  11 C :    0.093056
  12 C :    0.062093
  13 N :    0.290091
  14 O :   -0.282339
  15 O :   -0.239200
  16 C :    0.015551
  17 C :    0.026056
  18 C :   -0.048299
  19 C :    0.058573
  20 C :   -0.010954
  21 C :    0.021364
  22 C :    0.085072
  23 N :    0.275978
  24 O :   -0.264663
  25 O :   -0.253974
  26 C :    0.038358
  27 C :   -0.025988
  28 C :   -0.027341
  29 C :    0.128277
  30 N :   -0.266696
  31 C :    0.097772
  32 C :    0.001465
  33 C :    0.153057
  34 O :   -0.190438
  35 C :   -0.037145
  36 C :   -0.040913
  37 C :    0.165600
  38 O :   -0.181198
  39 N :   -0.267694
  40 C :    0.096648
  41 C :   -0.014055
  42 C :    0.098080
  43 C :    0.012584
  44 C :    0.014300
  45 C :    0.097153
  46 C :   -0.122930
  47 S :    0.156306
  48 C :   -0.087491
  49 C :   -0.006506
  50 C :    0.205486
  51 O :   -0.174479
  52 O :   -0.247140
  53 C :    0.144870
  54 C :    0.054147
  55 C :   -0.187697
  56 S :    0.155116
  57 C :   -0.155802
  58 C :    0.208245
  59 C :    0.160757
  60 O :   -0.207554
  61 C :    0.152169
  62 O :   -0.097259
  63 C :    0.142828
  64 O :   -0.098587
  65 O :   -0.188948
  66 H :    0.036203
  67 H :    0.001222
  68 H :   -0.004656
  69 H :   -0.004962
  70 H :    0.005667
  71 H :    0.017858
  72 H :    0.034904
  73 H :    0.041177
  74 H :    0.028370
  75 H :    0.024445
  76 H :    0.031565
  77 H :    0.032709
  78 H :    0.021508
  79 H :    0.046708
  80 H :    0.045269
  81 H :    0.020342
  82 H :    0.028667
  83 H :    0.019035
  84 H :   -0.002866
  85 H :    0.030636
  86 H :    0.041107
  87 H :    0.050438
  88 H :   -0.007425
  89 H :    0.038389
Sum of atomic charges:   -0.0000000

LOEWDIN ATOMIC CHARGES
----------------------
   0 C :   -0.198360
   1 S :    0.543577
   2 C :   -0.198791
   3 C :   -0.006698
   4 C :   -0.021081
   5 O :   -0.024996
   6 C :    0.054991
   7 O :   -0.083416
   8 C :    0.055878
   9 O :   -0.090840
  10 O :   -0.010794
  11 C :   -0.010603
  12 C :   -0.038596
  13 N :    0.287288
  14 O :   -0.243272
  15 O :   -0.202270
  16 C :   -0.000292
  17 C :   -0.028543
  18 C :    0.022601
  19 C :    0.057450
  20 C :   -0.058174
  21 C :    0.031140
  22 C :   -0.064377
  23 N :    0.286710
  24 O :   -0.230852
  25 O :   -0.217783
  26 C :    0.017907
  27 C :   -0.001683
  28 C :    0.008514
  29 C :    0.061029
  30 N :   -0.003018
  31 C :    0.036536
  32 C :   -0.060728
  33 C :    0.080711
  34 O :   -0.193027
  35 C :   -0.117205
  36 C :   -0.085939
  37 C :    0.088652
  38 O :   -0.177262
  39 N :   -0.001741
  40 C :    0.035827
  41 C :   -0.062851
  42 C :    0.095725
  43 C :   -0.015419
  44 C :    0.013909
  45 C :   -0.047597
  46 C :   -0.173707
  47 S :    0.482207
  48 C :   -0.145737
  49 C :   -0.106708
  50 C :    0.107180
  51 O :   -0.148309
  52 O :   -0.043580
  53 C :    0.078020
  54 C :   -0.079536
  55 C :   -0.185157
  56 S :    0.473232
  57 C :   -0.205315
  58 C :   -0.013756
  59 C :   -0.021977
  60 O :   -0.023275
  61 C :    0.055192
  62 O :   -0.080421
  63 C :    0.053938
  64 O :   -0.080769
  65 O :   -0.023869
  66 H :    0.036288
  67 H :    0.038259
  68 H :    0.031514
  69 H :    0.030099
  70 H :    0.039575
  71 H :    0.037407
  72 H :    0.046500
  73 H :    0.036943
  74 H :    0.024609
  75 H :    0.030681
  76 H :    0.035462
  77 H :    0.026879
  78 H :    0.018095
  79 H :    0.037567
  80 H :    0.027679
  81 H :    0.030778
  82 H :    0.032758
  83 H :    0.045970
  84 H :    0.032844
  85 H :    0.028409
  86 H :    0.031855
  87 H :    0.027752
  88 H :    0.035732
  89 H :    0.036452

  Mayer bond orders larger than 0.100000
B(  0-C ,  1-S ) :   1.1567 B(  0-C ,  4-C ) :   1.5057 B(  0-C , 66-H ) :   0.9745
B(  1-S ,  2-C ) :   1.1651 B(  2-C ,  3-C ) :   1.4515 B(  2-C , 11-C ) :   1.1130
B(  3-C ,  4-C ) :   1.2593 B(  3-C , 10-O ) :   1.0417 B(  4-C ,  5-O ) :   1.0408
B(  5-O ,  6-C ) :   1.0934 B(  6-C ,  7-O ) :   2.2474 B(  6-C ,  8-C ) :   0.8379
B(  8-C ,  9-O ) :   2.2319 B(  8-C , 10-O ) :   1.0666 B( 11-C , 12-C ) :   1.5272
B( 11-C , 18-C ) :   1.0711 B( 12-C , 13-N ) :   0.9714 B( 12-C , 16-C ) :   1.1365
B( 13-N , 14-O ) :   1.4290 B( 13-N , 15-O ) :   1.5450 B( 14-O , 15-O ) :   0.2520
B( 16-C , 17-C ) :   1.5813 B( 16-C , 67-H ) :   1.0119 B( 17-C , 18-C ) :   1.1473
B( 17-C , 68-H ) :   1.0008 B( 18-C , 19-C ) :   1.4293 B( 19-C , 20-C ) :   1.1980
B( 19-C , 26-C ) :   1.0053 B( 20-C , 21-C ) :   1.5129 B( 20-C , 69-H ) :   1.0060
B( 21-C , 22-C ) :   1.1669 B( 21-C , 70-H ) :   1.0109 B( 22-C , 23-N ) :   0.9648
B( 22-C , 26-C ) :   1.4287 B( 23-N , 24-O ) :   1.4878 B( 23-N , 25-O ) :   1.5294
B( 24-O , 25-O ) :   0.2504 B( 26-C , 27-C ) :   1.2517 B( 27-C , 28-C ) :   1.4191
B( 27-C , 71-H ) :   0.9602 B( 28-C , 29-C ) :   1.2551 B( 28-C , 72-H ) :   0.9258
B( 29-C , 30-N ) :   1.1700 B( 29-C , 36-C ) :   1.3072 B( 30-N , 31-C ) :   0.9353
B( 30-N , 33-C ) :   1.0380 B( 31-C , 32-C ) :   1.1191 B( 31-C , 73-H ) :   0.9264
B( 31-C , 74-H ) :   0.9507 B( 32-C , 75-H ) :   0.9614 B( 32-C , 76-H ) :   0.9680
B( 32-C , 77-H ) :   0.9673 B( 33-C , 34-O ) :   2.1407 B( 33-C , 35-C ) :   0.9690
B( 35-C , 36-C ) :   1.2688 B( 35-C , 42-C ) :   1.3211 B( 36-C , 37-C ) :   0.9762
B( 37-C , 38-O ) :   2.1136 B( 37-C , 39-N ) :   1.0265 B( 39-N , 40-C ) :   0.9358
B( 39-N , 42-C ) :   1.2023 B( 40-C , 41-C ) :   1.1146 B( 40-C , 78-H ) :   0.9505
B( 40-C , 79-H ) :   0.9264 B( 41-C , 80-H ) :   0.9624 B( 41-C , 81-H ) :   0.9655
B( 41-C , 82-H ) :   0.9627 B( 42-C , 43-C ) :   1.1954 B( 43-C , 44-C ) :   1.6726
B( 43-C , 83-H ) :   0.9368 B( 44-C , 45-C ) :   1.0566 B( 44-C , 84-H ) :   0.9689
B( 45-C , 46-C ) :   1.5405 B( 45-C , 49-C ) :   1.2392 B( 46-C , 47-S ) :   1.1701
B( 46-C , 85-H ) :   0.9706 B( 47-S , 48-C ) :   1.2137 B( 48-C , 49-C ) :   1.5330
B( 48-C , 86-H ) :   0.9654 B( 49-C , 50-C ) :   0.9491 B( 50-C , 51-O ) :   2.1003
B( 50-C , 52-O ) :   1.1330 B( 52-O , 53-C ) :   1.0171 B( 53-C , 54-C ) :   1.7408
B( 53-C , 87-H ) :   0.9668 B( 54-C , 55-C ) :   1.1071 B( 54-C , 88-H ) :   0.9535
B( 55-C , 56-S ) :   1.1522 B( 55-C , 59-C ) :   1.4993 B( 56-S , 57-C ) :   1.1427
B( 57-C , 58-C ) :   1.5543 B( 57-C , 89-H ) :   0.9750 B( 58-C , 59-C ) :   1.2192
B( 58-C , 65-O ) :   1.0460 B( 59-C , 60-O ) :   1.0522 B( 60-O , 61-C ) :   1.0696
B( 61-C , 62-O ) :   2.2537 B( 61-C , 63-C ) :   0.8305 B( 63-C , 64-O ) :   2.2507
B( 63-C , 65-O ) :   1.0878

-----------------------------------------------------------------------------
         ABSORPTION SPECTRUM VIA TRANSITION ELECTRIC DIPOLE MOMENTS
-----------------------------------------------------------------------------
State   Energy  Wavelength   fosc         T2         TX        TY        TZ
        (cm-1)    (nm)                  (au**2)     (au)      (au)      (au)
-----------------------------------------------------------------------------
   0    6396.0   1563.5   0.161953071   8.33598   0.55619   2.82697   0.18677
   1   11891.7    840.9   0.034366504   0.95141   0.73781  -0.62104  -0.14611
   2   16848.0    593.5   0.235680189   4.60522   0.40666  -1.65375  -1.30574
   3   17900.0    558.7   0.257217727   4.73069   0.73814  -1.71435  -1.11662
   4   20467.1    488.6   0.010231413   0.16457  -0.38329  -0.13250   0.01015
   5   22755.6    439.5   0.000918915   0.01329  -0.05647  -0.09940  -0.01502
   6   23627.7    423.2   0.003267658   0.04553  -0.11500   0.04714  -0.17344
   7   23818.6    419.8   0.269667300   3.72724  -0.64814   0.41121   1.77146
   8   24623.9    406.1   0.088705510   1.18596   0.21992  -0.08697  -1.06303
   9   24881.5    401.9   0.039813600   0.52678   0.61146  -0.38982  -0.03073
  10   25653.5    389.8   0.018868852   0.24214  -0.12021   0.13186   0.45859
  11   26583.2    376.2   0.155111933   1.92094   0.37675   1.30799   0.26106
  12   26718.2    374.3   0.006020104   0.07418   0.09055  -0.24936   0.06162
  13   27117.4    368.8   0.053469266   0.64913   0.62797   0.39218   0.31776
  14   27278.0    366.6   0.081076169   0.97849  -0.11188  -0.98277  -0.01125
  15   27652.5    361.6   0.011852900   0.14111   0.34623   0.13717  -0.04920
  16   28605.7    349.6   0.000372010   0.00428  -0.06064   0.00552  -0.02396
  17   29484.9    339.2   0.017060349   0.19049  -0.33631   0.04385   0.27470
  18   29603.7    337.8   0.264631222   2.94287   0.28454   1.43231   0.90022
  19   30292.7    330.1   0.049153749   0.53419   0.08343   0.21050  -0.69492
  20   31130.6    321.2   0.069842999   0.73860  -0.17655   0.47112   0.69676
  21   31381.9    318.7   0.004145161   0.04348   0.17473   0.06269   0.09500
  22   31465.6    317.8   0.005049812   0.05283  -0.20390  -0.09764  -0.04153
  23   31644.9    316.0   0.047712511   0.49637   0.56021  -0.41419   0.10477
  24   31912.8    313.4   0.219695970   2.26638   0.56668   0.67758   1.21908
  25   31980.8    312.7   0.029142418   0.29999  -0.12862   0.24987  -0.47012
  26   32269.7    309.9   0.000120296   0.00123   0.02219  -0.02661   0.00518
  27   32683.8    306.0   0.010193770   0.10268   0.01696  -0.16331  -0.27517
  28   32761.2    305.2   0.027890851   0.28027  -0.51403   0.07531  -0.10186
  29   33207.7    301.1   0.017671994   0.17520   0.20569   0.30899   0.19342
  30   33378.4    299.6   0.177827827   1.75392  -0.26158  -0.49853  -1.19873
  31   33448.5    299.0   0.003086668   0.03038   0.10634  -0.13043   0.04539
  32   33843.9    295.5   0.043007302   0.41835   0.11644  -0.63189   0.07423
  33   34058.0    293.6   0.015068350   0.14565  -0.22120  -0.05747   0.30565
  34   34097.0    293.3   0.011441413   0.11047  -0.16651   0.20405  -0.20274
  35   34427.3    290.5   0.018328015   0.17526   0.21188   0.18732  -0.30868
  36   34849.2    287.0   0.000682034   0.00644  -0.05451   0.02528   0.05322
  37   35292.2    283.3   0.149470726   1.39429  -0.16462  -0.46713  -1.07191
  38   35591.2    281.0   0.126903614   1.17384  -0.50701  -0.94950  -0.12343
  39   36235.5    276.0   0.030635754   0.27834   0.17292  -0.05182   0.49573
  40   36892.8    271.1   0.534958206   4.77368   1.92229  -0.96908   0.37331
  41   37082.4    269.7   0.018636071   0.16545   0.31736   0.20895  -0.14516
  42   37214.3    268.7   0.007184505   0.06356   0.03545  -0.23344   0.08836
  43   37355.1    267.7   0.000804002   0.00709  -0.02665   0.06573  -0.04533
  44   37576.3    266.1   0.039050007   0.34212  -0.39108  -0.16617   0.40195
  45   37928.0    263.7   0.012417662   0.10778  -0.27890  -0.10413   0.13840
  46   38362.2    260.7   0.019351375   0.16607  -0.00923  -0.35619  -0.19775
  47   38609.5    259.0   0.039224749   0.33446  -0.02766   0.02244   0.57723
  48   38932.7    256.9   0.067371358   0.56969  -0.01800   0.10852  -0.74672
  49   39273.2    254.6   0.235003152   1.96994   0.20681  -0.61258   1.24576
  50   40264.1    248.4   0.001206693   0.00987  -0.04789  -0.01831   0.08507

FINAL SINGLE POINT ENERGY     -4265.838352900178

DIPOLE MOMENT
-------------
                                X             Y             Z
Electronic contribution:     -2.74932      10.36212     -10.33255
Nuclear contribution   :      2.32125     -14.49321       8.97176
                        -----------------------------------------
Total Dipole Moment    :     -0.42807      -4.13109      -1.36079
                        -----------------------------------------
Magnitude (a.u.)       :      4.37046
Magnitude (Debye)      :     11.10882

Rotational constants in cm-1:     0.001470     0.000498     0.000465
Rotational constants in MHz :    44.061134    14.939975    13.949968

                             ****ORCA TERMINATED NORMALLY****
TOTAL RUN TIME: 0 days 0 hours 9 minutes 12 seconds 430 msec
