                         Program Version 4.2.0 -  RELEASE  -
|  1> # ORCA input file
|  2> # SCF done       -187.346464146127          0.000894321459
|  3> ! CAM-B3LYP def2-SVP def2/J RIJCOSX Grid4 TightSCF
|  4> %maxcore 5000
|  5> %tddft
|  6>     Mode sTDDFT
|  7>     Ethresh 5.0
|  8>     maxcore 5000
|  9> end
| 10>
| 11> %pal
| 12>   nprocs 6
| 13>   end
| 14> * xyz 0 1
| 15>    C       -1.55108         0.70460        -0.98165
| 16>    S       -0.48680        -0.55018        -1.45283
| 17>    C       -1.79381        -1.70381        -1.58964
| 18>    C       -3.00351        -1.07834        -1.32103
| 19>    C       -2.85372         0.29037        -0.98128
| 20>    C       -4.16007         0.91893        -0.74726
| 21>    O       -4.39250         2.05563        -0.43148
| 22>    C       -5.18912        -0.17784        -0.99562
| 23>    C       -4.42422        -1.41280        -1.44742
| 24>    O       -4.92562        -2.42856        -1.87121
| 25>    C       -1.59648        -3.07655        -1.90955
| 26>    C       -0.72650        -3.66633        -2.81589
| 27>    N        0.33283        -3.06622        -3.50459
| 28>    O        0.79201        -3.64840        -4.46774
| 29>    O        0.75282        -1.99074        -3.08881
| 30>    C       -1.10404        -5.04193        -3.01206
| 31>    C       -2.18920        -5.30879        -2.24232
| 32>    C       -2.51215        -4.13618        -1.47942
| 33>    C       -3.33533        -4.08386        -0.37015
| 34>    C       -3.14082        -3.27733         0.79107
| 35>    C       -3.98503        -3.70029         1.77872
| 36>    C       -4.80339        -4.75206         1.27108
| 37>    N       -5.85361        -5.31648         2.00098
| 38>    O       -5.98383        -4.97616         3.16201
| 39>    O       -6.60325        -6.12433         1.44807
| 40>    C       -4.44610        -4.99735        -0.06875
| 41>    C       -5.18831        -5.80796        -0.92513
| 42>    C       -5.29844        -5.75883        -2.29522
| 43>    C       -6.26861        -6.51703        -2.95155
| 44>    S       -6.29846        -6.62559        -4.69542
| 45>    C       -7.67925        -7.70166        -4.73548
| 46>    C       -8.13493        -7.92880        -3.41337
| 47>    C       -7.34636        -7.26639        -2.43308
| 48>    N       -7.89662        -7.49473        -1.21544
| 49>    C       -9.00582        -8.28186        -1.38712
| 50>    C       -9.81163        -8.69991        -0.31520
| 51>    N      -10.48697        -9.06086         0.53730
| 52>    C       -9.18082        -8.57774        -2.72900
| 53>    C       -8.13418        -8.14890        -5.97013
| 54>    C       -9.19418        -9.02035        -6.12716
| 55>    C       -9.74951        -9.51995        -7.30827
| 56>    C       -9.31230        -9.57380        -8.64773
| 57>    N       -8.23521        -8.95072        -9.30313
| 58>    O       -7.92638        -9.39439       -10.39496
| 59>    O       -7.67420        -8.00050        -8.77834
| 60>    C      -10.15654       -10.46320        -9.37421
| 61>    C      -11.10979       -10.97549        -8.54111
| 62>    C      -10.94478       -10.39395        -7.25170
| 63>    C      -11.83182       -10.49240        -6.19332
| 64>    C      -12.12492        -9.48172        -5.22515
| 65>    C      -13.21646        -9.86308        -4.50135
| 66>    C      -13.61951       -11.16744        -4.93372
| 67>    N      -14.65786       -11.89510        -4.31857
| 68>    O      -14.78210       -13.07541        -4.59724
| 69>    O      -15.36813       -11.29276        -3.53513
| 70>    C      -12.79467       -11.58840        -5.96846
| 71>    C      -12.82368       -12.85512        -6.59975
| 72>    C      -11.73738       -13.50895        -7.08757
| 73>    C      -11.79552       -14.77058        -7.73404
| 74>    S      -10.30379       -15.65489        -8.00601
| 75>    C      -11.11884       -16.97217        -8.74077
| 76>    C      -12.46398       -16.75169        -8.78619
| 77>    C      -12.85938       -15.50750        -8.22574
| 78>    C      -14.30516       -15.31850        -8.39259
| 79>    O      -14.96201       -14.33936        -8.14111
| 80>    C      -14.83290       -16.60833        -9.00312
| 81>    C      -13.62873       -17.48794        -9.30476
| 82>    O      -13.64032       -18.55519        -9.85779
| 83>    H       -1.17394         1.68496        -0.76509
| 84>    H       -5.92653         0.12867        -1.73985
| 85>    H       -5.74314        -0.39257        -0.07879
| 86>    H       -0.57289        -5.71111        -3.66150
| 87>    H       -2.65826        -6.26427        -2.11273
| 88>    H       -2.37462        -2.53456         0.89888
| 89>    H       -4.05459        -3.32124         2.78119
| 90>    H       -5.83712        -6.49700        -0.40953
| 91>    H       -4.68581        -5.09203        -2.88192
| 92>    H       -7.61923        -7.11362        -0.31839
| 93>    H       -9.97851        -9.17549        -3.12087
| 94>    H       -7.62729        -7.76499        -6.84408
| 95>    H       -9.66528        -9.37862        -5.22466
| 96>    H      -10.03788       -10.66056       -10.42314
| 97>    H      -11.92484       -11.61024        -8.82744
| 98>    H      -11.65715        -8.51660        -5.18559
| 99>    H      -13.71732        -9.31077        -3.72871
|100>    H      -13.78932       -13.34808        -6.61832
|101>    H      -10.74536       -13.10105        -6.93939
|102>    H      -10.56846       -17.82088        -9.09602
|103>    H      -15.42459       -16.41446        -9.89997
|104>    H      -15.49925       -17.10927        -8.29623
|105> *
|106>
|107>                          ****END OF INPUT****

CARTESIAN COORDINATES (ANGSTROEM)
---------------------------------
  C     -1.551080    0.704600   -0.981650
  S     -0.486800   -0.550180   -1.452830
  C     -1.793810   -1.703810   -1.589640
  C     -3.003510   -1.078340   -1.321030
  C     -2.853720    0.290370   -0.981280
  C     -4.160070    0.918930   -0.747260
  O     -4.392500    2.055630   -0.431480
  C     -5.189120   -0.177840   -0.995620
  C     -4.424220   -1.412800   -1.447420
  O     -4.925620   -2.428560   -1.871210
  C     -1.596480   -3.076550   -1.909550
  C     -0.726500   -3.666330   -2.815890
  N      0.332830   -3.066220   -3.504590
  O      0.792010   -3.648400   -4.467740
  O      0.752820   -1.990740   -3.088810
  C     -1.104040   -5.041930   -3.012060
  C     -2.189200   -5.308790   -2.242320
  C     -2.512150   -4.136180   -1.479420
  C     -3.335330   -4.083860   -0.370150
  C     -3.140820   -3.277330    0.791070
  C     -3.985030   -3.700290    1.778720
  C     -4.803390   -4.752060    1.271080
  N     -5.853610   -5.316480    2.000980
  O     -5.983830   -4.976160    3.162010
  O     -6.603250   -6.124330    1.448070
  C     -4.446100   -4.997350   -0.068750
  C     -5.188310   -5.807960   -0.925130
  C     -5.298440   -5.758830   -2.295220
  C     -6.268610   -6.517030   -2.951550
  S     -6.298460   -6.625590   -4.695420
  C     -7.679250   -7.701660   -4.735480
  C     -8.134930   -7.928800   -3.413370
  C     -7.346360   -7.266390   -2.433080
  N     -7.896620   -7.494730   -1.215440
  C     -9.005820   -8.281860   -1.387120
  C     -9.811630   -8.699910   -0.315200
  N    -10.486970   -9.060860    0.537300
  C     -9.180820   -8.577740   -2.729000
  C     -8.134180   -8.148900   -5.970130
  C     -9.194180   -9.020350   -6.127160
  C     -9.749510   -9.519950   -7.308270
  C     -9.312300   -9.573800   -8.647730
  N     -8.235210   -8.950720   -9.303130
  O     -7.926380   -9.394390  -10.394960
  O     -7.674200   -8.000500   -8.778340
  C    -10.156540  -10.463200   -9.374210
  C    -11.109790  -10.975490   -8.541110
  C    -10.944780  -10.393950   -7.251700
  C    -11.831820  -10.492400   -6.193320
  C    -12.124920   -9.481720   -5.225150
  C    -13.216460   -9.863080   -4.501350
  C    -13.619510  -11.167440   -4.933720
  N    -14.657860  -11.895100   -4.318570
  O    -14.782100  -13.075410   -4.597240
  O    -15.368130  -11.292760   -3.535130
  C    -12.794670  -11.588400   -5.968460
  C    -12.823680  -12.855120   -6.599750
  C    -11.737380  -13.508950   -7.087570
  C    -11.795520  -14.770580   -7.734040
  S    -10.303790  -15.654890   -8.006010
  C    -11.118840  -16.972170   -8.740770
  C    -12.463980  -16.751690   -8.786190
  C    -12.859380  -15.507500   -8.225740
  C    -14.305160  -15.318500   -8.392590
  O    -14.962010  -14.339360   -8.141110
  C    -14.832900  -16.608330   -9.003120
  C    -13.628730  -17.487940   -9.304760
  O    -13.640320  -18.555190   -9.857790
  H     -1.173940    1.684960   -0.765090
  H     -5.926530    0.128670   -1.739850
  H     -5.743140   -0.392570   -0.078790
  H     -0.572890   -5.711110   -3.661500
  H     -2.658260   -6.264270   -2.112730
  H     -2.374620   -2.534560    0.898880
  H     -4.054590   -3.321240    2.781190
  H     -5.837120   -6.497000   -0.409530
  H     -4.685810   -5.092030   -2.881920
  H     -7.619230   -7.113620   -0.318390
  H     -9.978510   -9.175490   -3.120870
  H     -7.627290   -7.764990   -6.844080
  H     -9.665280   -9.378620   -5.224660
  H    -10.037880  -10.660560  -10.423140
  H    -11.924840  -11.610240   -8.827440
  H    -11.657150   -8.516600   -5.185590
  H    -13.717320   -9.310770   -3.728710
  H    -13.789320  -13.348080   -6.618320
  H    -10.745360  -13.101050   -6.939390
  H    -10.568460  -17.820880   -9.096020
  H    -15.424590  -16.414460   -9.899970
  H    -15.499250  -17.109270   -8.296230

 Total Charge           Charge          ....    0
 Multiplicity           Mult            ....    1
 Number of Electrons    NEL             ....  490
 Basis Dimension        Dim             .... 1074

ORBITAL ENERGIES
----------------

  NO   OCC          E(Eh)            E(eV)
   0   2.0000     -88.997054     -2421.7330
   1   2.0000     -88.995831     -2421.6997
   2   2.0000     -88.993313     -2421.6311
   3   2.0000     -19.254385      -523.9385
   4   2.0000     -19.253858      -523.9241
   5   2.0000     -19.246622      -523.7272
   6   2.0000     -19.245736      -523.7031
   7   2.0000     -19.244343      -523.6652
   8   2.0000     -19.242159      -523.6058
   9   2.0000     -19.238326      -523.5015
  10   2.0000     -19.237735      -523.4854
  11   2.0000     -19.230678      -523.2934
  12   2.0000     -19.223534      -523.0989
  13   2.0000     -19.221618      -523.0468
  14   2.0000     -19.219514      -522.9896
  15   2.0000     -14.660969      -398.9452
  16   2.0000     -14.656075      -398.8121
  17   2.0000     -14.652900      -398.7257
  18   2.0000     -14.647308      -398.5735
  19   2.0000     -14.505694      -394.7200
  20   2.0000     -14.431058      -392.6890
  21   2.0000     -10.386270      -282.6248
  22   2.0000     -10.378113      -282.4028
  23   2.0000     -10.376537      -282.3599
  24   2.0000     -10.374382      -282.3013
  25   2.0000     -10.371156      -282.2135
  26   2.0000     -10.355851      -281.7970
  27   2.0000     -10.349177      -281.6154
  28   2.0000     -10.348066      -281.5852
  29   2.0000     -10.346220      -281.5350
  30   2.0000     -10.345565      -281.5171
  31   2.0000     -10.342944      -281.4458
  32   2.0000     -10.341091      -281.3954
  33   2.0000     -10.338572      -281.3268
  34   2.0000     -10.336256      -281.2638
  35   2.0000     -10.336151      -281.2610
  36   2.0000     -10.335194      -281.2349
  37   2.0000     -10.334588      -281.2184
  38   2.0000     -10.333991      -281.2022
  39   2.0000     -10.333433      -281.1870
  40   2.0000     -10.332657      -281.1659
  41   2.0000     -10.331419      -281.1322
  42   2.0000     -10.330997      -281.1207
  43   2.0000     -10.329184      -281.0714
  44   2.0000     -10.328728      -281.0590
  45   2.0000     -10.327147      -281.0160
  46   2.0000     -10.325309      -280.9660
  47   2.0000     -10.318602      -280.7834
  48   2.0000     -10.316154      -280.7168
  49   2.0000     -10.315384      -280.6959
  50   2.0000     -10.313881      -280.6550
  51   2.0000     -10.313688      -280.6497
  52   2.0000     -10.312426      -280.6154
  53   2.0000     -10.310592      -280.5655
  54   2.0000     -10.308458      -280.5074
  55   2.0000     -10.305994      -280.4404
  56   2.0000     -10.305786      -280.4347
  57   2.0000     -10.304938      -280.4116
  58   2.0000     -10.301443      -280.3165
  59   2.0000     -10.300884      -280.3013
  60   2.0000     -10.299676      -280.2684
  61   2.0000     -10.299544      -280.2648
  62   2.0000     -10.298906      -280.2475
  63   2.0000     -10.295237      -280.1476
  64   2.0000     -10.294786      -280.1354
  65   2.0000     -10.291796      -280.0540
  66   2.0000     -10.291463      -280.0450
  67   2.0000     -10.287101      -279.9263
  68   2.0000      -8.091939      -220.1928
  69   2.0000      -8.089516      -220.1269
  70   2.0000      -8.088939      -220.1112
  71   2.0000      -6.061191      -164.9334
  72   2.0000      -6.058706      -164.8658
  73   2.0000      -6.058035      -164.8475
  74   2.0000      -6.057061      -164.8210
  75   2.0000      -6.054157      -164.7420
  76   2.0000      -6.053828      -164.7330
  77   2.0000      -6.053596      -164.7267
  78   2.0000      -6.052559      -164.6985
  79   2.0000      -6.051690      -164.6749
  80   2.0000      -1.332182       -36.2505
  81   2.0000      -1.323068       -36.0025
  82   2.0000      -1.322751       -35.9939
  83   2.0000      -1.318016       -35.8650
  84   2.0000      -1.150050       -31.2944
  85   2.0000      -1.147660       -31.2294
  86   2.0000      -1.142064       -31.0771
  87   2.0000      -1.139678       -31.0122
  88   2.0000      -1.139451       -31.0060
  89   2.0000      -1.138379       -30.9769
  90   2.0000      -1.135990       -30.9119
  91   2.0000      -1.135806       -30.9069
  92   2.0000      -1.128770       -30.7154
  93   2.0000      -1.034181       -28.1415
  94   2.0000      -1.025935       -27.9171
  95   2.0000      -1.019115       -27.7315
  96   2.0000      -1.018377       -27.7115
  97   2.0000      -1.016334       -27.6558
  98   2.0000      -1.007890       -27.4261
  99   2.0000      -1.005540       -27.3621
 100   2.0000      -1.003557       -27.3082
 101   2.0000      -0.951101       -25.8808
 102   2.0000      -0.935036       -25.4436
 103   2.0000      -0.933095       -25.3908
 104   2.0000      -0.924505       -25.1571
 105   2.0000      -0.920475       -25.0474
 106   2.0000      -0.919192       -25.0125
 107   2.0000      -0.914299       -24.8793
 108   2.0000      -0.909043       -24.7363
 109   2.0000      -0.895234       -24.3606
 110   2.0000      -0.886147       -24.1133
 111   2.0000      -0.884771       -24.0759
 112   2.0000      -0.877473       -23.8772
 113   2.0000      -0.867332       -23.6013
 114   2.0000      -0.861279       -23.4366
 115   2.0000      -0.842232       -22.9183
 116   2.0000      -0.834572       -22.7099
 117   2.0000      -0.831337       -22.6218
 118   2.0000      -0.827807       -22.5258
 119   2.0000      -0.817430       -22.2434
 120   2.0000      -0.801366       -21.8063
 121   2.0000      -0.795101       -21.6358
 122   2.0000      -0.778921       -21.1955
 123   2.0000      -0.766356       -20.8536
 124   2.0000      -0.743052       -20.2195
 125   2.0000      -0.740105       -20.1393
 126   2.0000      -0.739025       -20.1099
 127   2.0000      -0.736573       -20.0432
 128   2.0000      -0.732968       -19.9451
 129   2.0000      -0.729734       -19.8571
 130   2.0000      -0.720656       -19.6101
 131   2.0000      -0.717154       -19.5148
 132   2.0000      -0.711848       -19.3704
 133   2.0000      -0.702113       -19.1055
 134   2.0000      -0.689641       -18.7661
 135   2.0000      -0.682658       -18.5761
 136   2.0000      -0.681026       -18.5317
 137   2.0000      -0.676830       -18.4175
 138   2.0000      -0.666431       -18.1345
 139   2.0000      -0.659785       -17.9537
 140   2.0000      -0.652395       -17.7526
 141   2.0000      -0.651933       -17.7400
 142   2.0000      -0.643280       -17.5045
 143   2.0000      -0.640885       -17.4394
 144   2.0000      -0.637816       -17.3559
 145   2.0000      -0.637468       -17.3464
 146   2.0000      -0.635396       -17.2900
 147   2.0000      -0.634030       -17.2528
 148   2.0000      -0.630305       -17.1515
 149   2.0000      -0.627715       -17.0810
 150   2.0000      -0.626771       -17.0553
 151   2.0000      -0.624902       -17.0044
 152   2.0000      -0.621533       -16.9128
 153   2.0000      -0.616911       -16.7870
 154   2.0000      -0.606003       -16.4902
 155   2.0000      -0.603161       -16.4129
 156   2.0000      -0.599406       -16.3107
 157   2.0000      -0.593818       -16.1586
 158   2.0000      -0.589853       -16.0507
 159   2.0000      -0.585438       -15.9306
 160   2.0000      -0.582406       -15.8481
 161   2.0000      -0.576009       -15.6740
 162   2.0000      -0.573445       -15.6042
 163   2.0000      -0.572554       -15.5800
 164   2.0000      -0.569788       -15.5047
 165   2.0000      -0.567178       -15.4337
 166   2.0000      -0.561727       -15.2854
 167   2.0000      -0.560245       -15.2450
 168   2.0000      -0.558693       -15.2028
 169   2.0000      -0.555890       -15.1265
 170   2.0000      -0.554460       -15.0876
 171   2.0000      -0.552260       -15.0277
 172   2.0000      -0.547531       -14.8991
 173   2.0000      -0.545435       -14.8420
 174   2.0000      -0.543259       -14.7828
 175   2.0000      -0.540529       -14.7085
 176   2.0000      -0.533996       -14.5308
 177   2.0000      -0.531769       -14.4702
 178   2.0000      -0.526599       -14.3295
 179   2.0000      -0.521101       -14.1799
 180   2.0000      -0.517213       -14.0741
 181   2.0000      -0.516695       -14.0600
 182   2.0000      -0.515774       -14.0349
 183   2.0000      -0.512751       -13.9527
 184   2.0000      -0.512314       -13.9408
 185   2.0000      -0.506357       -13.7787
 186   2.0000      -0.505876       -13.7656
 187   2.0000      -0.505061       -13.7434
 188   2.0000      -0.500547       -13.6206
 189   2.0000      -0.499783       -13.5998
 190   2.0000      -0.497041       -13.5252
 191   2.0000      -0.494286       -13.4502
 192   2.0000      -0.491403       -13.3718
 193   2.0000      -0.489520       -13.3205
 194   2.0000      -0.488205       -13.2847
 195   2.0000      -0.487512       -13.2659
 196   2.0000      -0.486536       -13.2393
 197   2.0000      -0.485120       -13.2008
 198   2.0000      -0.481200       -13.0941
 199   2.0000      -0.479423       -13.0458
 200   2.0000      -0.474317       -12.9068
 201   2.0000      -0.472217       -12.8497
 202   2.0000      -0.468857       -12.7583
 203   2.0000      -0.460611       -12.5339
 204   2.0000      -0.458461       -12.4754
 205   2.0000      -0.457313       -12.4441
 206   2.0000      -0.454873       -12.3777
 207   2.0000      -0.453854       -12.3500
 208   2.0000      -0.451696       -12.2913
 209   2.0000      -0.447483       -12.1766
 210   2.0000      -0.441602       -12.0166
 211   2.0000      -0.438161       -11.9230
 212   2.0000      -0.437279       -11.8990
 213   2.0000      -0.435945       -11.8627
 214   2.0000      -0.410097       -11.1593
 215   2.0000      -0.401435       -10.9236
 216   2.0000      -0.400153       -10.8887
 217   2.0000      -0.395494       -10.7619
 218   2.0000      -0.393303       -10.7023
 219   2.0000      -0.392435       -10.6787
 220   2.0000      -0.388382       -10.5684
 221   2.0000      -0.383731       -10.4418
 222   2.0000      -0.383515       -10.4360
 223   2.0000      -0.381499       -10.3811
 224   2.0000      -0.378370       -10.2960
 225   2.0000      -0.376950       -10.2573
 226   2.0000      -0.372271       -10.1300
 227   2.0000      -0.369413       -10.0522
 228   2.0000      -0.367594       -10.0027
 229   2.0000      -0.366321        -9.9681
 230   2.0000      -0.362762        -9.8712
 231   2.0000      -0.353743        -9.6258
 232   2.0000      -0.353128        -9.6091
 233   2.0000      -0.349284        -9.5045
 234   2.0000      -0.347194        -9.4476
 235   2.0000      -0.346087        -9.4175
 236   2.0000      -0.340564        -9.2672
 237   2.0000      -0.339598        -9.2409
 238   2.0000      -0.330099        -8.9825
 239   2.0000      -0.329281        -8.9602
 240   2.0000      -0.326989        -8.8978
 241   2.0000      -0.308818        -8.4034
 242   2.0000      -0.296013        -8.0549
 243   2.0000      -0.283821        -7.7232
 244   2.0000      -0.249808        -6.7976
 245   0.0000      -0.159786        -4.3480
 246   0.0000      -0.135450        -3.6858
 247   0.0000      -0.094902        -2.5824
 248   0.0000      -0.071089        -1.9344
 249   0.0000      -0.060785        -1.6540

MULLIKEN ATOMIC CHARGES
-----------------------
   0 C :   -0.107951
   1 S :    0.259170
   2 C :   -0.236016
   3 C :    0.014599
   4 C :    0.010686
   5 C :    0.041451
   6 O :   -0.130917
   7 C :    0.048089
   8 C :    0.052492
   9 O :   -0.167562
  10 C :    0.073771
  11 C :    0.062128
  12 N :    0.288246
  13 O :   -0.233177
  14 O :   -0.270882
  15 C :    0.007641
  16 C :   -0.007801
  17 C :    0.025084
  18 C :    0.046088
  19 C :   -0.001668
  20 C :    0.018489
  21 C :    0.067621
  22 N :    0.295651
  23 O :   -0.241054
  24 O :   -0.310091
  25 C :    0.075333
  26 C :   -0.085931
  27 C :    0.090492
  28 C :   -0.173108
  29 S :    0.201942
  30 C :   -0.137044
  31 C :    0.119546
  32 C :    0.107287
  33 N :   -0.018752
  34 C :   -0.094285
  35 C :   -0.141265
  36 N :    0.185295
  37 C :   -0.048623
  38 C :    0.087439
  39 C :   -0.081944
  40 C :    0.100102
  41 C :    0.059478
  42 N :    0.279300
  43 O :   -0.248308
  44 O :   -0.260454
  45 C :    0.024304
  46 C :   -0.005111
  47 C :    0.004250
  48 C :    0.036320
  49 C :   -0.026606
  50 C :    0.012840
  51 C :    0.089164
  52 N :    0.271885
  53 O :   -0.243778
  54 O :   -0.245381
  55 C :    0.041252
  56 C :   -0.019099
  57 C :    0.029235
  58 C :   -0.162430
  59 S :    0.173595
  60 C :   -0.115682
  61 C :    0.021563
  62 C :    0.029790
  63 C :    0.041408
  64 O :   -0.147805
  65 C :    0.043668
  66 C :    0.043910
  67 O :   -0.132263
  68 H :    0.044228
  69 H :    0.065882
  70 H :    0.069502
  71 H :    0.004453
  72 H :   -0.000083
  73 H :    0.000190
  74 H :    0.008138
  75 H :   -0.008849
  76 H :    0.018306
  77 H :    0.160025
  78 H :   -0.004152
  79 H :    0.007730
  80 H :   -0.021946
  81 H :    0.008120
  82 H :    0.010968
  83 H :    0.001911
  84 H :    0.011639
  85 H :    0.045902
  86 H :    0.002247
  87 H :    0.046287
  88 H :    0.065241
  89 H :    0.078644
Sum of atomic charges:   -0.0000000

LOEWDIN ATOMIC CHARGES
----------------------
   0 C :   -0.146345
   1 S :    0.559825
   2 C :   -0.157746
   3 C :   -0.094520
   4 C :   -0.101669
   5 C :    0.075327
   6 O :   -0.125130
   7 C :   -0.069847
   8 C :    0.086568
   9 O :   -0.148717
  10 C :   -0.015659
  11 C :   -0.037801
  12 N :    0.285628
  13 O :   -0.196628
  14 O :   -0.234379
  15 C :   -0.002705
  16 C :   -0.033682
  17 C :    0.028838
  18 C :    0.065520
  19 C :   -0.055656
  20 C :    0.031764
  21 C :   -0.070317
  22 N :    0.293994
  23 O :   -0.205386
  24 O :   -0.261821
  25 C :    0.026101
  26 C :   -0.026411
  27 C :    0.012307
  28 C :   -0.182132
  29 S :    0.491728
  30 C :   -0.146646
  31 C :   -0.059933
  32 C :    0.005932
  33 N :    0.099852
  34 C :   -0.016371
  35 C :   -0.044963
  36 N :   -0.017676
  37 C :   -0.034629
  38 C :   -0.003129
  39 C :   -0.020896
  40 C :    0.007107
  41 C :   -0.057074
  42 N :    0.286320
  43 O :   -0.211695
  44 O :   -0.220543
  45 C :    0.019443
  46 C :   -0.047806
  47 C :    0.047600
  48 C :    0.030503
  49 C :   -0.061565
  50 C :    0.025885
  51 C :   -0.048318
  52 N :    0.284583
  53 O :   -0.206972
  54 O :   -0.209440
  55 C :    0.012000
  56 C :    0.009174
  57 C :   -0.025779
  58 C :   -0.138941
  59 S :    0.488140
  60 C :   -0.140046
  61 C :   -0.096514
  62 C :   -0.091787
  63 C :    0.080685
  64 O :   -0.125451
  65 C :   -0.070311
  66 C :    0.076911
  67 O :   -0.124763
  68 H :    0.037434
  69 H :    0.061768
  70 H :    0.064665
  71 H :    0.038759
  72 H :    0.031341
  73 H :    0.031317
  74 H :    0.040890
  75 H :    0.023636
  76 H :    0.040458
  77 H :    0.099895
  78 H :    0.035327
  79 H :    0.031709
  80 H :    0.033170
  81 H :    0.039659
  82 H :    0.034282
  83 H :    0.029693
  84 H :    0.041558
  85 H :    0.042675
  86 H :    0.030295
  87 H :    0.037798
  88 H :    0.061635
  89 H :    0.068097

  Mayer bond orders larger than 0.100000
B(  0-C ,  1-S ) :   1.2073 B(  0-C ,  4-C ) :   1.4925 B(  0-C , 68-H ) :   0.9708
B(  1-S ,  2-C ) :   1.2026 B(  2-C ,  3-C ) :   1.4389 B(  2-C , 10-C ) :   1.1058
B(  3-C ,  4-C ) :   1.2227 B(  3-C ,  8-C ) :   0.9435 B(  4-C ,  5-C ) :   0.9240
B(  5-C ,  6-O ) :   2.2808 B(  5-C ,  7-C ) :   0.9800 B(  7-C ,  8-C ) :   0.9895
B(  7-C , 69-H ) :   0.8985 B(  7-C , 70-H ) :   0.8935 B(  8-C ,  9-O ) :   2.1700
B( 10-C , 11-C ) :   1.5269 B( 10-C , 17-C ) :   1.0854 B( 11-C , 12-N ) :   0.9592
B( 11-C , 15-C ) :   1.1395 B( 12-N , 13-O ) :   1.5477 B( 12-N , 14-O ) :   1.4434
B( 13-O , 14-O ) :   0.2591 B( 15-C , 16-C ) :   1.5628 B( 15-C , 71-H ) :   1.0143
B( 16-C , 17-C ) :   1.1380 B( 16-C , 72-H ) :   1.0069 B( 17-C , 18-C ) :   1.4504
B( 18-C , 19-C ) :   1.1786 B( 18-C , 25-C ) :   1.0047 B( 19-C , 20-C ) :   1.5271
B( 19-C , 73-H ) :   1.0067 B( 20-C , 21-C ) :   1.1466 B( 20-C , 74-H ) :   1.0148
B( 21-C , 22-N ) :   0.9881 B( 21-C , 25-C ) :   1.4127 B( 22-N , 23-O ) :   1.5429
B( 22-N , 24-O ) :   1.4157 B( 23-O , 24-O ) :   0.2320 B( 25-C , 26-C ) :   1.2950
B( 26-C , 27-C ) :   1.4690 B( 26-C , 75-H ) :   0.9330 B( 27-C , 28-C ) :   1.2579
B( 27-C , 76-H ) :   0.9479 B( 28-C , 29-S ) :   1.1042 B( 28-C , 32-C ) :   1.2689
B( 29-S , 30-C ) :   1.1439 B( 30-C , 31-C ) :   1.1982 B( 30-C , 38-C ) :   1.2483
B( 31-C , 32-C ) :   1.2762 B( 31-C , 37-C ) :   1.2082 B( 32-C , 33-N ) :   1.2166
B( 33-N , 34-C ) :   1.2379 B( 33-N , 77-H ) :   0.9057 B( 34-C , 35-C ) :   1.0548
B( 34-C , 37-C ) :   1.5611 B( 35-C , 36-N ) :   3.0552 B( 37-C , 78-H ) :   1.0033
B( 38-C , 39-C ) :   1.5012 B( 38-C , 79-H ) :   0.9335 B( 39-C , 40-C ) :   1.2583
B( 39-C , 80-H ) :   0.9567 B( 40-C , 41-C ) :   1.3947 B( 40-C , 47-C ) :   1.0122
B( 41-C , 42-N ) :   0.9680 B( 41-C , 45-C ) :   1.1674 B( 42-N , 43-O ) :   1.5355
B( 42-N , 44-O ) :   1.4594 B( 43-O , 44-O ) :   0.2463 B( 44-O , 79-H ) :   0.1028
B( 45-C , 46-C ) :   1.5314 B( 45-C , 81-H ) :   1.0064 B( 46-C , 47-C ) :   1.1642
B( 46-C , 82-H ) :   0.9977 B( 47-C , 48-C ) :   1.4599 B( 48-C , 49-C ) :   1.1504
B( 48-C , 55-C ) :   1.0307 B( 49-C , 50-C ) :   1.5355 B( 49-C , 83-H ) :   1.0016
B( 50-C , 51-C ) :   1.1462 B( 50-C , 84-H ) :   1.0141 B( 51-C , 52-N ) :   0.9382
B( 51-C , 55-C ) :   1.5083 B( 52-N , 53-O ) :   1.5022 B( 52-N , 54-O ) :   1.5314
B( 53-O , 54-O ) :   0.2639 B( 55-C , 56-C ) :   1.1794 B( 56-C , 57-C ) :   1.6239
B( 56-C , 85-H ) :   0.9155 B( 57-C , 58-C ) :   1.1582 B( 57-C , 86-H ) :   0.9515
B( 58-C , 59-S ) :   1.1633 B( 58-C , 62-C ) :   1.4533 B( 59-S , 60-C ) :   1.1926
B( 60-C , 61-C ) :   1.5236 B( 60-C , 87-H ) :   0.9715 B( 61-C , 62-C ) :   1.2152
B( 61-C , 66-C ) :   0.9192 B( 62-C , 63-C ) :   0.9455 B( 63-C , 64-O ) :   2.1754
B( 63-C , 65-C ) :   0.9897 B( 65-C , 66-C ) :   0.9808 B( 65-C , 88-H ) :   0.8989
B( 65-C , 89-H ) :   0.8974 B( 66-C , 67-O ) :   2.2796

-----------------------------------------------------------------------------
         ABSORPTION SPECTRUM VIA TRANSITION ELECTRIC DIPOLE MOMENTS
-----------------------------------------------------------------------------
State   Energy  Wavelength   fosc         T2         TX        TY        TZ
        (cm-1)    (nm)                  (au**2)     (au)      (au)      (au)
-----------------------------------------------------------------------------
   0    5002.7   1998.9   0.379135137  24.94985  -3.06783  -2.96958  -2.59227
   1    9085.7   1100.6   0.007598129   0.27531   0.11144  -0.19029  -0.47611
   2   11590.5    862.8   0.029991789   0.85187  -0.03200   0.90841  -0.16013
   3   13248.9    754.8   0.033926369   0.84301  -0.49558   0.61043  -0.47411
   4   16364.6    611.1   0.002659393   0.05350  -0.01700  -0.18801  -0.13365
   5   18108.8    552.2   0.486049500   8.83623   1.44801   0.78315   2.47511
   6   19610.8    509.9   0.054765617   0.91937   0.19347  -0.06786  -0.93666
   7   20008.5    499.8   0.014942820   0.24586  -0.20229  -0.44834  -0.06272
   8   20704.6    483.0   0.046562530   0.74036  -0.39230   0.21818   0.73407
   9   21659.4    461.7   0.103424466   1.57200  -0.80029  -0.95816  -0.11599
  10   22775.8    439.1   0.025131094   0.36326   0.19434   0.50620   0.26314
  11   23098.7    432.9   0.038137836   0.54356  -0.00364   0.69237   0.25332
  12   23720.5    421.6   0.042478334   0.58955   0.12799  -0.61991  -0.43460
  13   23926.7    417.9   0.027698431   0.38111  -0.25512  -0.55996  -0.04966
  14   24112.7    414.7   0.009381971   0.12809   0.00689  -0.27559  -0.22825
  15   24192.3    413.4   0.146838249   1.99819  -0.59730  -1.28101  -0.02120
  16   24743.5    404.1   0.028371105   0.37748   0.08486  -0.40209  -0.45673
  17   25570.2    391.1   0.039851499   0.51308   0.28677   0.40494  -0.51660
  18   25621.5    390.3   0.081026015   1.04111  -0.24955   0.30270   0.94191
  19   26121.8    382.8   0.010058294   0.12676  -0.10501  -0.34016  -0.00520
  20   26549.1    376.7   0.041414778   0.51355  -0.19530   0.39423   0.56567
  21   26731.2    374.1   0.007077152   0.08716   0.07703   0.20403  -0.19899
  22   26788.2    373.3   0.088323673   1.08545  -0.35786   0.58817   0.78194
  23   27391.9    365.1   0.018291917   0.21984   0.01713  -0.44425   0.14896
  24   27591.8    362.4   0.042409380   0.50601  -0.02234  -0.68557   0.18842
  25   27928.0    358.1   0.187005568   2.20440   0.88646   0.00284  -1.19105
  26   28434.7    351.7   0.041559672   0.48117   0.50149  -0.08871  -0.47096
  27   28744.6    347.9   0.112623914   1.28988   0.37711  -0.16493  -1.05852
  28   29166.7    342.9   0.021179150   0.23905  -0.32628   0.04908   0.36082
  29   29172.6    342.8   0.015375842   0.17352  -0.09167   0.26641  -0.30682
  30   29190.9    342.6   0.105863055   1.19391   0.34539  -0.80009  -0.65914
  31   29485.3    339.2   0.039380353   0.43969  -0.24064   0.38746   0.48131
  32   30161.4    331.5   0.223282603   2.43713   0.49293  -0.49673  -1.39550
  33   30528.6    327.6   0.036395803   0.39248   0.36343   0.09613  -0.50116
  34   30580.1    327.0   0.116844110   1.25789   0.98381   0.13036  -0.52252
  35   30752.1    325.2   0.029606646   0.31695   0.28268   0.45961  -0.16062
  36   30877.3    323.9   0.031227941   0.33295  -0.12483  -0.55666  -0.08660
  37   31133.4    321.2   0.169722154   1.79468  -0.84268  -0.20373   1.02131
  38   31419.5    318.3   0.026756530   0.28035   0.18680  -0.07835  -0.48920
  39   31619.0    316.3   0.015071271   0.15692   0.07682   0.36758   0.12609
  40   31864.1    313.8   0.021755031   0.22477   0.36267   0.29544  -0.07716
  41   31956.3    312.9   0.067207159   0.69236   0.60280  -0.01164  -0.57346
  42   32123.2    311.3   0.122608571   1.25654  -0.82644   0.26419   0.70975
  43   32318.4    309.4   0.046196597   0.47058   0.25507  -0.40959  -0.48760
  44   32580.8    306.9   0.218865416   2.21152  -0.77801   0.20546   1.25060
  45   32961.3    303.4   0.006855425   0.06847  -0.14699   0.04585   0.21157
  46   33109.6    302.0   0.038401034   0.38182  -0.29484  -0.04879   0.54084
  47   33200.9    301.2   0.008969852   0.08894   0.09401  -0.28303  -0.00050
  48   33597.3    297.6   0.021210534   0.20784  -0.09602   0.15536   0.41771
  49   33633.9    297.3   0.005459752   0.05344   0.13626   0.16176   0.09332
  50   34165.3    292.7   0.185842693   1.79075  -0.95291  -0.48457   0.80493
  51   34268.3    291.8   0.054609248   0.52462   0.48027  -0.32649  -0.43287
  52   34327.7    291.3   0.026209633   0.25136   0.38995   0.13015  -0.28699
  53   34414.7    290.6   0.018068043   0.17284  -0.20408   0.00123   0.36220
  54   34598.0    289.0   0.025899157   0.24644  -0.11748  -0.32974  -0.35201
  55   34697.2    288.2   0.146348090   1.38857   0.81531  -0.34774  -0.77648
  56   34916.1    286.4   0.014597683   0.13764   0.26834   0.21361   0.14143
  57   35084.2    285.0   0.031790359   0.29830   0.35050  -0.37201  -0.19251
  58   35363.8    282.8   0.003020569   0.02812  -0.09707  -0.04717  -0.12834
  59   35655.6    280.5   0.005246729   0.04844   0.18016   0.06644  -0.10757
  60   35894.2    278.6   0.024744837   0.22695  -0.01697   0.24059   0.41083
  61   35910.8    278.5   0.020985128   0.19238  -0.29096  -0.29625  -0.14127
  62   36061.2    277.3   0.199946608   1.82537   0.99772   0.17945  -0.89316
  63   36168.4    276.5   0.074335846   0.67662   0.72763   0.08198  -0.37476
  64   36581.4    273.4   0.004546588   0.04092   0.09180   0.11264  -0.14072
  65   36638.7    272.9   0.029467430   0.26478   0.46107   0.14418  -0.17720
  66   36793.8    271.8   0.108641655   0.97207  -0.65191  -0.66658  -0.32055
  67   37391.9    267.4   0.062594101   0.55110   0.21943   0.70699  -0.05582
  68   37420.5    267.2   0.049337783   0.43406  -0.47608  -0.32855   0.31537
  69   37624.2    265.8   0.003525165   0.03085   0.09669   0.10970   0.09727
  70   37715.4    265.1   0.005249131   0.04582   0.15395  -0.14220   0.04356
  71   37804.8    264.5   0.005243566   0.04566   0.20600  -0.05152   0.02396
  72   37940.1    263.6   0.016641355   0.14440  -0.16987   0.32237   0.10782
  73   38106.2    262.4   0.015905294   0.13741   0.28322   0.07694  -0.22645
  74   38191.1    261.8   0.130040113   1.12096   0.83022   0.61506  -0.23108
  75   38482.0    259.9   0.093705516   0.80165   0.57371   0.31501  -0.61096
  76   38552.6    259.4   0.125519778   1.07185   0.71161   0.44666  -0.60495
  77   38635.5    258.8   0.033756365   0.28764   0.19899  -0.04382  -0.49611
  78   38801.8    257.7   0.087937297   0.74610  -0.56180  -0.50719   0.41622
  79   38906.0    257.0   0.003770748   0.03191   0.01411   0.03755  -0.17406
  80   39319.3    254.3   0.020274488   0.16975  -0.33639  -0.14931   0.18521
  81   39355.9    254.1   0.016510702   0.13811   0.18827   0.01602  -0.32002
  82   39633.9    252.3   0.001347021   0.01119   0.07927  -0.05821   0.03894
  83   39654.0    252.2   0.008607056   0.07146   0.20025  -0.10106   0.14541
  84   39747.1    251.6   0.025309393   0.20963  -0.37875  -0.22871   0.11777
  85   39825.7    251.1   0.004975156   0.04113  -0.12127  -0.13679   0.08780
  86   40096.1    249.4   0.018016499   0.14793   0.04614  -0.04478  -0.37920

FINAL SINGLE POINT ENERGY     -4225.343556994820

DIPOLE MOMENT
-------------
                                X             Y             Z
Electronic contribution:     15.15229       7.27383       2.90562
Nuclear contribution   :    -13.09726      -7.12200      -3.31418
                        -----------------------------------------
Total Dipole Moment    :      2.05503       0.15183      -0.40855
                        -----------------------------------------
Magnitude (a.u.)       :      2.10074
Magnitude (Debye)      :      5.33966

Rotational constants in cm-1:     0.002079     0.000329     0.000306
Rotational constants in MHz :    62.320991     9.854642     9.177909

                             ****ORCA TERMINATED NORMALLY****
TOTAL RUN TIME: 0 days 0 hours 10 minutes 13 seconds 724 msec
