                         Program Version 4.2.0 -  RELEASE  -
|  1> # ORCA input file
|  2> # SCF done       -205.451075388395          0.002779796841
|  3> ! CAM-B3LYP def2-SVP def2/J RIJCOSX Grid4 TightSCF
|  4> %maxcore 5000
|  5> %tddft
|  6>     Mode sTDDFT
|  7>     Ethresh 5.0
|  8>     maxcore 5000
|  9> end
| 10>
| 11> %pal
| 12>   nprocs 6
| 13>   end
| 14> * xyz 0 1
| 15>    C       -0.93194         2.16894        -4.17608
| 16>    N       -2.14960         2.73766        -3.96145
| 17>    C       -3.29954         2.56018        -4.81055
| 18>    C       -3.95228         1.19794        -4.59036
| 19>    C       -2.17158         3.47255        -2.75471
| 20>    O       -3.15774         4.07242        -2.35895
| 21>    C       -0.83809         3.31837        -2.23173
| 22>    C       -0.10161         2.50177        -3.14588
| 23>    C        1.24181         2.36140        -2.62708
| 24>    O        2.21697         1.77876        -3.04160
| 25>    N        1.23385         3.10959        -1.42715
| 26>    C        2.43370         3.14306        -0.62379
| 27>    C        2.36515         2.16989         0.55105
| 28>    C        0.00264         3.67676        -1.18194
| 29>    C       -0.40753         4.49952        -0.09718
| 30>    C        0.30080         4.90314         0.98589
| 31>    C       -0.21411         5.73312         2.01088
| 32>    S       -1.84257         6.36448         2.05142
| 33>    C       -1.57130         7.20149         3.56702
| 34>    C       -0.27571         6.98090         3.99692
| 35>    C        0.48110         6.16788         3.12625
| 36>    C        1.84113         5.98281         3.62853
| 37>    O        2.73344         5.33776         3.13023
| 38>    C        1.91336         6.77682         4.92541
| 39>    C        0.52840         7.37990         5.15556
| 40>    O        0.19104         8.03396         6.10865
| 41>    C       -2.58817         7.96603         4.20086
| 42>    C       -3.79586         8.14533         3.62588
| 43>    C       -4.92367         8.85445         4.15107
| 44>    C       -4.94007         9.70970         5.24116
| 45>    C       -3.90049        10.09307         6.08478
| 46>    N       -3.07712        10.44360         6.80612
| 47>    S       -6.51197        10.41758         5.50001
| 48>    C       -7.15338         9.56697         4.13246
| 49>    O       -8.43649         9.60552         3.78937
| 50>    C       -9.21804        10.64211         4.34223
| 51>    C       -6.20290         8.78800         3.51517
| 52>    C       -6.48382         8.00987         2.32577
| 53>    S       -6.19461         6.30499         2.30518
| 54>    C       -6.95888         8.46045         1.11493
| 55>    C       -7.23659         9.88371         0.83460
| 56>    O       -7.11907        10.77707         1.65497
| 57>    C       -7.65004        10.10460        -0.54112
| 58>    C       -7.94248        11.28203        -1.19341
| 59>    N       -8.27009        10.99732        -2.47669
| 60>    C       -8.67930        11.96376        -3.46522
| 61>    C      -10.19568        12.14409        -3.46474
| 62>    C       -8.21497         9.66028        -2.67134
| 63>    C       -7.82667         9.05900        -1.49171
| 64>    C       -7.59328         7.65485        -1.21654
| 65>    O       -7.81307         6.77070        -2.03287
| 66>    C       -7.05231         7.42118         0.13672
| 67>    C       -6.64452         6.19391         0.63097
| 68>    C       -6.54353         4.90512         0.01630
| 69>    C       -6.17848         4.61021        -1.24784
| 70>    C       -6.50146         3.27423        -1.82594
| 71>    O       -6.73436         2.25375        -1.22548
| 72>    C       -6.53701         3.50331        -3.28499
| 73>    C       -6.97063         2.66493        -4.27129
| 74>    C       -6.93702         3.10766        -5.61246
| 75>    C       -6.46157         4.41940        -5.90489
| 76>    C       -6.43082         4.85145        -7.24647
| 77>    C       -6.84825         4.02224        -8.24887
| 78>    C       -7.31738         2.72550        -7.95847
| 79>    C       -7.36221         2.27741        -6.66845
| 80>    F       -7.71956         1.93260        -8.96187
| 81>    F       -6.81396         4.43590        -9.52358
| 82>    C       -6.02626         5.26828        -4.86192
| 83>    C       -6.05839         4.81418        -3.57033
| 84>    C       -5.67029         5.44869        -2.31880
| 85>    C       -4.80794         6.49728        -2.17962
| 86>    C       -4.32006         6.93986        -0.93558
| 87>    N       -3.88149         7.32924         0.05183
| 88>    C       -4.28877         7.22511        -3.26835
| 89>    N       -3.86925         7.86042        -4.12823
| 90>    H       -0.74529         1.57678        -5.05257
| 91>    H       -2.98939         2.66750        -5.85428
| 92>    H       -4.00137         3.36044        -4.56576
| 93>    H       -3.22908         0.40093        -4.74897
| 94>    H       -4.77563         1.06629        -5.28647
| 95>    H       -4.33354         1.12402        -3.57534
| 96>    H        2.63198         4.16402        -0.29170
| 97>    H        3.24271         2.83677        -1.29436
| 98>    H        1.48534         2.35029         1.16429
| 99>    H        3.25023         2.28281         1.17071
|100>    H        2.32330         1.14809         0.18145
|101>    H       -1.43700         4.82980        -0.18622
|102>    H        1.32632         4.61177         1.15391
|103>    H        2.66524         7.56615         4.85126
|104>    H        2.21078         6.14197         5.76272
|105>    H       -2.33360         8.38260         5.16593
|106>    H       -3.95175         7.70558         2.64813
|107>    H      -10.21623        10.52200         3.92650
|108>    H       -8.81305        11.61820         4.06207
|109>    H       -9.25766        10.56224         5.43384
|110>    H       -7.92204        12.28669        -0.82025
|111>    H       -8.34431        11.61951        -4.44689
|112>    H       -8.18915        12.91471        -3.24257
|113>    H      -10.69014        11.20133        -3.68655
|114>    H      -10.48157        12.87339        -4.21729
|115>    H      -10.53616        12.49326        -2.49299
|116>    H       -8.43485         9.21133        -3.61981
|117>    H       -6.81457         4.06100         0.64257
|118>    H       -7.33676         1.67799        -4.03294
|119>    H       -6.07236         5.83988        -7.48737
|120>    H       -7.72701         1.28316        -6.46241
|121>    H       -5.68757         6.26262        -5.10494
|122> *
|123>
|124>                          ****END OF INPUT****

CARTESIAN COORDINATES (ANGSTROEM)
---------------------------------
  C     -0.931940    2.168940   -4.176080
  N     -2.149600    2.737660   -3.961450
  C     -3.299540    2.560180   -4.810550
  C     -3.952280    1.197940   -4.590360
  C     -2.171580    3.472550   -2.754710
  O     -3.157740    4.072420   -2.358950
  C     -0.838090    3.318370   -2.231730
  C     -0.101610    2.501770   -3.145880
  C      1.241810    2.361400   -2.627080
  O      2.216970    1.778760   -3.041600
  N      1.233850    3.109590   -1.427150
  C      2.433700    3.143060   -0.623790
  C      2.365150    2.169890    0.551050
  C      0.002640    3.676760   -1.181940
  C     -0.407530    4.499520   -0.097180
  C      0.300800    4.903140    0.985890
  C     -0.214110    5.733120    2.010880
  S     -1.842570    6.364480    2.051420
  C     -1.571300    7.201490    3.567020
  C     -0.275710    6.980900    3.996920
  C      0.481100    6.167880    3.126250
  C      1.841130    5.982810    3.628530
  O      2.733440    5.337760    3.130230
  C      1.913360    6.776820    4.925410
  C      0.528400    7.379900    5.155560
  O      0.191040    8.033960    6.108650
  C     -2.588170    7.966030    4.200860
  C     -3.795860    8.145330    3.625880
  C     -4.923670    8.854450    4.151070
  C     -4.940070    9.709700    5.241160
  C     -3.900490   10.093070    6.084780
  N     -3.077120   10.443600    6.806120
  S     -6.511970   10.417580    5.500010
  C     -7.153380    9.566970    4.132460
  O     -8.436490    9.605520    3.789370
  C     -9.218040   10.642110    4.342230
  C     -6.202900    8.788000    3.515170
  C     -6.483820    8.009870    2.325770
  S     -6.194610    6.304990    2.305180
  C     -6.958880    8.460450    1.114930
  C     -7.236590    9.883710    0.834600
  O     -7.119070   10.777070    1.654970
  C     -7.650040   10.104600   -0.541120
  C     -7.942480   11.282030   -1.193410
  N     -8.270090   10.997320   -2.476690
  C     -8.679300   11.963760   -3.465220
  C    -10.195680   12.144090   -3.464740
  C     -8.214970    9.660280   -2.671340
  C     -7.826670    9.059000   -1.491710
  C     -7.593280    7.654850   -1.216540
  O     -7.813070    6.770700   -2.032870
  C     -7.052310    7.421180    0.136720
  C     -6.644520    6.193910    0.630970
  C     -6.543530    4.905120    0.016300
  C     -6.178480    4.610210   -1.247840
  C     -6.501460    3.274230   -1.825940
  O     -6.734360    2.253750   -1.225480
  C     -6.537010    3.503310   -3.284990
  C     -6.970630    2.664930   -4.271290
  C     -6.937020    3.107660   -5.612460
  C     -6.461570    4.419400   -5.904890
  C     -6.430820    4.851450   -7.246470
  C     -6.848250    4.022240   -8.248870
  C     -7.317380    2.725500   -7.958470
  C     -7.362210    2.277410   -6.668450
  F     -7.719560    1.932600   -8.961870
  F     -6.813960    4.435900   -9.523580
  C     -6.026260    5.268280   -4.861920
  C     -6.058390    4.814180   -3.570330
  C     -5.670290    5.448690   -2.318800
  C     -4.807940    6.497280   -2.179620
  C     -4.320060    6.939860   -0.935580
  N     -3.881490    7.329240    0.051830
  C     -4.288770    7.225110   -3.268350
  N     -3.869250    7.860420   -4.128230
  H     -0.745290    1.576780   -5.052570
  H     -2.989390    2.667500   -5.854280
  H     -4.001370    3.360440   -4.565760
  H     -3.229080    0.400930   -4.748970
  H     -4.775630    1.066290   -5.286470
  H     -4.333540    1.124020   -3.575340
  H      2.631980    4.164020   -0.291700
  H      3.242710    2.836770   -1.294360
  H      1.485340    2.350290    1.164290
  H      3.250230    2.282810    1.170710
  H      2.323300    1.148090    0.181450
  H     -1.437000    4.829800   -0.186220
  H      1.326320    4.611770    1.153910
  H      2.665240    7.566150    4.851260
  H      2.210780    6.141970    5.762720
  H     -2.333600    8.382600    5.165930
  H     -3.951750    7.705580    2.648130
  H    -10.216230   10.522000    3.926500
  H     -8.813050   11.618200    4.062070
  H     -9.257660   10.562240    5.433840
  H     -7.922040   12.286690   -0.820250
  H     -8.344310   11.619510   -4.446890
  H     -8.189150   12.914710   -3.242570
  H    -10.690140   11.201330   -3.686550
  H    -10.481570   12.873390   -4.217290
  H    -10.536160   12.493260   -2.492990
  H     -8.434850    9.211330   -3.619810
  H     -6.814570    4.061000    0.642570
  H     -7.336760    1.677990   -4.032940
  H     -6.072360    5.839880   -7.487370
  H     -7.727010    1.283160   -6.462410
  H     -5.687570    6.262620   -5.104940

 Total Charge           Charge          ....    0
 Multiplicity           Mult            ....    1
 Number of Electrons    NEL             ....  540
 Basis Dimension        Dim             .... 1222

ORBITAL ENERGIES
----------------

  NO   OCC          E(Eh)            E(eV)
   0   2.0000     -88.977600     -2421.2036
   1   2.0000     -88.976565     -2421.1754
   2   2.0000     -88.969112     -2420.9726
   3   2.0000     -24.800162      -674.8467
   4   2.0000     -24.799563      -674.8304
   5   2.0000     -19.276755      -524.5472
   6   2.0000     -19.216044      -522.8951
   7   2.0000     -19.212050      -522.7865
   8   2.0000     -19.208294      -522.6842
   9   2.0000     -19.205325      -522.6035
  10   2.0000     -19.202477      -522.5260
  11   2.0000     -19.191457      -522.2261
  12   2.0000     -19.184603      -522.0396
  13   2.0000     -14.493405      -394.3856
  14   2.0000     -14.452795      -393.2805
  15   2.0000     -14.448746      -393.1704
  16   2.0000     -14.415204      -392.2577
  17   2.0000     -14.412430      -392.1821
  18   2.0000     -14.397393      -391.7730
  19   2.0000     -10.382952      -282.5345
  20   2.0000     -10.382499      -282.5222
  21   2.0000     -10.375441      -282.3301
  22   2.0000     -10.373990      -282.2906
  23   2.0000     -10.369635      -282.1721
  24   2.0000     -10.367716      -282.1199
  25   2.0000     -10.366708      -282.0925
  26   2.0000     -10.364805      -282.0407
  27   2.0000     -10.362508      -281.9782
  28   2.0000     -10.359949      -281.9085
  29   2.0000     -10.342020      -281.4207
  30   2.0000     -10.339729      -281.3583
  31   2.0000     -10.337832      -281.3067
  32   2.0000     -10.336534      -281.2714
  33   2.0000     -10.334580      -281.2182
  34   2.0000     -10.328173      -281.0439
  35   2.0000     -10.327287      -281.0198
  36   2.0000     -10.327095      -281.0145
  37   2.0000     -10.322913      -280.9007
  38   2.0000     -10.321136      -280.8524
  39   2.0000     -10.320814      -280.8436
  40   2.0000     -10.319244      -280.8009
  41   2.0000     -10.318583      -280.7829
  42   2.0000     -10.316952      -280.7385
  43   2.0000     -10.315388      -280.6960
  44   2.0000     -10.314794      -280.6798
  45   2.0000     -10.311440      -280.5886
  46   2.0000     -10.311043      -280.5777
  47   2.0000     -10.309222      -280.5282
  48   2.0000     -10.307575      -280.4834
  49   2.0000     -10.304902      -280.4106
  50   2.0000     -10.303020      -280.3594
  51   2.0000     -10.302255      -280.3386
  52   2.0000     -10.302077      -280.3338
  53   2.0000     -10.300886      -280.3013
  54   2.0000     -10.299822      -280.2724
  55   2.0000     -10.299818      -280.2723
  56   2.0000     -10.298428      -280.2345
  57   2.0000     -10.298422      -280.2343
  58   2.0000     -10.297755      -280.2162
  59   2.0000     -10.293951      -280.1127
  60   2.0000     -10.292802      -280.0814
  61   2.0000     -10.290616      -280.0219
  62   2.0000     -10.289435      -279.9898
  63   2.0000     -10.287921      -279.9486
  64   2.0000     -10.286954      -279.9222
  65   2.0000     -10.286872      -279.9200
  66   2.0000     -10.284090      -279.8443
  67   2.0000     -10.281742      -279.7804
  68   2.0000     -10.275194      -279.6022
  69   2.0000     -10.274677      -279.5882
  70   2.0000     -10.273399      -279.5534
  71   2.0000     -10.265051      -279.3262
  72   2.0000     -10.258729      -279.1542
  73   2.0000     -10.256914      -279.1048
  74   2.0000     -10.253381      -279.0087
  75   2.0000      -8.072959      -219.6764
  76   2.0000      -8.072340      -219.6595
  77   2.0000      -8.063557      -219.4205
  78   2.0000      -6.042063      -164.4129
  79   2.0000      -6.041759      -164.4046
  80   2.0000      -6.037885      -164.2992
  81   2.0000      -6.037573      -164.2907
  82   2.0000      -6.035411      -164.2319
  83   2.0000      -6.034076      -164.1956
  84   2.0000      -6.032581      -164.1549
  85   2.0000      -6.028465      -164.0429
  86   2.0000      -6.026102      -163.9786
  87   2.0000      -1.322472       -35.9863
  88   2.0000      -1.307656       -35.5831
  89   2.0000      -1.187010       -32.3002
  90   2.0000      -1.131550       -30.7910
  91   2.0000      -1.129783       -30.7429
  92   2.0000      -1.127764       -30.6880
  93   2.0000      -1.125912       -30.6376
  94   2.0000      -1.123015       -30.5588
  95   2.0000      -1.121069       -30.5058
  96   2.0000      -1.119126       -30.4530
  97   2.0000      -1.112372       -30.2692
  98   2.0000      -1.060329       -28.8530
  99   2.0000      -1.050407       -28.5830
 100   2.0000      -1.018374       -27.7114
 101   2.0000      -1.011097       -27.5133
 102   2.0000      -1.003707       -27.3123
 103   2.0000      -1.002526       -27.2801
 104   2.0000      -0.998117       -27.1601
 105   2.0000      -0.991681       -26.9850
 106   2.0000      -0.979982       -26.6667
 107   2.0000      -0.974015       -26.5043
 108   2.0000      -0.942510       -25.6470
 109   2.0000      -0.931269       -25.3411
 110   2.0000      -0.924885       -25.1674
 111   2.0000      -0.921946       -25.0874
 112   2.0000      -0.920799       -25.0562
 113   2.0000      -0.907219       -24.6867
 114   2.0000      -0.895751       -24.3746
 115   2.0000      -0.893277       -24.3073
 116   2.0000      -0.888475       -24.1766
 117   2.0000      -0.886876       -24.1331
 118   2.0000      -0.872122       -23.7317
 119   2.0000      -0.865842       -23.5608
 120   2.0000      -0.856097       -23.2956
 121   2.0000      -0.846127       -23.0243
 122   2.0000      -0.841267       -22.8920
 123   2.0000      -0.840279       -22.8652
 124   2.0000      -0.833510       -22.6810
 125   2.0000      -0.821376       -22.3508
 126   2.0000      -0.816669       -22.2227
 127   2.0000      -0.814555       -22.1652
 128   2.0000      -0.805557       -21.9203
 129   2.0000      -0.798816       -21.7369
 130   2.0000      -0.794156       -21.6101
 131   2.0000      -0.773412       -21.0456
 132   2.0000      -0.770516       -20.9668
 133   2.0000      -0.765272       -20.8241
 134   2.0000      -0.758057       -20.6278
 135   2.0000      -0.757268       -20.6063
 136   2.0000      -0.742453       -20.2032
 137   2.0000      -0.733618       -19.9628
 138   2.0000      -0.716914       -19.5082
 139   2.0000      -0.713974       -19.4282
 140   2.0000      -0.709737       -19.3129
 141   2.0000      -0.705683       -19.2026
 142   2.0000      -0.705378       -19.1943
 143   2.0000      -0.700202       -19.0535
 144   2.0000      -0.691373       -18.8132
 145   2.0000      -0.680913       -18.5286
 146   2.0000      -0.680028       -18.5045
 147   2.0000      -0.678983       -18.4761
 148   2.0000      -0.670294       -18.2396
 149   2.0000      -0.662114       -18.0170
 150   2.0000      -0.655846       -17.8465
 151   2.0000      -0.655509       -17.8373
 152   2.0000      -0.648264       -17.6402
 153   2.0000      -0.642741       -17.4899
 154   2.0000      -0.639289       -17.3959
 155   2.0000      -0.627117       -17.0647
 156   2.0000      -0.624396       -16.9907
 157   2.0000      -0.620166       -16.8756
 158   2.0000      -0.615034       -16.7359
 159   2.0000      -0.611473       -16.6390
 160   2.0000      -0.602500       -16.3948
 161   2.0000      -0.599254       -16.3065
 162   2.0000      -0.591613       -16.0986
 163   2.0000      -0.587675       -15.9914
 164   2.0000      -0.586692       -15.9647
 165   2.0000      -0.585967       -15.9450
 166   2.0000      -0.582898       -15.8615
 167   2.0000      -0.579844       -15.7783
 168   2.0000      -0.577724       -15.7207
 169   2.0000      -0.575310       -15.6550
 170   2.0000      -0.572256       -15.5719
 171   2.0000      -0.571811       -15.5598
 172   2.0000      -0.566961       -15.4278
 173   2.0000      -0.561907       -15.2903
 174   2.0000      -0.557754       -15.1773
 175   2.0000      -0.556856       -15.1528
 176   2.0000      -0.554839       -15.0979
 177   2.0000      -0.549087       -14.9414
 178   2.0000      -0.548086       -14.9142
 179   2.0000      -0.546153       -14.8616
 180   2.0000      -0.545046       -14.8315
 181   2.0000      -0.542369       -14.7586
 182   2.0000      -0.540313       -14.7027
 183   2.0000      -0.538868       -14.6633
 184   2.0000      -0.537420       -14.6239
 185   2.0000      -0.530901       -14.4465
 186   2.0000      -0.530102       -14.4248
 187   2.0000      -0.525126       -14.2894
 188   2.0000      -0.523672       -14.2498
 189   2.0000      -0.523335       -14.2407
 190   2.0000      -0.521513       -14.1911
 191   2.0000      -0.518551       -14.1105
 192   2.0000      -0.516471       -14.0539
 193   2.0000      -0.514302       -13.9949
 194   2.0000      -0.513034       -13.9604
 195   2.0000      -0.511967       -13.9313
 196   2.0000      -0.508810       -13.8454
 197   2.0000      -0.506780       -13.7902
 198   2.0000      -0.504613       -13.7312
 199   2.0000      -0.503277       -13.6949
 200   2.0000      -0.501103       -13.6357
 201   2.0000      -0.500390       -13.6163
 202   2.0000      -0.498546       -13.5661
 203   2.0000      -0.496731       -13.5167
 204   2.0000      -0.490682       -13.3521
 205   2.0000      -0.489908       -13.3311
 206   2.0000      -0.488495       -13.2926
 207   2.0000      -0.487489       -13.2653
 208   2.0000      -0.485683       -13.2161
 209   2.0000      -0.483281       -13.1508
 210   2.0000      -0.479666       -13.0524
 211   2.0000      -0.476116       -12.9558
 212   2.0000      -0.473751       -12.8914
 213   2.0000      -0.472495       -12.8572
 214   2.0000      -0.471728       -12.8364
 215   2.0000      -0.469869       -12.7858
 216   2.0000      -0.468905       -12.7596
 217   2.0000      -0.463984       -12.6256
 218   2.0000      -0.462795       -12.5933
 219   2.0000      -0.460238       -12.5237
 220   2.0000      -0.459642       -12.5075
 221   2.0000      -0.457049       -12.4369
 222   2.0000      -0.455800       -12.4029
 223   2.0000      -0.455517       -12.3952
 224   2.0000      -0.454334       -12.3631
 225   2.0000      -0.450444       -12.2572
 226   2.0000      -0.449496       -12.2314
 227   2.0000      -0.447991       -12.1905
 228   2.0000      -0.445346       -12.1185
 229   2.0000      -0.444045       -12.0831
 230   2.0000      -0.442472       -12.0403
 231   2.0000      -0.440203       -11.9785
 232   2.0000      -0.436745       -11.8844
 233   2.0000      -0.434336       -11.8189
 234   2.0000      -0.429820       -11.6960
 235   2.0000      -0.426279       -11.5996
 236   2.0000      -0.426063       -11.5938
 237   2.0000      -0.422935       -11.5087
 238   2.0000      -0.419288       -11.4094
 239   2.0000      -0.417650       -11.3648
 240   2.0000      -0.416890       -11.3442
 241   2.0000      -0.411885       -11.2079
 242   2.0000      -0.410435       -11.1685
 243   2.0000      -0.409365       -11.1394
 244   2.0000      -0.403822       -10.9885
 245   2.0000      -0.395920       -10.7735
 246   2.0000      -0.394692       -10.7401
 247   2.0000      -0.392003       -10.6669
 248   2.0000      -0.384659       -10.4671
 249   2.0000      -0.368957       -10.0398
 250   2.0000      -0.357060        -9.7161
 251   2.0000      -0.347017        -9.4428
 252   2.0000      -0.344961        -9.3869
 253   2.0000      -0.339920        -9.2497
 254   2.0000      -0.339337        -9.2338
 255   2.0000      -0.336956        -9.1690
 256   2.0000      -0.334177        -9.0934
 257   2.0000      -0.332149        -9.0382
 258   2.0000      -0.328417        -8.9367
 259   2.0000      -0.327735        -8.9181
 260   2.0000      -0.322584        -8.7780
 261   2.0000      -0.315817        -8.5938
 262   2.0000      -0.315380        -8.5819
 263   2.0000      -0.310938        -8.4611
 264   2.0000      -0.308658        -8.3990
 265   2.0000      -0.305432        -8.3112
 266   2.0000      -0.295767        -8.0482
 267   2.0000      -0.278808        -7.5868
 268   2.0000      -0.271206        -7.3799
 269   2.0000      -0.242462        -6.5977
 270   0.0000      -0.094697        -2.5768
 271   0.0000      -0.087610        -2.3840
 272   0.0000      -0.053294        -1.4502
 273   0.0000      -0.051730        -1.4077
 274   0.0000      -0.044622        -1.2142

MULLIKEN ATOMIC CHARGES
-----------------------
   0 C :    0.041913
   1 N :   -0.264818
   2 C :    0.113441
   3 C :    0.009324
   4 C :    0.171204
   5 O :   -0.221929
   6 C :   -0.076930
   7 C :    0.010091
   8 C :    0.164806
   9 O :   -0.181573
  10 N :   -0.277215
  11 C :    0.094099
  12 C :    0.005211
  13 C :    0.142069
  14 C :   -0.030029
  15 C :   -0.003583
  16 C :   -0.102410
  17 S :    0.180604
  18 C :   -0.119277
  19 C :    0.035887
  20 C :    0.023839
  21 C :    0.025529
  22 O :   -0.157663
  23 C :    0.051346
  24 C :    0.020922
  25 O :   -0.133219
  26 C :    0.010029
  27 C :   -0.088587
  28 C :    0.290846
  29 C :   -0.349659
  30 C :   -0.193841
  31 N :    0.127489
  32 S :    0.148667
  33 C :    0.064009
  34 O :   -0.260161
  35 C :    0.169919
  36 C :    0.020500
  37 C :   -0.221372
  38 S :    0.199458
  39 C :    0.072214
  40 C :    0.134372
  41 O :   -0.165278
  42 C :   -0.015789
  43 C :    0.007627
  44 N :   -0.132879
  45 C :    0.094450
  46 C :    0.001884
  47 C :    0.011356
  48 C :   -0.021101
  49 C :    0.148052
  50 O :   -0.179143
  51 C :    0.027687
  52 C :   -0.206487
  53 C :    0.060930
  54 C :   -0.076928
  55 C :    0.144766
  56 O :   -0.137948
  57 C :    0.012869
  58 C :   -0.102620
  59 C :    0.104264
  60 C :    0.110213
  61 C :   -0.112038
  62 C :    0.240564
  63 C :    0.234564
  64 C :   -0.100381
  65 F :   -0.172264
  66 F :   -0.173946
  67 C :   -0.082284
  68 C :    0.056006
  69 C :    0.330133
  70 C :   -0.310030
  71 C :   -0.176973
  72 N :    0.165729
  73 C :   -0.198971
  74 N :    0.155791
  75 H :    0.016147
  76 H :    0.017605
  77 H :    0.038325
  78 H :    0.015031
  79 H :    0.014089
  80 H :    0.032919
  81 H :    0.033175
  82 H :    0.042543
  83 H :    0.019195
  84 H :    0.030918
  85 H :    0.024330
  86 H :    0.010870
  87 H :    0.010431
  88 H :    0.069578
  89 H :    0.063944
  90 H :    0.029366
  91 H :    0.035088
  92 H :    0.049183
  93 H :    0.045955
  94 H :    0.037201
  95 H :    0.007291
  96 H :    0.035756
  97 H :    0.034929
  98 H :    0.029719
  99 H :    0.032504
 100 H :    0.028526
 101 H :    0.006330
 102 H :    0.024033
 103 H :   -0.010676
 104 H :    0.002840
 105 H :   -0.002554
 106 H :   -0.011939
Sum of atomic charges:   -0.0000000

LOEWDIN ATOMIC CHARGES
----------------------
   0 C :    0.092295
   1 N :    0.000441
   2 C :    0.038067
   3 C :   -0.061828
   4 C :    0.084179
   5 O :   -0.221342
   6 C :   -0.124445
   7 C :   -0.128090
   8 C :    0.085071
   9 O :   -0.183978
  10 N :   -0.008192
  11 C :    0.034250
  12 C :   -0.061923
  13 C :    0.086790
  14 C :   -0.032202
  15 C :   -0.008436
  16 C :   -0.144020
  17 S :    0.512468
  18 C :   -0.122047
  19 C :   -0.095801
  20 C :   -0.089744
  21 C :    0.078720
  22 O :   -0.145877
  23 C :   -0.070177
  24 C :    0.075403
  25 O :   -0.126376
  26 C :   -0.015915
  27 C :   -0.020595
  28 C :   -0.005609
  29 C :   -0.241042
  30 C :   -0.063557
  31 N :   -0.053292
  32 S :    0.458540
  33 C :   -0.060888
  34 O :   -0.069595
  35 C :    0.074209
  36 C :   -0.128717
  37 C :   -0.117333
  38 S :    0.504132
  39 C :   -0.078548
  40 C :    0.082549
  41 O :   -0.162017
  42 C :   -0.099711
  43 C :    0.031399
  44 N :    0.091704
  45 C :    0.045441
  46 C :   -0.056975
  47 C :    0.034587
  48 C :   -0.102903
  49 C :    0.082212
  50 O :   -0.164642
  51 C :   -0.076340
  52 C :   -0.147118
  53 C :    0.028383
  54 C :   -0.045083
  55 C :    0.092787
  56 O :   -0.136429
  57 C :   -0.046556
  58 C :    0.027717
  59 C :   -0.013747
  60 C :   -0.008291
  61 C :   -0.031945
  62 C :    0.065037
  63 C :    0.064658
  64 C :   -0.035918
  65 F :   -0.050997
  66 F :   -0.051288
  67 C :    0.013679
  68 C :   -0.001881
  69 C :    0.095644
  70 C :   -0.127956
  71 C :    0.002703
  72 N :   -0.074608
  73 C :   -0.012405
  74 N :   -0.061741
  75 H :    0.033142
  76 H :    0.025845
  77 H :    0.032518
  78 H :    0.023145
  79 H :    0.025501
  80 H :    0.031902
  81 H :    0.024884
  82 H :    0.037523
  83 H :    0.021686
  84 H :    0.035093
  85 H :    0.030493
  86 H :    0.040058
  87 H :    0.041447
  88 H :    0.063507
  89 H :    0.060560
  90 H :    0.047648
  91 H :    0.019021
  92 H :    0.034416
  93 H :    0.024329
  94 H :    0.015497
  95 H :    0.029754
  96 H :    0.034827
  97 H :    0.034868
  98 H :    0.030178
  99 H :    0.034066
 100 H :    0.030016
 101 H :    0.029414
 102 H :    0.046365
 103 H :    0.039019
 104 H :    0.046131
 105 H :    0.043994
 106 H :    0.038215

  Mayer bond orders larger than 0.100000
B(  0-C ,  1-N ) :   1.1841 B(  0-C ,  7-C ) :   1.4607 B(  0-C , 75-H ) :   0.9897
B(  1-N ,  2-C ) :   0.9410 B(  1-N ,  4-C ) :   1.0485 B(  2-C ,  3-C ) :   1.1240
B(  2-C , 76-H ) :   0.9476 B(  2-C , 77-H ) :   0.9374 B(  3-C , 78-H ) :   0.9631
B(  3-C , 79-H ) :   0.9624 B(  3-C , 80-H ) :   0.9620 B(  4-C ,  5-O ) :   2.0338
B(  4-C ,  6-C ) :   1.0118 B(  6-C ,  7-C ) :   1.1977 B(  6-C , 13-C ) :   1.3584
B(  7-C ,  8-C ) :   0.9495 B(  8-C ,  9-O ) :   2.1736 B(  8-C , 10-N ) :   1.0159
B( 10-N , 11-C ) :   0.9386 B( 10-N , 13-C ) :   1.1735 B( 11-C , 12-C ) :   1.1152
B( 11-C , 81-H ) :   0.9518 B( 11-C , 82-H ) :   0.9223 B( 12-C , 83-H ) :   0.9689
B( 12-C , 84-H ) :   0.9680 B( 12-C , 85-H ) :   0.9614 B( 13-C , 14-C ) :   1.1864
B( 14-C , 15-C ) :   1.5475 B( 14-C , 86-H ) :   0.9537 B( 15-C , 16-C ) :   1.1872
B( 15-C , 87-H ) :   0.9674 B( 16-C , 17-S ) :   1.1295 B( 16-C , 20-C ) :   1.4463
B( 17-S , 18-C ) :   1.1455 B( 18-C , 19-C ) :   1.4502 B( 18-C , 26-C ) :   1.1669
B( 19-C , 20-C ) :   1.2094 B( 19-C , 24-C ) :   0.9377 B( 20-C , 21-C ) :   0.9488
B( 21-C , 22-O ) :   2.1941 B( 21-C , 23-C ) :   0.9995 B( 23-C , 24-C ) :   0.9922
B( 23-C , 88-H ) :   0.8957 B( 23-C , 89-H ) :   0.8980 B( 24-C , 25-O ) :   2.2363
B( 26-C , 27-C ) :   1.6450 B( 26-C , 90-H ) :   0.9684 B( 27-C , 28-C ) :   1.0940
B( 27-C , 91-H ) :   0.9458 B( 28-C , 29-C ) :   1.4560 B( 28-C , 36-C ) :   1.2479
B( 29-C , 30-C ) :   1.2418 B( 29-C , 32-S ) :   1.0916 B( 30-C , 31-N ) :   2.9494
B( 32-S , 33-C ) :   1.1170 B( 33-C , 34-O ) :   1.2253 B( 33-C , 36-C ) :   1.5003
B( 34-O , 35-C ) :   0.9281 B( 35-C , 92-H ) :   0.9819 B( 35-C , 93-H ) :   0.9683
B( 35-C , 94-H ) :   0.9640 B( 36-C , 37-C ) :   0.9342 B( 37-C , 38-S ) :   1.1826
B( 37-C , 39-C ) :   1.5869 B( 38-S , 52-C ) :   1.1406 B( 39-C , 40-C ) :   0.9287
B( 39-C , 51-C ) :   1.1646 B( 40-C , 41-O ) :   2.2150 B( 40-C , 42-C ) :   0.9903
B( 42-C , 43-C ) :   1.4299 B( 42-C , 48-C ) :   1.2914 B( 43-C , 44-N ) :   1.2300
B( 43-C , 95-H ) :   0.9937 B( 44-N , 45-C ) :   0.9475 B( 44-N , 47-C ) :   1.2436
B( 45-C , 46-C ) :   1.1105 B( 45-C , 96-H ) :   0.9515 B( 45-C , 97-H ) :   0.9511
B( 46-C , 98-H ) :   0.9677 B( 46-C , 99-H ) :   0.9684 B( 46-C ,100-H ) :   0.9677
B( 47-C , 48-C ) :   1.4120 B( 47-C ,101-H ) :   0.9939 B( 48-C , 49-C ) :   0.9977
B( 49-C , 50-O ) :   2.1800 B( 49-C , 51-C ) :   0.9402 B( 51-C , 52-C ) :   1.5178
B( 52-C , 53-C ) :   1.0345 B( 53-C , 54-C ) :   1.7777 B( 53-C ,102-H ) :   0.9318
B( 54-C , 55-C ) :   0.9397 B( 54-C , 69-C ) :   0.9955 B( 55-C , 56-O ) :   2.2795
B( 55-C , 57-C ) :   0.9103 B( 57-C , 58-C ) :   1.4614 B( 57-C , 68-C ) :   1.2398
B( 58-C , 59-C ) :   1.1928 B( 58-C ,103-H ) :   1.0160 B( 59-C , 60-C ) :   1.2601
B( 59-C , 64-C ) :   1.1878 B( 60-C , 61-C ) :   1.1837 B( 60-C , 67-C ) :   1.2058
B( 61-C , 62-C ) :   1.4418 B( 61-C , 64-C ) :   0.1096 B( 61-C ,104-H ) :   1.0076
B( 62-C , 63-C ) :   1.1915 B( 62-C , 66-F ) :   1.1308 B( 63-C , 64-C ) :   1.4445
B( 63-C , 65-F ) :   1.1337 B( 64-C ,105-H ) :   1.0069 B( 67-C , 68-C ) :   1.4510
B( 67-C ,106-H ) :   0.9984 B( 68-C , 69-C ) :   1.0013 B( 69-C , 70-C ) :   1.6846
B( 70-C , 71-C ) :   1.1749 B( 70-C , 73-C ) :   1.1425 B( 71-C , 72-N ) :   2.9589
B( 73-C , 74-N ) :   2.9916

-----------------------------------------------------------------------------
         ABSORPTION SPECTRUM VIA TRANSITION ELECTRIC DIPOLE MOMENTS
-----------------------------------------------------------------------------
State   Energy  Wavelength   fosc         T2         TX        TY        TZ
        (cm-1)    (nm)                  (au**2)     (au)      (au)      (au)
-----------------------------------------------------------------------------
   0   16690.4    599.1   0.031111941   0.61367  -0.43258  -0.25793  -0.60002
   1   18362.6    544.6   0.471728902   8.45736   0.00731  -1.54547  -2.46350
   2   22170.7    451.0   0.159932477   2.37484   0.47232  -0.98735  -1.08485
   3   24078.2    415.3   0.215190971   2.94223  -1.23366   0.92257   0.75443
   4   24539.6    407.5   0.196584814   2.63729  -1.04656   1.02311   0.70373
   5   25270.5    395.7   0.029034687   0.37825  -0.27185  -0.04756  -0.54962
   6   25728.8    388.7   0.004724467   0.06045  -0.24196   0.04305   0.00717
   7   26212.8    381.5   0.023957579   0.30089  -0.35061  -0.31417  -0.28153
   8   26292.2    380.3   0.054614548   0.68384   0.74872   0.07325   0.34336
   9   27161.7    368.2   0.467367519   5.66470   2.19475  -0.47055   0.79143
  10   27582.4    362.6   0.038618492   0.46093  -0.63053   0.13453  -0.21277
  11   28064.5    356.3   0.184239521   2.16123   0.28298  -0.66439  -1.28052
  12   28635.6    349.2   0.026272752   0.30205  -0.27781   0.39746   0.25864
  13   28797.7    347.3   0.034095373   0.38977   0.27821  -0.55607   0.05625
  14   28937.8    345.6   0.000424380   0.00483   0.03818  -0.04301   0.03898
  15   29343.1    340.8   0.047720256   0.53539  -0.11598   0.02671   0.72196
  16   29650.2    337.3   0.008978502   0.09969   0.18908  -0.21014  -0.14065
  17   29874.1    334.7   0.026211687   0.28885  -0.04567   0.20123   0.49626
  18   30066.2    332.6   0.034627148   0.37915  -0.54566  -0.07961  -0.27398
  19   30147.4    331.7   0.009214457   0.10062   0.27208  -0.15740  -0.04269
  20   30725.4    325.5   0.004078823   0.04370   0.18661  -0.03183   0.08869
  21   31362.5    318.9   0.000430550   0.00452  -0.05757   0.00553   0.03428
  22   31643.4    316.0   0.014394021   0.14975   0.20309  -0.22524   0.24037
  23   32163.4    310.9   0.023842021   0.24404  -0.27431  -0.14561  -0.38417
  24   32320.8    309.4   0.008714555   0.08876  -0.11408   0.10382   0.25490
  25   32510.2    307.6   0.032693837   0.33107  -0.45332   0.18156  -0.30432
  26   32613.5    306.6   0.035324532   0.35658   0.26536  -0.39990  -0.35531
  27   32945.5    303.5   0.128516033   1.28421   0.18548   0.03329   1.11745
  28   33408.5    299.3   0.305266835   3.00814   0.99628   0.92294   1.07877
  29   33504.9    298.5   0.021713004   0.21335  -0.44386   0.10038  -0.07912
  30   33700.2    296.7   0.239908615   2.34363  -0.26007   1.21561   0.89346
  31   33929.6    294.7   0.058332738   0.56599   0.59699  -0.43124   0.15374
  32   34032.2    293.8   0.045845888   0.44349  -0.07754   0.38650   0.53675
  33   34540.6    289.5   0.074368720   0.70882   0.35537   0.74769   0.15326
  34   34715.5    288.1   0.202868446   1.92383   0.60435   0.97736   0.77676
  35   35281.3    283.4   0.278913270   2.60256   0.01831  -0.55375  -1.51512
  36   35339.6    283.0   0.036949502   0.34421   0.49343  -0.31739  -0.00189
  37   35551.8    281.3   0.090065447   0.83401  -0.19151  -0.43195  -0.78151
  38   35636.5    280.6   0.092482582   0.85436  -0.33869  -0.41887  -0.75113
  39   35705.7    280.1   0.026542242   0.24472   0.05228  -0.29504  -0.39362
  40   36129.2    276.8   0.075088305   0.68421  -0.19017  -0.52809  -0.60759
  41   36198.5    276.3   0.020420863   0.18572  -0.36553  -0.00520  -0.22822
  42   36504.0    273.9   0.095094796   0.85761  -0.26232  -0.32881  -0.82504
  43   36639.7    272.9   0.149322604   1.34168   0.76496   0.26996   0.82683
  44   37018.1    270.1   0.035938962   0.31962  -0.40034   0.02793  -0.39820
  45   37088.4    269.6   0.019294614   0.17127  -0.34367   0.07772  -0.21706
  46   37410.8    267.3   0.001285119   0.01131  -0.06753  -0.05354  -0.06231
  47   37504.6    266.6   0.133844704   1.17488   0.60638   0.26871   0.85730
  48   37825.8    264.4   0.054127515   0.47109  -0.20187  -0.31754  -0.57403
  49   38005.4    263.1   0.023893791   0.20697   0.33466   0.06645   0.30094
  50   38273.8    261.3   0.043139650   0.37107   0.06952   0.41659   0.43896
  51   38361.6    260.7   0.051532221   0.44224  -0.31017   0.35949   0.46562
  52   38504.6    259.7   0.052038778   0.44493   0.30915   0.08214   0.58533
  53   38854.3    257.4   0.035258849   0.29875   0.23114   0.15747   0.46960
  54   38918.4    256.9   0.013934699   0.11787  -0.32252   0.11771  -0.00107
  55   39442.8    253.5   0.017574959   0.14669   0.16913   0.26347  -0.22060
  56   39490.3    253.2   0.067501803   0.56273  -0.22129   0.38757  -0.60296
  57   39643.0    252.3   0.029039314   0.24115   0.13509  -0.44711  -0.15165
  58   39918.1    250.5   0.020860782   0.17204  -0.39369   0.02852   0.12744
  59   40174.7    248.9   0.043063893   0.35289  -0.12867  -0.39559  -0.42407
  60   40306.0    248.1   0.021972603   0.17947   0.06672   0.41829   0.00681

FINAL SINGLE POINT ENERGY     -4473.351226841219

DIPOLE MOMENT
-------------
                                X             Y             Z
Electronic contribution:    -12.45343      -1.28748       4.01124
Nuclear contribution   :      8.19053       2.43545      -6.17924
                        -----------------------------------------
Total Dipole Moment    :     -4.26290       1.14798      -2.16800
                        -----------------------------------------
Magnitude (a.u.)       :      4.91838
Magnitude (Debye)      :     12.50152

Rotational constants in cm-1:     0.000964     0.000731     0.000460
Rotational constants in MHz :    28.906127    21.902844    13.786713

                             ****ORCA TERMINATED NORMALLY****
TOTAL RUN TIME: 0 days 0 hours 12 minutes 38 seconds 170 msec
