                         Program Version 4.2.0 -  RELEASE  -
|  1> # ORCA input file
|  2> # SCF done       -179.550847313682          0.000446366124
|  3> ! CAM-B3LYP def2-SVP def2/J RIJCOSX Grid4 TightSCF
|  4> %maxcore 5000
|  5> %tddft
|  6>     Mode sTDDFT
|  7>     Ethresh 5.0
|  8>     maxcore 5000
|  9> end
| 10>
| 11> %pal
| 12>   nprocs 6
| 13>   end
| 14> * xyz 0 1
| 15>    C        2.69786        -0.56212         7.12089
| 16>    C        1.73880         0.33992         6.50294
| 17>    C        0.94821        -0.32945         5.64689
| 18>    C        1.35561        -1.74876         5.64239
| 19>    O        0.86495        -2.66196         5.03427
| 20>    C        2.51580        -1.82244         6.64978
| 21>    C        3.10767        -3.06150         6.99424
| 22>    C        3.46232        -3.57182         8.23822
| 23>    N        3.50744        -2.91848         9.48181
| 24>    O        3.53838        -3.61991        10.47729
| 25>    O        3.52268        -1.69818         9.50434
| 26>    C        3.69560        -4.98398         8.11874
| 27>    C        3.48894        -5.36320         6.82769
| 28>    C        3.15776        -4.20641         6.06056
| 29>    C        3.07253        -4.09822         4.68686
| 30>    C        3.44294        -2.95323         3.91425
| 31>    C        3.47047        -3.30727         2.60117
| 32>    C        3.07735        -4.67865         2.46920
| 33>    N        2.98092        -5.25144         1.18760
| 34>    O        2.90340        -6.46629         1.07276
| 35>    O        3.00414        -4.48886         0.23860
| 36>    C        2.79371        -5.19892         3.74207
| 37>    C        2.15716        -6.36317         4.20154
| 38>    C        1.93284        -7.53613         3.52119
| 39>    C        1.26694        -8.61734         4.11241
| 40>    N        1.05746        -9.81817         3.48062
| 41>    C        1.50048       -10.17628         2.15141
| 42>    C        2.97560       -10.56498         2.13320
| 43>    C        0.38245       -10.73461         4.29387
| 44>    O        0.09444       -11.86395         3.95133
| 45>    C        0.14873       -10.01247         5.53552
| 46>    C        0.69462        -8.73202         5.40033
| 47>    C        0.45380        -8.00720         6.63991
| 48>    O        0.75336        -6.88511         6.98964
| 49>    N       -0.24953        -8.91575         7.44203
| 50>    C       -0.65282        -8.57549         8.78831
| 51>    C        0.31420        -9.13634         9.82657
| 52>    C       -0.43746       -10.12250         6.81835
| 53>    C       -1.09321       -11.21253         7.40567
| 54>    C       -1.17953       -12.42307         6.76129
| 55>    C       -1.79807       -13.60776         7.19250
| 56>    C       -2.82957       -13.88982         8.10313
| 57>    N       -3.46557       -13.07548         9.05691
| 58>    O       -2.93474       -12.03110         9.40681
| 59>    O       -4.52555       -13.47391         9.50511
| 60>    C       -3.27035       -15.23531         7.90437
| 61>    C       -2.54606       -15.80741         6.90076
| 62>    C       -1.57818       -14.86249         6.44406
| 63>    C       -0.49451       -15.11718         5.62193
| 64>    C        0.79290       -14.50707         5.73322
| 65>    C        1.68293       -15.20823         4.97624
| 66>    C        0.98531       -16.25450         4.29250
| 67>    N        1.62790       -17.12090         3.39040
| 68>    O        0.97111       -17.98914         2.83616
| 69>    O        2.82401       -16.96211         3.22279
| 70>    C       -0.36478       -16.21220         4.63994
| 71>    C       -1.39937       -16.95664         4.03499
| 72>    C       -2.71240       -16.59277         3.97385
| 73>    C       -3.71976       -17.36913         3.34782
| 74>    C       -3.52336       -18.69258         2.69789
| 75>    C       -4.68681       -19.13485         2.22275
| 76>    C       -5.74806       -18.12744         2.53556
| 77>    O       -6.92252       -18.18713         2.26432
| 78>    C       -5.03778       -17.04139         3.24944
| 79>    H        3.44792        -0.24442         7.81941
| 80>    H        1.70043         1.39106         6.72657
| 81>    H        0.13086         0.04100         5.05883
| 82>    H        3.99583        -5.60118         8.94441
| 83>    H        3.66511        -6.33992         6.42257
| 84>    H        3.74124        -2.00756         4.32591
| 85>    H        3.74437        -2.69255         1.76414
| 86>    H        1.80245        -6.30373         5.22239
| 87>    H        2.29074        -7.64896         2.50980
| 88>    H        1.31430        -9.34336         1.47005
| 89>    H        0.89021       -11.03062         1.84700
| 90>    H        3.60127        -9.73071         2.44037
| 91>    H        3.26005       -10.85772         1.12712
| 92>    H        3.15192       -11.40408         2.80216
| 93>    H       -1.66539        -8.94402         8.96711
| 94>    H       -0.65498        -7.48356         8.83892
| 95>    H        0.34214       -10.22256         9.78620
| 96>    H       -0.00659        -8.83521        10.81917
| 97>    H        1.31634        -8.75095         9.65408
| 98>    H       -1.51170       -11.09231         8.39243
| 99>    H       -0.70760       -12.49880         5.78982
|100>    H       -4.04787       -15.69151         8.48787
|101>    H       -2.60586       -16.82917         6.58071
|102>    H        1.03830       -13.71536         6.41344
|103>    H        2.73952       -15.04116         4.88455
|104>    H       -1.07442       -17.84181         3.50400
|105>    H       -3.02937       -15.64441         4.38764
|106>    H       -2.57057       -19.18490         2.63322
|107>    H       -4.88832       -20.04831         1.69674
|108>    H       -5.52202       -16.15616         3.61580
|109> *
|110>
|111>                          ****END OF INPUT****

CARTESIAN COORDINATES (ANGSTROEM)
---------------------------------
  C      2.697860   -0.562120    7.120890
  C      1.738800    0.339920    6.502940
  C      0.948210   -0.329450    5.646890
  C      1.355610   -1.748760    5.642390
  O      0.864950   -2.661960    5.034270
  C      2.515800   -1.822440    6.649780
  C      3.107670   -3.061500    6.994240
  C      3.462320   -3.571820    8.238220
  N      3.507440   -2.918480    9.481810
  O      3.538380   -3.619910   10.477290
  O      3.522680   -1.698180    9.504340
  C      3.695600   -4.983980    8.118740
  C      3.488940   -5.363200    6.827690
  C      3.157760   -4.206410    6.060560
  C      3.072530   -4.098220    4.686860
  C      3.442940   -2.953230    3.914250
  C      3.470470   -3.307270    2.601170
  C      3.077350   -4.678650    2.469200
  N      2.980920   -5.251440    1.187600
  O      2.903400   -6.466290    1.072760
  O      3.004140   -4.488860    0.238600
  C      2.793710   -5.198920    3.742070
  C      2.157160   -6.363170    4.201540
  C      1.932840   -7.536130    3.521190
  C      1.266940   -8.617340    4.112410
  N      1.057460   -9.818170    3.480620
  C      1.500480  -10.176280    2.151410
  C      2.975600  -10.564980    2.133200
  C      0.382450  -10.734610    4.293870
  O      0.094440  -11.863950    3.951330
  C      0.148730  -10.012470    5.535520
  C      0.694620   -8.732020    5.400330
  C      0.453800   -8.007200    6.639910
  O      0.753360   -6.885110    6.989640
  N     -0.249530   -8.915750    7.442030
  C     -0.652820   -8.575490    8.788310
  C      0.314200   -9.136340    9.826570
  C     -0.437460  -10.122500    6.818350
  C     -1.093210  -11.212530    7.405670
  C     -1.179530  -12.423070    6.761290
  C     -1.798070  -13.607760    7.192500
  C     -2.829570  -13.889820    8.103130
  N     -3.465570  -13.075480    9.056910
  O     -2.934740  -12.031100    9.406810
  O     -4.525550  -13.473910    9.505110
  C     -3.270350  -15.235310    7.904370
  C     -2.546060  -15.807410    6.900760
  C     -1.578180  -14.862490    6.444060
  C     -0.494510  -15.117180    5.621930
  C      0.792900  -14.507070    5.733220
  C      1.682930  -15.208230    4.976240
  C      0.985310  -16.254500    4.292500
  N      1.627900  -17.120900    3.390400
  O      0.971110  -17.989140    2.836160
  O      2.824010  -16.962110    3.222790
  C     -0.364780  -16.212200    4.639940
  C     -1.399370  -16.956640    4.034990
  C     -2.712400  -16.592770    3.973850
  C     -3.719760  -17.369130    3.347820
  C     -3.523360  -18.692580    2.697890
  C     -4.686810  -19.134850    2.222750
  C     -5.748060  -18.127440    2.535560
  O     -6.922520  -18.187130    2.264320
  C     -5.037780  -17.041390    3.249440
  H      3.447920   -0.244420    7.819410
  H      1.700430    1.391060    6.726570
  H      0.130860    0.041000    5.058830
  H      3.995830   -5.601180    8.944410
  H      3.665110   -6.339920    6.422570
  H      3.741240   -2.007560    4.325910
  H      3.744370   -2.692550    1.764140
  H      1.802450   -6.303730    5.222390
  H      2.290740   -7.648960    2.509800
  H      1.314300   -9.343360    1.470050
  H      0.890210  -11.030620    1.847000
  H      3.601270   -9.730710    2.440370
  H      3.260050  -10.857720    1.127120
  H      3.151920  -11.404080    2.802160
  H     -1.665390   -8.944020    8.967110
  H     -0.654980   -7.483560    8.838920
  H      0.342140  -10.222560    9.786200
  H     -0.006590   -8.835210   10.819170
  H      1.316340   -8.750950    9.654080
  H     -1.511700  -11.092310    8.392430
  H     -0.707600  -12.498800    5.789820
  H     -4.047870  -15.691510    8.487870
  H     -2.605860  -16.829170    6.580710
  H      1.038300  -13.715360    6.413440
  H      2.739520  -15.041160    4.884550
  H     -1.074420  -17.841810    3.504000
  H     -3.029370  -15.644410    4.387640
  H     -2.570570  -19.184900    2.633220
  H     -4.888320  -20.048310    1.696740
  H     -5.522020  -16.156160    3.615800

 Total Charge           Charge          ....    0
 Multiplicity           Mult            ....    1
 Number of Electrons    NEL             ....  444
 Basis Dimension        Dim             .... 1046

ORBITAL ENERGIES
----------------

  NO   OCC          E(Eh)            E(eV)
   0   2.0000     -19.246589      -523.7263
   1   2.0000     -19.245602      -523.6995
   2   2.0000     -19.245286      -523.6909
   3   2.0000     -19.243531      -523.6431
   4   2.0000     -19.243482      -523.6418
   5   2.0000     -19.240536      -523.5616
   6   2.0000     -19.239576      -523.5355
   7   2.0000     -19.237687      -523.4841
   8   2.0000     -19.236128      -523.4416
   9   2.0000     -19.220463      -523.0154
  10   2.0000     -19.212735      -522.8051
  11   2.0000     -19.210942      -522.7563
  12   2.0000     -14.653515      -398.7424
  13   2.0000     -14.653252      -398.7353
  14   2.0000     -14.649432      -398.6313
  15   2.0000     -14.645575      -398.5264
  16   2.0000     -14.471015      -393.7763
  17   2.0000     -14.470366      -393.7587
  18   2.0000     -10.394133      -282.8387
  19   2.0000     -10.392912      -282.8055
  20   2.0000     -10.383767      -282.5567
  21   2.0000     -10.360443      -281.9220
  22   2.0000     -10.356166      -281.8056
  23   2.0000     -10.356090      -281.8035
  24   2.0000     -10.337787      -281.3055
  25   2.0000     -10.337701      -281.3031
  26   2.0000     -10.333982      -281.2019
  27   2.0000     -10.333326      -281.1841
  28   2.0000     -10.331857      -281.1441
  29   2.0000     -10.329479      -281.0794
  30   2.0000     -10.329321      -281.0751
  31   2.0000     -10.327370      -281.0220
  32   2.0000     -10.325501      -280.9712
  33   2.0000     -10.325083      -280.9598
  34   2.0000     -10.324173      -280.9350
  35   2.0000     -10.322519      -280.8900
  36   2.0000     -10.316972      -280.7391
  37   2.0000     -10.316879      -280.7366
  38   2.0000     -10.311952      -280.6025
  39   2.0000     -10.308268      -280.5022
  40   2.0000     -10.307269      -280.4750
  41   2.0000     -10.307233      -280.4741
  42   2.0000     -10.307165      -280.4722
  43   2.0000     -10.306618      -280.4573
  44   2.0000     -10.304892      -280.4104
  45   2.0000     -10.303681      -280.3774
  46   2.0000     -10.303236      -280.3653
  47   2.0000     -10.303056      -280.3604
  48   2.0000     -10.302557      -280.3468
  49   2.0000     -10.301265      -280.3117
  50   2.0000     -10.301045      -280.3057
  51   2.0000     -10.295858      -280.1645
  52   2.0000     -10.294825      -280.1364
  53   2.0000     -10.292822      -280.0819
  54   2.0000     -10.292674      -280.0779
  55   2.0000     -10.291320      -280.0410
  56   2.0000     -10.290218      -280.0111
  57   2.0000     -10.287066      -279.9253
  58   2.0000     -10.286208      -279.9020
  59   2.0000     -10.284886      -279.8660
  60   2.0000     -10.281465      -279.7729
  61   2.0000     -10.277355      -279.6611
  62   2.0000     -10.270035      -279.4619
  63   2.0000     -10.269625      -279.4507
  64   2.0000      -1.323734       -36.0206
  65   2.0000      -1.323643       -36.0182
  66   2.0000      -1.319309       -35.9002
  67   2.0000      -1.316371       -35.8203
  68   2.0000      -1.159298       -31.5461
  69   2.0000      -1.153803       -31.3966
  70   2.0000      -1.147347       -31.2209
  71   2.0000      -1.140301       -31.0292
  72   2.0000      -1.140061       -31.0226
  73   2.0000      -1.136394       -30.9229
  74   2.0000      -1.133568       -30.8459
  75   2.0000      -1.130203       -30.7544
  76   2.0000      -1.083309       -29.4783
  77   2.0000      -1.074303       -29.2333
  78   2.0000      -1.023180       -27.8422
  79   2.0000      -1.019073       -27.7304
  80   2.0000      -1.002012       -27.2661
  81   2.0000      -0.999696       -27.2031
  82   2.0000      -0.977309       -26.5939
  83   2.0000      -0.973753       -26.4972
  84   2.0000      -0.944868       -25.7112
  85   2.0000      -0.925638       -25.1879
  86   2.0000      -0.919839       -25.0301
  87   2.0000      -0.917078       -24.9550
  88   2.0000      -0.913278       -24.8516
  89   2.0000      -0.908928       -24.7332
  90   2.0000      -0.886075       -24.1113
  91   2.0000      -0.884179       -24.0597
  92   2.0000      -0.882717       -24.0200
  93   2.0000      -0.868711       -23.6388
  94   2.0000      -0.857617       -23.3370
  95   2.0000      -0.851411       -23.1681
  96   2.0000      -0.843699       -22.9582
  97   2.0000      -0.832432       -22.6516
  98   2.0000      -0.819651       -22.3038
  99   2.0000      -0.817029       -22.2325
 100   2.0000      -0.801357       -21.8060
 101   2.0000      -0.792083       -21.5537
 102   2.0000      -0.779025       -21.1984
 103   2.0000      -0.771090       -20.9824
 104   2.0000      -0.767466       -20.8838
 105   2.0000      -0.765488       -20.8300
 106   2.0000      -0.751104       -20.4386
 107   2.0000      -0.736206       -20.0332
 108   2.0000      -0.732393       -19.9294
 109   2.0000      -0.729892       -19.8614
 110   2.0000      -0.720502       -19.6059
 111   2.0000      -0.706988       -19.2381
 112   2.0000      -0.703128       -19.1331
 113   2.0000      -0.689272       -18.7560
 114   2.0000      -0.682766       -18.5790
 115   2.0000      -0.678224       -18.4554
 116   2.0000      -0.674985       -18.3673
 117   2.0000      -0.666208       -18.1284
 118   2.0000      -0.664048       -18.0697
 119   2.0000      -0.660583       -17.9754
 120   2.0000      -0.654267       -17.8035
 121   2.0000      -0.646847       -17.6016
 122   2.0000      -0.641613       -17.4592
 123   2.0000      -0.635858       -17.3026
 124   2.0000      -0.633913       -17.2496
 125   2.0000      -0.633021       -17.2254
 126   2.0000      -0.630936       -17.1687
 127   2.0000      -0.630538       -17.1578
 128   2.0000      -0.627683       -17.0801
 129   2.0000      -0.624754       -17.0004
 130   2.0000      -0.622669       -16.9437
 131   2.0000      -0.620918       -16.8960
 132   2.0000      -0.609272       -16.5791
 133   2.0000      -0.607679       -16.5358
 134   2.0000      -0.603156       -16.4127
 135   2.0000      -0.600176       -16.3316
 136   2.0000      -0.598419       -16.2838
 137   2.0000      -0.597659       -16.2631
 138   2.0000      -0.592254       -16.1160
 139   2.0000      -0.591224       -16.0880
 140   2.0000      -0.589673       -16.0458
 141   2.0000      -0.582617       -15.8538
 142   2.0000      -0.576552       -15.6888
 143   2.0000      -0.574661       -15.6373
 144   2.0000      -0.567242       -15.4354
 145   2.0000      -0.564650       -15.3649
 146   2.0000      -0.562875       -15.3166
 147   2.0000      -0.557846       -15.1798
 148   2.0000      -0.555163       -15.1068
 149   2.0000      -0.544561       -14.8183
 150   2.0000      -0.543595       -14.7920
 151   2.0000      -0.542020       -14.7491
 152   2.0000      -0.537216       -14.6184
 153   2.0000      -0.533086       -14.5060
 154   2.0000      -0.530331       -14.4310
 155   2.0000      -0.526981       -14.3399
 156   2.0000      -0.525416       -14.2973
 157   2.0000      -0.523491       -14.2449
 158   2.0000      -0.521598       -14.1934
 159   2.0000      -0.521146       -14.1811
 160   2.0000      -0.520086       -14.1523
 161   2.0000      -0.513710       -13.9788
 162   2.0000      -0.510456       -13.8902
 163   2.0000      -0.508945       -13.8491
 164   2.0000      -0.506644       -13.7865
 165   2.0000      -0.502613       -13.6768
 166   2.0000      -0.502113       -13.6632
 167   2.0000      -0.499773       -13.5995
 168   2.0000      -0.498537       -13.5659
 169   2.0000      -0.495838       -13.4924
 170   2.0000      -0.492124       -13.3914
 171   2.0000      -0.489069       -13.3082
 172   2.0000      -0.487580       -13.2677
 173   2.0000      -0.485915       -13.2224
 174   2.0000      -0.484520       -13.1845
 175   2.0000      -0.481806       -13.1106
 176   2.0000      -0.481480       -13.1017
 177   2.0000      -0.479315       -13.0428
 178   2.0000      -0.475354       -12.9350
 179   2.0000      -0.470111       -12.7924
 180   2.0000      -0.468376       -12.7452
 181   2.0000      -0.463876       -12.6227
 182   2.0000      -0.461282       -12.5521
 183   2.0000      -0.459985       -12.5168
 184   2.0000      -0.455736       -12.4012
 185   2.0000      -0.451434       -12.2841
 186   2.0000      -0.450727       -12.2649
 187   2.0000      -0.446718       -12.1558
 188   2.0000      -0.442473       -12.0403
 189   2.0000      -0.435623       -11.8539
 190   2.0000      -0.433655       -11.8004
 191   2.0000      -0.432063       -11.7570
 192   2.0000      -0.423746       -11.5307
 193   2.0000      -0.393720       -10.7137
 194   2.0000      -0.393314       -10.7026
 195   2.0000      -0.392969       -10.6932
 196   2.0000      -0.388062       -10.5597
 197   2.0000      -0.387464       -10.5434
 198   2.0000      -0.385190       -10.4816
 199   2.0000      -0.382507       -10.4085
 200   2.0000      -0.381231       -10.3738
 201   2.0000      -0.378183       -10.2909
 202   2.0000      -0.376661       -10.2495
 203   2.0000      -0.374144       -10.1810
 204   2.0000      -0.371484       -10.1086
 205   2.0000      -0.370094       -10.0708
 206   2.0000      -0.366739        -9.9795
 207   2.0000      -0.365875        -9.9560
 208   2.0000      -0.364619        -9.9218
 209   2.0000      -0.363591        -9.8938
 210   2.0000      -0.351378        -9.5615
 211   2.0000      -0.346848        -9.4382
 212   2.0000      -0.343613        -9.3502
 213   2.0000      -0.335295        -9.1238
 214   2.0000      -0.334058        -9.0902
 215   2.0000      -0.327683        -8.9167
 216   2.0000      -0.327318        -8.9068
 217   2.0000      -0.312237        -8.4964
 218   2.0000      -0.305628        -8.3166
 219   2.0000      -0.285168        -7.7598
 220   2.0000      -0.279329        -7.6009
 221   2.0000      -0.242887        -6.6093
 222   0.0000      -0.153148        -4.1674
 223   0.0000      -0.132974        -3.6184
 224   0.0000      -0.096547        -2.6272
 225   0.0000      -0.086931        -2.3655
 226   0.0000      -0.073555        -2.0015

MULLIKEN ATOMIC CHARGES
-----------------------
   0 C :    0.027358
   1 C :    0.062917
   2 C :   -0.016659
   3 C :    0.128518
   4 O :   -0.103713
   5 C :   -0.142226
   6 C :    0.092604
   7 C :    0.073799
   8 N :    0.272376
   9 O :   -0.249227
  10 O :   -0.260845
  11 C :    0.007569
  12 C :    0.034898
  13 C :    0.039887
  14 C :    0.026948
  15 C :    0.025582
  16 C :    0.015591
  17 C :    0.073274
  18 N :    0.275839
  19 O :   -0.258215
  20 O :   -0.241808
  21 C :    0.091673
  22 C :   -0.082033
  23 C :   -0.014403
  24 C :    0.140302
  25 N :   -0.244302
  26 C :    0.094916
  27 C :    0.005849
  28 C :    0.165761
  29 O :   -0.199586
  30 C :   -0.062081
  31 C :   -0.061644
  32 C :    0.163948
  33 O :   -0.191776
  34 N :   -0.244980
  35 C :    0.094157
  36 C :    0.005256
  37 C :    0.138741
  38 C :   -0.013822
  39 C :   -0.094502
  40 C :    0.089403
  41 C :    0.073621
  42 N :    0.277871
  43 O :   -0.259321
  44 O :   -0.243891
  45 C :    0.016673
  46 C :   -0.002383
  47 C :    0.006374
  48 C :    0.048286
  49 C :    0.018762
  50 C :    0.011990
  51 C :    0.088176
  52 N :    0.273737
  53 O :   -0.254245
  54 O :   -0.245228
  55 C :    0.050113
  56 C :   -0.048476
  57 C :    0.023619
  58 C :    0.052665
  59 C :    0.046251
  60 C :   -0.030191
  61 C :    0.145239
  62 O :   -0.129191
  63 C :   -0.090521
  64 H :    0.023281
  65 H :    0.014384
  66 H :    0.005061
  67 H :   -0.001566
  68 H :   -0.010263
  69 H :   -0.000954
  70 H :    0.004960
  71 H :    0.036939
  72 H :    0.000701
  73 H :    0.043725
  74 H :    0.043243
  75 H :    0.021730
  76 H :    0.032044
  77 H :    0.023559
  78 H :    0.042726
  79 H :    0.045924
  80 H :    0.020808
  81 H :    0.031881
  82 H :    0.023915
  83 H :    0.004761
  84 H :    0.037883
  85 H :    0.008111
  86 H :    0.006601
  87 H :   -0.004507
  88 H :    0.004836
  89 H :    0.023331
  90 H :    0.013928
  91 H :    0.010979
  92 H :   -0.000235
  93 H :   -0.003059
Sum of atomic charges:    0.0000000

LOEWDIN ATOMIC CHARGES
----------------------
   0 C :    0.036430
   1 C :    0.028505
   2 C :   -0.048715
   3 C :    0.099252
   4 O :   -0.077288
   5 C :   -0.077710
   6 C :    0.012373
   7 C :   -0.040787
   8 N :    0.284606
   9 O :   -0.214025
  10 O :   -0.215805
  11 C :    0.015210
  12 C :   -0.029493
  13 C :    0.044908
  14 C :    0.056997
  15 C :   -0.033084
  16 C :    0.014863
  17 C :   -0.037012
  18 N :    0.286811
  19 O :   -0.219738
  20 O :   -0.205910
  21 C :    0.006210
  22 C :    0.020675
  23 C :   -0.016719
  24 C :    0.074565
  25 N :    0.009454
  26 C :    0.039430
  27 C :   -0.058297
  28 C :    0.079511
  29 O :   -0.187492
  30 C :   -0.102969
  31 C :   -0.104144
  32 C :    0.079549
  33 O :   -0.181348
  34 N :    0.008341
  35 C :    0.039485
  36 C :   -0.058590
  37 C :    0.071393
  38 C :   -0.014712
  39 C :    0.012667
  40 C :   -0.000124
  41 C :   -0.044230
  42 N :    0.286668
  43 O :   -0.220097
  44 O :   -0.207401
  45 C :    0.012966
  46 C :   -0.039463
  47 C :    0.041104
  48 C :    0.049010
  49 C :   -0.032263
  50 C :    0.020581
  51 C :   -0.044689
  52 N :    0.286208
  53 O :   -0.219289
  54 O :   -0.209465
  55 C :    0.011304
  56 C :   -0.010692
  57 C :    0.010013
  58 C :   -0.007101
  59 C :    0.014767
  60 C :   -0.041412
  61 C :    0.072882
  62 O :   -0.101820
  63 C :   -0.040510
  64 H :    0.034658
  65 H :    0.036434
  66 H :    0.035371
  67 H :    0.036667
  68 H :    0.029142
  69 H :    0.031334
  70 H :    0.038548
  71 H :    0.042548
  72 H :    0.028759
  73 H :    0.031845
  74 H :    0.037954
  75 H :    0.024923
  76 H :    0.035222
  77 H :    0.029303
  78 H :    0.031553
  79 H :    0.038863
  80 H :    0.024195
  81 H :    0.035179
  82 H :    0.029598
  83 H :    0.030025
  84 H :    0.040251
  85 H :    0.039588
  86 H :    0.033327
  87 H :    0.030992
  88 H :    0.038648
  89 H :    0.036538
  90 H :    0.037234
  91 H :    0.033012
  92 H :    0.032764
  93 H :    0.031179

  Mayer bond orders larger than 0.100000
B(  0-C ,  1-C ) :   1.0054 B(  0-C ,  5-C ) :   1.6926 B(  0-C , 64-H ) :   0.9991
B(  1-C ,  2-C ) :   1.6961 B(  1-C , 65-H ) :   1.0012 B(  2-C ,  3-C ) :   0.9958
B(  2-C , 66-H ) :   1.0149 B(  3-C ,  4-O ) :   2.1853 B(  3-C ,  5-C ) :   0.8895
B(  5-C ,  6-C ) :   1.0803 B(  6-C ,  7-C ) :   1.5473 B(  6-C , 13-C ) :   1.0419
B(  7-C ,  8-N ) :   0.9519 B(  7-C , 11-C ) :   1.1355 B(  8-N ,  9-O ) :   1.5340
B(  8-N , 10-O ) :   1.4896 B(  9-O , 10-O ) :   0.2575 B( 11-C , 12-C ) :   1.5607
B( 11-C , 67-H ) :   1.0092 B( 12-C , 13-C ) :   1.1451 B( 12-C , 68-H ) :   1.0031
B( 13-C , 14-C ) :   1.4832 B( 14-C , 15-C ) :   1.1370 B( 14-C , 21-C ) :   1.0248
B( 15-C , 16-C ) :   1.5635 B( 15-C , 69-H ) :   0.9911 B( 16-C , 17-C ) :   1.1540
B( 16-C , 70-H ) :   1.0076 B( 17-C , 18-N ) :   0.9593 B( 17-C , 21-C ) :   1.4313
B( 18-N , 19-O ) :   1.4607 B( 18-N , 20-O ) :   1.5424 B( 19-O , 20-O ) :   0.2511
B( 19-O , 72-H ) :   0.1065 B( 21-C , 22-C ) :   1.2019 B( 22-C , 23-C ) :   1.5063
B( 22-C , 71-H ) :   0.9387 B( 23-C , 24-C ) :   1.1962 B( 23-C , 72-H ) :   0.9434
B( 24-C , 25-N ) :   1.1690 B( 24-C , 31-C ) :   1.2532 B( 25-N , 26-C ) :   0.9323
B( 25-N , 28-C ) :   1.0795 B( 26-C , 27-C ) :   1.1242 B( 26-C , 73-H ) :   0.9476
B( 26-C , 74-H ) :   0.9293 B( 27-C , 75-H ) :   0.9680 B( 27-C , 76-H ) :   0.9677
B( 27-C , 77-H ) :   0.9637 B( 28-C , 29-O ) :   2.0185 B( 28-C , 30-C ) :   0.9734
B( 29-O , 84-H ) :   0.1136 B( 30-C , 31-C ) :   1.3311 B( 30-C , 37-C ) :   1.2524
B( 31-C , 32-C ) :   0.9723 B( 32-C , 33-O ) :   2.0305 B( 32-C , 34-N ) :   1.0733
B( 33-O , 71-H ) :   0.1042 B( 34-N , 35-C ) :   0.9335 B( 34-N , 37-C ) :   1.1702
B( 35-C , 36-C ) :   1.1226 B( 35-C , 78-H ) :   0.9482 B( 35-C , 79-H ) :   0.9294
B( 36-C , 80-H ) :   0.9680 B( 36-C , 81-H ) :   0.9681 B( 36-C , 82-H ) :   0.9640
B( 37-C , 38-C ) :   1.1930 B( 38-C , 39-C ) :   1.5086 B( 38-C , 83-H ) :   0.9478
B( 39-C , 40-C ) :   1.1954 B( 39-C , 84-H ) :   0.9348 B( 40-C , 41-C ) :   1.4271
B( 40-C , 47-C ) :   1.0237 B( 41-C , 42-N ) :   0.9617 B( 41-C , 45-C ) :   1.1611
B( 42-N , 43-O ) :   1.4618 B( 42-N , 44-O ) :   1.5389 B( 43-O , 44-O ) :   0.2518
B( 43-O , 83-H ) :   0.1007 B( 45-C , 46-C ) :   1.5400 B( 45-C , 85-H ) :   1.0089
B( 46-C , 47-C ) :   1.1516 B( 46-C , 86-H ) :   1.0015 B( 47-C , 48-C ) :   1.4727
B( 48-C , 49-C ) :   1.1609 B( 48-C , 55-C ) :   1.0115 B( 49-C , 50-C ) :   1.5473
B( 49-C , 87-H ) :   1.0021 B( 50-C , 51-C ) :   1.1446 B( 50-C , 88-H ) :   1.0108
B( 51-C , 52-N ) :   0.9498 B( 51-C , 55-C ) :   1.4991 B( 52-N , 53-O ) :   1.4928
B( 52-N , 54-O ) :   1.5379 B( 53-O , 54-O ) :   0.2593 B( 55-C , 56-C ) :   1.1805
B( 56-C , 57-C ) :   1.5635 B( 56-C , 89-H ) :   0.9484 B( 57-C , 58-C ) :   1.1425
B( 57-C , 90-H ) :   0.9754 B( 58-C , 59-C ) :   1.0004 B( 58-C , 63-C ) :   1.6112
B( 59-C , 60-C ) :   1.7629 B( 59-C , 91-H ) :   0.9990 B( 60-C , 61-C ) :   0.9732
B( 60-C , 92-H ) :   1.0067 B( 61-C , 62-O ) :   2.1781 B( 61-C , 63-C ) :   0.9506
B( 63-C , 93-H ) :   1.0215

-----------------------------------------------------------------------------
         ABSORPTION SPECTRUM VIA TRANSITION ELECTRIC DIPOLE MOMENTS
-----------------------------------------------------------------------------
State   Energy  Wavelength   fosc         T2         TX        TY        TZ
        (cm-1)    (nm)                  (au**2)     (au)      (au)      (au)
-----------------------------------------------------------------------------
   0    4528.8   2208.1   0.248599746  18.07138   1.75519   3.83091  -0.56108
   1    8670.6   1153.3   0.011053559   0.41969  -0.31975  -0.49494   0.26924
   2   10947.5    913.5   0.036187065   1.08821  -0.55163  -0.13373  -0.87523
   3   12119.1    825.1   0.023546490   0.63964   0.35858  -0.46447  -0.54344
   4   16354.7    611.4   0.067985035   1.36850   0.68658   0.21563  -0.92229
   5   16754.2    596.9   0.123551658   2.42773   0.38193   0.22931  -1.49308
   6   17508.2    571.2   0.037243277   0.70030  -0.33432  -0.76709  -0.00957
   7   19065.4    524.5   0.034461034   0.59506  -0.21825   0.72586  -0.14337
   8   20417.3    489.8   0.008896477   0.14345  -0.29326   0.23878   0.02083
   9   20748.3    482.0   0.029589998   0.46950  -0.61418   0.20198  -0.22692
  10   20996.8    476.3   0.114652022   1.79765  -0.33882  -0.58524  -1.15773
  11   21742.9    459.9   0.021680600   0.32827  -0.53301  -0.06610  -0.19951
  12   22081.5    452.9   0.016867424   0.25148  -0.07355  -0.21278   0.44810
  13   22151.6    451.4   0.046875644   0.69665  -0.17604   0.60827  -0.54375
  14   22334.0    447.7   0.008108910   0.11953   0.25314   0.23146   0.04327
  15   22405.0    446.3   0.121078828   1.77909   1.12150   0.71008   0.13081
  16   23314.7    428.9   0.018259694   0.25783  -0.36589  -0.15971   0.31377
  17   23861.3    419.1   0.106532953   1.46983   0.37090   1.15388  -0.02884
  18   24142.5    414.2   0.119666877   1.63180   0.10853   1.24544   0.26251
  19   24826.6    402.8   0.104072167   1.38004  -0.27504  -0.56600   0.99199
  20   25071.3    398.9   0.056506883   0.74199  -0.54223   0.24592  -0.62250
  21   25207.0    396.7   0.120901549   1.57901  -0.37542  -0.26561  -1.16941
  22   25410.0    393.5   0.056959714   0.73797  -0.81643   0.26199   0.05265
  23   25821.7    387.3   0.115097740   1.46743  -0.91506   0.02581   0.79337
  24   26239.8    381.1   0.023563128   0.29563  -0.29223   0.02294   0.45793
  25   26523.4    377.0   0.006609433   0.08204  -0.19408   0.15233  -0.14549
  26   26559.4    376.5   0.008359859   0.10362   0.07454   0.09108  -0.29962
  27   27457.5    364.2   0.010412128   0.12484  -0.09767  -0.33336   0.06459
  28   27559.0    362.9   0.043422930   0.51872  -0.10663  -0.23262   0.67323
  29   27876.4    358.7   0.033815722   0.39935   0.56214  -0.28611   0.03869
  30   27951.1    357.8   0.225775024   2.65921   1.26621  -0.45214  -0.92276
  31   28391.9    352.2   0.036905871   0.42793   0.64479   0.08973  -0.06424
  32   28885.0    346.2   0.110227743   1.25630  -0.30060   0.83100   0.68948
  33   29257.6    341.8   0.000454096   0.00511  -0.05777  -0.01950   0.03730
  34   29403.1    340.1   0.034628273   0.38772   0.07513   0.59201   0.17773
  35   30080.2    332.4   0.138580271   1.51669   0.02660  -0.11196  -1.22615
  36   30264.9    330.4   0.050733859   0.55187   0.59803   0.23313  -0.37401
  37   30431.3    328.6   0.027182695   0.29407   0.10155   0.01837  -0.53237
  38   30772.3    325.0   0.031984569   0.34218   0.24323   0.52097  -0.10774
  39   30921.9    323.4   0.019707456   0.20982  -0.44053   0.01862  -0.12413
  40   30982.0    322.8   0.143739772   1.52737  -0.88653  -0.86095   0.01393
  41   31179.2    320.7   0.007974017   0.08420  -0.04478  -0.07792   0.27590
  42   31438.8    318.1   0.043251965   0.45291   0.42832  -0.06435  -0.51509
  43   31519.6    317.3   0.118149996   1.23404  -0.84839   0.21719   0.68345
  44   31624.5    316.2   0.145077862   1.51026   0.41288  -1.02522  -0.53732
  45   31843.5    314.0   0.025562988   0.26428  -0.32738  -0.32240  -0.23057
  46   31933.4    313.2   0.097066482   1.00069  -0.72495  -0.68609   0.06651
  47   32107.0    311.5   0.109771673   1.12555   0.13737   0.70732  -0.77871
  48   32374.5    308.9   0.029409950   0.29907   0.30169  -0.05201  -0.45315
  49   32716.8    305.7   0.153583400   1.54543   0.16515   0.14793   1.22322
  50   32754.7    305.3   0.057214455   0.57505  -0.00005  -0.18900   0.73439
  51   33195.3    301.2   0.006089602   0.06039  -0.01749   0.12324   0.21189
  52   33229.7    300.9   0.206159921   2.04246   1.41175   0.20664  -0.08205
  53   33411.8    299.3   0.013151305   0.12958  -0.28360   0.16348  -0.14976
  54   33545.2    298.1   0.021346698   0.20950   0.42992   0.15580   0.01985
  55   33629.1    297.4   0.088871098   0.87000  -0.04477  -0.17187   0.91567
  56   33821.5    295.7   0.083764677   0.81535  -0.77719   0.21305   0.40736
  57   33851.6    295.4   0.074233990   0.72194  -0.67609   0.26850   0.43903
  58   34232.8    292.1   0.069764883   0.67092   0.14417  -0.34354   0.72946
  59   34299.1    291.6   0.014063730   0.13499   0.08311  -0.15438   0.32287
  60   34373.2    290.9   0.192101859   1.83987   1.28138   0.00356  -0.44490
  61   34712.6    288.1   0.004856018   0.04605   0.07616   0.01633  -0.19997
  62   35061.2    285.2   0.010034732   0.09422  -0.16027  -0.06269  -0.25418
  63   35156.9    284.4   0.046251246   0.43310   0.15212  -0.50383  -0.39511
  64   35431.2    282.2   0.023247910   0.21601   0.37481   0.26001  -0.08901
  65   35576.9    281.1   0.002006649   0.01857  -0.09287   0.00379   0.09965
  66   36059.8    277.3   0.008012847   0.07315   0.03843   0.18439  -0.19410
  67   36179.3    276.4   0.016102536   0.14652   0.21158   0.18377  -0.26075
  68   36411.8    274.6   0.009296788   0.08406  -0.00512  -0.28141  -0.06956
  69   36774.9    271.9   0.011485545   0.10282  -0.08655   0.18010  -0.25078
  70   36978.5    270.4   0.007290962   0.06491  -0.13833   0.08983   0.19418
  71   37048.9    269.9   0.030091778   0.26739   0.47886  -0.02319  -0.19376
  72   37484.7    266.8   0.148308746   1.30253   0.17128  -0.33263   1.07822
  73   37518.8    266.5   0.067604627   0.59320   0.10817  -0.18484   0.73982
  74   37712.4    265.2   0.055945569   0.48838   0.14587  -0.34842  -0.58796
  75   38219.0    261.6   0.006631573   0.05712  -0.09626  -0.05552  -0.21160
  76   38298.5    261.1   0.018011887   0.15483  -0.37924   0.07150   0.07679
  77   38425.2    260.2   0.017987309   0.15411  -0.01806  -0.08149   0.38359
  78   38526.2    259.6   0.022883924   0.19555   0.17067  -0.09918  -0.39571
  79   38738.2    258.1   0.020625482   0.17528  -0.06932  -0.05933   0.40860
  80   38859.0    257.3   0.032648601   0.27660   0.03064   0.18600   0.49098
  81   39452.6    253.5   0.054741664   0.45679  -0.07677  -0.49480  -0.45395
  82   39498.8    253.2   0.020930911   0.17445   0.10347  -0.06870   0.39878
  83   39570.0    252.7   0.007433701   0.06185   0.22969   0.09182  -0.02567
  84   39786.4    251.3   0.009370437   0.07754   0.25024   0.12146   0.01288
  85   39837.5    251.0   0.053340627   0.44080   0.54695   0.30936   0.21433
  86   40276.1    248.3   0.025012686   0.20445   0.14000   0.26237   0.34060

FINAL SINGLE POINT ENERGY     -2997.847885853179

DIPOLE MOMENT
-------------
                                X             Y             Z
Electronic contribution:     -1.19364       7.66269      -0.50772
Nuclear contribution   :      2.32289      -6.01051       0.93042
                        -----------------------------------------
Total Dipole Moment    :      1.12925       1.65218       0.42270
                        -----------------------------------------
Magnitude (a.u.)       :      2.04538
Magnitude (Debye)      :      5.19895

Rotational constants in cm-1:     0.002116     0.000502     0.000454
Rotational constants in MHz :    63.443276    15.047089    13.601658

                             ****ORCA TERMINATED NORMALLY****
TOTAL RUN TIME: 0 days 0 hours 10 minutes 14 seconds 385 msec
