                         Program Version 4.2.0 -  RELEASE  -
|  1> # ORCA input file
|  2> # SCF done       -189.973414790229          0.000750328756
|  3> ! CAM-B3LYP def2-SVP def2/J RIJCOSX Grid4 TightSCF
|  4> %maxcore 5000
|  5> %tddft
|  6>     Mode sTDDFT
|  7>     Ethresh 5.0
|  8>     maxcore 5000
|  9> end
| 10>
| 11> %pal
| 12>   nprocs 6
| 13>   end
| 14> * xyz 0 1
| 15>    C       -2.47851         2.44328         3.63736
| 16>    C       -2.54122         3.46338         2.69980
| 17>    C       -3.29848         3.33064         1.54406
| 18>    C       -4.02593         2.17620         1.29661
| 19>    C       -3.97448         1.15298         2.22852
| 20>    C       -3.19286         1.27931         3.39947
| 21>    C       -3.29890         0.04893         4.17164
| 22>    C       -2.81308        -0.15224         5.43456
| 23>    C       -2.12233         0.82837         6.17980
| 24>    N       -1.55379         1.57558         6.83928
| 25>    C       -2.96749        -1.33248         6.19310
| 26>    N       -3.06046        -2.25792         6.86632
| 27>    C       -4.02491        -0.90797         3.33776
| 28>    C       -4.63625        -0.14167         2.25443
| 29>    C       -5.78602        -0.45180         1.58110
| 30>    C       -6.55196        -1.61350         1.80776
| 31>    N       -7.22903        -2.52532         1.97492
| 32>    C       -6.40303         0.40504         0.64339
| 33>    N       -6.95390         1.06013        -0.11997
| 34>    C       -3.99379        -2.25978         3.52863
| 35>    C       -4.31327        -3.27621         2.60025
| 36>    C       -4.36247        -3.22460         1.21350
| 37>    C       -4.67902        -4.45425         0.65434
| 38>    C       -4.86244        -5.46584         1.61913
| 39>    S       -4.62863        -4.89888         3.20457
| 40>    C       -5.20023        -6.66601         0.94419
| 41>    C       -5.23562        -6.41326        -0.44034
| 42>    C       -4.91931        -5.01262        -0.66657
| 43>    C       -4.88907        -4.33881        -1.85157
| 44>    C       -5.15028        -4.96563        -3.08870
| 45>    N       -5.35587        -5.46897        -4.09768
| 46>    C       -4.59351        -2.95947        -1.89899
| 47>    N       -4.34894        -1.83924        -1.91411
| 48>    C       -5.56669        -7.54357        -1.18633
| 49>    C       -5.77818        -8.64582        -0.38079
| 50>    S       -5.57084        -8.28737         1.32045
| 51>    C       -6.13742        -9.96047        -0.82895
| 52>    C       -6.33172       -11.04637         0.04228
| 53>    N       -6.70333       -12.22805        -0.38492
| 54>    C       -6.88426       -12.39019        -1.70494
| 55>    C       -6.64702       -11.31600        -2.58014
| 56>    N       -6.29042       -10.13037        -2.15160
| 57>    C       -7.32869       -13.68057        -2.14726
| 58>    C       -7.57151       -14.77702        -1.34264
| 59>    C       -8.02522       -15.86983        -2.08015
| 60>    C       -8.12243       -15.59422        -3.45737
| 61>    S       -7.65283       -13.99990        -3.83810
| 62>    C       -8.60857       -16.74852        -4.12130
| 63>    C       -8.82467       -17.75382        -3.15658
| 64>    C       -8.44810       -17.24133        -1.84878
| 65>    C       -8.46272       -17.92916        -0.67159
| 66>    C       -8.88190       -19.27596        -0.61909
| 67>    N       -9.23044       -20.36826        -0.59909
| 68>    C       -8.06319       -17.35007         0.55176
| 69>    N       -7.74621       -16.88258         1.54893
| 70>    C       -9.30648       -18.93406        -3.70377
| 71>    C       -9.45197       -18.85212        -5.08259
| 72>    S       -9.00939       -17.26093        -5.69164
| 73>    C       -9.95821       -19.80374        -5.99572
| 74>    C      -10.09590       -21.15146        -5.82214
| 75>    C      -11.00105       -21.98312        -6.61417
| 76>    C      -11.53848       -21.69229        -7.83815
| 77>    C      -11.27356       -20.53028        -8.59432
| 78>    N      -11.09973       -19.61362        -9.26364
| 79>    C      -12.40859       -22.55305        -8.54249
| 80>    N      -13.11722       -23.20250        -9.16914
| 81>    C      -11.22415       -23.20233        -5.84928
| 82>    C      -10.35444       -23.20835        -4.73509
| 83>    C      -10.38218       -24.24728        -3.81976
| 84>    C      -11.27882       -25.28478        -4.02686
| 85>    C      -12.12493       -25.28831        -5.12723
| 86>    C      -12.10864       -24.25108        -6.04783
| 87>    C       -9.52430       -22.01562        -4.79267
| 88>    C       -8.30074       -21.87724        -4.19648
| 89>    C       -7.74324       -22.83100        -3.31688
| 90>    N       -7.23714       -23.57161        -2.60221
| 91>    C       -7.40410       -20.82194        -4.46053
| 92>    N       -6.62796       -20.00119        -4.66509
| 93>    H       -1.87749         2.56096         4.52390
| 94>    H       -1.98529         4.37217         2.87221
| 95>    H       -3.32119         4.13473         0.82478
| 96>    H       -4.60123         2.07759         0.39044
| 97>    H       -3.62347        -2.62017         4.47920
| 98>    H       -4.13425        -2.33891         0.64904
| 99>    H       -5.65730        -7.59626        -2.25566
|100>    H       -6.18611       -10.94710         1.11023
|101>    H       -6.75497       -11.42552        -3.65155
|102>    H       -7.42060       -14.74546        -0.27929
|103>    H       -9.58662       -19.80010        -3.13239
|104>    H      -10.34149       -19.38058        -6.91484
|105>    H       -9.73789       -24.24733        -2.95560
|106>    H      -11.31924       -26.09839        -3.31915
|107>    H      -12.81310       -26.10749        -5.26880
|108>    H      -12.77974       -24.26663        -6.89070
|109> *
|110>
|111>                          ****END OF INPUT****

CARTESIAN COORDINATES (ANGSTROEM)
---------------------------------
  C     -2.478510    2.443280    3.637360
  C     -2.541220    3.463380    2.699800
  C     -3.298480    3.330640    1.544060
  C     -4.025930    2.176200    1.296610
  C     -3.974480    1.152980    2.228520
  C     -3.192860    1.279310    3.399470
  C     -3.298900    0.048930    4.171640
  C     -2.813080   -0.152240    5.434560
  C     -2.122330    0.828370    6.179800
  N     -1.553790    1.575580    6.839280
  C     -2.967490   -1.332480    6.193100
  N     -3.060460   -2.257920    6.866320
  C     -4.024910   -0.907970    3.337760
  C     -4.636250   -0.141670    2.254430
  C     -5.786020   -0.451800    1.581100
  C     -6.551960   -1.613500    1.807760
  N     -7.229030   -2.525320    1.974920
  C     -6.403030    0.405040    0.643390
  N     -6.953900    1.060130   -0.119970
  C     -3.993790   -2.259780    3.528630
  C     -4.313270   -3.276210    2.600250
  C     -4.362470   -3.224600    1.213500
  C     -4.679020   -4.454250    0.654340
  C     -4.862440   -5.465840    1.619130
  S     -4.628630   -4.898880    3.204570
  C     -5.200230   -6.666010    0.944190
  C     -5.235620   -6.413260   -0.440340
  C     -4.919310   -5.012620   -0.666570
  C     -4.889070   -4.338810   -1.851570
  C     -5.150280   -4.965630   -3.088700
  N     -5.355870   -5.468970   -4.097680
  C     -4.593510   -2.959470   -1.898990
  N     -4.348940   -1.839240   -1.914110
  C     -5.566690   -7.543570   -1.186330
  C     -5.778180   -8.645820   -0.380790
  S     -5.570840   -8.287370    1.320450
  C     -6.137420   -9.960470   -0.828950
  C     -6.331720  -11.046370    0.042280
  N     -6.703330  -12.228050   -0.384920
  C     -6.884260  -12.390190   -1.704940
  C     -6.647020  -11.316000   -2.580140
  N     -6.290420  -10.130370   -2.151600
  C     -7.328690  -13.680570   -2.147260
  C     -7.571510  -14.777020   -1.342640
  C     -8.025220  -15.869830   -2.080150
  C     -8.122430  -15.594220   -3.457370
  S     -7.652830  -13.999900   -3.838100
  C     -8.608570  -16.748520   -4.121300
  C     -8.824670  -17.753820   -3.156580
  C     -8.448100  -17.241330   -1.848780
  C     -8.462720  -17.929160   -0.671590
  C     -8.881900  -19.275960   -0.619090
  N     -9.230440  -20.368260   -0.599090
  C     -8.063190  -17.350070    0.551760
  N     -7.746210  -16.882580    1.548930
  C     -9.306480  -18.934060   -3.703770
  C     -9.451970  -18.852120   -5.082590
  S     -9.009390  -17.260930   -5.691640
  C     -9.958210  -19.803740   -5.995720
  C    -10.095900  -21.151460   -5.822140
  C    -11.001050  -21.983120   -6.614170
  C    -11.538480  -21.692290   -7.838150
  C    -11.273560  -20.530280   -8.594320
  N    -11.099730  -19.613620   -9.263640
  C    -12.408590  -22.553050   -8.542490
  N    -13.117220  -23.202500   -9.169140
  C    -11.224150  -23.202330   -5.849280
  C    -10.354440  -23.208350   -4.735090
  C    -10.382180  -24.247280   -3.819760
  C    -11.278820  -25.284780   -4.026860
  C    -12.124930  -25.288310   -5.127230
  C    -12.108640  -24.251080   -6.047830
  C     -9.524300  -22.015620   -4.792670
  C     -8.300740  -21.877240   -4.196480
  C     -7.743240  -22.831000   -3.316880
  N     -7.237140  -23.571610   -2.602210
  C     -7.404100  -20.821940   -4.460530
  N     -6.627960  -20.001190   -4.665090
  H     -1.877490    2.560960    4.523900
  H     -1.985290    4.372170    2.872210
  H     -3.321190    4.134730    0.824780
  H     -4.601230    2.077590    0.390440
  H     -3.623470   -2.620170    4.479200
  H     -4.134250   -2.338910    0.649040
  H     -5.657300   -7.596260   -2.255660
  H     -6.186110  -10.947100    1.110230
  H     -6.754970  -11.425520   -3.651550
  H     -7.420600  -14.745460   -0.279290
  H     -9.586620  -19.800100   -3.132390
  H    -10.341490  -19.380580   -6.914840
  H     -9.737890  -24.247330   -2.955600
  H    -11.319240  -26.098390   -3.319150
  H    -12.813100  -26.107490   -5.268800
  H    -12.779740  -24.266630   -6.890700

 Total Charge           Charge          ....    0
 Multiplicity           Mult            ....    1
 Number of Electrons    NEL             ....  538
 Basis Dimension        Dim             .... 1188

ORBITAL ENERGIES
----------------

  NO   OCC          E(Eh)            E(eV)
   0   2.0000     -89.008882     -2422.0548
   1   2.0000     -89.008742     -2422.0510
   2   2.0000     -89.008139     -2422.0346
   3   2.0000     -89.008027     -2422.0315
   4   2.0000     -14.448691      -393.1689
   5   2.0000     -14.448549      -393.1650
   6   2.0000     -14.444039      -393.0423
   7   2.0000     -14.444006      -393.0414
   8   2.0000     -14.440564      -392.9477
   9   2.0000     -14.440537      -392.9470
  10   2.0000     -14.430873      -392.6840
  11   2.0000     -14.430725      -392.6800
  12   2.0000     -14.430653      -392.6780
  13   2.0000     -14.430499      -392.6738
  14   2.0000     -14.426052      -392.5528
  15   2.0000     -14.425774      -392.5453
  16   2.0000     -14.425668      -392.5424
  17   2.0000     -14.425309      -392.5326
  18   2.0000     -10.378952      -282.4256
  19   2.0000     -10.378924      -282.4249
  20   2.0000     -10.365702      -282.0651
  21   2.0000     -10.365638      -282.0634
  22   2.0000     -10.359989      -281.9096
  23   2.0000     -10.359769      -281.9036
  24   2.0000     -10.358090      -281.8580
  25   2.0000     -10.357765      -281.8491
  26   2.0000     -10.356748      -281.8214
  27   2.0000     -10.356452      -281.8134
  28   2.0000     -10.356136      -281.8048
  29   2.0000     -10.355904      -281.7985
  30   2.0000     -10.355738      -281.7940
  31   2.0000     -10.355716      -281.7934
  32   2.0000     -10.352698      -281.7112
  33   2.0000     -10.352683      -281.7108
  34   2.0000     -10.349831      -281.6332
  35   2.0000     -10.349776      -281.6317
  36   2.0000     -10.344088      -281.4770
  37   2.0000     -10.344039      -281.4756
  38   2.0000     -10.342644      -281.4376
  39   2.0000     -10.342587      -281.4361
  40   2.0000     -10.341883      -281.4170
  41   2.0000     -10.341803      -281.4148
  42   2.0000     -10.341381      -281.4033
  43   2.0000     -10.341098      -281.3956
  44   2.0000     -10.340095      -281.3683
  45   2.0000     -10.340051      -281.3671
  46   2.0000     -10.338363      -281.3212
  47   2.0000     -10.338175      -281.3161
  48   2.0000     -10.332836      -281.1708
  49   2.0000     -10.332615      -281.1647
  50   2.0000     -10.331766      -281.1417
  51   2.0000     -10.331394      -281.1315
  52   2.0000     -10.330545      -281.1084
  53   2.0000     -10.330110      -281.0966
  54   2.0000     -10.328462      -281.0517
  55   2.0000     -10.328208      -281.0448
  56   2.0000     -10.327418      -281.0233
  57   2.0000     -10.327031      -281.0128
  58   2.0000     -10.325097      -280.9602
  59   2.0000     -10.324971      -280.9568
  60   2.0000     -10.321886      -280.8728
  61   2.0000     -10.321679      -280.8672
  62   2.0000     -10.320790      -280.8430
  63   2.0000     -10.320693      -280.8403
  64   2.0000     -10.319689      -280.8130
  65   2.0000     -10.319342      -280.8036
  66   2.0000     -10.319254      -280.8012
  67   2.0000     -10.318939      -280.7926
  68   2.0000     -10.314823      -280.6806
  69   2.0000     -10.314639      -280.6756
  70   2.0000     -10.306882      -280.4645
  71   2.0000     -10.306708      -280.4598
  72   2.0000     -10.306567      -280.4559
  73   2.0000     -10.306380      -280.4508
  74   2.0000     -10.305527      -280.4276
  75   2.0000     -10.305231      -280.4196
  76   2.0000     -10.304779      -280.4073
  77   2.0000     -10.304525      -280.4004
  78   2.0000      -8.103342      -220.5031
  79   2.0000      -8.103300      -220.5020
  80   2.0000      -8.102537      -220.4812
  81   2.0000      -8.102455      -220.4790
  82   2.0000      -6.072506      -165.2413
  83   2.0000      -6.072460      -165.2400
  84   2.0000      -6.071719      -165.2199
  85   2.0000      -6.071634      -165.2176
  86   2.0000      -6.068291      -165.1266
  87   2.0000      -6.068255      -165.1256
  88   2.0000      -6.067578      -165.1072
  89   2.0000      -6.067500      -165.1051
  90   2.0000      -6.065920      -165.0621
  91   2.0000      -6.065831      -165.0596
  92   2.0000      -6.065061      -165.0387
  93   2.0000      -6.064963      -165.0360
  94   2.0000      -1.107011       -30.1233
  95   2.0000      -1.062719       -28.9181
  96   2.0000      -1.061920       -28.8963
  97   2.0000      -1.044578       -28.4244
  98   2.0000      -1.044252       -28.4155
  99   2.0000      -1.035375       -28.1740
 100   2.0000      -1.034530       -28.1510
 101   2.0000      -1.030936       -28.0532
 102   2.0000      -1.025963       -27.9179
 103   2.0000      -1.025592       -27.9078
 104   2.0000      -1.019666       -27.7465
 105   2.0000      -1.019524       -27.7427
 106   2.0000      -1.015561       -27.6348
 107   2.0000      -1.015234       -27.6259
 108   2.0000      -1.014442       -27.6044
 109   2.0000      -1.012897       -27.5623
 110   2.0000      -1.006497       -27.3882
 111   2.0000      -1.006202       -27.3801
 112   2.0000      -1.005062       -27.3491
 113   2.0000      -1.004757       -27.3408
 114   2.0000      -0.977269       -26.5929
 115   2.0000      -0.975782       -26.5524
 116   2.0000      -0.964950       -26.2576
 117   2.0000      -0.964712       -26.2512
 118   2.0000      -0.948340       -25.8056
 119   2.0000      -0.948027       -25.7971
 120   2.0000      -0.938213       -25.5301
 121   2.0000      -0.932937       -25.3865
 122   2.0000      -0.914367       -24.8812
 123   2.0000      -0.904935       -24.6245
 124   2.0000      -0.901884       -24.5415
 125   2.0000      -0.897586       -24.4246
 126   2.0000      -0.895154       -24.3584
 127   2.0000      -0.884617       -24.0716
 128   2.0000      -0.875661       -23.8280
 129   2.0000      -0.873900       -23.7800
 130   2.0000      -0.872750       -23.7487
 131   2.0000      -0.872395       -23.7391
 132   2.0000      -0.872132       -23.7319
 133   2.0000      -0.843989       -22.9661
 134   2.0000      -0.826558       -22.4918
 135   2.0000      -0.816152       -22.2086
 136   2.0000      -0.799233       -21.7482
 137   2.0000      -0.798879       -21.7386
 138   2.0000      -0.794933       -21.6312
 139   2.0000      -0.792769       -21.5723
 140   2.0000      -0.781710       -21.2714
 141   2.0000      -0.771214       -20.9858
 142   2.0000      -0.763803       -20.7841
 143   2.0000      -0.735459       -20.0129
 144   2.0000      -0.729607       -19.8536
 145   2.0000      -0.723588       -19.6898
 146   2.0000      -0.722295       -19.6547
 147   2.0000      -0.721273       -19.6268
 148   2.0000      -0.721048       -19.6207
 149   2.0000      -0.717606       -19.5271
 150   2.0000      -0.711841       -19.3702
 151   2.0000      -0.698275       -19.0010
 152   2.0000      -0.694678       -18.9031
 153   2.0000      -0.691796       -18.8247
 154   2.0000      -0.686851       -18.6902
 155   2.0000      -0.674734       -18.3604
 156   2.0000      -0.673894       -18.3376
 157   2.0000      -0.672446       -18.2982
 158   2.0000      -0.671675       -18.2772
 159   2.0000      -0.662434       -18.0257
 160   2.0000      -0.657977       -17.9045
 161   2.0000      -0.653853       -17.7922
 162   2.0000      -0.646894       -17.6029
 163   2.0000      -0.640728       -17.4351
 164   2.0000      -0.634053       -17.2535
 165   2.0000      -0.631343       -17.1797
 166   2.0000      -0.621724       -16.9180
 167   2.0000      -0.620414       -16.8823
 168   2.0000      -0.616229       -16.7684
 169   2.0000      -0.605987       -16.4897
 170   2.0000      -0.593833       -16.1590
 171   2.0000      -0.593524       -16.1506
 172   2.0000      -0.590886       -16.0788
 173   2.0000      -0.588271       -16.0077
 174   2.0000      -0.579854       -15.7786
 175   2.0000      -0.578277       -15.7357
 176   2.0000      -0.566715       -15.4211
 177   2.0000      -0.564057       -15.3488
 178   2.0000      -0.559756       -15.2317
 179   2.0000      -0.556574       -15.1452
 180   2.0000      -0.555369       -15.1124
 181   2.0000      -0.552371       -15.0308
 182   2.0000      -0.551280       -15.0011
 183   2.0000      -0.547162       -14.8890
 184   2.0000      -0.545618       -14.8470
 185   2.0000      -0.543077       -14.7779
 186   2.0000      -0.539977       -14.6935
 187   2.0000      -0.536310       -14.5937
 188   2.0000      -0.535500       -14.5717
 189   2.0000      -0.526012       -14.3135
 190   2.0000      -0.524217       -14.2647
 191   2.0000      -0.520508       -14.1637
 192   2.0000      -0.520070       -14.1518
 193   2.0000      -0.517306       -14.0766
 194   2.0000      -0.517056       -14.0698
 195   2.0000      -0.515079       -14.0160
 196   2.0000      -0.514345       -13.9960
 197   2.0000      -0.510762       -13.8985
 198   2.0000      -0.510157       -13.8821
 199   2.0000      -0.506538       -13.7836
 200   2.0000      -0.504193       -13.7198
 201   2.0000      -0.502600       -13.6765
 202   2.0000      -0.499948       -13.6043
 203   2.0000      -0.489453       -13.3187
 204   2.0000      -0.488363       -13.2890
 205   2.0000      -0.486407       -13.2358
 206   2.0000      -0.485983       -13.2243
 207   2.0000      -0.473632       -12.8882
 208   2.0000      -0.473509       -12.8848
 209   2.0000      -0.472356       -12.8535
 210   2.0000      -0.470952       -12.8153
 211   2.0000      -0.469952       -12.7880
 212   2.0000      -0.469520       -12.7763
 213   2.0000      -0.467641       -12.7252
 214   2.0000      -0.465759       -12.6739
 215   2.0000      -0.465272       -12.6607
 216   2.0000      -0.465001       -12.6533
 217   2.0000      -0.462330       -12.5806
 218   2.0000      -0.461812       -12.5665
 219   2.0000      -0.461043       -12.5456
 220   2.0000      -0.460788       -12.5387
 221   2.0000      -0.459244       -12.4967
 222   2.0000      -0.458417       -12.4742
 223   2.0000      -0.456537       -12.4230
 224   2.0000      -0.454636       -12.3713
 225   2.0000      -0.454022       -12.3546
 226   2.0000      -0.452989       -12.3265
 227   2.0000      -0.452664       -12.3176
 228   2.0000      -0.451821       -12.2947
 229   2.0000      -0.451789       -12.2938
 230   2.0000      -0.450727       -12.2649
 231   2.0000      -0.450615       -12.2619
 232   2.0000      -0.449979       -12.2446
 233   2.0000      -0.443528       -12.0690
 234   2.0000      -0.440571       -11.9885
 235   2.0000      -0.439765       -11.9666
 236   2.0000      -0.439256       -11.9528
 237   2.0000      -0.438405       -11.9296
 238   2.0000      -0.438365       -11.9285
 239   2.0000      -0.438069       -11.9205
 240   2.0000      -0.437703       -11.9105
 241   2.0000      -0.436295       -11.8722
 242   2.0000      -0.434615       -11.8265
 243   2.0000      -0.431961       -11.7543
 244   2.0000      -0.423717       -11.5299
 245   2.0000      -0.423001       -11.5104
 246   2.0000      -0.422113       -11.4863
 247   2.0000      -0.421890       -11.4802
 248   2.0000      -0.418551       -11.3894
 249   2.0000      -0.418298       -11.3825
 250   2.0000      -0.409358       -11.1392
 251   2.0000      -0.404583       -11.0093
 252   2.0000      -0.396030       -10.7765
 253   2.0000      -0.392219       -10.6728
 254   2.0000      -0.391814       -10.6618
 255   2.0000      -0.382936       -10.4202
 256   2.0000      -0.364604        -9.9214
 257   2.0000      -0.363997        -9.9049
 258   2.0000      -0.358494        -9.7551
 259   2.0000      -0.350355        -9.5336
 260   2.0000      -0.342060        -9.3079
 261   2.0000      -0.340811        -9.2739
 262   2.0000      -0.339549        -9.2396
 263   2.0000      -0.336396        -9.1538
 264   2.0000      -0.334342        -9.0979
 265   2.0000      -0.321602        -8.7512
 266   2.0000      -0.313145        -8.5211
 267   2.0000      -0.286199        -7.7879
 268   2.0000      -0.267102        -7.2682
 269   0.0000      -0.128486        -3.4963
 270   0.0000      -0.121399        -3.3034
 271   0.0000      -0.102216        -2.7814
 272   0.0000      -0.101076        -2.7504
 273   0.0000      -0.094095        -2.5604

MULLIKEN ATOMIC CHARGES
-----------------------
   0 C :   -0.033085
   1 C :    0.048409
   2 C :    0.046367
   3 C :   -0.026603
   4 C :   -0.000533
   5 C :    0.017331
   6 C :    0.287698
   7 C :   -0.343803
   8 C :   -0.185528
   9 N :    0.163834
  10 C :   -0.178462
  11 N :    0.154779
  12 C :   -0.068830
  13 C :    0.226149
  14 C :   -0.331477
  15 C :   -0.195968
  16 N :    0.178945
  17 C :   -0.177396
  18 N :    0.175771
  19 C :    0.087139
  20 C :   -0.142484
  21 C :    0.000984
  22 C :   -0.007264
  23 C :   -0.063563
  24 S :    0.234308
  25 C :   -0.101186
  26 C :    0.034744
  27 C :    0.302117
  28 C :   -0.283300
  29 C :   -0.190604
  30 N :    0.187767
  31 C :   -0.182199
  32 N :    0.168265
  33 C :   -0.042242
  34 C :   -0.041771
  35 S :    0.198693
  36 C :   -0.007371
  37 C :   -0.011511
  38 N :   -0.023051
  39 C :   -0.008402
  40 C :   -0.011390
  41 N :   -0.023187
  42 C :   -0.041941
  43 C :   -0.041118
  44 C :    0.034474
  45 C :   -0.101226
  46 S :    0.198020
  47 C :   -0.064074
  48 C :   -0.004921
  49 C :    0.300883
  50 C :   -0.286535
  51 C :   -0.183144
  52 N :    0.170501
  53 C :   -0.190240
  54 N :    0.189664
  55 C :    0.000271
  56 C :   -0.138308
  57 S :    0.233941
  58 C :    0.086328
  59 C :   -0.071147
  60 C :    0.288231
  61 C :   -0.340896
  62 C :   -0.179553
  63 N :    0.153587
  64 C :   -0.185154
  65 N :    0.162762
  66 C :    0.017761
  67 C :   -0.000512
  68 C :   -0.025990
  69 C :    0.046675
  70 C :    0.045933
  71 C :   -0.033469
  72 C :    0.225559
  73 C :   -0.330072
  74 C :   -0.177160
  75 N :    0.174749
  76 C :   -0.195871
  77 N :    0.178472
  78 H :    0.008359
  79 H :    0.006427
  80 H :    0.009512
  81 H :    0.015389
  82 H :    0.014301
  83 H :    0.030567
  84 H :    0.024332
  85 H :    0.016463
  86 H :    0.016939
  87 H :    0.024052
  88 H :    0.029920
  89 H :    0.013507
  90 H :    0.015946
  91 H :    0.009339
  92 H :    0.007359
  93 H :    0.009018
Sum of atomic charges:   -0.0000000

LOEWDIN ATOMIC CHARGES
----------------------
   0 C :    0.005825
   1 C :    0.003997
   2 C :    0.007522
   3 C :    0.006038
   4 C :   -0.009963
   5 C :   -0.013688
   6 C :    0.078877
   7 C :   -0.132548
   8 C :   -0.019435
   9 N :   -0.042749
  10 C :   -0.021602
  11 N :   -0.044162
  12 C :   -0.052792
  13 C :    0.065893
  14 C :   -0.125996
  15 C :   -0.017503
  16 N :   -0.040022
  17 C :   -0.020344
  18 N :   -0.035137
  19 C :    0.034233
  20 C :   -0.180928
  21 C :    0.006516
  22 C :   -0.063460
  23 C :   -0.157487
  24 S :    0.515870
  25 C :   -0.179876
  26 C :   -0.056600
  27 C :    0.079366
  28 C :   -0.092742
  29 C :   -0.019269
  30 N :   -0.020293
  31 C :   -0.011864
  32 N :   -0.030751
  33 C :   -0.002966
  34 C :   -0.171040
  35 S :    0.491790
  36 C :   -0.027766
  37 C :    0.006518
  38 N :   -0.035025
  39 C :   -0.028014
  40 C :    0.006528
  41 N :   -0.034945
  42 C :   -0.170714
  43 C :   -0.003026
  44 C :   -0.056448
  45 C :   -0.180146
  46 S :    0.491884
  47 C :   -0.157716
  48 C :   -0.063441
  49 C :    0.079178
  50 C :   -0.092733
  51 C :   -0.012005
  52 N :   -0.030286
  53 C :   -0.019330
  54 N :   -0.020185
  55 C :    0.007391
  56 C :   -0.180432
  57 S :    0.515867
  58 C :    0.033635
  59 C :   -0.053042
  60 C :    0.079096
  61 C :   -0.132646
  62 C :   -0.021659
  63 N :   -0.044309
  64 C :   -0.019378
  65 N :   -0.042998
  66 C :   -0.013867
  67 C :   -0.010091
  68 C :    0.005881
  69 C :    0.007368
  70 C :    0.003639
  71 C :    0.005785
  72 C :    0.065450
  73 C :   -0.125957
  74 C :   -0.020226
  75 N :   -0.035026
  76 C :   -0.017503
  77 N :   -0.039253
  78 H :    0.042135
  79 H :    0.038731
  80 H :    0.039395
  81 H :    0.044020
  82 H :    0.045934
  83 H :    0.042628
  84 H :    0.047662
  85 H :    0.023159
  86 H :    0.023173
  87 H :    0.047691
  88 H :    0.042546
  89 H :    0.045774
  90 H :    0.044045
  91 H :    0.039348
  92 H :    0.038832
  93 H :    0.042156

  Mayer bond orders larger than 0.100000
B(  0-C ,  1-C ) :   1.3732 B(  0-C ,  5-C ) :   1.3807 B(  0-C , 78-H ) :   0.9835
B(  1-C ,  2-C ) :   1.3764 B(  1-C , 79-H ) :   0.9854 B(  2-C ,  3-C ) :   1.3690
B(  2-C , 80-H ) :   0.9858 B(  3-C ,  4-C ) :   1.3823 B(  3-C , 81-H ) :   0.9867
B(  4-C ,  5-C ) :   1.3110 B(  4-C , 13-C ) :   1.0088 B(  5-C ,  6-C ) :   0.9995
B(  6-C ,  7-C ) :   1.6452 B(  6-C , 12-C ) :   1.0554 B(  7-C ,  8-C ) :   1.1454
B(  7-C , 10-C ) :   1.1331 B(  8-C ,  9-N ) :   2.9802 B( 10-C , 11-N ) :   2.9714
B( 12-C , 13-C ) :   1.0088 B( 12-C , 19-C ) :   1.6424 B( 13-C , 14-C ) :   1.6653
B( 14-C , 15-C ) :   1.1607 B( 14-C , 17-C ) :   1.1360 B( 15-C , 16-N ) :   3.0046
B( 17-C , 18-N ) :   3.0009 B( 19-C , 20-C ) :   1.1725 B( 19-C , 82-H ) :   0.9108
B( 20-C , 21-C ) :   1.3864 B( 20-C , 24-S ) :   1.1002 B( 21-C , 22-C ) :   1.3628
B( 21-C , 83-H ) :   0.9809 B( 22-C , 23-C ) :   1.4073 B( 22-C , 27-C ) :   0.9974
B( 23-C , 24-S ) :   1.1586 B( 23-C , 25-C ) :   1.1968 B( 25-C , 26-C ) :   1.4303
B( 25-C , 35-S ) :   1.1301 B( 26-C , 27-C ) :   0.9911 B( 26-C , 33-C ) :   1.2557
B( 27-C , 28-C ) :   1.7240 B( 28-C , 29-C ) :   1.1321 B( 28-C , 31-C ) :   1.1336
B( 29-C , 30-N ) :   3.0002 B( 31-C , 32-N ) :   2.9762 B( 33-C , 34-C ) :   1.4669
B( 33-C , 84-H ) :   1.0093 B( 34-C , 35-S ) :   1.1190 B( 34-C , 36-C ) :   1.0670
B( 36-C , 37-C ) :   1.2901 B( 36-C , 41-N ) :   1.5473 B( 37-C , 38-N ) :   1.6096
B( 37-C , 85-H ) :   0.9761 B( 38-N , 39-C ) :   1.5482 B( 39-C , 40-C ) :   1.2899
B( 39-C , 42-C ) :   1.0669 B( 40-C , 41-N ) :   1.6099 B( 40-C , 86-H ) :   0.9760
B( 42-C , 43-C ) :   1.4665 B( 42-C , 46-S ) :   1.1197 B( 43-C , 44-C ) :   1.2565
B( 43-C , 87-H ) :   1.0093 B( 44-C , 45-C ) :   1.4299 B( 44-C , 49-C ) :   0.9906
B( 45-C , 46-S ) :   1.1299 B( 45-C , 47-C ) :   1.1970 B( 47-C , 48-C ) :   1.4053
B( 47-C , 57-S ) :   1.1600 B( 48-C , 49-C ) :   0.9963 B( 48-C , 55-C ) :   1.3661
B( 49-C , 50-C ) :   1.7250 B( 50-C , 51-C ) :   1.1341 B( 50-C , 53-C ) :   1.1324
B( 51-C , 52-N ) :   2.9776 B( 53-C , 54-N ) :   3.0015 B( 55-C , 56-C ) :   1.3831
B( 55-C , 88-H ) :   0.9799 B( 56-C , 57-S ) :   1.0997 B( 56-C , 58-C ) :   1.1775
B( 58-C , 59-C ) :   1.6388 B( 58-C , 89-H ) :   0.9099 B( 59-C , 60-C ) :   1.0561
B( 59-C , 72-C ) :   1.0119 B( 60-C , 61-C ) :   1.6439 B( 60-C , 66-C ) :   1.0004
B( 61-C , 62-C ) :   1.1332 B( 61-C , 64-C ) :   1.1449 B( 62-C , 63-N ) :   2.9709
B( 64-C , 65-N ) :   2.9800 B( 66-C , 67-C ) :   1.3099 B( 66-C , 71-C ) :   1.3806
B( 67-C , 68-C ) :   1.3843 B( 67-C , 72-C ) :   1.0071 B( 68-C , 69-C ) :   1.3680
B( 68-C , 90-H ) :   0.9869 B( 69-C , 70-C ) :   1.3753 B( 69-C , 91-H ) :   0.9863
B( 70-C , 71-C ) :   1.3730 B( 70-C , 92-H ) :   0.9860 B( 71-C , 93-H ) :   0.9840
B( 72-C , 73-C ) :   1.6646 B( 73-C , 74-C ) :   1.1352 B( 73-C , 76-C ) :   1.1613
B( 74-C , 75-N ) :   3.0007 B( 76-C , 77-N ) :   3.0039

-----------------------------------------------------------------------------
         ABSORPTION SPECTRUM VIA TRANSITION ELECTRIC DIPOLE MOMENTS
-----------------------------------------------------------------------------
State   Energy  Wavelength   fosc         T2         TX        TY        TZ
        (cm-1)    (nm)                  (au**2)     (au)      (au)      (au)
-----------------------------------------------------------------------------
   0   13823.7    723.4   0.826357493  19.67979   1.07298   3.93533   1.74404
   1   14645.6    682.8   0.001041085   0.02340  -0.13552   0.06831   0.01921
   2   19220.3    520.3   1.557833217  26.68312   0.87762   4.69142   1.97572
   3   20237.3    494.1   0.009891630   0.16091  -0.33202  -0.19578  -0.11110
   4   22748.5    439.6   0.000172526   0.00250   0.02140  -0.03639  -0.02673
   5   23169.5    431.6   0.466922799   6.63443  -1.54511  -1.28536  -1.61088
   6   23488.6    425.7   0.002773334   0.03887   0.17791  -0.08427  -0.01076
   7   23886.2    418.7   0.078755288   1.08545  -0.16801  -0.13584  -1.01920
   8   26479.4    377.7   0.019819005   0.24641  -0.36072  -0.23930  -0.24295
   9   26585.0    376.2   0.000687975   0.00852  -0.05841   0.06530   0.02905
  10   27404.6    364.9   0.590555876   7.09436  -1.04167  -2.44802  -0.12850
  11   28625.2    349.3   0.000145749   0.00168   0.03466   0.01573  -0.01507
  12   29585.3    338.0   0.242098146   2.69396   0.27902   1.31029  -0.94830
  13   30023.6    333.1   0.000862234   0.00945  -0.01258   0.07334   0.06259
  14   30131.3    331.9   0.013151125   0.14369  -0.07131   0.04024   0.37011
  15   30152.7    331.6   0.059709718   0.65192   0.42881  -0.03157  -0.68341
  16   30518.8    327.7   0.005332517   0.05752   0.08395  -0.21801   0.05430
  17   30610.5    326.7   0.394877296   4.24685  -0.16683  -1.71116   1.13619
  18   30900.2    323.6   0.000565901   0.00603   0.02815  -0.00379  -0.07227
  19   31172.1    320.8   0.461752807   4.87663  -0.78805  -0.42415  -2.01884
  20   31706.0    315.4   0.041368223   0.42954   0.24481  -0.60578  -0.05140
  21   31997.8    312.5   0.001286780   0.01324  -0.11026   0.03244   0.00541
  22   32568.6    307.0   0.799996477   8.08658  -1.78555  -1.19603  -1.86223
  23   32707.0    305.7   0.004066761   0.04093   0.12994  -0.15221   0.02970
  24   32912.7    303.8   0.008380554   0.08383   0.09982  -0.10661   0.24999
  25   33015.1    302.9   0.348304693   3.47314  -0.68552   1.34462  -1.09325
  26   33627.6    297.4   0.049056548   0.48026  -0.44522  -0.07709  -0.52545
  27   33670.0    297.0   0.301630555   2.94922  -1.26567   0.01327  -1.16065
  28   33884.9    295.1   0.000122309   0.00119   0.00445   0.02426   0.02408
  29   34239.3    292.1   0.013206839   0.12698   0.03055  -0.08675   0.34427
  30   34469.1    290.1   0.752240305   7.18460   0.04802  -0.87416   2.53341
  31   34692.6    288.2   0.000905030   0.00859   0.06782  -0.02528   0.05788
  32   35243.3    283.7   0.278146580   2.59820  -0.54297  -1.44432   0.46617
  33   35432.6    282.2   0.203879818   1.89429  -0.84348  -1.04663   0.29564
  34   35492.0    281.8   0.019881280   0.18441   0.38171   0.17106  -0.09719
  35   35945.4    278.2   0.018178610   0.16649  -0.35789  -0.16450  -0.10651
  36   35995.7    277.8   0.299595751   2.74006  -0.85997  -1.24665  -0.66811
  37   36126.8    276.8   0.000377197   0.00344  -0.00946  -0.04447  -0.03702
  38   36394.4    274.8   0.073320408   0.66323  -0.19680   0.57145  -0.54585
  39   36439.4    274.4   0.001149044   0.01038   0.02435  -0.08295   0.05393
  40   36744.9    272.1   0.051609791   0.46239  -0.16791  -0.62185   0.21795
  41   36792.5    271.8   0.018955664   0.16961   0.14668   0.36398  -0.12496
  42   37667.3    265.5   0.183465682   1.60349   0.22201   0.90593  -0.85644
  43   38024.0    263.0   0.001720412   0.01490  -0.06985  -0.05504   0.08359
  44   38303.0    261.1   0.004077172   0.03504   0.02072  -0.08535   0.16532
  45   38375.5    260.6   0.004386980   0.03763  -0.01997   0.09970  -0.16521
  46   38979.2    256.5   0.001553651   0.01312   0.00269   0.09170  -0.06860
  47   39074.6    255.9   0.009479513   0.07987  -0.16903  -0.16018   0.16011
  48   39239.4    254.8   0.000507304   0.00426  -0.01086  -0.06173   0.01810
  49   39295.3    254.5   0.234938738   1.96829  -0.18884  -1.28840   0.52216
  50   39788.3    251.3   0.015484784   0.12812  -0.03883   0.34001   0.10493
  51   39853.7    250.9   0.038001565   0.31391  -0.08871  -0.54103  -0.11545

FINAL SINGLE POINT ENERGY     -4650.591861688655

DIPOLE MOMENT
-------------
                                X             Y             Z
Electronic contribution:      1.80431      -0.66033      -0.14048
Nuclear contribution   :     -1.72154       0.80344       0.22863
                        -----------------------------------------
Total Dipole Moment    :      0.08277       0.14311       0.08815
                        -----------------------------------------
Magnitude (a.u.)       :      0.18735
Magnitude (Debye)      :      0.47622

Rotational constants in cm-1:     0.002772     0.000165     0.000158
Rotational constants in MHz :    83.105126     4.932817     4.736177

                             ****ORCA TERMINATED NORMALLY****
TOTAL RUN TIME: 0 days 0 hours 10 minutes 11 seconds 137 msec
