                         Program Version 4.2.0 -  RELEASE  -
|  1> # ORCA input file
|  2> # SCF done       -165.058618870657          0.000336819662
|  3> ! CAM-B3LYP def2-SVP def2/J RIJCOSX Grid4 TightSCF
|  4> %maxcore 5000
|  5> %tddft
|  6>     Mode sTDDFT
|  7>     Ethresh 5.0
|  8>     maxcore 5000
|  9> end
| 10>
| 11> %pal
| 12>   nprocs 6
| 13>   end
| 14> * xyz 0 1
| 15>    C       -0.48384        -0.23313         0.22305
| 16>    C       -0.96394         0.90985         0.84500
| 17>    C       -2.31778         1.21671         0.83770
| 18>    C       -3.23199         0.39203         0.19977
| 19>    C       -2.76397        -0.75196        -0.42503
| 20>    C       -1.38661        -1.07258        -0.41117
| 21>    C       -1.18508        -2.33103        -1.11746
| 22>    C        0.01784        -2.89839        -1.43242
| 23>    C        1.26860        -2.32449        -1.11405
| 24>    N        2.31486        -1.91219        -0.88749
| 25>    C        0.18587        -4.10449        -2.14752
| 26>    N        0.39214        -5.07635        -2.72199
| 27>    C       -2.51590        -2.86030        -1.41123
| 28>    C       -3.46330        -1.77045        -1.18916
| 29>    C       -4.66199        -1.61169        -1.82854
| 30>    C       -5.15232        -2.51084        -2.79934
| 31>    N       -5.55830        -3.20123        -3.62137
| 32>    C       -5.49781        -0.48755        -1.65995
| 33>    N       -6.21953         0.39717        -1.54981
| 34>    C       -2.79103        -4.15800        -1.72043
| 35>    C       -4.03472        -4.82737        -1.60470
| 36>    S       -5.26137        -4.40181        -0.45475
| 37>    C       -6.26083        -5.74765        -0.90483
| 38>    C       -5.65086        -6.49522        -1.91084
| 39>    C       -4.39650        -5.98822        -2.28526
| 40>    S       -3.31889        -6.58527        -3.53212
| 41>    C       -3.98034        -8.08853        -4.19502
| 42>    O       -3.33490        -8.63674        -5.04117
| 43>    C       -5.30375        -8.68362        -3.76224
| 44>    O       -5.67496        -9.71397        -4.24701
| 45>    S       -6.39587        -7.93585        -2.58466
| 46>    C       -7.49376        -5.86663        -0.20312
| 47>    C       -8.46689        -6.77512        -0.42611
| 48>    C       -9.71976        -6.88044         0.28228
| 49>    C      -10.68152        -7.78968        -0.19404
| 50>    F      -10.40046        -8.51208        -1.28550
| 51>    C      -11.91434        -7.96022         0.41307
| 52>    F      -12.78800        -8.81365        -0.12070
| 53>    C      -12.26711        -7.21946         1.54245
| 54>    C      -11.31952        -6.32295         2.03588
| 55>    C      -10.08477        -6.15853         1.42901
| 56>    F       -9.23136        -5.28921         1.98991
| 57>    F      -11.58110        -5.62868         3.14853
| 58>    C      -13.57441        -7.37587         2.18545
| 59>    N      -14.01516        -8.58770         2.43607
| 60>    N      -15.15190        -8.81657         3.02807
| 61>    C      -15.96060        -7.85903         3.43434
| 62>    C      -15.62166        -6.50573         3.17297
| 63>    C      -14.36991        -6.25300         2.52268
| 64>    N      -14.18107        -4.95862         2.27140
| 65>    S      -15.46044        -4.15050         2.80811
| 66>    N      -16.31457        -5.38489         3.36728
| 67>    C      -17.18815        -8.24641         4.11717
| 68>    C      -17.86997        -9.37983         3.73037
| 69>    C      -19.07264        -9.75027         4.34479
| 70>    C      -19.60595        -8.99304         5.35275
| 71>    C      -18.92183        -7.84612         5.80168
| 72>    N      -19.44431        -7.10704         6.80200
| 73>    C      -18.76811        -6.06864         7.20664
| 74>    C      -17.50600        -5.74733         6.66440
| 75>    N      -16.98292        -6.43224         5.68601
| 76>    C      -17.68739        -7.47056         5.19811
| 77>    H        0.56996        -0.45686         0.24418
| 78>    H       -0.27056         1.56795         1.34567
| 79>    H       -2.66629         2.10821         1.33593
| 80>    H       -4.28257         0.63365         0.20545
| 81>    H       -1.97225        -4.79732        -2.02750
| 82>    H       -7.61664        -5.11550         0.56316
| 83>    H       -8.34913        -7.49820        -1.21833
| 84>    H      -17.46576        -9.97370         2.92514
| 85>    H      -19.58408       -10.63768         4.00373
| 86>    H      -20.54443        -9.24130         5.82297
| 87>    H      -19.20761        -5.47807         7.99906
| 88>    H      -16.91672        -4.92842         7.05462
| 89> *
| 90>
| 91>                          ****END OF INPUT****

CARTESIAN COORDINATES (ANGSTROEM)
---------------------------------
  C     -0.483840   -0.233130    0.223050
  C     -0.963940    0.909850    0.845000
  C     -2.317780    1.216710    0.837700
  C     -3.231990    0.392030    0.199770
  C     -2.763970   -0.751960   -0.425030
  C     -1.386610   -1.072580   -0.411170
  C     -1.185080   -2.331030   -1.117460
  C      0.017840   -2.898390   -1.432420
  C      1.268600   -2.324490   -1.114050
  N      2.314860   -1.912190   -0.887490
  C      0.185870   -4.104490   -2.147520
  N      0.392140   -5.076350   -2.721990
  C     -2.515900   -2.860300   -1.411230
  C     -3.463300   -1.770450   -1.189160
  C     -4.661990   -1.611690   -1.828540
  C     -5.152320   -2.510840   -2.799340
  N     -5.558300   -3.201230   -3.621370
  C     -5.497810   -0.487550   -1.659950
  N     -6.219530    0.397170   -1.549810
  C     -2.791030   -4.158000   -1.720430
  C     -4.034720   -4.827370   -1.604700
  S     -5.261370   -4.401810   -0.454750
  C     -6.260830   -5.747650   -0.904830
  C     -5.650860   -6.495220   -1.910840
  C     -4.396500   -5.988220   -2.285260
  S     -3.318890   -6.585270   -3.532120
  C     -3.980340   -8.088530   -4.195020
  O     -3.334900   -8.636740   -5.041170
  C     -5.303750   -8.683620   -3.762240
  O     -5.674960   -9.713970   -4.247010
  S     -6.395870   -7.935850   -2.584660
  C     -7.493760   -5.866630   -0.203120
  C     -8.466890   -6.775120   -0.426110
  C     -9.719760   -6.880440    0.282280
  C    -10.681520   -7.789680   -0.194040
  F    -10.400460   -8.512080   -1.285500
  C    -11.914340   -7.960220    0.413070
  F    -12.788000   -8.813650   -0.120700
  C    -12.267110   -7.219460    1.542450
  C    -11.319520   -6.322950    2.035880
  C    -10.084770   -6.158530    1.429010
  F     -9.231360   -5.289210    1.989910
  F    -11.581100   -5.628680    3.148530
  C    -13.574410   -7.375870    2.185450
  N    -14.015160   -8.587700    2.436070
  N    -15.151900   -8.816570    3.028070
  C    -15.960600   -7.859030    3.434340
  C    -15.621660   -6.505730    3.172970
  C    -14.369910   -6.253000    2.522680
  N    -14.181070   -4.958620    2.271400
  S    -15.460440   -4.150500    2.808110
  N    -16.314570   -5.384890    3.367280
  C    -17.188150   -8.246410    4.117170
  C    -17.869970   -9.379830    3.730370
  C    -19.072640   -9.750270    4.344790
  C    -19.605950   -8.993040    5.352750
  C    -18.921830   -7.846120    5.801680
  N    -19.444310   -7.107040    6.802000
  C    -18.768110   -6.068640    7.206640
  C    -17.506000   -5.747330    6.664400
  N    -16.982920   -6.432240    5.686010
  C    -17.687390   -7.470560    5.198110
  H      0.569960   -0.456860    0.244180
  H     -0.270560    1.567950    1.345670
  H     -2.666290    2.108210    1.335930
  H     -4.282570    0.633650    0.205450
  H     -1.972250   -4.797320   -2.027500
  H     -7.616640   -5.115500    0.563160
  H     -8.349130   -7.498200   -1.218330
  H    -17.465760   -9.973700    2.925140
  H    -19.584080  -10.637680    4.003730
  H    -20.544430   -9.241300    5.822970
  H    -19.207610   -5.478070    7.999060
  H    -16.916720   -4.928420    7.054620

 Total Charge           Charge          ....    0
 Multiplicity           Mult            ....    1
 Number of Electrons    NEL             ....  450
 Basis Dimension        Dim             ....  944

ORBITAL ENERGIES
----------------

  NO   OCC          E(Eh)            E(eV)
   0   2.0000     -89.046432     -2423.0766
   1   2.0000     -88.995111     -2421.6801
   2   2.0000     -88.984160     -2421.3821
   3   2.0000     -88.982843     -2421.3463
   4   2.0000     -24.814922      -675.2484
   5   2.0000     -24.809000      -675.0872
   6   2.0000     -24.806864      -675.0291
   7   2.0000     -24.801213      -674.8753
   8   2.0000     -19.252861      -523.8970
   9   2.0000     -19.252658      -523.8915
  10   2.0000     -14.457511      -393.4089
  11   2.0000     -14.457099      -393.3977
  12   2.0000     -14.449929      -393.2026
  13   2.0000     -14.444844      -393.0642
  14   2.0000     -14.431347      -392.6969
  15   2.0000     -14.431135      -392.6911
  16   2.0000     -14.430358      -392.6700
  17   2.0000     -14.428250      -392.6126
  18   2.0000     -14.424797      -392.5187
  19   2.0000     -14.423740      -392.4899
  20   2.0000     -10.417030      -283.4618
  21   2.0000     -10.416892      -283.4580
  22   2.0000     -10.390336      -282.7354
  23   2.0000     -10.389651      -282.7168
  24   2.0000     -10.388585      -282.6878
  25   2.0000     -10.387648      -282.6623
  26   2.0000     -10.363591      -282.0077
  27   2.0000     -10.361032      -281.9380
  28   2.0000     -10.358414      -281.8668
  29   2.0000     -10.358016      -281.8559
  30   2.0000     -10.355225      -281.7800
  31   2.0000     -10.350547      -281.6527
  32   2.0000     -10.348235      -281.5898
  33   2.0000     -10.346579      -281.5447
  34   2.0000     -10.343594      -281.4635
  35   2.0000     -10.342955      -281.4461
  36   2.0000     -10.342015      -281.4205
  37   2.0000     -10.341196      -281.3982
  38   2.0000     -10.340646      -281.3833
  39   2.0000     -10.332999      -281.1752
  40   2.0000     -10.332879      -281.1719
  41   2.0000     -10.332304      -281.1563
  42   2.0000     -10.331766      -281.1417
  43   2.0000     -10.330300      -281.1018
  44   2.0000     -10.328842      -281.0621
  45   2.0000     -10.323909      -280.9278
  46   2.0000     -10.322838      -280.8987
  47   2.0000     -10.322524      -280.8902
  48   2.0000     -10.321408      -280.8598
  49   2.0000     -10.319867      -280.8179
  50   2.0000     -10.318511      -280.7810
  51   2.0000     -10.316952      -280.7385
  52   2.0000     -10.315893      -280.7097
  53   2.0000     -10.314845      -280.6812
  54   2.0000     -10.310273      -280.5568
  55   2.0000     -10.309641      -280.5396
  56   2.0000     -10.308789      -280.5164
  57   2.0000     -10.307751      -280.4882
  58   2.0000     -10.294594      -280.1301
  59   2.0000     -10.289295      -279.9859
  60   2.0000     -10.286589      -279.9123
  61   2.0000     -10.284990      -279.8688
  62   2.0000      -8.138111      -221.4493
  63   2.0000      -8.090214      -220.1459
  64   2.0000      -8.080701      -219.8870
  65   2.0000      -8.078911      -219.8383
  66   2.0000      -6.109115      -166.2375
  67   2.0000      -6.101297      -166.0247
  68   2.0000      -6.100986      -166.0163
  69   2.0000      -6.059576      -164.8894
  70   2.0000      -6.055481      -164.7780
  71   2.0000      -6.052055      -164.6848
  72   2.0000      -6.050604      -164.6453
  73   2.0000      -6.048902      -164.5990
  74   2.0000      -6.045816      -164.5150
  75   2.0000      -6.044106      -164.4685
  76   2.0000      -6.041582      -164.3998
  77   2.0000      -6.039761      -164.3503
  78   2.0000      -1.335649       -36.3448
  79   2.0000      -1.330670       -36.2094
  80   2.0000      -1.317457       -35.8498
  81   2.0000      -1.313228       -35.7347
  82   2.0000      -1.191228       -32.4150
  83   2.0000      -1.159133       -31.5416
  84   2.0000      -1.149514       -31.2799
  85   2.0000      -1.124675       -30.6039
  86   2.0000      -1.081525       -29.4298
  87   2.0000      -1.049821       -28.5671
  88   2.0000      -1.037860       -28.2416
  89   2.0000      -1.027003       -27.9462
  90   2.0000      -1.016901       -27.6713
  91   2.0000      -1.009874       -27.4801
  92   2.0000      -1.008731       -27.4490
  93   2.0000      -1.007815       -27.4241
  94   2.0000      -1.002566       -27.2812
  95   2.0000      -0.993981       -27.0476
  96   2.0000      -0.970887       -26.4192
  97   2.0000      -0.965183       -26.2640
  98   2.0000      -0.953778       -25.9536
  99   2.0000      -0.951079       -25.8802
 100   2.0000      -0.946894       -25.7663
 101   2.0000      -0.940545       -25.5935
 102   2.0000      -0.922904       -25.1135
 103   2.0000      -0.912812       -24.8389
 104   2.0000      -0.905671       -24.6446
 105   2.0000      -0.896549       -24.3963
 106   2.0000      -0.877024       -23.8650
 107   2.0000      -0.875614       -23.8267
 108   2.0000      -0.861759       -23.4496
 109   2.0000      -0.858023       -23.3480
 110   2.0000      -0.854525       -23.2528
 111   2.0000      -0.848654       -23.0930
 112   2.0000      -0.835261       -22.7286
 113   2.0000      -0.807566       -21.9750
 114   2.0000      -0.801171       -21.8010
 115   2.0000      -0.786734       -21.4081
 116   2.0000      -0.770090       -20.9552
 117   2.0000      -0.763855       -20.7855
 118   2.0000      -0.759288       -20.6613
 119   2.0000      -0.752818       -20.4852
 120   2.0000      -0.744563       -20.2606
 121   2.0000      -0.737356       -20.0645
 122   2.0000      -0.732551       -19.9337
 123   2.0000      -0.726521       -19.7696
 124   2.0000      -0.724817       -19.7233
 125   2.0000      -0.718464       -19.5504
 126   2.0000      -0.714137       -19.4327
 127   2.0000      -0.689318       -18.7573
 128   2.0000      -0.684489       -18.6259
 129   2.0000      -0.681248       -18.5377
 130   2.0000      -0.676262       -18.4020
 131   2.0000      -0.669714       -18.2238
 132   2.0000      -0.668508       -18.1910
 133   2.0000      -0.656656       -17.8685
 134   2.0000      -0.651083       -17.7169
 135   2.0000      -0.649869       -17.6838
 136   2.0000      -0.642362       -17.4796
 137   2.0000      -0.632040       -17.1987
 138   2.0000      -0.630714       -17.1626
 139   2.0000      -0.628620       -17.1056
 140   2.0000      -0.624993       -17.0069
 141   2.0000      -0.607680       -16.5358
 142   2.0000      -0.606650       -16.5078
 143   2.0000      -0.604145       -16.4396
 144   2.0000      -0.602339       -16.3905
 145   2.0000      -0.599884       -16.3237
 146   2.0000      -0.596659       -16.2359
 147   2.0000      -0.590632       -16.0719
 148   2.0000      -0.584398       -15.9023
 149   2.0000      -0.580201       -15.7881
 150   2.0000      -0.576409       -15.6849
 151   2.0000      -0.569909       -15.5080
 152   2.0000      -0.563934       -15.3454
 153   2.0000      -0.563759       -15.3407
 154   2.0000      -0.560497       -15.2519
 155   2.0000      -0.558188       -15.1891
 156   2.0000      -0.557701       -15.1758
 157   2.0000      -0.556056       -15.1310
 158   2.0000      -0.551151       -14.9976
 159   2.0000      -0.549584       -14.9549
 160   2.0000      -0.549129       -14.9426
 161   2.0000      -0.544310       -14.8114
 162   2.0000      -0.541570       -14.7369
 163   2.0000      -0.536829       -14.6079
 164   2.0000      -0.536673       -14.6036
 165   2.0000      -0.531149       -14.4533
 166   2.0000      -0.528707       -14.3868
 167   2.0000      -0.526217       -14.3191
 168   2.0000      -0.520074       -14.1519
 169   2.0000      -0.516051       -14.0425
 170   2.0000      -0.513712       -13.9788
 171   2.0000      -0.511126       -13.9085
 172   2.0000      -0.507129       -13.7997
 173   2.0000      -0.502481       -13.6732
 174   2.0000      -0.496787       -13.5183
 175   2.0000      -0.493265       -13.4224
 176   2.0000      -0.492569       -13.4035
 177   2.0000      -0.491244       -13.3674
 178   2.0000      -0.481225       -13.0948
 179   2.0000      -0.475821       -12.9478
 180   2.0000      -0.474388       -12.9087
 181   2.0000      -0.469221       -12.7682
 182   2.0000      -0.465936       -12.6788
 183   2.0000      -0.464278       -12.6336
 184   2.0000      -0.463028       -12.5996
 185   2.0000      -0.461606       -12.5609
 186   2.0000      -0.461156       -12.5487
 187   2.0000      -0.457552       -12.4506
 188   2.0000      -0.457076       -12.4377
 189   2.0000      -0.455351       -12.3907
 190   2.0000      -0.451603       -12.2887
 191   2.0000      -0.450413       -12.2564
 192   2.0000      -0.447104       -12.1663
 193   2.0000      -0.444687       -12.1006
 194   2.0000      -0.442135       -12.0311
 195   2.0000      -0.440766       -11.9939
 196   2.0000      -0.439474       -11.9587
 197   2.0000      -0.438490       -11.9319
 198   2.0000      -0.435879       -11.8609
 199   2.0000      -0.429302       -11.6819
 200   2.0000      -0.426378       -11.6023
 201   2.0000      -0.425182       -11.5698
 202   2.0000      -0.423026       -11.5111
 203   2.0000      -0.421121       -11.4593
 204   2.0000      -0.405613       -11.0373
 205   2.0000      -0.401508       -10.9256
 206   2.0000      -0.397819       -10.8252
 207   2.0000      -0.396215       -10.7816
 208   2.0000      -0.394844       -10.7442
 209   2.0000      -0.390870       -10.6361
 210   2.0000      -0.376267       -10.2387
 211   2.0000      -0.371243       -10.1020
 212   2.0000      -0.370768       -10.0891
 213   2.0000      -0.357465        -9.7271
 214   2.0000      -0.351502        -9.5648
 215   2.0000      -0.343952        -9.3594
 216   2.0000      -0.338978        -9.2241
 217   2.0000      -0.331333        -9.0160
 218   2.0000      -0.325985        -8.8705
 219   2.0000      -0.319621        -8.6973
 220   2.0000      -0.318267        -8.6605
 221   2.0000      -0.316163        -8.6032
 222   2.0000      -0.307977        -8.3805
 223   2.0000      -0.303760        -8.2657
 224   2.0000      -0.279994        -7.6190
 225   0.0000      -0.117212        -3.1895
 226   0.0000      -0.096557        -2.6274
 227   0.0000      -0.088772        -2.4156
 228   0.0000      -0.068056        -1.8519
 229   0.0000      -0.055349        -1.5061

MULLIKEN ATOMIC CHARGES
-----------------------
   0 C :   -0.034215
   1 C :    0.048810
   2 C :    0.048802
   3 C :   -0.030057
   4 C :    0.007648
   5 C :    0.015259
   6 C :    0.286454
   7 C :   -0.333404
   8 C :   -0.188063
   9 N :    0.167756
  10 C :   -0.185738
  11 N :    0.167038
  12 C :   -0.058207
  13 C :    0.200739
  14 C :   -0.317962
  15 C :   -0.187786
  16 N :    0.184061
  17 C :   -0.184816
  18 N :    0.173428
  19 C :    0.016915
  20 C :   -0.184571
  21 S :    0.185812
  22 C :   -0.118425
  23 C :   -0.012618
  24 C :    0.026464
  25 S :    0.121667
  26 C :    0.076902
  27 O :   -0.113922
  28 C :    0.095734
  29 O :   -0.116885
  30 S :    0.073536
  31 C :    0.069675
  32 C :   -0.031143
  33 C :   -0.026871
  34 C :    0.169293
  35 F :   -0.165734
  36 C :    0.239123
  37 F :   -0.146658
  38 C :   -0.148469
  39 C :    0.240462
  40 C :    0.162267
  41 F :   -0.172853
  42 F :   -0.160310
  43 C :   -0.065336
  44 N :   -0.025454
  45 N :   -0.055570
  46 C :   -0.058564
  47 C :    0.072646
  48 C :    0.045450
  49 N :   -0.251092
  50 S :    0.536175
  51 N :   -0.235376
  52 C :    0.023388
  53 C :    0.006358
  54 C :    0.038824
  55 C :    0.023981
  56 C :   -0.039145
  57 N :   -0.016442
  58 C :    0.019640
  59 C :    0.026431
  60 N :   -0.005558
  61 C :   -0.006266
  62 H :    0.009665
  63 H :    0.008045
  64 H :    0.007362
  65 H :    0.009260
  66 H :    0.043454
  67 H :    0.008966
  68 H :    0.024319
  69 H :   -0.002998
  70 H :   -0.001065
  71 H :   -0.019642
  72 H :    0.012721
  73 H :    0.006683
Sum of atomic charges:    0.0000000

LOEWDIN ATOMIC CHARGES
----------------------
   0 C :    0.006550
   1 C :    0.004433
   2 C :    0.006891
   3 C :    0.002588
   4 C :   -0.010677
   5 C :   -0.012803
   6 C :    0.076102
   7 C :   -0.125738
   8 C :   -0.019211
   9 N :   -0.039456
  10 C :   -0.023704
  11 N :   -0.033823
  12 C :   -0.051141
  13 C :    0.057470
  14 C :   -0.129557
  15 C :   -0.031836
  16 N :   -0.038304
  17 C :   -0.020626
  18 N :   -0.037608
  19 C :    0.028441
  20 C :   -0.209778
  21 S :    0.495712
  22 C :   -0.152470
  23 C :   -0.215287
  24 C :   -0.176484
  25 S :    0.417254
  26 C :   -0.106989
  27 O :   -0.086375
  28 C :   -0.107129
  29 O :   -0.090188
  30 S :    0.405893
  31 C :   -0.039509
  32 C :   -0.004608
  33 C :   -0.065149
  34 C :    0.064176
  35 F :   -0.041093
  36 C :    0.074300
  37 F :   -0.030839
  38 C :   -0.065560
  39 C :    0.070502
  40 C :    0.064424
  41 F :   -0.042199
  42 F :   -0.038768
  43 C :   -0.011114
  44 N :   -0.029978
  45 N :   -0.047571
  46 C :    0.018610
  47 C :   -0.054871
  48 C :   -0.061406
  49 N :   -0.278856
  50 S :    0.679104
  51 N :   -0.253908
  52 C :   -0.035020
  53 C :    0.021942
  54 C :   -0.015362
  55 C :    0.001506
  56 C :   -0.013572
  57 N :   -0.038178
  58 C :    0.001893
  59 C :    0.004146
  60 N :   -0.033281
  61 C :   -0.000395
  62 H :    0.042583
  63 H :    0.039183
  64 H :    0.038880
  65 H :    0.041746
  66 H :    0.045642
  67 H :    0.029768
  68 H :    0.020358
  69 H :    0.038438
  70 H :    0.034815
  71 H :    0.037138
  72 H :    0.025862
  73 H :    0.024071

  Mayer bond orders larger than 0.100000
B(  0-C ,  1-C ) :   1.3715 B(  0-C ,  5-C ) :   1.3807 B(  0-C , 62-H ) :   0.9847
B(  1-C ,  2-C ) :   1.3759 B(  1-C , 63-H ) :   0.9864 B(  2-C ,  3-C ) :   1.3654
B(  2-C , 64-H ) :   0.9865 B(  3-C ,  4-C ) :   1.3816 B(  3-C , 65-H ) :   0.9880
B(  4-C ,  5-C ) :   1.3102 B(  4-C , 13-C ) :   1.0140 B(  5-C ,  6-C ) :   1.0012
B(  6-C ,  7-C ) :   1.6591 B(  6-C , 12-C ) :   1.0444 B(  7-C ,  8-C ) :   1.1446
B(  7-C , 10-C ) :   1.1327 B(  8-C ,  9-N ) :   2.9808 B( 10-C , 11-N ) :   2.9736
B( 12-C , 13-C ) :   1.0117 B( 12-C , 19-C ) :   1.6484 B( 13-C , 14-C ) :   1.6652
B( 14-C , 15-C ) :   1.1503 B( 14-C , 17-C ) :   1.1409 B( 15-C , 16-N ) :   3.0177
B( 17-C , 18-N ) :   3.0003 B( 19-C , 20-C ) :   1.1522 B( 19-C , 66-H ) :   0.9160
B( 20-C , 21-S ) :   1.1200 B( 20-C , 22-C ) :   0.1060 B( 20-C , 24-C ) :   1.5000
B( 21-S , 22-C ) :   1.1509 B( 22-C , 23-C ) :   1.5153 B( 22-C , 31-C ) :   1.1333
B( 23-C , 24-C ) :   1.3136 B( 23-C , 30-S ) :   0.9683 B( 24-C , 25-S ) :   1.0129
B( 25-S , 26-C ) :   1.0377 B( 25-S , 27-O ) :   0.1325 B( 26-C , 27-O ) :   2.1751
B( 26-C , 28-C ) :   0.7703 B( 28-C , 29-O ) :   2.1734 B( 28-C , 30-S ) :   1.0424
B( 29-O , 30-S ) :   0.1352 B( 31-C , 32-C ) :   1.6635 B( 31-C , 67-H ) :   0.9449
B( 32-C , 33-C ) :   1.1396 B( 32-C , 68-H ) :   0.9617 B( 33-C , 34-C ) :   1.2834
B( 33-C , 38-C ) :   0.1276 B( 33-C , 40-C ) :   1.2657 B( 34-C , 35-F ) :   1.1331
B( 34-C , 36-C ) :   1.2942 B( 36-C , 37-F ) :   1.2073 B( 36-C , 38-C ) :   1.3289
B( 38-C , 39-C ) :   1.3492 B( 38-C , 43-C ) :   0.9551 B( 39-C , 40-C ) :   1.3099
B( 39-C , 42-F ) :   1.1803 B( 40-C , 41-F ) :   1.1198 B( 43-C , 44-N ) :   1.7414
B( 43-C , 46-C ) :   0.1133 B( 43-C , 48-C ) :   1.1465 B( 44-N , 45-N ) :   1.2035
B( 45-N , 46-C ) :   1.7277 B( 46-C , 47-C ) :   1.1325 B( 46-C , 52-C ) :   0.9921
B( 47-C , 48-C ) :   1.2114 B( 47-C , 51-N ) :   1.5113 B( 48-C , 49-N ) :   1.5356
B( 49-N , 50-S ) :   1.2832 B( 49-N , 51-N ) :   0.1518 B( 50-S , 51-N ) :   1.3055
B( 52-C , 53-C ) :   1.5092 B( 52-C , 55-C ) :   0.1046 B( 52-C , 61-C ) :   1.2427
B( 53-C , 54-C ) :   1.2133 B( 53-C , 69-H ) :   1.0020 B( 54-C , 55-C ) :   1.4389
B( 54-C , 70-H ) :   0.9912 B( 55-C , 56-C ) :   1.2606 B( 55-C , 71-H ) :   1.0101
B( 56-C , 57-N ) :   1.4221 B( 56-C , 61-C ) :   1.2436 B( 57-N , 58-C ) :   1.6780
B( 58-C , 59-C ) :   1.2220 B( 58-C , 72-H ) :   0.9745 B( 59-C , 60-N ) :   1.6583
B( 59-C , 73-H ) :   0.9739 B( 60-N , 61-C ) :   1.4465

-----------------------------------------------------------------------------
         ABSORPTION SPECTRUM VIA TRANSITION ELECTRIC DIPOLE MOMENTS
-----------------------------------------------------------------------------
State   Energy  Wavelength   fosc         T2         TX        TY        TZ
        (cm-1)    (nm)                  (au**2)     (au)      (au)      (au)
-----------------------------------------------------------------------------
   0   18679.4    535.3   0.830180005  14.63133  -2.93549  -2.33680   0.74403
   1   20742.9    482.1   0.000168916   0.00268   0.00373   0.05075  -0.00956
   2   23591.9    423.9   0.238268300   3.32490   1.82118   0.03208  -0.08477
   3   24963.2    400.6   0.206850000   2.72792  -0.14398  -1.32657  -0.97335
   4   26382.7    379.0   0.414194953   5.16847   2.13423   0.42921  -0.65522
   5   27097.7    369.0   0.340608251   4.13807   1.51715  -0.21432  -1.33806
   6   28584.0    349.8   0.027275754   0.31414   0.22058  -0.48149  -0.18344
   7   28700.1    348.4   0.006188367   0.07099  -0.06603  -0.22475  -0.12693
   8   29275.4    341.6   0.001879180   0.02113   0.10062  -0.07372  -0.07466
   9   29672.0    337.0   0.006286669   0.06975  -0.25846   0.03458   0.04189
  10   30239.8    330.7   0.037270430   0.40575  -0.42673  -0.28549  -0.37703
  11   30329.6    329.7   0.177937102   1.93142   1.29056  -0.45563  -0.24142
  12   30927.1    323.3   0.042524032   0.45266   0.25985  -0.21224  -0.58317
  13   31277.8    319.7   0.036823884   0.38759  -0.46748   0.39000   0.13018
  14   31313.1    319.4   0.000449221   0.00472   0.06467  -0.02308   0.00292
  15   31804.1    314.4   0.035320743   0.36561  -0.30007  -0.38259  -0.35944
  16   32797.5    304.9   0.092717206   0.93067   0.39018  -0.51672   0.71515
  17   33170.3    301.5   0.684619485   6.79478   2.56540  -0.42852  -0.17287
  18   33566.3    297.9   0.001258702   0.01235  -0.00087  -0.04938  -0.09953
  19   33694.0    296.8   0.024883881   0.24313   0.08171  -0.34477  -0.34292
  20   33984.7    294.2   0.152981394   1.48194   0.60894  -0.73973  -0.75095
  21   34642.8    288.7   0.257042210   2.44268  -0.65907  -1.23299  -0.69861
  22   34782.2    287.5   0.081106881   0.76767   0.40563   0.73995   0.23583
  23   34957.7    286.1   0.135762518   1.27854  -0.63741   0.45980   0.81291
  24   35306.3    283.2   0.008025566   0.07483  -0.10304   0.00459  -0.25337
  25   36354.2    275.1   0.035752693   0.32377  -0.54204   0.03851   0.16873
  26   36486.3    274.1   0.011837528   0.10681  -0.27242  -0.16238   0.07893
  27   36880.7    271.1   0.010458616   0.09336  -0.26195  -0.15640   0.01663
  28   37348.4    267.7   0.113210528   0.99791   0.81216   0.47557  -0.33487
  29   37481.4    266.8   0.035037547   0.30775   0.16707  -0.27727  -0.45051
  30   37678.9    265.4   0.138289585   1.20828  -0.83563   0.15218   0.69774
  31   38367.1    260.6   0.084166953   0.72220   0.11263   0.80894   0.23479
  32   38711.2    258.3   0.000823106   0.00700  -0.01594   0.06642   0.04832
  33   39071.1    255.9   0.115871859   0.97633  -0.17696  -0.84361  -0.48305
  34   39596.7    252.5   0.048024540   0.39928  -0.10735  -0.50252  -0.36774
  35   39793.9    251.3   0.036371840   0.30090  -0.30108  -0.45530  -0.05436
  36   39850.3    250.9   0.003803293   0.03142  -0.01857   0.10259   0.14336
  37   39864.6    250.8   0.049937526   0.41240   0.05365   0.38881   0.50828
  38   40103.9    249.4   0.041081256   0.33724  -0.10425  -0.43413  -0.37134

FINAL SINGLE POINT ENERGY     -4293.813307638111

DIPOLE MOMENT
-------------
                                X             Y             Z
Electronic contribution:      2.40374     -14.53322     -16.76414
Nuclear contribution   :     -4.48799      16.83812      19.87243
                        -----------------------------------------
Total Dipole Moment    :     -2.08425       2.30490       3.10828
                        -----------------------------------------
Magnitude (a.u.)       :      4.39523
Magnitude (Debye)      :     11.17180

Rotational constants in cm-1:     0.002323     0.000393     0.000349
Rotational constants in MHz :    69.633450    11.767057    10.454683

                             ****ORCA TERMINATED NORMALLY****
TOTAL RUN TIME: 0 days 0 hours 6 minutes 38 seconds 267 msec
