                         Program Version 4.2.0 -  RELEASE  -
|  1> # ORCA input file
|  2> # SCF done       -155.920215756056          0.000768450328
|  3> ! CAM-B3LYP def2-SVP def2/J RIJCOSX Grid4 TightSCF
|  4> %maxcore 5000
|  5> %tddft
|  6>     Mode sTDDFT
|  7>     Ethresh 5.0
|  8>     maxcore 5000
|  9> end
| 10>
| 11> %pal
| 12>   nprocs 6
| 13>   end
| 14> * xyz 0 1
| 15>    C        0.86932         1.90907        -0.79028
| 16>    C        0.06667         2.55498        -1.69822
| 17>    C       -1.06216         1.96720        -2.30341
| 18>    N       -1.99473         1.53997        -2.81949
| 19>    C        0.32051         3.84678        -2.19520
| 20>    N        0.49236         4.88969        -2.64423
| 21>    C        0.74994         0.49556        -0.43698
| 22>    C        1.98591         0.06239         0.12428
| 23>    C        2.18496        -1.22973         0.51519
| 24>    C        1.13304        -2.16259         0.37075
| 25>    C       -0.11303        -1.73113        -0.16807
| 26>    C       -0.28783        -0.38626        -0.57032
| 27>    C       -1.15722        -2.66886        -0.29767
| 28>    C       -0.97950        -3.97189         0.08051
| 29>    C        0.24875        -4.39641         0.60826
| 30>    C        1.28234        -3.51078         0.75066
| 31>    C        2.90737         1.20892         0.20086
| 32>    O        4.06098         1.21619         0.56946
| 33>    C        2.10632         2.39276        -0.22296
| 34>    C        2.61821         3.63466         0.03022
| 35>    C        1.99936         4.90260         0.09614
| 36>    C        0.67253         5.12636         0.31878
| 37>    C        0.04306         6.39067         0.43554
| 38>    C        0.63099         7.58534         0.15240
| 39>    C        0.04036         8.87265         0.25552
| 40>    C       -1.25333         9.13957         0.65613
| 41>    C       -1.80098        10.40956         0.78182
| 42>    C       -1.01334        11.61305         0.50451
| 43>    C        0.27054        11.60003         0.07939
| 44>    S        1.16011        10.16200        -0.17862
| 45>    C       -1.88189        12.70279         0.77596
| 46>    C       -3.12936        12.23254         1.19783
| 47>    C       -4.02526        13.29885         1.44412
| 48>    C       -3.44670        14.50747         1.22084
| 49>    S       -1.80040        14.41576         0.69825
| 50>    C       -3.09966        10.79089         1.20689
| 51>    C       -4.13253         9.89325         1.53406
| 52>    C       -5.32569        10.22050         2.11766
| 53>    C       -6.38401         9.32792         2.38720
| 54>    C       -6.48227         8.02409         1.98100
| 55>    C       -7.60397         7.22366         2.25236
| 56>    C       -7.74763         5.94097         1.79422
| 57>    C       -8.90601         5.18837         2.04291
| 58>    C       -9.14283         3.92159         1.56773
| 59>    C      -10.33929         3.13526         1.76874
| 60>    C      -11.41977         3.45335         2.55640
| 61>    C      -12.55456         2.63226         2.71246
| 62>    N      -13.50851         2.01604         2.88632
| 63>    C      -11.55939         4.62082         3.33264
| 64>    N      -11.75482         5.53854         3.99630
| 65>    C      -10.20166         1.90710         0.99020
| 66>    C       -8.92706         1.91225         0.35607
| 67>    C       -8.21145         3.15267         0.70913
| 68>    O       -7.08881         3.46093         0.35981
| 69>    C       -8.51572         0.88955        -0.44794
| 70>    C       -9.37984        -0.20816        -0.66301
| 71>    C      -10.65730        -0.22094        -0.03385
| 72>    C      -11.05408         0.85321         0.79641
| 73>    C      -11.51317        -1.31845        -0.25701
| 74>    C      -11.12775        -2.35464        -1.06334
| 75>    C       -9.86958        -2.34076        -1.68297
| 76>    C       -9.01412        -1.29055        -1.48673
| 77>    H        3.13325        -1.53806         0.92973
| 78>    H       -1.24545        -0.08578        -0.96586
| 79>    H       -2.10022        -2.33800        -0.70758
| 80>    H       -1.78485        -4.68330        -0.02571
| 81>    H        0.37199        -5.42822         0.90172
| 82>    H        2.23048        -3.83149         1.15705
| 83>    H        3.67434         3.61631         0.28820
| 84>    H        2.67331         5.74676         0.05814
| 85>    H        0.03287         4.26836         0.48329
| 86>    H       -0.98967         6.37059         0.75382
| 87>    H        1.65498         7.58560        -0.19504
| 88>    H       -1.87474         8.28869         0.89387
| 89>    H        0.82333        12.50340        -0.12465
| 90>    H       -5.04819        13.20118         1.75673
| 91>    H       -3.89343        15.47642         1.32984
| 92>    H       -3.94117         8.85288         1.31037
| 93>    H       -5.47928        11.24383         2.42519
| 94>    H       -7.21811         9.73405         2.94694
| 95>    H       -5.69113         7.57605         1.39611
| 96>    H       -8.40335         7.65915         2.84093
| 97>    H       -6.96143         5.49143         1.20547
| 98>    H       -9.67383         5.66748         2.63730
| 99>    H       -7.54392         0.91899        -0.91830
|100>    H      -12.02931         0.81348         1.25472
|101>    H      -12.48126        -1.32382         0.22230
|102>    H      -11.79104        -3.19068        -1.22836
|103>    H       -9.58175        -3.16621        -2.31707
|104>    H       -8.04419        -1.27379        -1.96210
|105> *
|106>
|107>                          ****END OF INPUT****

CARTESIAN COORDINATES (ANGSTROEM)
---------------------------------
  C      0.869320    1.909070   -0.790280
  C      0.066670    2.554980   -1.698220
  C     -1.062160    1.967200   -2.303410
  N     -1.994730    1.539970   -2.819490
  C      0.320510    3.846780   -2.195200
  N      0.492360    4.889690   -2.644230
  C      0.749940    0.495560   -0.436980
  C      1.985910    0.062390    0.124280
  C      2.184960   -1.229730    0.515190
  C      1.133040   -2.162590    0.370750
  C     -0.113030   -1.731130   -0.168070
  C     -0.287830   -0.386260   -0.570320
  C     -1.157220   -2.668860   -0.297670
  C     -0.979500   -3.971890    0.080510
  C      0.248750   -4.396410    0.608260
  C      1.282340   -3.510780    0.750660
  C      2.907370    1.208920    0.200860
  O      4.060980    1.216190    0.569460
  C      2.106320    2.392760   -0.222960
  C      2.618210    3.634660    0.030220
  C      1.999360    4.902600    0.096140
  C      0.672530    5.126360    0.318780
  C      0.043060    6.390670    0.435540
  C      0.630990    7.585340    0.152400
  C      0.040360    8.872650    0.255520
  C     -1.253330    9.139570    0.656130
  C     -1.800980   10.409560    0.781820
  C     -1.013340   11.613050    0.504510
  C      0.270540   11.600030    0.079390
  S      1.160110   10.162000   -0.178620
  C     -1.881890   12.702790    0.775960
  C     -3.129360   12.232540    1.197830
  C     -4.025260   13.298850    1.444120
  C     -3.446700   14.507470    1.220840
  S     -1.800400   14.415760    0.698250
  C     -3.099660   10.790890    1.206890
  C     -4.132530    9.893250    1.534060
  C     -5.325690   10.220500    2.117660
  C     -6.384010    9.327920    2.387200
  C     -6.482270    8.024090    1.981000
  C     -7.603970    7.223660    2.252360
  C     -7.747630    5.940970    1.794220
  C     -8.906010    5.188370    2.042910
  C     -9.142830    3.921590    1.567730
  C    -10.339290    3.135260    1.768740
  C    -11.419770    3.453350    2.556400
  C    -12.554560    2.632260    2.712460
  N    -13.508510    2.016040    2.886320
  C    -11.559390    4.620820    3.332640
  N    -11.754820    5.538540    3.996300
  C    -10.201660    1.907100    0.990200
  C     -8.927060    1.912250    0.356070
  C     -8.211450    3.152670    0.709130
  O     -7.088810    3.460930    0.359810
  C     -8.515720    0.889550   -0.447940
  C     -9.379840   -0.208160   -0.663010
  C    -10.657300   -0.220940   -0.033850
  C    -11.054080    0.853210    0.796410
  C    -11.513170   -1.318450   -0.257010
  C    -11.127750   -2.354640   -1.063340
  C     -9.869580   -2.340760   -1.682970
  C     -9.014120   -1.290550   -1.486730
  H      3.133250   -1.538060    0.929730
  H     -1.245450   -0.085780   -0.965860
  H     -2.100220   -2.338000   -0.707580
  H     -1.784850   -4.683300   -0.025710
  H      0.371990   -5.428220    0.901720
  H      2.230480   -3.831490    1.157050
  H      3.674340    3.616310    0.288200
  H      2.673310    5.746760    0.058140
  H      0.032870    4.268360    0.483290
  H     -0.989670    6.370590    0.753820
  H      1.654980    7.585600   -0.195040
  H     -1.874740    8.288690    0.893870
  H      0.823330   12.503400   -0.124650
  H     -5.048190   13.201180    1.756730
  H     -3.893430   15.476420    1.329840
  H     -3.941170    8.852880    1.310370
  H     -5.479280   11.243830    2.425190
  H     -7.218110    9.734050    2.946940
  H     -5.691130    7.576050    1.396110
  H     -8.403350    7.659150    2.840930
  H     -6.961430    5.491430    1.205470
  H     -9.673830    5.667480    2.637300
  H     -7.543920    0.918990   -0.918300
  H    -12.029310    0.813480    1.254720
  H    -12.481260   -1.323820    0.222300
  H    -11.791040   -3.190680   -1.228360
  H     -9.581750   -3.166210   -2.317070
  H     -8.044190   -1.273790   -1.962100

 Total Charge           Charge          ....    0
 Multiplicity           Mult            ....    1
 Number of Electrons    NEL             ....  428
 Basis Dimension        Dim             .... 1016

ORBITAL ENERGIES
----------------

  NO   OCC          E(Eh)            E(eV)
   0   2.0000     -88.987311     -2421.4678
   1   2.0000     -88.966431     -2420.8997
   2   2.0000     -19.210618      -522.7475
   3   2.0000     -19.199942      -522.4570
   4   2.0000     -14.414963      -392.2511
   5   2.0000     -14.412798      -392.1922
   6   2.0000     -14.402020      -391.8989
   7   2.0000     -14.399435      -391.8285
   8   2.0000     -10.361586      -281.9531
   9   2.0000     -10.350657      -281.6557
  10   2.0000     -10.340082      -281.3679
  11   2.0000     -10.339660      -281.3565
  12   2.0000     -10.339521      -281.3527
  13   2.0000     -10.335700      -281.2487
  14   2.0000     -10.324881      -280.9543
  15   2.0000     -10.323798      -280.9248
  16   2.0000     -10.315997      -280.7125
  17   2.0000     -10.315748      -280.7058
  18   2.0000     -10.312757      -280.6244
  19   2.0000     -10.311447      -280.5887
  20   2.0000     -10.310106      -280.5522
  21   2.0000     -10.310066      -280.5512
  22   2.0000     -10.307204      -280.4733
  23   2.0000     -10.305929      -280.4386
  24   2.0000     -10.305767      -280.4342
  25   2.0000     -10.303398      -280.3697
  26   2.0000     -10.302081      -280.3339
  27   2.0000     -10.301128      -280.3080
  28   2.0000     -10.298845      -280.2458
  29   2.0000     -10.298366      -280.2328
  30   2.0000     -10.297979      -280.2223
  31   2.0000     -10.295922      -280.1663
  32   2.0000     -10.295550      -280.1561
  33   2.0000     -10.294823      -280.1364
  34   2.0000     -10.294697      -280.1330
  35   2.0000     -10.294596      -280.1302
  36   2.0000     -10.293333      -280.0958
  37   2.0000     -10.293016      -280.0872
  38   2.0000     -10.292467      -280.0723
  39   2.0000     -10.292227      -280.0657
  40   2.0000     -10.289058      -279.9795
  41   2.0000     -10.288677      -279.9691
  42   2.0000     -10.286613      -279.9130
  43   2.0000     -10.286441      -279.9083
  44   2.0000     -10.285960      -279.8952
  45   2.0000     -10.285623      -279.8860
  46   2.0000     -10.284963      -279.8681
  47   2.0000     -10.284565      -279.8572
  48   2.0000     -10.284335      -279.8510
  49   2.0000     -10.284284      -279.8496
  50   2.0000     -10.283879      -279.8386
  51   2.0000     -10.283418      -279.8260
  52   2.0000     -10.283218      -279.8206
  53   2.0000     -10.279056      -279.7073
  54   2.0000     -10.278498      -279.6921
  55   2.0000     -10.277950      -279.6772
  56   2.0000     -10.276625      -279.6412
  57   2.0000     -10.275898      -279.6214
  58   2.0000     -10.275752      -279.6174
  59   2.0000     -10.275161      -279.6014
  60   2.0000     -10.274633      -279.5870
  61   2.0000     -10.268483      -279.4196
  62   2.0000      -8.082876      -219.9462
  63   2.0000      -8.061991      -219.3779
  64   2.0000      -6.052278      -164.6909
  65   2.0000      -6.047824      -164.5697
  66   2.0000      -6.044940      -164.4912
  67   2.0000      -6.031424      -164.1234
  68   2.0000      -6.027145      -164.0070
  69   2.0000      -6.024026      -163.9221
  70   2.0000      -1.125458       -30.6253
  71   2.0000      -1.113551       -30.3013
  72   2.0000      -1.017924       -27.6991
  73   2.0000      -1.016257       -27.6538
  74   2.0000      -1.003252       -27.2999
  75   2.0000      -0.996402       -27.1135
  76   2.0000      -0.992082       -26.9959
  77   2.0000      -0.985526       -26.8175
  78   2.0000      -0.984968       -26.8023
  79   2.0000      -0.979251       -26.6468
  80   2.0000      -0.969649       -26.3855
  81   2.0000      -0.958452       -26.0808
  82   2.0000      -0.945530       -25.7292
  83   2.0000      -0.936573       -25.4854
  84   2.0000      -0.927387       -25.2355
  85   2.0000      -0.921484       -25.0748
  86   2.0000      -0.913033       -24.8449
  87   2.0000      -0.909381       -24.7455
  88   2.0000      -0.898793       -24.4574
  89   2.0000      -0.891496       -24.2588
  90   2.0000      -0.879692       -23.9376
  91   2.0000      -0.879000       -23.9188
  92   2.0000      -0.870923       -23.6990
  93   2.0000      -0.868823       -23.6419
  94   2.0000      -0.862714       -23.4756
  95   2.0000      -0.846576       -23.0365
  96   2.0000      -0.838166       -22.8077
  97   2.0000      -0.826399       -22.4875
  98   2.0000      -0.821263       -22.3477
  99   2.0000      -0.816147       -22.2085
 100   2.0000      -0.815293       -22.1853
 101   2.0000      -0.797271       -21.6948
 102   2.0000      -0.784562       -21.3490
 103   2.0000      -0.765521       -20.8309
 104   2.0000      -0.758522       -20.6404
 105   2.0000      -0.748821       -20.3764
 106   2.0000      -0.747402       -20.3378
 107   2.0000      -0.739267       -20.1165
 108   2.0000      -0.719781       -19.5862
 109   2.0000      -0.706570       -19.2268
 110   2.0000      -0.700321       -19.0567
 111   2.0000      -0.695834       -18.9346
 112   2.0000      -0.691765       -18.8239
 113   2.0000      -0.686459       -18.6795
 114   2.0000      -0.680900       -18.5282
 115   2.0000      -0.678394       -18.4600
 116   2.0000      -0.673883       -18.3373
 117   2.0000      -0.665668       -18.1137
 118   2.0000      -0.662648       -18.0316
 119   2.0000      -0.654613       -17.8129
 120   2.0000      -0.648195       -17.6383
 121   2.0000      -0.640043       -17.4164
 122   2.0000      -0.631422       -17.1819
 123   2.0000      -0.629775       -17.1371
 124   2.0000      -0.621854       -16.9215
 125   2.0000      -0.616468       -16.7750
 126   2.0000      -0.606352       -16.4997
 127   2.0000      -0.605214       -16.4687
 128   2.0000      -0.603103       -16.4113
 129   2.0000      -0.594377       -16.1738
 130   2.0000      -0.589597       -16.0438
 131   2.0000      -0.583863       -15.8877
 132   2.0000      -0.576326       -15.6826
 133   2.0000      -0.575349       -15.6561
 134   2.0000      -0.573852       -15.6153
 135   2.0000      -0.561563       -15.2809
 136   2.0000      -0.555384       -15.1128
 137   2.0000      -0.546627       -14.8745
 138   2.0000      -0.544726       -14.8227
 139   2.0000      -0.543674       -14.7941
 140   2.0000      -0.540511       -14.7081
 141   2.0000      -0.534774       -14.5519
 142   2.0000      -0.534016       -14.5313
 143   2.0000      -0.531342       -14.4585
 144   2.0000      -0.526542       -14.3279
 145   2.0000      -0.525423       -14.2975
 146   2.0000      -0.522904       -14.2290
 147   2.0000      -0.521647       -14.1947
 148   2.0000      -0.520912       -14.1747
 149   2.0000      -0.517987       -14.0951
 150   2.0000      -0.514813       -14.0088
 151   2.0000      -0.509850       -13.8737
 152   2.0000      -0.509482       -13.8637
 153   2.0000      -0.504653       -13.7323
 154   2.0000      -0.503430       -13.6990
 155   2.0000      -0.501133       -13.6365
 156   2.0000      -0.496431       -13.5086
 157   2.0000      -0.491946       -13.3865
 158   2.0000      -0.488413       -13.2904
 159   2.0000      -0.487014       -13.2523
 160   2.0000      -0.484292       -13.1783
 161   2.0000      -0.482932       -13.1412
 162   2.0000      -0.480676       -13.0799
 163   2.0000      -0.474414       -12.9094
 164   2.0000      -0.473602       -12.8874
 165   2.0000      -0.467878       -12.7316
 166   2.0000      -0.467008       -12.7079
 167   2.0000      -0.462545       -12.5865
 168   2.0000      -0.457917       -12.4606
 169   2.0000      -0.457027       -12.4363
 170   2.0000      -0.453823       -12.3492
 171   2.0000      -0.451277       -12.2799
 172   2.0000      -0.448716       -12.2102
 173   2.0000      -0.447414       -12.1748
 174   2.0000      -0.445466       -12.1217
 175   2.0000      -0.442420       -12.0389
 176   2.0000      -0.441652       -12.0180
 177   2.0000      -0.437085       -11.8937
 178   2.0000      -0.435774       -11.8580
 179   2.0000      -0.434906       -11.8344
 180   2.0000      -0.431909       -11.7528
 181   2.0000      -0.431791       -11.7496
 182   2.0000      -0.429499       -11.6873
 183   2.0000      -0.428112       -11.6495
 184   2.0000      -0.427217       -11.6252
 185   2.0000      -0.426596       -11.6083
 186   2.0000      -0.423238       -11.5169
 187   2.0000      -0.422753       -11.5037
 188   2.0000      -0.421439       -11.4679
 189   2.0000      -0.420684       -11.4474
 190   2.0000      -0.419159       -11.4059
 191   2.0000      -0.413151       -11.2424
 192   2.0000      -0.412595       -11.2273
 193   2.0000      -0.406076       -11.0499
 194   2.0000      -0.402909       -10.9637
 195   2.0000      -0.400017       -10.8850
 196   2.0000      -0.392064       -10.6686
 197   2.0000      -0.384400       -10.4601
 198   2.0000      -0.377165       -10.2632
 199   2.0000      -0.372401       -10.1335
 200   2.0000      -0.364062        -9.9066
 201   2.0000      -0.355228        -9.6662
 202   2.0000      -0.348549        -9.4845
 203   2.0000      -0.332682        -9.0527
 204   2.0000      -0.329064        -8.9543
 205   2.0000      -0.319510        -8.6943
 206   2.0000      -0.315360        -8.5814
 207   2.0000      -0.305240        -8.3060
 208   2.0000      -0.303504        -8.2588
 209   2.0000      -0.293541        -7.9877
 210   2.0000      -0.290255        -7.8982
 211   2.0000      -0.281631        -7.6636
 212   2.0000      -0.267856        -7.2887
 213   2.0000      -0.227946        -6.2027
 214   0.0000      -0.110479        -3.0063
 215   0.0000      -0.088346        -2.4040
 216   0.0000      -0.062706        -1.7063
 217   0.0000      -0.052618        -1.4318
 218   0.0000      -0.043577        -1.1858

MULLIKEN ATOMIC CHARGES
-----------------------
   0 C :    0.276324
   1 C :   -0.341142
   2 C :   -0.174120
   3 N :    0.151658
   4 C :   -0.207533
   5 N :    0.170671
   6 C :    0.027208
   7 C :    0.019257
   8 C :   -0.084524
   9 C :    0.095982
  10 C :    0.093579
  11 C :   -0.081587
  12 C :   -0.016916
  13 C :    0.034273
  14 C :    0.035561
  15 C :   -0.014862
  16 C :    0.133850
  17 O :   -0.146266
  18 C :   -0.129626
  19 C :    0.039406
  20 C :    0.020342
  21 C :    0.048551
  22 C :    0.001370
  23 C :    0.084520
  24 C :   -0.080083
  25 C :   -0.019808
  26 C :    0.052768
  27 C :    0.064887
  28 C :   -0.125497
  29 S :    0.151935
  30 C :   -0.116346
  31 C :    0.055201
  32 C :   -0.002339
  33 C :   -0.065289
  34 S :    0.134665
  35 C :    0.087592
  36 C :    0.006080
  37 C :   -0.007571
  38 C :    0.042649
  39 C :    0.009572
  40 C :    0.053749
  41 C :   -0.013634
  42 C :   -0.031483
  43 C :   -0.084381
  44 C :    0.340397
  45 C :   -0.365491
  46 C :   -0.182866
  47 N :    0.136664
  48 C :   -0.190849
  49 N :    0.135058
  50 C :    0.044156
  51 C :    0.000744
  52 C :    0.144590
  53 O :   -0.159539
  54 C :   -0.087086
  55 C :    0.097371
  56 C :    0.095898
  57 C :   -0.087020
  58 C :   -0.019958
  59 C :    0.034721
  60 C :    0.033650
  61 C :   -0.016418
  62 H :   -0.013280
  63 H :   -0.006427
  64 H :   -0.012592
  65 H :   -0.004854
  66 H :   -0.005711
  67 H :   -0.018207
  68 H :    0.027762
  69 H :   -0.001002
  70 H :    0.011620
  71 H :   -0.003085
  72 H :   -0.000536
  73 H :   -0.021538
  74 H :    0.040506
  75 H :   -0.009009
  76 H :    0.029625
  77 H :   -0.028615
  78 H :   -0.028791
  79 H :   -0.005640
  80 H :   -0.004218
  81 H :    0.006641
  82 H :    0.018632
  83 H :    0.005124
  84 H :   -0.015779
  85 H :   -0.012176
  86 H :   -0.012495
  87 H :   -0.008641
  88 H :   -0.009680
  89 H :   -0.020298
Sum of atomic charges:    0.0000000

LOEWDIN ATOMIC CHARGES
----------------------
   0 C :    0.065537
   1 C :   -0.144463
   2 C :   -0.019995
   3 N :   -0.054587
   4 C :   -0.016052
   5 N :   -0.046562
   6 C :   -0.023451
   7 C :   -0.056682
   8 C :    0.031696
   9 C :   -0.009476
  10 C :   -0.005851
  11 C :    0.015115
  12 C :   -0.006602
  13 C :   -0.013931
  14 C :   -0.013704
  15 C :   -0.009507
  16 C :    0.082412
  17 O :   -0.146692
  18 C :   -0.093115
  19 C :    0.063040
  20 C :   -0.034549
  21 C :    0.033077
  22 C :   -0.024145
  23 C :   -0.005723
  24 C :   -0.165130
  25 C :   -0.004405
  26 C :   -0.007997
  27 C :   -0.050094
  28 C :   -0.139232
  29 S :    0.469910
  30 C :   -0.197441
  31 C :   -0.034736
  32 C :   -0.064182
  33 C :   -0.159910
  34 S :    0.428553
  35 C :   -0.048715
  36 C :    0.016452
  37 C :   -0.054698
  38 C :    0.011782
  39 C :   -0.038691
  40 C :    0.035811
  41 C :   -0.045130
  42 C :    0.065442
  43 C :   -0.105802
  44 C :    0.076327
  45 C :   -0.151656
  46 C :   -0.017333
  47 N :   -0.066133
  48 C :   -0.019766
  49 N :   -0.065177
  50 C :   -0.024068
  51 C :   -0.052929
  52 C :    0.082463
  53 O :   -0.155165
  54 C :    0.027219
  55 C :   -0.009523
  56 C :   -0.007799
  57 C :    0.015811
  58 C :   -0.006614
  59 C :   -0.017626
  60 C :   -0.016542
  61 C :   -0.011281
  62 H :    0.038917
  63 H :    0.038310
  64 H :    0.033676
  65 H :    0.032855
  66 H :    0.032515
  67 H :    0.031565
  68 H :    0.047207
  69 H :    0.031824
  70 H :    0.037014
  71 H :    0.031446
  72 H :    0.029561
  73 H :    0.037347
  74 H :    0.038600
  75 H :    0.030563
  76 H :    0.025573
  77 H :    0.026719
  78 H :    0.027333
  79 H :    0.033632
  80 H :    0.027574
  81 H :    0.034631
  82 H :    0.032225
  83 H :    0.040423
  84 H :    0.037908
  85 H :    0.037978
  86 H :    0.033680
  87 H :    0.031441
  88 H :    0.030837
  89 H :    0.030860

  Mayer bond orders larger than 0.100000
B(  0-C ,  1-C ) :   1.6333 B(  0-C ,  6-C ) :   0.9924 B(  0-C , 18-C ) :   1.0490
B(  1-C ,  2-C ) :   1.1303 B(  1-C ,  4-C ) :   1.1739 B(  2-C ,  3-N ) :   2.9854
B(  4-C ,  5-N ) :   2.9951 B(  6-C ,  7-C ) :   1.2162 B(  6-C , 11-C ) :   1.4609
B(  7-C ,  8-C ) :   1.4740 B(  7-C , 16-C ) :   0.9224 B(  8-C ,  9-C ) :   1.1827
B(  8-C , 62-H ) :   1.0160 B(  9-C , 10-C ) :   1.2588 B(  9-C , 15-C ) :   1.2449
B( 10-C , 11-C ) :   1.2029 B( 10-C , 12-C ) :   1.2443 B( 11-C , 63-H ) :   0.9932
B( 12-C , 13-C ) :   1.4878 B( 12-C , 64-H ) :   0.9968 B( 13-C , 14-C ) :   1.2621
B( 13-C , 65-H ) :   0.9888 B( 14-C , 15-C ) :   1.4888 B( 14-C , 66-H ) :   0.9884
B( 15-C , 67-H ) :   0.9972 B( 16-C , 17-O ) :   2.2597 B( 16-C , 18-C ) :   0.9453
B( 18-C , 19-C ) :   1.6275 B( 19-C , 20-C ) :   1.1963 B( 19-C , 68-H ) :   0.9253
B( 20-C , 21-C ) :   1.6055 B( 20-C , 69-H ) :   0.9544 B( 21-C , 22-C ) :   1.1990
B( 21-C , 70-H ) :   0.9642 B( 22-C , 23-C ) :   1.6713 B( 22-C , 71-H ) :   0.9671
B( 23-C , 24-C ) :   1.1377 B( 23-C , 72-H ) :   0.9484 B( 24-C , 25-C ) :   1.5011
B( 24-C , 29-S ) :   1.0644 B( 25-C , 26-C ) :   1.2912 B( 25-C , 73-H ) :   0.9633
B( 26-C , 27-C ) :   1.0537 B( 26-C , 35-C ) :   1.3168 B( 27-C , 28-C ) :   1.5896
B( 27-C , 30-C ) :   1.1918 B( 28-C , 29-S ) :   1.1542 B( 28-C , 74-H ) :   0.9412
B( 30-C , 31-C ) :   1.4406 B( 30-C , 34-S ) :   1.0811 B( 31-C , 32-C ) :   1.2132
B( 31-C , 35-C ) :   1.0881 B( 32-C , 33-C ) :   1.5893 B( 32-C , 75-H ) :   0.9991
B( 33-C , 34-S ) :   1.1543 B( 33-C , 76-H ) :   0.9656 B( 35-C , 36-C ) :   1.2242
B( 36-C , 37-C ) :   1.5703 B( 36-C , 77-H ) :   0.9517 B( 37-C , 38-C ) :   1.1837
B( 37-C , 78-H ) :   0.9797 B( 38-C , 39-C ) :   1.5651 B( 38-C , 79-H ) :   0.9757
B( 39-C , 40-C ) :   1.1984 B( 39-C , 80-H ) :   0.9743 B( 40-C , 41-C ) :   1.4785
B( 40-C , 81-H ) :   0.9925 B( 41-C , 42-C ) :   1.2075 B( 41-C , 82-H ) :   0.9853
B( 42-C , 43-C ) :   1.4876 B( 42-C , 83-H ) :   0.9580 B( 43-C , 44-C ) :   1.0874
B( 43-C , 52-C ) :   0.9555 B( 44-C , 45-C ) :   1.6015 B( 44-C , 50-C ) :   0.9806
B( 45-C , 46-C ) :   1.1483 B( 45-C , 48-C ) :   1.1517 B( 46-C , 47-N ) :   2.9582
B( 48-C , 49-N ) :   2.9591 B( 50-C , 51-C ) :   1.2186 B( 50-C , 57-C ) :   1.4554
B( 51-C , 52-C ) :   0.9380 B( 51-C , 54-C ) :   1.4774 B( 52-C , 53-O ) :   2.1954
B( 54-C , 55-C ) :   1.1724 B( 54-C , 84-H ) :   1.0159 B( 55-C , 56-C ) :   1.2621
B( 55-C , 61-C ) :   1.2459 B( 56-C , 57-C ) :   1.2015 B( 56-C , 58-C ) :   1.2405
B( 57-C , 85-H ) :   0.9883 B( 58-C , 59-C ) :   1.4891 B( 58-C , 86-H ) :   0.9964
B( 59-C , 60-C ) :   1.2617 B( 59-C , 87-H ) :   0.9878 B( 60-C , 61-C ) :   1.4866
B( 60-C , 88-H ) :   0.9885 B( 61-C , 89-H ) :   0.9970

-----------------------------------------------------------------------------
         ABSORPTION SPECTRUM VIA TRANSITION ELECTRIC DIPOLE MOMENTS
-----------------------------------------------------------------------------
State   Energy  Wavelength   fosc         T2         TX        TY        TZ
        (cm-1)    (nm)                  (au**2)     (au)      (au)      (au)
-----------------------------------------------------------------------------
   0   11648.2    858.5   0.681212463  19.25308   4.26711  -0.48455  -0.90004
   1   16725.3    597.9   0.911217371  17.93593  -2.28275  -3.56644  -0.07387
   2   20316.8    492.2   1.168470898  18.93381  -1.09828  -4.18540  -0.45826
   3   21477.0    465.6   0.053971381   0.82730  -0.10657  -0.89309  -0.13542
   4   23374.3    427.8   0.149942235   2.11184  -0.38663   1.40084   0.00157
   5   24505.2    408.1   0.022135766   0.29738   0.31281   0.21951  -0.38903
   6   25022.8    399.6   0.049453535   0.65064  -0.04447   0.75813  -0.27184
   7   25537.1    391.6   0.078199946   1.00811   0.55194  -0.83819  -0.03032
   8   26111.8    383.0   0.094624588   1.19301   0.20763   1.07181  -0.03349
   9   26485.9    377.6   0.124596523   1.54870  -0.07726   1.17592   0.39993
  10   26775.7    373.5   0.000124488   0.00153   0.02627  -0.01242   0.02619
  11   26989.4    370.5   0.043552805   0.53125  -0.40699  -0.42515  -0.42995
  12   27786.3    359.9   0.040373665   0.47835   0.05176  -0.56681  -0.39293
  13   28263.2    353.8   0.055087282   0.64166   0.15401   0.70224  -0.35327
  14   28893.6    346.1   0.012285743   0.13998   0.15632   0.17095  -0.29381
  15   28964.3    345.3   0.074463547   0.84636   0.09876  -0.83924  -0.36371
  16   29875.7    334.7   0.042536388   0.46872   0.37433   0.56298  -0.10798
  17   30798.0    324.7   0.242067828   2.58755  -1.08898   1.16590  -0.20584
  18   31281.7    319.7   0.073473308   0.77324  -0.23553  -0.07155   0.84418
  19   31905.4    313.4   0.598628996   6.17688  -0.07345   2.48321  -0.07182
  20   32233.9    310.2   0.082512978   0.84272   0.56948   0.27359   0.66601
  21   32579.2    306.9   0.034888504   0.35255  -0.19686   0.55990  -0.01755
  22   32745.2    305.4   0.361098166   3.63038   0.05604  -1.89663   0.17334
  23   33074.0    302.4   0.131432219   1.30825  -0.76973   0.13339   0.83545
  24   33595.9    297.7   0.100819655   0.98795  -0.24358   0.95489  -0.12966
  25   33954.4    294.5   0.026131081   0.25336  -0.49201  -0.10029   0.03502
  26   34308.9    291.5   0.115933367   1.11244  -0.37670   0.51892   0.83741
  27   34624.9    288.8   0.128594854   1.22267   0.54423  -0.76244  -0.58751
  28   35056.6    285.3   0.015230044   0.14302  -0.33208   0.16580  -0.07251
  29   35143.2    284.6   0.504442683   4.72549   0.91474  -1.55709  -1.21005
  30   35328.7    283.1   0.061132416   0.56966  -0.33323   0.50222   0.45431
  31   35573.7    281.1   0.050607177   0.46834  -0.15976  -0.64692  -0.15593
  32   36117.2    276.9   0.012701145   0.11577   0.28887   0.04520  -0.17402
  33   36561.4    273.5   0.149926362   1.34999   0.04982  -1.07602   0.43554
  34   36970.1    270.5   0.057692090   0.51374  -0.42782   0.55069  -0.16566
  35   37551.2    266.3   0.029766725   0.26097  -0.23045  -0.09125   0.44669
  36   37955.1    263.5   0.120411936   1.04442   0.76417  -0.67491  -0.07042
  37   38368.0    260.6   0.076852616   0.65942  -0.43171   0.61235  -0.31317
  38   38583.8    259.2   0.061585442   0.52547  -0.57470   0.42357   0.12561
  39   38773.1    257.9   0.094418836   0.80169  -0.80614   0.36969   0.12313
  40   38958.2    256.7   0.089211072   0.75387   0.27159   0.45337  -0.68889
  41   39557.2    252.8   0.112704649   0.93798  -0.71459   0.63454   0.15718
  42   39902.9    250.6   0.018441562   0.15215   0.32105  -0.17157   0.14014
  43   40057.1    249.6   0.126687684   1.04119   0.95214  -0.06330  -0.36141
  44   40121.8    249.2   0.166307768   1.36461   0.90286  -0.45534   0.58490

FINAL SINGLE POINT ENERGY     -3236.911001791276

DIPOLE MOMENT
-------------
                                X             Y             Z
Electronic contribution:      8.85840      17.54441      -3.16418
Nuclear contribution   :     -5.74478     -16.66658       3.15123
                        -----------------------------------------
Total Dipole Moment    :      3.11362       0.87783      -0.01295
                        -----------------------------------------
Magnitude (a.u.)       :      3.23502
Magnitude (Debye)      :      8.22278

Rotational constants in cm-1:     0.000830     0.000676     0.000390
Rotational constants in MHz :    24.885024    20.270184    11.705178

                             ****ORCA TERMINATED NORMALLY****
TOTAL RUN TIME: 0 days 0 hours 7 minutes 36 seconds 855 msec
