                         Program Version 4.2.0 -  RELEASE  -
|  1> # ORCA input file
|  2> # SCF done       -157.286453763734          0.000838422376
|  3> ! CAM-B3LYP def2-SVP def2/J RIJCOSX Grid4 TightSCF
|  4> %maxcore 5000
|  5> %tddft
|  6>     Mode sTDDFT
|  7>     Ethresh 5.0
|  8>     maxcore 5000
|  9> end
| 10>
| 11> %pal
| 12>   nprocs 6
| 13>   end
| 14> * xyz 0 1
| 15>    C       -5.09658         0.90196        -5.77742
| 16>    C       -5.43890         2.06271        -5.14322
| 17>    C       -4.84705         2.46767        -3.93062
| 18>    C       -3.87416         1.73424        -3.28009
| 19>    C       -3.49499         0.51825        -3.91688
| 20>    C       -4.11006         0.11223        -5.15909
| 21>    N       -3.56654        -1.04148        -5.50232
| 22>    O       -2.68389        -1.33386        -4.55264
| 23>    N       -2.62273        -0.41501        -3.59223
| 24>    C       -3.27172         2.14126        -2.04753
| 25>    C       -2.28162         1.49224        -1.33921
| 26>    C       -1.93512         2.17542        -0.17160
| 27>    C       -2.67832         3.36297         0.00910
| 28>    S       -3.78932         3.63084        -1.25788
| 29>    C       -2.27448         3.97754         1.21000
| 30>    C       -1.26846         3.18209         1.80068
| 31>    C       -1.02334         2.02706         0.94060
| 32>    C       -0.11223         1.03274         1.15774
| 33>    C        0.72670         1.03434         2.29018
| 34>    N        1.40994         1.04597         3.21200
| 35>    C        0.06141        -0.05246         0.27361
| 36>    N        0.22059        -0.94324        -0.43040
| 37>    C       -0.80920         3.68046         3.00611
| 38>    C       -1.44743         4.86898         3.37134
| 39>    S       -2.64646         5.34835         2.16182
| 40>    C       -1.32756         5.67141         4.51063
| 41>    C       -0.42886         5.57628         5.55324
| 42>    C        0.71391         4.77042         5.75356
| 43>    C        1.34118         4.97874         6.94835
| 44>    C        0.72496         5.95224         7.75987
| 45>    S       -0.65984         6.62702         6.94463
| 46>    C        1.09022         6.35051         9.03820
| 47>    C        2.16897         5.89298         9.81928
| 48>    C        2.22932         6.46196        11.05851
| 49>    C        1.19944         7.39451        11.32451
| 50>    S        0.16119         7.53720         9.92048
| 51>    C        1.02406         8.05511        12.52188
| 52>    C        0.01675         8.96005        12.86915
| 53>    C       -1.02118         9.49801        12.10276
| 54>    C       -1.83213        10.34432        12.83678
| 55>    C       -1.43591        10.47403        14.18576
| 56>    S       -0.03879         9.55054        14.53449
| 57>    C       -2.34411        11.33124        14.83610
| 58>    C       -3.31886        11.75641        13.90679
| 59>    C       -3.02481        11.15963        12.62215
| 60>    C       -3.70231        11.31714        11.44740
| 61>    C       -4.84525        12.13624        11.33149
| 62>    N       -5.77484        12.79666        11.21418
| 63>    C       -3.30280        10.67253        10.25830
| 64>    N       -2.98565        10.15122         9.28698
| 65>    C       -4.27559        12.60052        14.47386
| 66>    C       -4.04548        12.82135        15.81622
| 67>    S       -2.61097        11.97400        16.39446
| 68>    C       -4.82395        13.61523        16.71675
| 69>    C       -4.51729        13.77129        18.05445
| 70>    C       -5.29061        14.54813        18.93927
| 71>    C       -6.41518        15.21500        18.54243
| 72>    C       -6.77643        15.09274        17.18832
| 73>    C       -5.99118        14.29920        16.27188
| 74>    N       -6.57477        14.37672        15.09267
| 75>    O       -7.64089        15.15642        15.25401
| 76>    N       -7.78387        15.59763        16.49950
| 77>    H       -5.54435         0.58516        -6.70365
| 78>    H       -6.19101         2.70495        -5.57630
| 79>    H       -5.17285         3.39958        -3.49103
| 80>    H       -1.85107         0.56663        -1.67618
| 81>    H       -0.07503         3.19400         3.61773
| 82>    H       -2.05673         6.46798         4.59132
| 83>    H        1.07530         4.07653         5.01852
| 84>    H        2.22509         4.45195         7.25971
| 85>    H        2.86701         5.16043         9.45672
| 86>    H        2.98009         6.23364        11.79423
| 87>    H        1.74304         7.82304        13.29749
| 88>    H       -1.15877         9.27640        11.06159
| 89>    H       -5.10898        13.04128        13.95730
| 90>    H       -3.64181        13.27306        18.44583
| 91>    H       -4.97034        14.60889        19.96859
| 92>    H       -7.01200        15.80970        19.21242
| 93> *
| 94>
| 95>                          ****END OF INPUT****

CARTESIAN COORDINATES (ANGSTROEM)
---------------------------------
  C     -5.096580    0.901960   -5.777420
  C     -5.438900    2.062710   -5.143220
  C     -4.847050    2.467670   -3.930620
  C     -3.874160    1.734240   -3.280090
  C     -3.494990    0.518250   -3.916880
  C     -4.110060    0.112230   -5.159090
  N     -3.566540   -1.041480   -5.502320
  O     -2.683890   -1.333860   -4.552640
  N     -2.622730   -0.415010   -3.592230
  C     -3.271720    2.141260   -2.047530
  C     -2.281620    1.492240   -1.339210
  C     -1.935120    2.175420   -0.171600
  C     -2.678320    3.362970    0.009100
  S     -3.789320    3.630840   -1.257880
  C     -2.274480    3.977540    1.210000
  C     -1.268460    3.182090    1.800680
  C     -1.023340    2.027060    0.940600
  C     -0.112230    1.032740    1.157740
  C      0.726700    1.034340    2.290180
  N      1.409940    1.045970    3.212000
  C      0.061410   -0.052460    0.273610
  N      0.220590   -0.943240   -0.430400
  C     -0.809200    3.680460    3.006110
  C     -1.447430    4.868980    3.371340
  S     -2.646460    5.348350    2.161820
  C     -1.327560    5.671410    4.510630
  C     -0.428860    5.576280    5.553240
  C      0.713910    4.770420    5.753560
  C      1.341180    4.978740    6.948350
  C      0.724960    5.952240    7.759870
  S     -0.659840    6.627020    6.944630
  C      1.090220    6.350510    9.038200
  C      2.168970    5.892980    9.819280
  C      2.229320    6.461960   11.058510
  C      1.199440    7.394510   11.324510
  S      0.161190    7.537200    9.920480
  C      1.024060    8.055110   12.521880
  C      0.016750    8.960050   12.869150
  C     -1.021180    9.498010   12.102760
  C     -1.832130   10.344320   12.836780
  C     -1.435910   10.474030   14.185760
  S     -0.038790    9.550540   14.534490
  C     -2.344110   11.331240   14.836100
  C     -3.318860   11.756410   13.906790
  C     -3.024810   11.159630   12.622150
  C     -3.702310   11.317140   11.447400
  C     -4.845250   12.136240   11.331490
  N     -5.774840   12.796660   11.214180
  C     -3.302800   10.672530   10.258300
  N     -2.985650   10.151220    9.286980
  C     -4.275590   12.600520   14.473860
  C     -4.045480   12.821350   15.816220
  S     -2.610970   11.974000   16.394460
  C     -4.823950   13.615230   16.716750
  C     -4.517290   13.771290   18.054450
  C     -5.290610   14.548130   18.939270
  C     -6.415180   15.215000   18.542430
  C     -6.776430   15.092740   17.188320
  C     -5.991180   14.299200   16.271880
  N     -6.574770   14.376720   15.092670
  O     -7.640890   15.156420   15.254010
  N     -7.783870   15.597630   16.499500
  H     -5.544350    0.585160   -6.703650
  H     -6.191010    2.704950   -5.576300
  H     -5.172850    3.399580   -3.491030
  H     -1.851070    0.566630   -1.676180
  H     -0.075030    3.194000    3.617730
  H     -2.056730    6.467980    4.591320
  H      1.075300    4.076530    5.018520
  H      2.225090    4.451950    7.259710
  H      2.867010    5.160430    9.456720
  H      2.980090    6.233640   11.794230
  H      1.743040    7.823040   13.297490
  H     -1.158770    9.276400   11.061590
  H     -5.108980   13.041280   13.957300
  H     -3.641810   13.273060   18.445830
  H     -4.970340   14.608890   19.968590
  H     -7.012000   15.809700   19.212420

 Total Charge           Charge          ....    0
 Multiplicity           Mult            ....    1
 Number of Electrons    NEL             ....  460
 Basis Dimension        Dim             ....  972

ORBITAL ENERGIES
----------------

  NO   OCC          E(Eh)            E(eV)
   0   2.0000     -88.985268     -2421.4122
   1   2.0000     -88.985202     -2421.4104
   2   2.0000     -88.983401     -2421.3614
   3   2.0000     -88.983159     -2421.3549
   4   2.0000     -88.956063     -2420.6175
   5   2.0000     -88.950577     -2420.4683
   6   2.0000     -19.353066      -526.6237
   7   2.0000     -19.352669      -526.6129
   8   2.0000     -14.478769      -393.9873
   9   2.0000     -14.478395      -393.9772
  10   2.0000     -14.476113      -393.9151
  11   2.0000     -14.475657      -393.9027
  12   2.0000     -14.428656      -392.6237
  13   2.0000     -14.425687      -392.5429
  14   2.0000     -14.423181      -392.4747
  15   2.0000     -14.422600      -392.4589
  16   2.0000     -10.360064      -281.9117
  17   2.0000     -10.359538      -281.8974
  18   2.0000     -10.347315      -281.5648
  19   2.0000     -10.346024      -281.5296
  20   2.0000     -10.331777      -281.1419
  21   2.0000     -10.331485      -281.1340
  22   2.0000     -10.329544      -281.0812
  23   2.0000     -10.326030      -280.9855
  24   2.0000     -10.325496      -280.9710
  25   2.0000     -10.325074      -280.9595
  26   2.0000     -10.324034      -280.9313
  27   2.0000     -10.323802      -280.9249
  28   2.0000     -10.323757      -280.9237
  29   2.0000     -10.322743      -280.8961
  30   2.0000     -10.322481      -280.8890
  31   2.0000     -10.322177      -280.8807
  32   2.0000     -10.322146      -280.8799
  33   2.0000     -10.321692      -280.8675
  34   2.0000     -10.319549      -280.8092
  35   2.0000     -10.318858      -280.7904
  36   2.0000     -10.318756      -280.7876
  37   2.0000     -10.318567      -280.7825
  38   2.0000     -10.318227      -280.7732
  39   2.0000     -10.318060      -280.7687
  40   2.0000     -10.317198      -280.7452
  41   2.0000     -10.316731      -280.7325
  42   2.0000     -10.301582      -280.3203
  43   2.0000     -10.300936      -280.3027
  44   2.0000     -10.298711      -280.2422
  45   2.0000     -10.298210      -280.2286
  46   2.0000     -10.298173      -280.2275
  47   2.0000     -10.297781      -280.2169
  48   2.0000     -10.297657      -280.2135
  49   2.0000     -10.296867      -280.1920
  50   2.0000     -10.296558      -280.1836
  51   2.0000     -10.296209      -280.1741
  52   2.0000     -10.295905      -280.1658
  53   2.0000     -10.295816      -280.1634
  54   2.0000     -10.295801      -280.1630
  55   2.0000     -10.295379      -280.1515
  56   2.0000     -10.294976      -280.1405
  57   2.0000     -10.294503      -280.1277
  58   2.0000     -10.293369      -280.0968
  59   2.0000     -10.293347      -280.0962
  60   2.0000     -10.292392      -280.0702
  61   2.0000     -10.292104      -280.0624
  62   2.0000      -8.079798      -219.8625
  63   2.0000      -8.079777      -219.8619
  64   2.0000      -8.078010      -219.8138
  65   2.0000      -8.077852      -219.8095
  66   2.0000      -8.051769      -219.0998
  67   2.0000      -8.047263      -218.9772
  68   2.0000      -6.049054      -164.6031
  69   2.0000      -6.049046      -164.6029
  70   2.0000      -6.047242      -164.5538
  71   2.0000      -6.047114      -164.5504
  72   2.0000      -6.044904      -164.4902
  73   2.0000      -6.044889      -164.4898
  74   2.0000      -6.043161      -164.4428
  75   2.0000      -6.043067      -164.4402
  76   2.0000      -6.042172      -164.4159
  77   2.0000      -6.042117      -164.4144
  78   2.0000      -6.040332      -164.3658
  79   2.0000      -6.040069      -164.3586
  80   2.0000      -6.021502      -163.8534
  81   2.0000      -6.017365      -163.7408
  82   2.0000      -6.016994      -163.7307
  83   2.0000      -6.012919      -163.6198
  84   2.0000      -6.012848      -163.6179
  85   2.0000      -6.008089      -163.4884
  86   2.0000      -1.306479       -35.5511
  87   2.0000      -1.306028       -35.5388
  88   2.0000      -1.039591       -28.2887
  89   2.0000      -1.039073       -28.2746
  90   2.0000      -1.018129       -27.7047
  91   2.0000      -1.016484       -27.6599
  92   2.0000      -1.010715       -27.5030
  93   2.0000      -1.010367       -27.4935
  94   2.0000      -1.005040       -27.3485
  95   2.0000      -1.002752       -27.2863
  96   2.0000      -1.001413       -27.2498
  97   2.0000      -1.000659       -27.2293
  98   2.0000      -1.000177       -27.2162
  99   2.0000      -0.988966       -26.9111
 100   2.0000      -0.985842       -26.8261
 101   2.0000      -0.979293       -26.6479
 102   2.0000      -0.954078       -25.9618
 103   2.0000      -0.953018       -25.9329
 104   2.0000      -0.921311       -25.0701
 105   2.0000      -0.920510       -25.0484
 106   2.0000      -0.913225       -24.8501
 107   2.0000      -0.909696       -24.7541
 108   2.0000      -0.894411       -24.3382
 109   2.0000      -0.880672       -23.9643
 110   2.0000      -0.874591       -23.7988
 111   2.0000      -0.871669       -23.7193
 112   2.0000      -0.860168       -23.4064
 113   2.0000      -0.854077       -23.2406
 114   2.0000      -0.850752       -23.1501
 115   2.0000      -0.849985       -23.1293
 116   2.0000      -0.848060       -23.0769
 117   2.0000      -0.830309       -22.5938
 118   2.0000      -0.821912       -22.3654
 119   2.0000      -0.793652       -21.5964
 120   2.0000      -0.781067       -21.2539
 121   2.0000      -0.776196       -21.1214
 122   2.0000      -0.773875       -21.0582
 123   2.0000      -0.769637       -20.9429
 124   2.0000      -0.757997       -20.6261
 125   2.0000      -0.746138       -20.3035
 126   2.0000      -0.744892       -20.2696
 127   2.0000      -0.744444       -20.2573
 128   2.0000      -0.717308       -19.5189
 129   2.0000      -0.709945       -19.3186
 130   2.0000      -0.700645       -19.0655
 131   2.0000      -0.694851       -18.9079
 132   2.0000      -0.684823       -18.6350
 133   2.0000      -0.680090       -18.5062
 134   2.0000      -0.676989       -18.4218
 135   2.0000      -0.668791       -18.1987
 136   2.0000      -0.658588       -17.9211
 137   2.0000      -0.649227       -17.6664
 138   2.0000      -0.643456       -17.5093
 139   2.0000      -0.639326       -17.3969
 140   2.0000      -0.636030       -17.3073
 141   2.0000      -0.634416       -17.2633
 142   2.0000      -0.629123       -17.1193
 143   2.0000      -0.621403       -16.9092
 144   2.0000      -0.619343       -16.8532
 145   2.0000      -0.611425       -16.6377
 146   2.0000      -0.608656       -16.5624
 147   2.0000      -0.606540       -16.5048
 148   2.0000      -0.604744       -16.4559
 149   2.0000      -0.603969       -16.4348
 150   2.0000      -0.603546       -16.4233
 151   2.0000      -0.589366       -16.0375
 152   2.0000      -0.581147       -15.8138
 153   2.0000      -0.575861       -15.6700
 154   2.0000      -0.573999       -15.6193
 155   2.0000      -0.567105       -15.4317
 156   2.0000      -0.565272       -15.3818
 157   2.0000      -0.553571       -15.0634
 158   2.0000      -0.542569       -14.7641
 159   2.0000      -0.542019       -14.7491
 160   2.0000      -0.540180       -14.6990
 161   2.0000      -0.535418       -14.5695
 162   2.0000      -0.531115       -14.4524
 163   2.0000      -0.525931       -14.3113
 164   2.0000      -0.518991       -14.1225
 165   2.0000      -0.511513       -13.9190
 166   2.0000      -0.507577       -13.8119
 167   2.0000      -0.505043       -13.7429
 168   2.0000      -0.502194       -13.6654
 169   2.0000      -0.501236       -13.6393
 170   2.0000      -0.498360       -13.5611
 171   2.0000      -0.496001       -13.4969
 172   2.0000      -0.494916       -13.4673
 173   2.0000      -0.494372       -13.4525
 174   2.0000      -0.493266       -13.4224
 175   2.0000      -0.490177       -13.3384
 176   2.0000      -0.489088       -13.3088
 177   2.0000      -0.485458       -13.2100
 178   2.0000      -0.482308       -13.1243
 179   2.0000      -0.481966       -13.1150
 180   2.0000      -0.476141       -12.9565
 181   2.0000      -0.469205       -12.7677
 182   2.0000      -0.466256       -12.6875
 183   2.0000      -0.465025       -12.6540
 184   2.0000      -0.464741       -12.6462
 185   2.0000      -0.461532       -12.5589
 186   2.0000      -0.459941       -12.5156
 187   2.0000      -0.459401       -12.5009
 188   2.0000      -0.457412       -12.4468
 189   2.0000      -0.455680       -12.3997
 190   2.0000      -0.451303       -12.2806
 191   2.0000      -0.450251       -12.2519
 192   2.0000      -0.443652       -12.0724
 193   2.0000      -0.441502       -12.0139
 194   2.0000      -0.439228       -11.9520
 195   2.0000      -0.435986       -11.8638
 196   2.0000      -0.434640       -11.8272
 197   2.0000      -0.434162       -11.8142
 198   2.0000      -0.434018       -11.8102
 199   2.0000      -0.433276       -11.7900
 200   2.0000      -0.432000       -11.7553
 201   2.0000      -0.430560       -11.7161
 202   2.0000      -0.429556       -11.6888
 203   2.0000      -0.425068       -11.5667
 204   2.0000      -0.420742       -11.4490
 205   2.0000      -0.419471       -11.4144
 206   2.0000      -0.410320       -11.1654
 207   2.0000      -0.406827       -11.0703
 208   2.0000      -0.405139       -11.0244
 209   2.0000      -0.400562       -10.8998
 210   2.0000      -0.400136       -10.8883
 211   2.0000      -0.397849       -10.8260
 212   2.0000      -0.390355       -10.6221
 213   2.0000      -0.389961       -10.6114
 214   2.0000      -0.383033       -10.4229
 215   2.0000      -0.368376       -10.0240
 216   2.0000      -0.364227        -9.9111
 217   2.0000      -0.361220        -9.8293
 218   2.0000      -0.346850        -9.4383
 219   2.0000      -0.345765        -9.4087
 220   2.0000      -0.344704        -9.3799
 221   2.0000      -0.342344        -9.3157
 222   2.0000      -0.330757        -9.0004
 223   2.0000      -0.323776        -8.8104
 224   2.0000      -0.318902        -8.6778
 225   2.0000      -0.317900        -8.6505
 226   2.0000      -0.301375        -8.2008
 227   2.0000      -0.275234        -7.4895
 228   2.0000      -0.252636        -6.8746
 229   2.0000      -0.208792        -5.6815
 230   0.0000      -0.112108        -3.0506
 231   0.0000      -0.100431        -2.7329
 232   0.0000      -0.082383        -2.2418
 233   0.0000      -0.064855        -1.7648
 234   0.0000      -0.061266        -1.6671

MULLIKEN ATOMIC CHARGES
-----------------------
   0 C :   -0.025480
   1 C :    0.042329
   2 C :   -0.080844
   3 C :    0.175287
   4 C :   -0.075792
   5 C :    0.005023
   6 N :    0.057475
   7 O :   -0.090702
   8 N :    0.040160
   9 C :   -0.124209
  10 C :   -0.046771
  11 C :    0.012878
  12 C :   -0.084524
  13 S :    0.160047
  14 C :   -0.104874
  15 C :    0.007953
  16 C :    0.308555
  17 C :   -0.299602
  18 C :   -0.185421
  19 N :    0.159963
  20 C :   -0.192628
  21 N :    0.187548
  22 C :   -0.041573
  23 C :   -0.085970
  24 S :    0.181321
  25 C :    0.082404
  26 C :   -0.072269
  27 C :    0.020352
  28 C :    0.019966
  29 C :   -0.043985
  30 S :    0.111787
  31 C :   -0.027746
  32 C :    0.029293
  33 C :    0.030260
  34 C :   -0.028577
  35 S :    0.070831
  36 C :    0.024538
  37 C :   -0.085574
  38 C :   -0.050255
  39 C :    0.003854
  40 C :   -0.105076
  41 S :    0.174245
  42 C :   -0.084472
  43 C :    0.013967
  44 C :    0.312386
  45 C :   -0.302687
  46 C :   -0.195011
  47 N :    0.187841
  48 C :   -0.185605
  49 N :    0.169582
  50 C :   -0.051102
  51 C :   -0.122288
  52 S :    0.157112
  53 C :    0.175439
  54 C :   -0.082171
  55 C :    0.043796
  56 C :   -0.028266
  57 C :    0.004168
  58 C :   -0.073353
  59 N :    0.040599
  60 O :   -0.091135
  61 N :    0.057570
  62 H :   -0.009348
  63 H :    0.002505
  64 H :   -0.006914
  65 H :    0.025905
  66 H :   -0.002277
  67 H :   -0.006351
  68 H :   -0.000364
  69 H :   -0.006784
  70 H :   -0.008949
  71 H :   -0.009942
  72 H :   -0.016270
  73 H :    0.026067
  74 H :    0.026005
  75 H :   -0.007324
  76 H :    0.001494
  77 H :   -0.008019
Sum of atomic charges:   -0.0000000

LOEWDIN ATOMIC CHARGES
----------------------
   0 C :   -0.021686
   1 C :   -0.005591
   2 C :   -0.027963
   3 C :   -0.032207
   4 C :   -0.047900
   5 C :   -0.056765
   6 N :   -0.021354
   7 O :    0.081108
   8 N :   -0.023546
   9 C :   -0.169688
  10 C :   -0.013207
  11 C :   -0.080004
  12 C :   -0.164229
  13 S :    0.467120
  14 C :   -0.198743
  15 C :   -0.056385
  16 C :    0.082130
  17 C :   -0.102038
  18 C :   -0.011365
  19 N :   -0.043394
  20 C :   -0.021880
  21 N :   -0.021781
  22 C :   -0.037159
  23 C :   -0.150069
  24 S :    0.469067
  25 C :   -0.081696
  26 C :   -0.138401
  27 C :   -0.038768
  28 C :   -0.016882
  29 C :   -0.176597
  30 S :    0.394533
  31 C :   -0.177272
  32 C :   -0.033176
  33 C :   -0.032595
  34 C :   -0.142766
  35 S :    0.403613
  36 C :   -0.082522
  37 C :   -0.156492
  38 C :   -0.042822
  39 C :   -0.056368
  40 C :   -0.197053
  41 S :    0.461600
  42 C :   -0.165294
  43 C :   -0.078493
  44 C :    0.080233
  45 C :   -0.098917
  46 C :   -0.021318
  47 N :   -0.022460
  48 C :   -0.015869
  49 N :   -0.034579
  50 C :   -0.013556
  51 C :   -0.169882
  52 S :    0.464617
  53 C :   -0.031926
  54 C :   -0.028658
  55 C :   -0.005679
  56 C :   -0.022337
  57 C :   -0.056808
  58 C :   -0.047935
  59 N :   -0.023012
  60 O :    0.081074
  61 N :   -0.021411
  62 H :    0.040163
  63 H :    0.037090
  64 H :    0.024671
  65 H :    0.042203
  66 H :    0.035126
  67 H :    0.031471
  68 H :    0.036150
  69 H :    0.035505
  70 H :    0.033781
  71 H :    0.034254
  72 H :    0.033921
  73 H :    0.025315
  74 H :    0.042138
  75 H :    0.024492
  76 H :    0.036847
  77 H :    0.040276

  Mayer bond orders larger than 0.100000
B(  0-C ,  1-C ) :   1.5275 B(  0-C ,  3-C ) :   0.1052 B(  0-C ,  5-C ) :   1.1641
B(  0-C , 62-H ) :   1.0237 B(  1-C ,  2-C ) :   1.2067 B(  1-C , 63-H ) :   0.9808
B(  2-C ,  3-C ) :   1.5136 B(  2-C , 64-H ) :   0.9856 B(  3-C ,  4-C ) :   1.1456
B(  3-C ,  9-C ) :   1.1148 B(  4-C ,  5-C ) :   1.1477 B(  4-C ,  8-N ) :   1.5937
B(  5-C ,  6-N ) :   1.5935 B(  6-N ,  7-O ) :   1.0738 B(  6-N ,  8-N ) :   0.1844
B(  7-O ,  8-N ) :   1.0644 B(  9-C , 10-C ) :   1.5021 B(  9-C , 13-S ) :   1.0719
B( 10-C , 11-C ) :   1.2404 B( 10-C , 65-H ) :   0.9815 B( 11-C , 12-C ) :   1.4199
B( 11-C , 16-C ) :   1.0105 B( 12-C , 13-S ) :   1.1313 B( 12-C , 14-C ) :   1.2161
B( 14-C , 15-C ) :   1.4122 B( 14-C , 24-S ) :   1.1039 B( 15-C , 16-C ) :   0.9854
B( 15-C , 22-C ) :   1.3511 B( 16-C , 17-C ) :   1.7050 B( 17-C , 18-C ) :   1.1369
B( 17-C , 20-C ) :   1.1354 B( 18-C , 19-N ) :   2.9895 B( 20-C , 21-N ) :   2.9962
B( 22-C , 23-C ) :   1.3808 B( 22-C , 66-H ) :   0.9861 B( 23-C , 24-S ) :   1.1046
B( 23-C , 25-C ) :   1.2205 B( 25-C , 26-C ) :   1.5576 B( 25-C , 67-H ) :   0.9302
B( 26-C , 27-C ) :   1.1618 B( 26-C , 30-S ) :   1.0465 B( 27-C , 28-C ) :   1.5828
B( 27-C , 68-H ) :   0.9933 B( 28-C , 29-C ) :   1.2061 B( 28-C , 69-H ) :   0.9947
B( 29-C , 30-S ) :   1.0662 B( 29-C , 31-C ) :   1.4606 B( 31-C , 32-C ) :   1.2080
B( 31-C , 35-S ) :   1.0513 B( 32-C , 33-C ) :   1.5667 B( 32-C , 70-H ) :   0.9939
B( 33-C , 34-C ) :   1.1629 B( 33-C , 71-H ) :   0.9999 B( 34-C , 35-S ) :   1.0489
B( 34-C , 36-C ) :   1.5663 B( 36-C , 37-C ) :   1.1942 B( 36-C , 72-H ) :   0.9507
B( 37-C , 38-C ) :   1.3847 B( 37-C , 41-S ) :   1.0958 B( 38-C , 39-C ) :   1.3601
B( 38-C , 73-H ) :   0.9685 B( 39-C , 40-C ) :   1.4177 B( 39-C , 44-C ) :   0.9851
B( 40-C , 41-S ) :   1.1023 B( 40-C , 42-C ) :   1.2153 B( 42-C , 43-C ) :   1.4225
B( 42-C , 52-S ) :   1.1283 B( 43-C , 44-C ) :   1.0077 B( 43-C , 50-C ) :   1.2407
B( 44-C , 45-C ) :   1.7070 B( 45-C , 46-C ) :   1.1363 B( 45-C , 48-C ) :   1.1377
B( 46-C , 47-N ) :   2.9961 B( 48-C , 49-N ) :   2.9803 B( 50-C , 51-C ) :   1.5001
B( 50-C , 74-H ) :   0.9815 B( 51-C , 52-S ) :   1.0720 B( 51-C , 53-C ) :   1.1165
B( 53-C , 54-C ) :   1.5121 B( 53-C , 56-C ) :   0.1059 B( 53-C , 58-C ) :   1.1439
B( 54-C , 55-C ) :   1.2064 B( 54-C , 75-H ) :   0.9862 B( 55-C , 56-C ) :   1.5266
B( 55-C , 76-H ) :   0.9809 B( 56-C , 57-C ) :   1.1639 B( 56-C , 77-H ) :   1.0235
B( 57-C , 58-C ) :   1.1468 B( 57-C , 61-N ) :   1.5945 B( 58-C , 59-N ) :   1.5934
B( 59-N , 60-O ) :   1.0634 B( 59-N , 61-N ) :   0.1845 B( 60-O , 61-N ) :   1.0743

-----------------------------------------------------------------------------
         ABSORPTION SPECTRUM VIA TRANSITION ELECTRIC DIPOLE MOMENTS
-----------------------------------------------------------------------------
State   Energy  Wavelength   fosc         T2         TX        TY        TZ
        (cm-1)    (nm)                  (au**2)     (au)      (au)      (au)
-----------------------------------------------------------------------------
   0    7404.8   1350.5   0.671865212  29.87082  -0.25993   2.85360   4.65406
   1    8840.7   1131.1   0.050163073   1.86799   1.00951   0.08144   0.91774
   2   13622.9    734.1   1.343876135  32.47610   0.25084   2.65396   5.03683
   3   16540.3    604.6   0.030279107   0.60266  -0.70358   0.20466  -0.25641
   4   18108.1    552.2   0.006000078   0.10908   0.21736  -0.24612  -0.03556
   5   20443.4    489.2   0.354828431   5.71400   2.22634  -0.68588   0.53570
   6   21501.9    465.1   0.136292212   2.08675   0.04526   0.68577   1.27060
   7   22541.4    443.6   0.166522255   2.43202  -1.41830   0.60232  -0.24008
   8   24197.9    413.3   0.049890054   0.67875  -0.31941   0.56094   0.51194
   9   25751.5    388.3   0.100497217   1.28478  -1.02318   0.20034  -0.44469
  10   26615.4    375.7   0.045338768   0.56081  -0.66487   0.17157  -0.29887
  11   27999.4    357.2   0.197233938   2.31904   0.37396  -0.82078  -1.22699
  12   29198.2    342.5   0.040263516   0.45397  -0.44309   0.29116   0.41577
  13   29453.7    339.5   0.217338031   2.42924  -0.49633  -0.27732  -1.45120
  14   29635.6    337.4   0.047128974   0.52354  -0.51283   0.07123  -0.50545
  15   30470.8    328.2   0.131574673   1.42156   0.25013   0.21038   1.14662
  16   31020.4    322.4   0.758932343   8.05435   1.97698  -1.81410   0.92465
  17   31188.0    320.6   0.030989014   0.32711   0.25890   0.00443   0.50997
  18   31301.2    319.5   0.099555596   1.04708  -0.17075   0.62558   0.79157
  19   32554.8    307.2   0.023706395   0.23973  -0.43849   0.21780  -0.00465
  20   32673.2    306.1   0.103466778   1.04252  -0.90321   0.45270   0.14765
  21   32926.2    303.7   0.145355471   1.45333   0.26460   0.42425   1.09697
  22   33313.2    300.2   0.087981430   0.86946   0.20078   0.48548   0.77036
  23   33713.1    296.6   0.340577050   3.32577  -0.37068  -0.41715  -1.73619
  24   34143.5    292.9   0.009748975   0.09400   0.26578  -0.14969   0.03092
  25   34932.5    286.3   0.022230444   0.20951  -0.38173   0.24988   0.03670
  26   35397.9    282.5   0.286918124   2.66843  -1.15259   1.08722  -0.39739
  27   35848.2    279.0   0.026063730   0.23936   0.27442  -0.27518  -0.29719
  28   35919.1    278.4   0.094858964   0.86942  -0.52041   0.67650   0.37543
  29   36222.9    276.1   0.185486991   1.68580  -0.86508   0.85387   0.45645
  30   36502.3    274.0   0.065114506   0.58726   0.25014   0.33629   0.64156
  31   36866.3    271.3   0.008704026   0.07773   0.16444  -0.17954  -0.13583
  32   37147.9    269.2   0.009284433   0.08228   0.06518   0.00830  -0.27922
  33   37424.4    267.2   0.010147196   0.08926   0.21544   0.07178   0.19415
  34   37563.8    266.2   0.068116000   0.59697   0.49092   0.05153   0.59440
  35   37835.3    264.3   0.018873267   0.16422   0.31428  -0.08370   0.24175
  36   37899.8    263.9   0.115462107   1.00295   0.18929  -0.52734  -0.83008
  37   38139.7    262.2   0.014838580   0.12808  -0.04348   0.20996   0.28655
  38   38904.4    257.0   0.009428416   0.07978  -0.11914   0.03409  -0.25383
  39   39121.3    255.6   0.037917052   0.31908   0.42086  -0.34538   0.15056
  40   39362.2    254.1   0.001026884   0.00859  -0.04467   0.06791   0.04451
  41   39670.5    252.1   0.001429109   0.01186   0.07709  -0.07600  -0.01187
  42   39933.7    250.4   0.001816931   0.01498  -0.05608  -0.04811  -0.09757
  43   40148.7    249.1   0.003337117   0.02736  -0.11107   0.02406  -0.12020

FINAL SINGLE POINT ENERGY     -4736.113594952698

DIPOLE MOMENT
-------------
                                X             Y             Z
Electronic contribution:     -3.95421       1.95462      -3.02853
Nuclear contribution   :      4.81471      -0.76380       5.40008
                        -----------------------------------------
Total Dipole Moment    :      0.86050       1.19082       2.37155
                        -----------------------------------------
Magnitude (a.u.)       :      2.78976
Magnitude (Debye)      :      7.09101

Rotational constants in cm-1:     0.002371     0.000239     0.000219
Rotational constants in MHz :    71.085052     7.175522     6.569892

                             ****ORCA TERMINATED NORMALLY****
TOTAL RUN TIME: 0 days 0 hours 13 minutes 6 seconds 689 msec
