                         Program Version 4.2.0 -  RELEASE  -
|  1> # ORCA input file
|  2> # SCF done       -155.663701304912          0.000353667498
|  3> ! CAM-B3LYP def2-SVP def2/J RIJCOSX Grid4 TightSCF
|  4> %maxcore 5000
|  5> %tddft
|  6>     Mode sTDDFT
|  7>     Ethresh 5.0
|  8>     maxcore 5000
|  9> end
| 10>
| 11> %pal
| 12>   nprocs 6
| 13>   end
| 14> * xyz 0 1
| 15>    C        4.64307         0.40110         0.51888
| 16>    C        5.21424        -0.82249         0.73323
| 17>    C        4.54697        -2.01432         0.41293
| 18>    C        3.28450        -2.03614        -0.14850
| 19>    C        2.64887        -0.77793        -0.35808
| 20>    C        3.34118         0.44282        -0.01462
| 21>    N        2.63786         1.54911        -0.23184
| 22>   Se        1.06929         1.11805        -0.86796
| 23>    N        1.42182        -0.59622        -0.82508
| 24>    C        2.64051        -3.26718        -0.51860
| 25>    C        1.59855        -3.47242        -1.39748
| 26>    C        1.29562        -4.83070        -1.55678
| 27>    C        2.10876        -5.65733        -0.75813
| 28>    S        3.24917        -4.77835         0.15221
| 29>    C        1.75936        -7.00078        -0.98584
| 30>    C        0.73664        -7.05180        -1.95547
| 31>    C        0.40852        -5.67593        -2.33373
| 32>    C       -0.53327        -5.28042        -3.23984
| 33>    C       -1.32781        -6.20890        -3.94260
| 34>    N       -1.97321        -6.96500        -4.51526
| 35>    C       -0.77335        -3.92287        -3.53768
| 36>    N       -0.97765        -2.82390        -3.79413
| 37>    C        0.36563        -8.35040        -2.27125
| 38>    C        1.08184        -9.30971        -1.54230
| 39>    S        2.23141        -8.54356        -0.44188
| 40>    C        0.98823       -10.70520        -1.65131
| 41>    C        1.68139       -11.61172        -0.87530
| 42>    C        1.76316       -13.02154        -0.98159
| 43>    C        2.59604       -13.61919        -0.07105
| 44>    C        3.19778       -12.71647         0.82296
| 45>    S        2.67516       -11.08707         0.45868
| 46>    C        4.10383       -12.80113         1.87409
| 47>    C        4.98822       -13.77626         2.36866
| 48>    C        5.84768       -13.30440         3.32692
| 49>    C        5.68733       -11.93310         3.64609
| 50>    S        4.33622       -11.29991         2.74124
| 51>    C        6.46624       -11.11502         4.43823
| 52>    C        6.28824        -9.73114         4.58880
| 53>    C        7.16811        -8.82002         5.18997
| 54>    C        6.74032        -7.50595         5.06965
| 55>    C        5.50300        -7.39911         4.40125
| 56>    S        4.87998        -8.90660         3.91703
| 57>    C        5.16269        -6.04088         4.27767
| 58>    C        6.18004        -5.25859         4.85692
| 59>    C        7.19399        -6.15054         5.38853
| 60>    C        8.33719        -5.80751         6.05191
| 61>    C        8.68780        -4.46657         6.31302
| 62>    N        8.98754        -3.38197         6.53449
| 63>    C        9.24268        -6.77863         6.52539
| 64>    N        9.98023        -7.56783         6.91175
| 65>    C        5.92678        -3.88643         4.73786
| 66>    C        4.73689        -3.62486         4.09051
| 67>    S        3.90329        -5.10572         3.61771
| 68>    C        4.12375        -2.36230         3.78362
| 69>    C        2.83829        -2.28274         3.28036
| 70>    C        2.20701        -1.06452         2.99001
| 71>    C        2.83332         0.13396         3.19082
| 72>    C        4.15406         0.11973         3.67696
| 73>    C        4.81580        -1.12985         3.97640
| 74>    N        6.06620        -0.99508         4.39432
| 75>   Se        6.48174         0.70520         4.44103
| 76>    N        4.90379         1.19807         3.87798
| 77>    H        5.14442         1.32414         0.75995
| 78>    H        6.20767        -0.88679         1.15379
| 79>    H        5.05201        -2.95209         0.59675
| 80>    H        1.10336        -2.66106        -1.89793
| 81>    H       -0.38463        -8.62275        -2.99180
| 82>    H        0.33365       -11.08994        -2.42169
| 83>    H        1.22056       -13.55801        -1.74050
| 84>    H        2.77575       -14.67891        -0.02351
| 85>    H        5.00527       -14.78192         1.98667
| 86>    H        6.61434       -13.90057         3.79049
| 87>    H        7.31973       -11.55383         4.93716
| 88>    H        8.08341        -9.13356         5.65919
| 89>    H        6.56648        -3.10070         5.09517
| 90>    H        2.28910        -3.19767         3.10899
| 91>    H        1.19923        -1.08713         2.60206
| 92>    H        2.36061         1.07857         2.97639
| 93> *
| 94>
| 95>                          ****END OF INPUT****

CARTESIAN COORDINATES (ANGSTROEM)
---------------------------------
  C      4.643070    0.401100    0.518880
  C      5.214240   -0.822490    0.733230
  C      4.546970   -2.014320    0.412930
  C      3.284500   -2.036140   -0.148500
  C      2.648870   -0.777930   -0.358080
  C      3.341180    0.442820   -0.014620
  N      2.637860    1.549110   -0.231840
  Se     1.069290    1.118050   -0.867960
  N      1.421820   -0.596220   -0.825080
  C      2.640510   -3.267180   -0.518600
  C      1.598550   -3.472420   -1.397480
  C      1.295620   -4.830700   -1.556780
  C      2.108760   -5.657330   -0.758130
  S      3.249170   -4.778350    0.152210
  C      1.759360   -7.000780   -0.985840
  C      0.736640   -7.051800   -1.955470
  C      0.408520   -5.675930   -2.333730
  C     -0.533270   -5.280420   -3.239840
  C     -1.327810   -6.208900   -3.942600
  N     -1.973210   -6.965000   -4.515260
  C     -0.773350   -3.922870   -3.537680
  N     -0.977650   -2.823900   -3.794130
  C      0.365630   -8.350400   -2.271250
  C      1.081840   -9.309710   -1.542300
  S      2.231410   -8.543560   -0.441880
  C      0.988230  -10.705200   -1.651310
  C      1.681390  -11.611720   -0.875300
  C      1.763160  -13.021540   -0.981590
  C      2.596040  -13.619190   -0.071050
  C      3.197780  -12.716470    0.822960
  S      2.675160  -11.087070    0.458680
  C      4.103830  -12.801130    1.874090
  C      4.988220  -13.776260    2.368660
  C      5.847680  -13.304400    3.326920
  C      5.687330  -11.933100    3.646090
  S      4.336220  -11.299910    2.741240
  C      6.466240  -11.115020    4.438230
  C      6.288240   -9.731140    4.588800
  C      7.168110   -8.820020    5.189970
  C      6.740320   -7.505950    5.069650
  C      5.503000   -7.399110    4.401250
  S      4.879980   -8.906600    3.917030
  C      5.162690   -6.040880    4.277670
  C      6.180040   -5.258590    4.856920
  C      7.193990   -6.150540    5.388530
  C      8.337190   -5.807510    6.051910
  C      8.687800   -4.466570    6.313020
  N      8.987540   -3.381970    6.534490
  C      9.242680   -6.778630    6.525390
  N      9.980230   -7.567830    6.911750
  C      5.926780   -3.886430    4.737860
  C      4.736890   -3.624860    4.090510
  S      3.903290   -5.105720    3.617710
  C      4.123750   -2.362300    3.783620
  C      2.838290   -2.282740    3.280360
  C      2.207010   -1.064520    2.990010
  C      2.833320    0.133960    3.190820
  C      4.154060    0.119730    3.676960
  C      4.815800   -1.129850    3.976400
  N      6.066200   -0.995080    4.394320
  Se     6.481740    0.705200    4.441030
  N      4.903790    1.198070    3.877980
  H      5.144420    1.324140    0.759950
  H      6.207670   -0.886790    1.153790
  H      5.052010   -2.952090    0.596750
  H      1.103360   -2.661060   -1.897930
  H     -0.384630   -8.622750   -2.991800
  H      0.333650  -11.089940   -2.421690
  H      1.220560  -13.558010   -1.740500
  H      2.775750  -14.678910   -0.023510
  H      5.005270  -14.781920    1.986670
  H      6.614340  -13.900570    3.790490
  H      7.319730  -11.553830    4.937160
  H      8.083410   -9.133560    5.659190
  H      6.566480   -3.100700    5.095170
  H      2.289100   -3.197670    3.108990
  H      1.199230   -1.087130    2.602060
  H      2.360610    1.078570    2.976390

 Total Charge           Charge          ....    0
 Multiplicity           Mult            ....    1
 Number of Electrons    NEL             ....  512
 Basis Dimension        Dim             .... 1008

ORBITAL ENERGIES
----------------

  NO   OCC          E(Eh)            E(eV)
   0   2.0000    -453.975049    -12353.2891
   1   2.0000    -453.973802    -12353.2552
   2   2.0000     -88.981676     -2421.3145
   3   2.0000     -88.981551     -2421.3111
   4   2.0000     -88.980407     -2421.2800
   5   2.0000     -88.979563     -2421.2570
   6   2.0000     -88.953858     -2420.5575
   7   2.0000     -88.953582     -2420.5500
   8   2.0000     -58.188956     -1583.4020
   9   2.0000     -58.187781     -1583.3700
  10   2.0000     -52.259625     -1422.0567
  11   2.0000     -52.258434     -1422.0243
  12   2.0000     -52.257303     -1421.9935
  13   2.0000     -52.256839     -1421.9809
  14   2.0000     -52.256131     -1421.9616
  15   2.0000     -52.255662     -1421.9489
  16   2.0000     -14.432672      -392.7330
  17   2.0000     -14.431242      -392.6941
  18   2.0000     -14.429986      -392.6599
  19   2.0000     -14.429375      -392.6432
  20   2.0000     -14.424092      -392.4995
  21   2.0000     -14.423617      -392.4866
  22   2.0000     -14.422409      -392.4537
  23   2.0000     -14.421937      -392.4409
  24   2.0000     -10.356294      -281.8091
  25   2.0000     -10.355590      -281.7899
  26   2.0000     -10.345806      -281.5237
  27   2.0000     -10.345458      -281.5142
  28   2.0000     -10.324835      -280.9530
  29   2.0000     -10.324409      -280.9415
  30   2.0000     -10.324107      -280.9332
  31   2.0000     -10.323931      -280.9284
  32   2.0000     -10.322791      -280.8974
  33   2.0000     -10.322421      -280.8874
  34   2.0000     -10.322399      -280.8867
  35   2.0000     -10.321154      -280.8529
  36   2.0000     -10.321097      -280.8513
  37   2.0000     -10.320713      -280.8409
  38   2.0000     -10.320598      -280.8377
  39   2.0000     -10.319964      -280.8205
  40   2.0000     -10.318511      -280.7810
  41   2.0000     -10.317810      -280.7619
  42   2.0000     -10.317582      -280.7557
  43   2.0000     -10.317080      -280.7420
  44   2.0000     -10.316676      -280.7310
  45   2.0000     -10.316545      -280.7275
  46   2.0000     -10.313635      -280.6483
  47   2.0000     -10.313623      -280.6479
  48   2.0000     -10.302308      -280.3401
  49   2.0000     -10.300790      -280.2987
  50   2.0000     -10.299953      -280.2760
  51   2.0000     -10.299881      -280.2740
  52   2.0000     -10.297757      -280.2162
  53   2.0000     -10.297705      -280.2148
  54   2.0000     -10.297519      -280.2097
  55   2.0000     -10.297305      -280.2039
  56   2.0000     -10.297038      -280.1967
  57   2.0000     -10.297020      -280.1962
  58   2.0000     -10.297009      -280.1959
  59   2.0000     -10.296309      -280.1768
  60   2.0000     -10.293000      -280.0868
  61   2.0000     -10.292201      -280.0650
  62   2.0000     -10.288099      -279.9534
  63   2.0000     -10.287718      -279.9430
  64   2.0000     -10.287358      -279.9332
  65   2.0000     -10.286665      -279.9144
  66   2.0000     -10.286030      -279.8971
  67   2.0000     -10.285062      -279.8708
  68   2.0000     -10.281365      -279.7702
  69   2.0000     -10.280652      -279.7508
  70   2.0000      -8.076129      -219.7626
  71   2.0000      -8.075847      -219.7550
  72   2.0000      -8.074793      -219.7263
  73   2.0000      -8.074161      -219.7091
  74   2.0000      -8.050804      -219.0735
  75   2.0000      -8.050676      -219.0700
  76   2.0000      -7.964751      -216.7319
  77   2.0000      -7.963615      -216.7010
  78   2.0000      -6.045362      -164.5027
  79   2.0000      -6.045129      -164.4963
  80   2.0000      -6.044033      -164.4665
  81   2.0000      -6.043392      -164.4490
  82   2.0000      -6.041022      -164.3846
  83   2.0000      -6.040749      -164.3771
  84   2.0000      -6.039806      -164.3515
  85   2.0000      -6.039188      -164.3347
  86   2.0000      -6.038573      -164.3179
  87   2.0000      -6.038267      -164.3096
  88   2.0000      -6.037271      -164.2825
  89   2.0000      -6.036580      -164.2637
  90   2.0000      -6.020487      -163.8258
  91   2.0000      -6.020343      -163.8219
  92   2.0000      -6.016196      -163.7090
  93   2.0000      -6.016061      -163.7054
  94   2.0000      -6.011777      -163.5888
  95   2.0000      -6.011629      -163.5847
  96   2.0000      -5.914941      -160.9537
  97   2.0000      -5.913806      -160.9228
  98   2.0000      -5.908256      -160.7718
  99   2.0000      -5.907114      -160.7407
 100   2.0000      -5.904578      -160.6717
 101   2.0000      -5.903444      -160.6409
 102   2.0000      -2.269014       -61.7430
 103   2.0000      -2.268384       -61.7259
 104   2.0000      -2.267874       -61.7120
 105   2.0000      -2.267249       -61.6950
 106   2.0000      -2.263975       -61.6059
 107   2.0000      -2.262847       -61.5752
 108   2.0000      -2.258824       -61.4657
 109   2.0000      -2.258643       -61.4608
 110   2.0000      -2.257693       -61.4349
 111   2.0000      -2.257509       -61.4299
 112   2.0000      -1.085911       -29.5492
 113   2.0000      -1.084703       -29.5163
 114   2.0000      -1.036231       -28.1973
 115   2.0000      -1.035974       -28.1903
 116   2.0000      -1.015134       -27.6232
 117   2.0000      -1.014591       -27.6084
 118   2.0000      -1.010399       -27.4943
 119   2.0000      -1.000677       -27.2298
 120   2.0000      -1.000208       -27.2170
 121   2.0000      -0.995045       -27.0766
 122   2.0000      -0.990277       -26.9468
 123   2.0000      -0.980943       -26.6928
 124   2.0000      -0.964657       -26.2497
 125   2.0000      -0.962784       -26.1987
 126   2.0000      -0.957752       -26.0618
 127   2.0000      -0.953785       -25.9538
 128   2.0000      -0.945285       -25.7225
 129   2.0000      -0.942277       -25.6407
 130   2.0000      -0.914749       -24.8916
 131   2.0000      -0.908285       -24.7157
 132   2.0000      -0.891060       -24.2470
 133   2.0000      -0.874655       -23.8006
 134   2.0000      -0.865952       -23.5637
 135   2.0000      -0.863982       -23.5101
 136   2.0000      -0.862397       -23.4670
 137   2.0000      -0.850077       -23.1318
 138   2.0000      -0.849405       -23.1135
 139   2.0000      -0.848161       -23.0796
 140   2.0000      -0.843952       -22.9651
 141   2.0000      -0.839812       -22.8524
 142   2.0000      -0.838679       -22.8216
 143   2.0000      -0.825028       -22.4502
 144   2.0000      -0.814932       -22.1754
 145   2.0000      -0.789274       -21.4772
 146   2.0000      -0.769971       -20.9520
 147   2.0000      -0.768667       -20.9165
 148   2.0000      -0.767561       -20.8864
 149   2.0000      -0.751855       -20.4590
 150   2.0000      -0.734539       -19.9878
 151   2.0000      -0.730146       -19.8683
 152   2.0000      -0.713933       -19.4271
 153   2.0000      -0.703682       -19.1482
 154   2.0000      -0.702600       -19.1187
 155   2.0000      -0.691759       -18.8237
 156   2.0000      -0.691231       -18.8094
 157   2.0000      -0.687998       -18.7214
 158   2.0000      -0.684972       -18.6390
 159   2.0000      -0.672736       -18.3061
 160   2.0000      -0.670803       -18.2535
 161   2.0000      -0.666126       -18.1262
 162   2.0000      -0.654721       -17.8159
 163   2.0000      -0.639792       -17.4096
 164   2.0000      -0.639697       -17.4070
 165   2.0000      -0.631071       -17.1723
 166   2.0000      -0.628832       -17.1114
 167   2.0000      -0.620465       -16.8837
 168   2.0000      -0.615661       -16.7530
 169   2.0000      -0.606265       -16.4973
 170   2.0000      -0.605770       -16.4838
 171   2.0000      -0.602082       -16.3835
 172   2.0000      -0.600599       -16.3431
 173   2.0000      -0.581122       -15.8131
 174   2.0000      -0.580553       -15.7977
 175   2.0000      -0.574584       -15.6352
 176   2.0000      -0.573739       -15.6122
 177   2.0000      -0.568300       -15.4642
 178   2.0000      -0.566480       -15.4147
 179   2.0000      -0.559449       -15.2234
 180   2.0000      -0.549916       -14.9640
 181   2.0000      -0.545303       -14.8384
 182   2.0000      -0.542067       -14.7504
 183   2.0000      -0.540685       -14.7128
 184   2.0000      -0.539186       -14.6720
 185   2.0000      -0.534648       -14.5485
 186   2.0000      -0.532369       -14.4865
 187   2.0000      -0.523535       -14.2461
 188   2.0000      -0.521038       -14.1782
 189   2.0000      -0.513149       -13.9635
 190   2.0000      -0.512557       -13.9474
 191   2.0000      -0.510768       -13.8987
 192   2.0000      -0.505276       -13.7493
 193   2.0000      -0.501812       -13.6550
 194   2.0000      -0.499590       -13.5945
 195   2.0000      -0.496373       -13.5070
 196   2.0000      -0.490686       -13.3522
 197   2.0000      -0.489513       -13.3203
 198   2.0000      -0.488531       -13.2936
 199   2.0000      -0.487527       -13.2663
 200   2.0000      -0.482810       -13.1379
 201   2.0000      -0.478817       -13.0293
 202   2.0000      -0.477336       -12.9890
 203   2.0000      -0.473435       -12.8828
 204   2.0000      -0.470488       -12.8026
 205   2.0000      -0.469199       -12.7676
 206   2.0000      -0.467314       -12.7163
 207   2.0000      -0.466402       -12.6914
 208   2.0000      -0.460651       -12.5350
 209   2.0000      -0.459145       -12.4940
 210   2.0000      -0.458659       -12.4807
 211   2.0000      -0.457866       -12.4592
 212   2.0000      -0.457432       -12.4474
 213   2.0000      -0.455208       -12.3868
 214   2.0000      -0.454802       -12.3758
 215   2.0000      -0.451293       -12.2803
 216   2.0000      -0.449384       -12.2284
 217   2.0000      -0.448223       -12.1968
 218   2.0000      -0.443159       -12.0590
 219   2.0000      -0.437987       -11.9182
 220   2.0000      -0.434046       -11.8110
 221   2.0000      -0.433642       -11.8000
 222   2.0000      -0.433159       -11.7869
 223   2.0000      -0.431454       -11.7405
 224   2.0000      -0.431076       -11.7302
 225   2.0000      -0.427392       -11.6299
 226   2.0000      -0.426306       -11.6004
 227   2.0000      -0.421396       -11.4668
 228   2.0000      -0.419695       -11.4205
 229   2.0000      -0.418346       -11.3838
 230   2.0000      -0.410104       -11.1595
 231   2.0000      -0.409247       -11.1362
 232   2.0000      -0.401175       -10.9165
 233   2.0000      -0.400411       -10.8957
 234   2.0000      -0.394343       -10.7306
 235   2.0000      -0.381571       -10.3831
 236   2.0000      -0.380665       -10.3584
 237   2.0000      -0.379318       -10.3218
 238   2.0000      -0.377874       -10.2825
 239   2.0000      -0.361099        -9.8260
 240   2.0000      -0.355135        -9.6637
 241   2.0000      -0.354392        -9.6435
 242   2.0000      -0.353225        -9.6117
 243   2.0000      -0.347295        -9.4504
 244   2.0000      -0.341402        -9.2900
 245   2.0000      -0.334736        -9.1086
 246   2.0000      -0.329477        -8.9655
 247   2.0000      -0.327332        -8.9071
 248   2.0000      -0.319318        -8.6891
 249   2.0000      -0.315211        -8.5773
 250   2.0000      -0.313272        -8.5246
 251   2.0000      -0.309126        -8.4117
 252   2.0000      -0.296571        -8.0701
 253   2.0000      -0.268261        -7.2998
 254   2.0000      -0.250584        -6.8187
 255   2.0000      -0.211019        -5.7421
 256   0.0000      -0.111465        -3.0331
 257   0.0000      -0.094124        -2.5613
 258   0.0000      -0.080124        -2.1803
 259   0.0000      -0.069092        -1.8801
 260   0.0000      -0.062197        -1.6925

MULLIKEN ATOMIC CHARGES
-----------------------
   0 C :    0.011644
   1 C :    0.036553
   2 C :   -0.060153
   3 C :    0.142880
   4 C :   -0.007541
   5 C :    0.033004
   6 N :   -0.274734
   7 Se:    0.521257
   8 N :   -0.290440
   9 C :   -0.124731
  10 C :   -0.027475
  11 C :    0.010376
  12 C :   -0.081790
  13 S :    0.155081
  14 C :   -0.089821
  15 C :    0.039321
  16 C :    0.294176
  17 C :   -0.304700
  18 C :   -0.190712
  19 N :    0.169114
  20 C :   -0.185117
  21 N :    0.171807
  22 C :   -0.047198
  23 C :   -0.064869
  24 S :    0.141038
  25 C :    0.025540
  26 C :   -0.031768
  27 C :    0.035721
  28 C :    0.035836
  29 C :   -0.012533
  30 S :    0.009341
  31 C :   -0.017803
  32 C :    0.038565
  33 C :    0.033711
  34 C :   -0.036100
  35 S :    0.008355
  36 C :    0.029504
  37 C :   -0.064149
  38 C :   -0.046366
  39 C :    0.040366
  40 C :   -0.094087
  41 S :    0.143318
  42 C :   -0.077221
  43 C :    0.016316
  44 C :    0.295461
  45 C :   -0.305074
  46 C :   -0.184654
  47 N :    0.172044
  48 C :   -0.190435
  49 N :    0.165383
  50 C :   -0.040969
  51 C :   -0.130746
  52 S :    0.149534
  53 C :    0.158875
  54 C :   -0.077892
  55 C :    0.042589
  56 C :    0.005600
  57 C :    0.037893
  58 C :   -0.011079
  59 N :   -0.289337
  60 Se:    0.523057
  61 N :   -0.275920
  62 H :   -0.019058
  63 H :   -0.002271
  64 H :   -0.008693
  65 H :    0.013136
  66 H :    0.004665
  67 H :   -0.002577
  68 H :   -0.006412
  69 H :   -0.008964
  70 H :   -0.010561
  71 H :   -0.006208
  72 H :   -0.002504
  73 H :    0.004155
  74 H :    0.013857
  75 H :   -0.007984
  76 H :   -0.000997
  77 H :   -0.017428
Sum of atomic charges:   -0.0000000

LOEWDIN ATOMIC CHARGES
----------------------
   0 C :   -0.012533
   1 C :   -0.016331
   2 C :   -0.021968
   3 C :   -0.044844
   4 C :   -0.035901
   5 C :   -0.044576
   6 N :   -0.250682
   7 Se:    0.567394
   8 N :   -0.251988
   9 C :   -0.158646
  10 C :   -0.017783
  11 C :   -0.076726
  12 C :   -0.176261
  13 S :    0.469817
  14 C :   -0.198168
  15 C :   -0.066150
  16 C :    0.083985
  17 C :   -0.106669
  18 C :   -0.015855
  19 N :   -0.039598
  20 C :   -0.017214
  21 N :   -0.034465
  22 C :   -0.025420
  23 C :   -0.164339
  24 S :    0.466233
  25 C :   -0.062476
  26 C :   -0.162442
  27 C :   -0.026790
  28 C :   -0.039833
  29 C :   -0.173693
  30 S :    0.372343
  31 C :   -0.176432
  32 C :   -0.038142
  33 C :   -0.029556
  34 C :   -0.160970
  35 S :    0.372167
  36 C :   -0.062906
  37 C :   -0.163718
  38 C :   -0.025669
  39 C :   -0.065192
  40 C :   -0.201270
  41 S :    0.469388
  42 C :   -0.173465
  43 C :   -0.079028
  44 C :    0.084006
  45 C :   -0.107518
  46 C :   -0.017289
  47 N :   -0.035230
  48 C :   -0.015941
  49 N :   -0.040207
  50 C :   -0.018985
  51 C :   -0.161499
  52 S :    0.467435
  53 C :   -0.043623
  54 C :   -0.027163
  55 C :   -0.013749
  56 C :   -0.015668
  57 C :   -0.042630
  58 C :   -0.035563
  59 N :   -0.249551
  60 Se:    0.567710
  61 N :   -0.249973
  62 H :    0.037180
  63 H :    0.033496
  64 H :    0.022483
  65 H :    0.039343
  66 H :    0.040482
  67 H :    0.044050
  68 H :    0.035093
  69 H :    0.034918
  70 H :    0.034595
  71 H :    0.034978
  72 H :    0.044017
  73 H :    0.040374
  74 H :    0.038502
  75 H :    0.019698
  76 H :    0.035203
  77 H :    0.037399

  Mayer bond orders larger than 0.100000
B(  0-C ,  1-C ) :   1.4957 B(  0-C ,  3-C ) :   0.1078 B(  0-C ,  5-C ) :   1.1989
B(  0-C , 62-H ) :   1.0168 B(  1-C ,  2-C ) :   1.2100 B(  1-C , 63-H ) :   0.9732
B(  2-C ,  3-C ) :   1.5037 B(  2-C , 64-H ) :   0.9848 B(  3-C ,  4-C ) :   1.1731
B(  3-C ,  9-C ) :   1.0753 B(  4-C ,  5-C ) :   1.1246 B(  4-C ,  8-N ) :   1.5910
B(  5-C ,  6-N ) :   1.5577 B(  6-N ,  7-Se) :   1.2497 B(  6-N ,  8-N ) :   0.1297
B(  7-Se,  8-N ) :   1.2212 B(  9-C , 10-C ) :   1.5019 B(  9-C , 13-S ) :   1.0847
B( 10-C , 11-C ) :   1.2371 B( 10-C , 65-H ) :   0.9913 B( 11-C , 12-C ) :   1.4181
B( 11-C , 16-C ) :   1.0126 B( 12-C , 13-S ) :   1.1246 B( 12-C , 14-C ) :   1.2042
B( 14-C , 15-C ) :   1.3945 B( 14-C , 24-S ) :   1.1207 B( 15-C , 16-C ) :   0.9759
B( 15-C , 22-C ) :   1.3397 B( 16-C , 17-C ) :   1.7078 B( 17-C , 18-C ) :   1.1356
B( 17-C , 20-C ) :   1.1359 B( 18-C , 19-N ) :   2.9942 B( 20-C , 21-N ) :   2.9937
B( 22-C , 23-C ) :   1.3575 B( 22-C , 66-H ) :   1.0053 B( 23-C , 24-S ) :   1.0798
B( 23-C , 25-C ) :   1.2218 B( 25-C , 26-C ) :   1.5185 B( 25-C , 67-H ) :   0.9746
B( 26-C , 27-C ) :   1.1671 B( 26-C , 30-S ) :   1.0344 B( 27-C , 28-C ) :   1.5658
B( 27-C , 68-H ) :   0.9974 B( 28-C , 29-C ) :   1.2116 B( 28-C , 69-H ) :   0.9974
B( 29-C , 30-S ) :   1.0434 B( 29-C , 31-C ) :   1.4554 B( 31-C , 32-C ) :   1.2145
B( 31-C , 35-S ) :   1.0402 B( 32-C , 33-C ) :   1.5691 B( 32-C , 70-H ) :   0.9957
B( 33-C , 34-C ) :   1.1652 B( 33-C , 71-H ) :   0.9974 B( 34-C , 35-S ) :   1.0355
B( 34-C , 36-C ) :   1.5222 B( 36-C , 37-C ) :   1.2171 B( 36-C , 72-H ) :   0.9746
B( 37-C , 38-C ) :   1.3591 B( 37-C , 41-S ) :   1.0837 B( 38-C , 39-C ) :   1.3431
B( 38-C , 73-H ) :   1.0038 B( 39-C , 40-C ) :   1.3902 B( 39-C , 44-C ) :   0.9735
B( 40-C , 41-S ) :   1.1241 B( 40-C , 42-C ) :   1.2025 B( 42-C , 43-C ) :   1.4173
B( 42-C , 52-S ) :   1.1298 B( 43-C , 44-C ) :   1.0122 B( 43-C , 50-C ) :   1.2246
B( 44-C , 45-C ) :   1.7065 B( 45-C , 46-C ) :   1.1359 B( 45-C , 48-C ) :   1.1346
B( 46-C , 47-N ) :   2.9931 B( 48-C , 49-N ) :   2.9931 B( 50-C , 51-C ) :   1.5018
B( 50-C , 74-H ) :   0.9865 B( 51-C , 52-S ) :   1.0784 B( 51-C , 53-C ) :   1.0959
B( 53-C , 54-C ) :   1.4930 B( 53-C , 56-C ) :   0.1050 B( 53-C , 58-C ) :   1.1647
B( 54-C , 55-C ) :   1.2014 B( 54-C , 75-H ) :   0.9892 B( 55-C , 56-C ) :   1.5075
B( 55-C , 76-H ) :   0.9756 B( 56-C , 57-C ) :   1.1941 B( 56-C , 77-H ) :   1.0101
B( 57-C , 58-C ) :   1.1214 B( 57-C , 61-N ) :   1.5572 B( 58-C , 59-N ) :   1.5949
B( 59-N , 60-Se) :   1.2168 B( 59-N , 61-N ) :   0.1290 B( 60-Se, 61-N ) :   1.2486

-----------------------------------------------------------------------------
         ABSORPTION SPECTRUM VIA TRANSITION ELECTRIC DIPOLE MOMENTS
-----------------------------------------------------------------------------
State   Energy  Wavelength   fosc         T2         TX        TY        TZ
        (cm-1)    (nm)                  (au**2)     (au)      (au)      (au)
-----------------------------------------------------------------------------
   0    6693.6   1494.0   0.116444089   5.72705   1.29053  -0.11426   2.01209
   1    9843.4   1015.9   0.130540113   4.36589  -0.08079  -2.08297  -0.14361
   2   13631.1    733.6   0.238164242   5.75202  -1.41022   0.16005  -1.93331
   3   14798.2    675.8   0.118622801   2.63897   0.02323  -1.62403  -0.03124
   4   17790.1    562.1   0.008595001   0.15905  -0.24713  -0.21186  -0.23042
   5   18448.9    542.0   0.451925044   8.06441  -0.31589   2.81663  -0.17664
   6   19539.8    511.8   0.346517785   5.83824   1.70119   0.33509   1.68283
   7   20058.7    498.5   0.002638879   0.04331   0.06009  -0.06183   0.18941
   8   22205.9    450.3   0.532676188   7.89716  -0.07564   2.80699   0.11066
   9   23241.7    430.3   0.003850464   0.05454  -0.02973  -0.22371  -0.06009
  10   24408.3    409.7   0.068362730   0.92206   0.74380  -0.50741   0.33369
  11   24673.2    405.3   0.585880088   7.81733  -0.14856  -2.79039  -0.09489
  12   26270.0    380.7   0.035087925   0.43972   0.00568  -0.66079  -0.05520
  13   26826.6    372.8   0.039877555   0.48937  -0.05222  -0.67651  -0.17022
  14   27232.4    367.2   0.509100060   6.15449  -0.01001  -2.48005  -0.06120
  15   27440.8    364.4   0.115270391   1.38292  -0.79615   0.39837  -0.76835
  16   27721.5    360.7   0.090911524   1.07964   0.64530   0.61765   0.53079
  17   27970.6    357.5   0.107066441   1.26017  -0.09907   1.11768  -0.03386
  18   28061.8    356.4   0.048281685   0.56642  -0.17765  -0.72988  -0.04629
  19   28846.7    346.7   0.281275868   3.21005  -1.39308   0.06778  -1.12462
  20   29417.0    339.9   0.071987895   0.80563   0.68355  -0.00666   0.58167
  21   30514.7    327.7   0.245389148   2.64741   0.68957   1.23544   0.80349
  22   30721.4    325.5   0.450183381   4.82419   1.70373  -0.68121   1.20725
  23   31494.0    317.5   0.106289075   1.11106  -0.35553  -0.98948  -0.07473
  24   31630.0    316.2   0.007667654   0.07981  -0.24385  -0.08367  -0.11551
  25   32174.9    310.8   0.083926514   0.85873  -0.01207  -0.90017   0.21972
  26   32570.9    307.0   0.478414712   4.83561  -1.70317   0.11751  -1.38600
  27   33100.3    302.1   0.104243327   1.03679  -0.81393   0.15232  -0.59255
  28   33151.2    301.6   0.002264502   0.02249   0.10515   0.02054   0.10492
  29   33290.5    300.4   0.013587595   0.13437   0.00485   0.35833  -0.07711
  30   33451.9    298.9   0.078142703   0.76903  -0.17243  -0.72638  -0.46008
  31   33497.1    298.5   0.037938127   0.37286  -0.16702   0.58441  -0.05855
  32   33695.4    296.8   0.003266814   0.03192  -0.08741  -0.15355   0.02647
  33   33882.7    295.1   0.048491354   0.47115  -0.53661  -0.21774  -0.36850
  34   34191.1    292.5   0.075219084   0.72425  -0.01103  -0.84947   0.05027
  35   34658.6    288.5   0.033495666   0.31817   0.33149  -0.30419   0.34022
  36   34793.7    287.4   0.176680409   1.67172   0.38858  -1.19814   0.29187
  37   34860.3    286.9   0.255895229   2.41661  -1.28604  -0.23920  -0.83994
  38   35585.3    281.0   0.042810044   0.39605   0.01761  -0.62878   0.01926
  39   35635.4    280.6   0.004316491   0.03988   0.16167  -0.00150   0.11722
  40   35765.1    279.6   0.022666867   0.20865   0.12477   0.41871   0.13327
  41   35891.1    278.6   0.009124910   0.08370   0.07441  -0.26295   0.09497
  42   36327.9    275.3   0.133224801   1.20732   0.95033   0.06702   0.54744
  43   36431.9    274.5   0.003262661   0.02948  -0.09222  -0.14345  -0.02002
  44   36542.1    273.7   0.035418366   0.31909   0.29236  -0.45221   0.17064
  45   36812.4    271.6   0.021256936   0.19010   0.05636   0.43211  -0.01443
  46   36879.0    271.2   0.031765452   0.28356   0.14257   0.47794   0.18658
  47   37322.8    267.9   0.010164559   0.08966   0.27594   0.09923   0.06059
  48   37630.1    265.7   0.009606290   0.08404   0.15781  -0.23045   0.07766
  49   37779.8    264.7   0.098452909   0.85792   0.80356   0.31538   0.33577
  50   38052.1    262.8   0.039053288   0.33787   0.26174  -0.51209   0.08445
  51   38392.0    260.5   0.014919836   0.12794  -0.33857  -0.04349  -0.10686
  52   38549.7    259.4   0.014731178   0.12580   0.30748   0.17628  -0.01357
  53   38877.9    257.2   0.017657359   0.14952  -0.05109  -0.38292   0.01671
  54   38932.7    256.9   0.005699867   0.04820  -0.16502   0.11938  -0.08194
  55   39100.0    255.8   0.135746629   1.14295   0.01360  -1.06854   0.03151
  56   39257.4    254.7   0.023654434   0.19837  -0.37011   0.21609  -0.12119
  57   39360.0    254.1   0.011037466   0.09232  -0.23669  -0.08812  -0.16892
  58   39468.3    253.4   0.009012210   0.07517  -0.06940  -0.06239  -0.25780
  59   39689.0    252.0   0.004903176   0.04067   0.17306  -0.05365   0.08856
  60   39712.8    251.8   0.015514687   0.12861  -0.19970   0.12403  -0.27083
  61   39759.3    251.5   0.005307649   0.04395   0.20262  -0.05337  -0.00664
  62   39874.6    250.8   0.018647897   0.15396  -0.13737  -0.32126  -0.17855
  63   39978.7    250.1   0.002143601   0.01765  -0.02804  -0.02855   0.12669
  64   40213.3    248.7   0.005314009   0.04350   0.03353   0.20542   0.01352

FINAL SINGLE POINT ENERGY     -9388.688514609341

DIPOLE MOMENT
-------------
                                X             Y             Z
Electronic contribution:     -0.33416     146.22461       5.54184
Nuclear contribution   :      0.24343    -148.30118      -5.56316
                        -----------------------------------------
Total Dipole Moment    :     -0.09072      -2.07656      -0.02132
                        -----------------------------------------
Magnitude (a.u.)       :      2.07865
Magnitude (Debye)      :      5.28352

Rotational constants in cm-1:     0.001084     0.000753     0.000455
Rotational constants in MHz :    32.508746    22.561550    13.650976

                             ****ORCA TERMINATED NORMALLY****
TOTAL RUN TIME: 0 days 0 hours 13 minutes 11 seconds 868 msec
