                         Program Version 4.2.0 -  RELEASE  -
|  1> # ORCA input file
|  2> # SCF done       -193.301066350250          0.000320596318
|  3> ! CAM-B3LYP def2-SVP def2/J RIJCOSX Grid4 TightSCF
|  4> %maxcore 5000
|  5> %tddft
|  6>     Mode sTDDFT
|  7>     Ethresh 5.0
|  8>     maxcore 5000
|  9> end
| 10>
| 11> %pal
| 12>   nprocs 6
| 13>   end
| 14> * xyz 0 1
| 15>    C        4.78539         4.16430        -1.46116
| 16>    N        4.35523         3.20999        -0.59731
| 17>    C        5.03515         1.97692        -0.29079
| 18>    C        6.22055         2.20742         0.64303
| 19>    C        3.15503         3.60147         0.05243
| 20>    O        2.58374         2.90905         0.86722
| 21>    C        2.87517         4.90235        -0.50618
| 22>    C        3.90866         5.21463        -1.44111
| 23>    C        3.61491         6.51916        -1.99353
| 24>    O        4.18972         7.20993        -2.80459
| 25>    N        2.41748         6.91189        -1.35161
| 26>    C        1.81422         8.17279        -1.70947
| 27>    C        0.66624         7.99593        -2.70121
| 28>    C        1.96714         5.95215        -0.46825
| 29>    C        0.82803         5.94907         0.38228
| 30>    C       -0.15194         6.87763         0.51301
| 31>    C       -1.23617         6.76500         1.42243
| 32>    O       -2.15408         7.76207         1.45007
| 33>    C       -3.09371         7.48170         2.38033
| 34>    C       -2.77377         6.26293         2.97232
| 35>    C       -1.59849         5.80729         2.36728
| 36>    F       -0.95017         4.67982         2.64131
| 37>    F       -3.47611         5.66712         3.93554
| 38>    C       -4.18514         8.34655         2.64502
| 39>    C       -4.37310         9.51148         1.97107
| 40>    C       -5.39299        10.48441         2.09658
| 41>    N       -6.47734        10.53776         2.94705
| 42>    C       -6.83171         9.64068         4.02008
| 43>    C       -5.94922         9.84440         5.24939
| 44>    C       -7.25733        11.68966         2.72516
| 45>    O       -8.26160        11.94766         3.36026
| 46>    C       -6.59412        12.38059         1.64531
| 47>    C       -5.45926        11.61863         1.28733
| 48>    C       -4.78864        12.28944         0.19562
| 49>    O       -3.79054        12.01843        -0.43914
| 50>    N       -5.58044        13.43020        -0.04090
| 51>    C       -5.21332        14.39982        -1.04393
| 52>    C       -4.53315        15.62260        -0.43287
| 53>    C       -6.65606        13.50193         0.81597
| 54>    C       -7.61518        14.54005         0.79616
| 55>    C       -8.66011        14.58849         1.66718
| 56>    C       -9.62203        15.62437         1.66055
| 57>    O       -9.57458        16.64852         0.77461
| 58>    C      -10.60863        17.49112         1.00218
| 59>    C      -11.34955        16.99189         2.07435
| 60>    C      -10.72756        15.81317         2.48964
| 61>    F      -11.10337        15.01588         3.48269
| 62>    F      -12.44491        17.54538         2.59744
| 63>    C      -10.76355        18.64035         0.18959
| 64>    C      -11.76217        19.54849         0.35030
| 65>    C      -11.90401        20.68606        -0.48154
| 66>    N      -12.90091        21.62320        -0.32058
| 67>    C      -13.88701        21.65976         0.73186
| 68>    C      -13.29575        22.16034         2.04755
| 69>    C      -12.83245        22.64113        -1.28687
| 70>    O      -13.61588        23.56866        -1.33669
| 71>    C      -11.69675        22.28026        -2.10561
| 72>    C      -11.14776        21.07633        -1.58249
| 73>    C      -10.01376        20.71739        -2.39764
| 74>    O       -9.22592        19.79056        -2.34468
| 75>    N       -9.94594        21.73536        -3.36674
| 76>    C       -8.95478        21.69827        -4.41388
| 77>    C       -9.53289        21.16866        -5.72428
| 78>    C      -10.94468        22.66646        -3.20548
| 79>    C      -11.10203        23.81229        -4.05415
| 80>    C      -12.08921        24.69786        -3.90115
| 81>    H        5.68225         4.02688        -2.03695
| 82>    H        5.36783         1.50883        -1.22194
| 83>    H        4.29929         1.33029         0.19475
| 84>    H        6.94532         2.87757         0.18571
| 85>    H        6.70811         1.26165         0.86183
| 86>    H        5.87931         2.64801         1.57648
| 87>    H        2.61016         8.75489        -2.18484
| 88>    H        1.49392         8.69931        -0.80763
| 89>    H        1.04718         7.57965        -3.63050
| 90>    H        0.20964         8.95883        -2.91301
| 91>    H       -0.09429         7.32351        -2.31082
| 92>    H        0.78115         5.05657         0.99293
| 93>    H       -0.18356         7.78133        -0.07340
| 94>    H       -4.84532         7.99772         3.42165
| 95>    H       -3.65069         9.76325         1.20438
| 96>    H       -6.79772         8.60783         3.66563
| 97>    H       -7.86757         9.88425         4.27632
| 98>    H       -4.89770         9.70804         5.00760
| 99>    H       -6.22694         9.13491         6.02391
|100>    H       -6.08567        10.85134         5.63606
|101>    H       -6.09992        14.69287        -1.61283
|102>    H       -4.51586        13.88936        -1.71423
|103>    H       -5.19496        16.12866         0.26624
|104>    H       -4.25622        16.31974        -1.21871
|105>    H       -3.63357        15.32021         0.09766
|106>    H       -7.51343        15.32397         0.05986
|107>    H       -8.79460        13.81927         2.41638
|108>    H      -10.02608        18.76798        -0.59167
|109>    H      -12.49117        19.41201         1.13425
|110>    H      -14.32955        20.66774         0.85738
|111>    H      -14.66292        22.35158         0.39195
|112>    H      -12.49538        21.50798         2.38925
|113>    H      -14.06946        22.19240         2.80943
|114>    H      -12.89433        23.16226         1.91629
|115>    H       -8.16935        21.02367        -4.06115
|116>    H       -8.52643        22.69503        -4.55133
|117>    H       -9.91243        20.16006        -5.58029
|118>    H       -8.75819        21.14354        -6.48569
|119>    H      -10.34851        21.79805        -6.07343
|120>    H      -10.37227        23.94082        -4.84170
|121>    H      -12.82712        24.59154        -3.12365
|122>    H      -12.17788        25.55043        -4.55215
|123> *
|124>
|125>                          ****END OF INPUT****

CARTESIAN COORDINATES (ANGSTROEM)
---------------------------------
  C      4.785390    4.164300   -1.461160
  N      4.355230    3.209990   -0.597310
  C      5.035150    1.976920   -0.290790
  C      6.220550    2.207420    0.643030
  C      3.155030    3.601470    0.052430
  O      2.583740    2.909050    0.867220
  C      2.875170    4.902350   -0.506180
  C      3.908660    5.214630   -1.441110
  C      3.614910    6.519160   -1.993530
  O      4.189720    7.209930   -2.804590
  N      2.417480    6.911890   -1.351610
  C      1.814220    8.172790   -1.709470
  C      0.666240    7.995930   -2.701210
  C      1.967140    5.952150   -0.468250
  C      0.828030    5.949070    0.382280
  C     -0.151940    6.877630    0.513010
  C     -1.236170    6.765000    1.422430
  O     -2.154080    7.762070    1.450070
  C     -3.093710    7.481700    2.380330
  C     -2.773770    6.262930    2.972320
  C     -1.598490    5.807290    2.367280
  F     -0.950170    4.679820    2.641310
  F     -3.476110    5.667120    3.935540
  C     -4.185140    8.346550    2.645020
  C     -4.373100    9.511480    1.971070
  C     -5.392990   10.484410    2.096580
  N     -6.477340   10.537760    2.947050
  C     -6.831710    9.640680    4.020080
  C     -5.949220    9.844400    5.249390
  C     -7.257330   11.689660    2.725160
  O     -8.261600   11.947660    3.360260
  C     -6.594120   12.380590    1.645310
  C     -5.459260   11.618630    1.287330
  C     -4.788640   12.289440    0.195620
  O     -3.790540   12.018430   -0.439140
  N     -5.580440   13.430200   -0.040900
  C     -5.213320   14.399820   -1.043930
  C     -4.533150   15.622600   -0.432870
  C     -6.656060   13.501930    0.815970
  C     -7.615180   14.540050    0.796160
  C     -8.660110   14.588490    1.667180
  C     -9.622030   15.624370    1.660550
  O     -9.574580   16.648520    0.774610
  C    -10.608630   17.491120    1.002180
  C    -11.349550   16.991890    2.074350
  C    -10.727560   15.813170    2.489640
  F    -11.103370   15.015880    3.482690
  F    -12.444910   17.545380    2.597440
  C    -10.763550   18.640350    0.189590
  C    -11.762170   19.548490    0.350300
  C    -11.904010   20.686060   -0.481540
  N    -12.900910   21.623200   -0.320580
  C    -13.887010   21.659760    0.731860
  C    -13.295750   22.160340    2.047550
  C    -12.832450   22.641130   -1.286870
  O    -13.615880   23.568660   -1.336690
  C    -11.696750   22.280260   -2.105610
  C    -11.147760   21.076330   -1.582490
  C    -10.013760   20.717390   -2.397640
  O     -9.225920   19.790560   -2.344680
  N     -9.945940   21.735360   -3.366740
  C     -8.954780   21.698270   -4.413880
  C     -9.532890   21.168660   -5.724280
  C    -10.944680   22.666460   -3.205480
  C    -11.102030   23.812290   -4.054150
  C    -12.089210   24.697860   -3.901150
  H      5.682250    4.026880   -2.036950
  H      5.367830    1.508830   -1.221940
  H      4.299290    1.330290    0.194750
  H      6.945320    2.877570    0.185710
  H      6.708110    1.261650    0.861830
  H      5.879310    2.648010    1.576480
  H      2.610160    8.754890   -2.184840
  H      1.493920    8.699310   -0.807630
  H      1.047180    7.579650   -3.630500
  H      0.209640    8.958830   -2.913010
  H     -0.094290    7.323510   -2.310820
  H      0.781150    5.056570    0.992930
  H     -0.183560    7.781330   -0.073400
  H     -4.845320    7.997720    3.421650
  H     -3.650690    9.763250    1.204380
  H     -6.797720    8.607830    3.665630
  H     -7.867570    9.884250    4.276320
  H     -4.897700    9.708040    5.007600
  H     -6.226940    9.134910    6.023910
  H     -6.085670   10.851340    5.636060
  H     -6.099920   14.692870   -1.612830
  H     -4.515860   13.889360   -1.714230
  H     -5.194960   16.128660    0.266240
  H     -4.256220   16.319740   -1.218710
  H     -3.633570   15.320210    0.097660
  H     -7.513430   15.323970    0.059860
  H     -8.794600   13.819270    2.416380
  H    -10.026080   18.767980   -0.591670
  H    -12.491170   19.412010    1.134250
  H    -14.329550   20.667740    0.857380
  H    -14.662920   22.351580    0.391950
  H    -12.495380   21.507980    2.389250
  H    -14.069460   22.192400    2.809430
  H    -12.894330   23.162260    1.916290
  H     -8.169350   21.023670   -4.061150
  H     -8.526430   22.695030   -4.551330
  H     -9.912430   20.160060   -5.580290
  H     -8.758190   21.143540   -6.485690
  H    -10.348510   21.798050   -6.073430
  H    -10.372270   23.940820   -4.841700
  H    -12.827120   24.591540   -3.123650
  H    -12.177880   25.550430   -4.552150

 Total Charge           Charge          ....    0
 Multiplicity           Mult            ....    1
 Number of Electrons    NEL             ....  472
 Basis Dimension        Dim             .... 1134

ORBITAL ENERGIES
----------------

  NO   OCC          E(Eh)            E(eV)
   0   2.0000     -24.815477      -675.2634
   1   2.0000     -24.808862      -675.0835
   2   2.0000     -24.808504      -675.0737
   3   2.0000     -24.808159      -675.0643
   4   2.0000     -19.312818      -525.5285
   5   2.0000     -19.310578      -525.4675
   6   2.0000     -19.190566      -522.2018
   7   2.0000     -19.186758      -522.0982
   8   2.0000     -19.186635      -522.0949
   9   2.0000     -19.186406      -522.0886
  10   2.0000     -19.184057      -522.0247
  11   2.0000     -19.179930      -521.9124
  12   2.0000     -14.452468      -393.2717
  13   2.0000     -14.450310      -393.2129
  14   2.0000     -14.449692      -393.1961
  15   2.0000     -14.449579      -393.1930
  16   2.0000     -14.448045      -393.1513
  17   2.0000     -14.445167      -393.0730
  18   2.0000     -10.379627      -282.4440
  19   2.0000     -10.378754      -282.4203
  20   2.0000     -10.375722      -282.3377
  21   2.0000     -10.374549      -282.3058
  22   2.0000     -10.371987      -282.2361
  23   2.0000     -10.370546      -282.1969
  24   2.0000     -10.370011      -282.1824
  25   2.0000     -10.369175      -282.1596
  26   2.0000     -10.366862      -282.0967
  27   2.0000     -10.366100      -282.0759
  28   2.0000     -10.356908      -281.8258
  29   2.0000     -10.352590      -281.7083
  30   2.0000     -10.352398      -281.7031
  31   2.0000     -10.351411      -281.6762
  32   2.0000     -10.338495      -281.3248
  33   2.0000     -10.336403      -281.2678
  34   2.0000     -10.335354      -281.2393
  35   2.0000     -10.335315      -281.2382
  36   2.0000     -10.332507      -281.1618
  37   2.0000     -10.327497      -281.0255
  38   2.0000     -10.308464      -280.5076
  39   2.0000     -10.306234      -280.4469
  40   2.0000     -10.305122      -280.4166
  41   2.0000     -10.305073      -280.4153
  42   2.0000     -10.304588      -280.4021
  43   2.0000     -10.302673      -280.3500
  44   2.0000     -10.300898      -280.3017
  45   2.0000     -10.300445      -280.2894
  46   2.0000     -10.299315      -280.2586
  47   2.0000     -10.298987      -280.2497
  48   2.0000     -10.294347      -280.1234
  49   2.0000     -10.291938      -280.0579
  50   2.0000     -10.291798      -280.0541
  51   2.0000     -10.291202      -280.0378
  52   2.0000     -10.286237      -279.9027
  53   2.0000     -10.277321      -279.6601
  54   2.0000     -10.264437      -279.3095
  55   2.0000     -10.262408      -279.2543
  56   2.0000     -10.261433      -279.2278
  57   2.0000     -10.261150      -279.2201
  58   2.0000     -10.260641      -279.2062
  59   2.0000     -10.258943      -279.1600
  60   2.0000     -10.258240      -279.1409
  61   2.0000     -10.256831      -279.1026
  62   2.0000     -10.256182      -279.0849
  63   2.0000     -10.256144      -279.0839
  64   2.0000     -10.254560      -279.0408
  65   2.0000     -10.253290      -279.0062
  66   2.0000      -1.330733       -36.2111
  67   2.0000      -1.326513       -36.0963
  68   2.0000      -1.320512       -35.9330
  69   2.0000      -1.317298       -35.8455
  70   2.0000      -1.232033       -33.5253
  71   2.0000      -1.230269       -33.4773
  72   2.0000      -1.131096       -30.7787
  73   2.0000      -1.129339       -30.7309
  74   2.0000      -1.125326       -30.6217
  75   2.0000      -1.124126       -30.5890
  76   2.0000      -1.122696       -30.5501
  77   2.0000      -1.118541       -30.4371
  78   2.0000      -1.061161       -28.8756
  79   2.0000      -1.059189       -28.8220
  80   2.0000      -1.056001       -28.7352
  81   2.0000      -1.052958       -28.6525
  82   2.0000      -1.050255       -28.5789
  83   2.0000      -1.046257       -28.4701
  84   2.0000      -0.936454       -25.4822
  85   2.0000      -0.933686       -25.4069
  86   2.0000      -0.926701       -25.2168
  87   2.0000      -0.924375       -25.1535
  88   2.0000      -0.922418       -25.1003
  89   2.0000      -0.921688       -25.0804
  90   2.0000      -0.919775       -25.0284
  91   2.0000      -0.906608       -24.6701
  92   2.0000      -0.902095       -24.5473
  93   2.0000      -0.890321       -24.2269
  94   2.0000      -0.875130       -23.8135
  95   2.0000      -0.870565       -23.6893
  96   2.0000      -0.868975       -23.6460
  97   2.0000      -0.857613       -23.3368
  98   2.0000      -0.853062       -23.2130
  99   2.0000      -0.819586       -22.3021
 100   2.0000      -0.819076       -22.2882
 101   2.0000      -0.817242       -22.2383
 102   2.0000      -0.814864       -22.1736
 103   2.0000      -0.811200       -22.0739
 104   2.0000      -0.791218       -21.5301
 105   2.0000      -0.783378       -21.3168
 106   2.0000      -0.767535       -20.8857
 107   2.0000      -0.759764       -20.6742
 108   2.0000      -0.758625       -20.6432
 109   2.0000      -0.757117       -20.6022
 110   2.0000      -0.755137       -20.5483
 111   2.0000      -0.734390       -19.9838
 112   2.0000      -0.731757       -19.9121
 113   2.0000      -0.719921       -19.5901
 114   2.0000      -0.714121       -19.4322
 115   2.0000      -0.708396       -19.2764
 116   2.0000      -0.706781       -19.2325
 117   2.0000      -0.705850       -19.2072
 118   2.0000      -0.705424       -19.1956
 119   2.0000      -0.695497       -18.9254
 120   2.0000      -0.688920       -18.7465
 121   2.0000      -0.683232       -18.5917
 122   2.0000      -0.678443       -18.4614
 123   2.0000      -0.674018       -18.3410
 124   2.0000      -0.662310       -18.0224
 125   2.0000      -0.656251       -17.8575
 126   2.0000      -0.649678       -17.6786
 127   2.0000      -0.646142       -17.5824
 128   2.0000      -0.645788       -17.5728
 129   2.0000      -0.645277       -17.5589
 130   2.0000      -0.642754       -17.4902
 131   2.0000      -0.628645       -17.1063
 132   2.0000      -0.625866       -17.0307
 133   2.0000      -0.608727       -16.5643
 134   2.0000      -0.606994       -16.5172
 135   2.0000      -0.604679       -16.4542
 136   2.0000      -0.603970       -16.4349
 137   2.0000      -0.597271       -16.2526
 138   2.0000      -0.588234       -16.0067
 139   2.0000      -0.584848       -15.9145
 140   2.0000      -0.583877       -15.8881
 141   2.0000      -0.578298       -15.7363
 142   2.0000      -0.578036       -15.7292
 143   2.0000      -0.572933       -15.5903
 144   2.0000      -0.571614       -15.5544
 145   2.0000      -0.570384       -15.5209
 146   2.0000      -0.567637       -15.4462
 147   2.0000      -0.562588       -15.3088
 148   2.0000      -0.562290       -15.3007
 149   2.0000      -0.559872       -15.2349
 150   2.0000      -0.558206       -15.1896
 151   2.0000      -0.556036       -15.1305
 152   2.0000      -0.555738       -15.1224
 153   2.0000      -0.550017       -14.9667
 154   2.0000      -0.548873       -14.9356
 155   2.0000      -0.547593       -14.9008
 156   2.0000      -0.545617       -14.8470
 157   2.0000      -0.540148       -14.6982
 158   2.0000      -0.536754       -14.6058
 159   2.0000      -0.533433       -14.5154
 160   2.0000      -0.530593       -14.4382
 161   2.0000      -0.529761       -14.4155
 162   2.0000      -0.529682       -14.4134
 163   2.0000      -0.527992       -14.3674
 164   2.0000      -0.526103       -14.3160
 165   2.0000      -0.524040       -14.2599
 166   2.0000      -0.523853       -14.2548
 167   2.0000      -0.522643       -14.2218
 168   2.0000      -0.521821       -14.1995
 169   2.0000      -0.517225       -14.0744
 170   2.0000      -0.515333       -14.0229
 171   2.0000      -0.513684       -13.9781
 172   2.0000      -0.512415       -13.9435
 173   2.0000      -0.511469       -13.9178
 174   2.0000      -0.507796       -13.8178
 175   2.0000      -0.505726       -13.7615
 176   2.0000      -0.501133       -13.6365
 177   2.0000      -0.497526       -13.5384
 178   2.0000      -0.495568       -13.4851
 179   2.0000      -0.495503       -13.4833
 180   2.0000      -0.493322       -13.4240
 181   2.0000      -0.478983       -13.0338
 182   2.0000      -0.473610       -12.8876
 183   2.0000      -0.473433       -12.8828
 184   2.0000      -0.470623       -12.8063
 185   2.0000      -0.469858       -12.7855
 186   2.0000      -0.466878       -12.7044
 187   2.0000      -0.465655       -12.6711
 188   2.0000      -0.464535       -12.6406
 189   2.0000      -0.460315       -12.5258
 190   2.0000      -0.460244       -12.5239
 191   2.0000      -0.459304       -12.4983
 192   2.0000      -0.454863       -12.3775
 193   2.0000      -0.452995       -12.3266
 194   2.0000      -0.452448       -12.3117
 195   2.0000      -0.451116       -12.2755
 196   2.0000      -0.450024       -12.2458
 197   2.0000      -0.447240       -12.1700
 198   2.0000      -0.445957       -12.1351
 199   2.0000      -0.445069       -12.1109
 200   2.0000      -0.443665       -12.0727
 201   2.0000      -0.440837       -11.9958
 202   2.0000      -0.439514       -11.9598
 203   2.0000      -0.435908       -11.8617
 204   2.0000      -0.435596       -11.8532
 205   2.0000      -0.434323       -11.8185
 206   2.0000      -0.433128       -11.7860
 207   2.0000      -0.430050       -11.7023
 208   2.0000      -0.427888       -11.6434
 209   2.0000      -0.425574       -11.5805
 210   2.0000      -0.423642       -11.5279
 211   2.0000      -0.419969       -11.4279
 212   2.0000      -0.418399       -11.3852
 213   2.0000      -0.416037       -11.3209
 214   2.0000      -0.399651       -10.8751
 215   2.0000      -0.395072       -10.7505
 216   2.0000      -0.391322       -10.6484
 217   2.0000      -0.372601       -10.1390
 218   2.0000      -0.369350       -10.0505
 219   2.0000      -0.350797        -9.5457
 220   2.0000      -0.346231        -9.4214
 221   2.0000      -0.345612        -9.4046
 222   2.0000      -0.344882        -9.3847
 223   2.0000      -0.342573        -9.3219
 224   2.0000      -0.339644        -9.2422
 225   2.0000      -0.329217        -8.9585
 226   2.0000      -0.328450        -8.9376
 227   2.0000      -0.323117        -8.7925
 228   2.0000      -0.312705        -8.5091
 229   2.0000      -0.312574        -8.5056
 230   2.0000      -0.308166        -8.3856
 231   2.0000      -0.294682        -8.0187
 232   2.0000      -0.288580        -7.8527
 233   2.0000      -0.248834        -6.7711
 234   2.0000      -0.238751        -6.4968
 235   2.0000      -0.220956        -6.0125
 236   0.0000      -0.098632        -2.6839
 237   0.0000      -0.075431        -2.0526
 238   0.0000      -0.055478        -1.5096
 239   0.0000      -0.023509        -0.6397
 240   0.0000      -0.001350        -0.0367

MULLIKEN ATOMIC CHARGES
-----------------------
   0 C :    0.048375
   1 N :   -0.266758
   2 C :    0.111383
   3 C :    0.001211
   4 C :    0.158594
   5 O :   -0.192244
   6 C :   -0.078952
   7 C :    0.005065
   8 C :    0.161184
   9 O :   -0.191021
  10 N :   -0.281673
  11 C :    0.097532
  12 C :    0.004554
  13 C :    0.132411
  14 C :   -0.048160
  15 C :    0.019747
  16 C :    0.109066
  17 O :   -0.193905
  18 C :    0.086732
  19 C :    0.183029
  20 C :    0.157520
  21 F :   -0.150770
  22 F :   -0.163674
  23 C :   -0.018439
  24 C :   -0.036028
  25 C :    0.116440
  26 N :   -0.265392
  27 C :    0.101431
  28 C :    0.000373
  29 C :    0.156229
  30 O :   -0.216728
  31 C :   -0.062568
  32 C :   -0.031622
  33 C :    0.144016
  34 O :   -0.194588
  35 N :   -0.264557
  36 C :    0.097445
  37 C :    0.005114
  38 C :    0.152225
  39 C :   -0.038328
  40 C :   -0.004951
  41 C :    0.082943
  42 O :   -0.189919
  43 C :    0.122106
  44 C :    0.142827
  45 C :    0.203503
  46 F :   -0.149881
  47 F :   -0.163487
  48 C :    0.015764
  49 C :   -0.042151
  50 C :    0.135156
  51 N :   -0.256693
  52 C :    0.096571
  53 C :    0.003554
  54 C :    0.157088
  55 O :   -0.207629
  56 C :   -0.063579
  57 C :   -0.068914
  58 C :    0.154794
  59 O :   -0.214342
  60 N :   -0.254527
  61 C :    0.097302
  62 C :    0.003028
  63 C :    0.107174
  64 C :   -0.036953
  65 C :    0.011298
  66 H :    0.015158
  67 H :    0.017232
  68 H :    0.042317
  69 H :    0.013625
  70 H :    0.021862
  71 H :    0.030601
  72 H :    0.043211
  73 H :    0.022713
  74 H :    0.026821
  75 H :    0.025272
  76 H :    0.018112
  77 H :    0.018112
  78 H :    0.002053
  79 H :   -0.000315
  80 H :    0.019322
  81 H :    0.023755
  82 H :    0.043172
  83 H :    0.021033
  84 H :    0.022277
  85 H :    0.027048
  86 H :    0.025679
  87 H :    0.042085
  88 H :    0.017536
  89 H :    0.024209
  90 H :    0.027360
  91 H :   -0.006669
  92 H :    0.031943
  93 H :    0.023532
  94 H :   -0.013821
  95 H :    0.024015
  96 H :    0.043774
  97 H :    0.016196
  98 H :    0.024767
  99 H :    0.027938
 100 H :    0.041843
 101 H :    0.023537
 102 H :    0.028185
 103 H :    0.023646
 104 H :    0.017836
 105 H :   -0.018613
 106 H :    0.057870
 107 H :    0.029421
Sum of atomic charges:   -0.0000000

LOEWDIN ATOMIC CHARGES
----------------------
   0 C :    0.096133
   1 N :   -0.004012
   2 C :    0.037934
   3 C :   -0.060354
   4 C :    0.076523
   5 O :   -0.194422
   6 C :   -0.119871
   7 C :   -0.133649
   8 C :    0.082973
   9 O :   -0.192479
  10 N :   -0.012707
  11 C :    0.033485
  12 C :   -0.062998
  13 C :    0.075380
  14 C :   -0.025389
  15 C :   -0.021309
  16 C :    0.005927
  17 O :    0.024829
  18 C :    0.005874
  19 C :    0.024585
  20 C :    0.026951
  21 F :   -0.027741
  22 F :   -0.041327
  23 C :   -0.033125
  24 C :   -0.021735
  25 C :    0.060658
  26 N :   -0.003606
  27 C :    0.034891
  28 C :   -0.063171
  29 C :    0.079110
  30 O :   -0.205704
  31 C :   -0.128392
  32 C :   -0.106881
  33 C :    0.079083
  34 O :   -0.197814
  35 N :   -0.004359
  36 C :    0.036330
  37 C :   -0.060822
  38 C :    0.081382
  39 C :   -0.044835
  40 C :    0.014329
  41 C :    0.001905
  42 O :    0.026282
  43 C :    0.009932
  44 C :    0.024667
  45 C :    0.035357
  46 F :   -0.028902
  47 F :   -0.038221
  48 C :    0.007250
  49 C :   -0.040917
  50 C :    0.072252
  51 N :   -0.001054
  52 C :    0.035702
  53 C :   -0.061196
  54 C :    0.080187
  55 O :   -0.201265
  56 C :   -0.124982
  57 C :   -0.121772
  58 C :    0.078747
  59 O :   -0.205907
  60 N :    0.001311
  61 C :    0.035784
  62 C :   -0.061397
  63 C :    0.078820
  64 C :   -0.055333
  65 C :    0.023614
  66 H :    0.032765
  67 H :    0.024170
  68 H :    0.036397
  69 H :    0.021997
  70 H :    0.029660
  71 H :    0.031808
  72 H :    0.037474
  73 H :    0.020678
  74 H :    0.032328
  75 H :    0.031869
  76 H :    0.020923
  77 H :    0.046181
  78 H :    0.041219
  79 H :    0.037908
  80 H :    0.048060
  81 H :    0.020521
  82 H :    0.037552
  83 H :    0.021926
  84 H :    0.030564
  85 H :    0.032335
  86 H :    0.024214
  87 H :    0.037090
  88 H :    0.022800
  89 H :    0.031152
  90 H :    0.031232
  91 H :    0.033129
  92 H :    0.047307
  93 H :    0.046569
  94 H :    0.027992
  95 H :    0.023184
  96 H :    0.037669
  97 H :    0.022080
  98 H :    0.030985
  99 H :    0.031755
 100 H :    0.036720
 101 H :    0.022969
 102 H :    0.031774
 103 H :    0.030328
 104 H :    0.022895
 105 H :    0.029288
 106 H :    0.032755
 107 H :    0.029239

  Mayer bond orders larger than 0.100000
B(  0-C ,  1-N ) :   1.2006 B(  0-C ,  7-C ) :   1.4471 B(  0-C , 66-H ) :   0.9891
B(  1-N ,  2-C ) :   0.9425 B(  1-N ,  4-C ) :   1.0231 B(  2-C ,  3-C ) :   1.1192
B(  2-C , 67-H ) :   0.9539 B(  2-C , 68-H ) :   0.9344 B(  3-C , 69-H ) :   0.9689
B(  3-C , 70-H ) :   0.9685 B(  3-C , 71-H ) :   0.9672 B(  4-C ,  5-O ) :   2.1250
B(  4-C ,  6-C ) :   0.9941 B(  6-C ,  7-C ) :   1.1970 B(  6-C , 13-C ) :   1.3835
B(  7-C ,  8-C ) :   0.9549 B(  8-C ,  9-O ) :   2.1638 B(  8-C , 10-N ) :   1.0209
B( 10-N , 11-C ) :   0.9450 B( 10-N , 13-C ) :   1.1532 B( 11-C , 12-C ) :   1.1169
B( 11-C , 72-H ) :   0.9233 B( 11-C , 73-H ) :   0.9512 B( 12-C , 74-H ) :   0.9612
B( 12-C , 75-H ) :   0.9681 B( 12-C , 76-H ) :   0.9682 B( 13-C , 14-C ) :   1.1900
B( 14-C , 15-C ) :   1.5649 B( 14-C , 77-H ) :   0.9489 B( 15-C , 16-C ) :   1.1434
B( 15-C , 78-H ) :   0.9638 B( 16-C , 17-O ) :   1.1240 B( 16-C , 18-C ) :   0.1261
B( 16-C , 20-C ) :   1.3467 B( 17-O , 18-C ) :   1.1346 B( 18-C , 19-C ) :   1.3301
B( 18-C , 23-C ) :   1.1694 B( 19-C , 20-C ) :   1.2293 B( 19-C , 22-F ) :   1.1706
B( 20-C , 21-F ) :   1.1573 B( 23-C , 24-C ) :   1.5459 B( 23-C , 79-H ) :   0.9627
B( 24-C , 25-C ) :   1.1752 B( 24-C , 80-H ) :   0.9562 B( 25-C , 26-N ) :   1.1547
B( 25-C , 32-C ) :   1.3498 B( 26-N , 27-C ) :   0.9469 B( 26-N , 29-C ) :   1.0646
B( 27-C , 28-C ) :   1.1161 B( 27-C , 81-H ) :   0.9506 B( 27-C , 82-H ) :   0.9235
B( 28-C , 83-H ) :   0.9684 B( 28-C , 84-H ) :   0.9681 B( 28-C , 85-H ) :   0.9617
B( 29-C , 30-O ) :   2.0134 B( 29-C , 31-C ) :   0.9971 B( 30-O , 92-H ) :   0.1132
B( 31-C , 32-C ) :   1.2493 B( 31-C , 38-C ) :   1.3190 B( 32-C , 33-C ) :   0.9753
B( 33-C , 34-O ) :   2.1314 B( 33-C , 35-N ) :   1.0363 B( 35-N , 36-C ) :   0.9453
B( 35-N , 38-C ) :   1.1630 B( 36-C , 37-C ) :   1.1218 B( 36-C , 86-H ) :   0.9498
B( 36-C , 87-H ) :   0.9289 B( 37-C , 88-H ) :   0.9683 B( 37-C , 89-H ) :   0.9677
B( 37-C , 90-H ) :   0.9637 B( 38-C , 39-C ) :   1.1582 B( 39-C , 40-C ) :   1.5540
B( 39-C , 91-H ) :   0.9761 B( 40-C , 41-C ) :   1.1737 B( 40-C , 92-H ) :   0.9365
B( 41-C , 42-O ) :   1.1270 B( 41-C , 43-C ) :   0.1244 B( 41-C , 45-C ) :   1.3145
B( 42-O , 43-C ) :   1.1321 B( 43-C , 44-C ) :   1.3315 B( 43-C , 48-C ) :   1.1530
B( 44-C , 45-C ) :   1.2404 B( 44-C , 47-F ) :   1.1359 B( 45-C , 46-F ) :   1.1881
B( 48-C , 49-C ) :   1.5718 B( 48-C , 93-H ) :   0.9447 B( 49-C , 50-C ) :   1.1665
B( 49-C , 94-H ) :   0.9612 B( 50-C , 51-N ) :   1.1544 B( 50-C , 57-C ) :   1.3504
B( 51-N , 52-C ) :   0.9484 B( 51-N , 54-C ) :   1.0573 B( 52-C , 53-C ) :   1.1207
B( 52-C , 95-H ) :   0.9495 B( 52-C , 96-H ) :   0.9274 B( 53-C , 97-H ) :   0.9680
B( 53-C , 98-H ) :   0.9678 B( 53-C , 99-H ) :   0.9638 B( 54-C , 55-O ) :   2.0497
B( 54-C , 56-C ) :   0.9823 B( 56-C , 57-C ) :   1.2386 B( 56-C , 63-C ) :   1.3768
B( 57-C , 58-C ) :   0.9936 B( 58-C , 59-O ) :   2.0282 B( 58-C , 60-N ) :   1.0584
B( 59-O , 93-H ) :   0.1042 B( 60-N , 61-C ) :   0.9487 B( 60-N , 63-C ) :   1.1666
B( 61-C , 62-C ) :   1.1194 B( 61-C ,100-H ) :   0.9286 B( 61-C ,101-H ) :   0.9505
B( 62-C ,102-H ) :   0.9641 B( 62-C ,103-H ) :   0.9679 B( 62-C ,104-H ) :   0.9686
B( 63-C , 64-C ) :   1.1275 B( 64-C , 65-C ) :   1.8870 B( 64-C ,105-H ) :   0.9533
B( 65-C ,106-H ) :   0.9270 B( 65-C ,107-H ) :   0.9442

-----------------------------------------------------------------------------
         ABSORPTION SPECTRUM VIA TRANSITION ELECTRIC DIPOLE MOMENTS
-----------------------------------------------------------------------------
State   Energy  Wavelength   fosc         T2         TX        TY        TZ
        (cm-1)    (nm)                  (au**2)     (au)      (au)      (au)
-----------------------------------------------------------------------------
   0   12934.3    773.1   1.714688884  43.64344  -3.53069   5.42350  -1.32788
   1   17621.9    567.5   0.289626583   5.41079   1.57031   0.19113  -1.70540
   2   19507.4    512.6   0.196814394   3.32150   1.49453  -0.66239  -0.80568
   3   20064.9    498.4   0.055730426   0.91439  -0.69121   0.65710   0.06956
   4   22907.2    436.5   0.014138098   0.20319  -0.14352   0.35876  -0.23212
   5   25503.1    392.1   0.205033037   2.64671   1.29780  -0.75357  -0.62813
   6   25843.3    386.9   0.123186301   1.56924   1.01734  -0.02468  -0.73052
   7   26278.0    380.5   0.085906670   1.07624   0.13152  -0.85423   0.57378
   8   26975.2    370.7   0.176014812   2.14813  -0.97889   1.08950  -0.05383
   9   27732.2    360.6   0.424564480   5.04004   1.82163  -1.13521  -0.65805
  10   27879.5    358.7   0.010024584   0.11837  -0.11895   0.29755  -0.12526
  11   28553.2    350.2   0.009098386   0.10490  -0.23281  -0.06079   0.21681
  12   28909.0    345.9   0.001914584   0.02180   0.06540  -0.07008  -0.11231
  13   29849.2    335.0   0.040124982   0.44255  -0.56355   0.28278   0.21212
  14   29950.8    333.9   0.029474414   0.32398   0.41756  -0.26454  -0.28219
  15   30966.8    322.9   0.047274247   0.50258  -0.59878   0.14088   0.35242
  16   31140.2    321.1   0.057467354   0.60754  -0.54454  -0.17321   0.53011
  17   31417.9    318.3   0.000782828   0.00820  -0.03313   0.04474   0.07144
  18   32301.9    309.6   0.000334709   0.00341  -0.04678   0.02298   0.02635
  19   33172.9    301.5   0.024912134   0.24723   0.22089  -0.43779   0.08233
  20   33472.6    298.8   0.001358438   0.01336   0.00683   0.08764  -0.07506
  21   34265.1    291.8   0.010794581   0.10371  -0.28836   0.10910   0.09306
  22   34479.1    290.0   0.213091634   2.03463  -0.49347  -0.84848   1.03499
  23   36469.7    274.2   0.224437240   2.02600   1.10417   0.12854  -0.88897
  24   36829.2    271.5   0.009821692   0.08779  -0.22532   0.11871   0.15144
  25   37908.3    263.8   0.051023324   0.44311  -0.00634   0.52709  -0.40650
  26   38342.2    260.8   0.030910612   0.26540  -0.35813  -0.13570   0.34458
  27   38372.3    260.6   0.060823635   0.52183  -0.34796  -0.31504   0.54909
  28   38517.5    259.6   0.050808985   0.43427  -0.29855  -0.30309   0.50327
  29   38718.9    258.3   0.003270605   0.02781  -0.06329  -0.10643   0.11169
  30   38927.0    256.9   0.110740098   0.93655   0.78419  -0.29944  -0.48160
  31   39590.4    252.6   0.125412313   1.04286   0.04231   0.84286  -0.57503

FINAL SINGLE POINT ENERGY     -3180.198260441650

DIPOLE MOMENT
-------------
                                X             Y             Z
Electronic contribution:    -20.31262     -34.13364      34.26841
Nuclear contribution   :     20.10389      35.08528     -34.66508
                        -----------------------------------------
Total Dipole Moment    :     -0.20872       0.95164      -0.39667
                        -----------------------------------------
Magnitude (a.u.)       :      1.05192
Magnitude (Debye)      :      2.67377

Rotational constants in cm-1:     0.002201     0.000248     0.000224
Rotational constants in MHz :    65.987221     7.422976     6.712146

                             ****ORCA TERMINATED NORMALLY****
TOTAL RUN TIME: 0 days 0 hours 9 minutes 23 seconds 333 msec
