                         Program Version 4.2.0 -  RELEASE  -
|  1> # ORCA input file
|  2> # SCF done       -196.558717875738          0.000408154559
|  3> ! CAM-B3LYP def2-SVP def2/J RIJCOSX Grid4 TightSCF
|  4> %maxcore 5000
|  5> %tddft
|  6>     Mode sTDDFT
|  7>     Ethresh 5.0
|  8>     maxcore 5000
|  9> end
| 10>
| 11> %pal
| 12>   nprocs 6
| 13>   end
| 14> * xyz 0 1
| 15>    C       -3.47958         1.35782        -7.03712
| 16>    N       -4.23745         2.41668        -6.64164
| 17>    C       -5.28837         3.03314        -7.41091
| 18>    C       -6.54722         2.17001        -7.43883
| 19>    C       -3.91555         2.82119        -5.32326
| 20>    O       -4.47124         3.73629        -4.74797
| 21>    C       -2.86392         1.91592        -4.93734
| 22>    C       -2.62667         1.01718        -6.02660
| 23>    C       -1.57662         0.11162        -5.61780
| 24>    O       -1.03364        -0.81660        -6.17476
| 25>    N       -1.23917         0.53027        -4.30757
| 26>    C       -0.27207        -0.22995        -3.55487
| 27>    C       -0.93495        -1.10498        -2.49330
| 28>    C       -2.00077         1.60571        -3.90170
| 29>    C       -1.96951         2.35016        -2.68175
| 30>    C       -1.15954         2.23425        -1.61300
| 31>    C       -1.22846         3.13525        -0.47614
| 32>    C       -0.07185         3.72757        -0.05825
| 33>    S       -0.28379         4.97398         1.10112
| 34>    C       -1.99548         4.68078         1.09459
| 35>    C       -2.37966         3.63227         0.24263
| 36>    C       -3.71495         3.15696         0.31098
| 37>    C       -4.04656         1.82909        -0.32035
| 38>    C       -3.46850         0.69447         0.52992
| 39>    C       -4.65484         3.83412         1.07703
| 40>    C       -6.07242         3.33290         1.18164
| 41>    C       -6.91509         3.79436        -0.01042
| 42>    C       -4.29024         4.99827         1.79710
| 43>    C       -5.07457         5.86884         2.64294
| 44>    C       -4.29406         6.77380         3.30031
| 45>    S       -2.61837         6.67579         2.93669
| 46>    C       -2.93542         5.35943         1.85063
| 47>    C       -6.51830         5.88388         2.78817
| 48>    C       -7.11850         6.11422         3.96462
| 49>    N       -8.47049         6.18566         4.18709
| 50>    C       -9.52159         5.95039         3.33844
| 51>    C       -9.73896         5.75030         2.01052
| 52>    S      -11.41436         5.43699         1.71396
| 53>    C      -11.82972         5.56899         3.37895
| 54>    C      -10.72544         5.85868         4.11726
| 55>    N      -10.41160         6.03180         5.44379
| 56>    C       -8.98418         6.27352         5.53772
| 57>    C      -11.24656         5.96154         6.51671
| 58>    C      -11.00797         5.42871         7.79160
| 59>    N       -9.92102         4.73472         8.29599
| 60>    O       -9.90050         4.47753         9.49129
| 61>    O       -9.02547         4.37083         7.52118
| 62>    C      -12.21168         5.57423         8.56461
| 63>    C      -13.18025         6.12249         7.78713
| 64>    C      -12.62427         6.44167         6.50758
| 65>    C      -13.21303         7.26988         5.55619
| 66>    C      -12.54829         8.18037         4.69044
| 67>    C      -13.48492         8.96563         4.08913
| 68>    C      -14.79436         8.55033         4.49870
| 69>    N      -15.91142         9.18475         3.95990
| 70>    O      -17.02400         9.00414         4.44991
| 71>    O      -15.72942         9.92498         3.00288
| 72>    C      -14.66110         7.47576         5.39367
| 73>    C      -15.56185         6.50647         5.89852
| 74>    C      -16.91889         6.57306         5.95640
| 75>    C      -17.76616         5.55650         6.52257
| 76>    C      -19.12907         5.41866         6.17151
| 77>    O      -19.79246         6.01892         5.16188
| 78>    C      -19.15404         6.65242         4.07264
| 79>    C      -19.92544         4.51964         6.89809
| 80>    C      -19.41052         3.74582         7.90333
| 81>    C      -18.04481         3.82519         8.22108
| 82>    C      -17.25310         4.71829         7.53195
| 83>    O      -17.61979         3.00759         9.21974
| 84>    C      -16.26412         3.05047         9.59771
| 85>    H       -3.59771         0.92949        -8.01536
| 86>    H       -4.92990         3.21617        -8.42845
| 87>    H       -5.50281         3.99038        -6.92798
| 88>    H       -6.34099         1.20410        -7.89476
| 89>    H       -7.32420         2.66790        -8.01206
| 90>    H       -6.91022         2.00680        -6.42706
| 91>    H        0.47220         0.43997        -3.11645
| 92>    H        0.23090        -0.86819        -4.28840
| 93>    H       -1.51034        -0.50598        -1.79132
| 94>    H       -0.17716        -1.65813        -1.94501
| 95>    H       -1.60536        -1.81567        -2.97044
| 96>    H       -2.71137         3.14122        -2.67809
| 97>    H       -0.33448         1.53932        -1.59422
| 98>    H        0.91420         3.53575        -0.43626
| 99>    H       -3.63351         1.76470        -1.32263
|100>    H       -5.12014         1.69376        -0.41358
|101>    H       -2.38541         0.77473         0.59156
|102>    H       -3.72123        -0.26976         0.09427
|103>    H       -3.86801         0.73261         1.54124
|104>    H       -6.51154         3.69722         2.11037
|105>    H       -6.08657         2.24464         1.23788
|106>    H       -7.95016         3.48087         0.11223
|107>    H       -6.53422         3.37609        -0.93886
|108>    H       -6.88150         4.87753        -0.10994
|109>    H       -4.63037         7.54633         3.96389
|110>    H       -7.10491         5.74108         1.89876
|111>    H       -6.53330         6.24123         4.86444
|112>    H       -9.07105         5.77375         1.17732
|113>    H      -12.84428         5.43210         3.68746
|114>    H       -8.50820         5.52976         6.20473
|115>    H       -8.81384         7.27725         5.95723
|116>    H      -12.28669         5.26761         9.59028
|117>    H      -14.16397         6.40070         8.11011
|118>    H      -11.48644         8.31396         4.62125
|119>    H      -13.31348         9.78695         3.41924
|120>    H      -15.07726         5.60111         6.24072
|121>    H      -17.39534         7.47676         5.61834
|122>    H      -18.21208         6.15970         3.81877
|123>    H      -18.96880         7.71270         4.26025
|124>    H      -19.85028         6.56068         3.23744
|125>    H      -20.96742         4.45368         6.62816
|126>    H      -20.03076         3.06107         8.45822
|127>    H      -16.21730         4.83584         7.80261
|128>    H      -16.15763         2.31580        10.39377
|129>    H      -15.98390         4.03773         9.97842
|130>    H      -15.60525         2.78037         8.76625
|131> *
|132>
|133>                          ****END OF INPUT****

CARTESIAN COORDINATES (ANGSTROEM)
---------------------------------
  C     -3.479580    1.357820   -7.037120
  N     -4.237450    2.416680   -6.641640
  C     -5.288370    3.033140   -7.410910
  C     -6.547220    2.170010   -7.438830
  C     -3.915550    2.821190   -5.323260
  O     -4.471240    3.736290   -4.747970
  C     -2.863920    1.915920   -4.937340
  C     -2.626670    1.017180   -6.026600
  C     -1.576620    0.111620   -5.617800
  O     -1.033640   -0.816600   -6.174760
  N     -1.239170    0.530270   -4.307570
  C     -0.272070   -0.229950   -3.554870
  C     -0.934950   -1.104980   -2.493300
  C     -2.000770    1.605710   -3.901700
  C     -1.969510    2.350160   -2.681750
  C     -1.159540    2.234250   -1.613000
  C     -1.228460    3.135250   -0.476140
  C     -0.071850    3.727570   -0.058250
  S     -0.283790    4.973980    1.101120
  C     -1.995480    4.680780    1.094590
  C     -2.379660    3.632270    0.242630
  C     -3.714950    3.156960    0.310980
  C     -4.046560    1.829090   -0.320350
  C     -3.468500    0.694470    0.529920
  C     -4.654840    3.834120    1.077030
  C     -6.072420    3.332900    1.181640
  C     -6.915090    3.794360   -0.010420
  C     -4.290240    4.998270    1.797100
  C     -5.074570    5.868840    2.642940
  C     -4.294060    6.773800    3.300310
  S     -2.618370    6.675790    2.936690
  C     -2.935420    5.359430    1.850630
  C     -6.518300    5.883880    2.788170
  C     -7.118500    6.114220    3.964620
  N     -8.470490    6.185660    4.187090
  C     -9.521590    5.950390    3.338440
  C     -9.738960    5.750300    2.010520
  S    -11.414360    5.436990    1.713960
  C    -11.829720    5.568990    3.378950
  C    -10.725440    5.858680    4.117260
  N    -10.411600    6.031800    5.443790
  C     -8.984180    6.273520    5.537720
  C    -11.246560    5.961540    6.516710
  C    -11.007970    5.428710    7.791600
  N     -9.921020    4.734720    8.295990
  O     -9.900500    4.477530    9.491290
  O     -9.025470    4.370830    7.521180
  C    -12.211680    5.574230    8.564610
  C    -13.180250    6.122490    7.787130
  C    -12.624270    6.441670    6.507580
  C    -13.213030    7.269880    5.556190
  C    -12.548290    8.180370    4.690440
  C    -13.484920    8.965630    4.089130
  C    -14.794360    8.550330    4.498700
  N    -15.911420    9.184750    3.959900
  O    -17.024000    9.004140    4.449910
  O    -15.729420    9.924980    3.002880
  C    -14.661100    7.475760    5.393670
  C    -15.561850    6.506470    5.898520
  C    -16.918890    6.573060    5.956400
  C    -17.766160    5.556500    6.522570
  C    -19.129070    5.418660    6.171510
  O    -19.792460    6.018920    5.161880
  C    -19.154040    6.652420    4.072640
  C    -19.925440    4.519640    6.898090
  C    -19.410520    3.745820    7.903330
  C    -18.044810    3.825190    8.221080
  C    -17.253100    4.718290    7.531950
  O    -17.619790    3.007590    9.219740
  C    -16.264120    3.050470    9.597710
  H     -3.597710    0.929490   -8.015360
  H     -4.929900    3.216170   -8.428450
  H     -5.502810    3.990380   -6.927980
  H     -6.340990    1.204100   -7.894760
  H     -7.324200    2.667900   -8.012060
  H     -6.910220    2.006800   -6.427060
  H      0.472200    0.439970   -3.116450
  H      0.230900   -0.868190   -4.288400
  H     -1.510340   -0.505980   -1.791320
  H     -0.177160   -1.658130   -1.945010
  H     -1.605360   -1.815670   -2.970440
  H     -2.711370    3.141220   -2.678090
  H     -0.334480    1.539320   -1.594220
  H      0.914200    3.535750   -0.436260
  H     -3.633510    1.764700   -1.322630
  H     -5.120140    1.693760   -0.413580
  H     -2.385410    0.774730    0.591560
  H     -3.721230   -0.269760    0.094270
  H     -3.868010    0.732610    1.541240
  H     -6.511540    3.697220    2.110370
  H     -6.086570    2.244640    1.237880
  H     -7.950160    3.480870    0.112230
  H     -6.534220    3.376090   -0.938860
  H     -6.881500    4.877530   -0.109940
  H     -4.630370    7.546330    3.963890
  H     -7.104910    5.741080    1.898760
  H     -6.533300    6.241230    4.864440
  H     -9.071050    5.773750    1.177320
  H    -12.844280    5.432100    3.687460
  H     -8.508200    5.529760    6.204730
  H     -8.813840    7.277250    5.957230
  H    -12.286690    5.267610    9.590280
  H    -14.163970    6.400700    8.110110
  H    -11.486440    8.313960    4.621250
  H    -13.313480    9.786950    3.419240
  H    -15.077260    5.601110    6.240720
  H    -17.395340    7.476760    5.618340
  H    -18.212080    6.159700    3.818770
  H    -18.968800    7.712700    4.260250
  H    -19.850280    6.560680    3.237440
  H    -20.967420    4.453680    6.628160
  H    -20.030760    3.061070    8.458220
  H    -16.217300    4.835840    7.802610
  H    -16.157630    2.315800   10.393770
  H    -15.983900    4.037730    9.978420
  H    -15.605250    2.780370    8.766250

 Total Charge           Charge          ....    0
 Multiplicity           Mult            ....    1
 Number of Electrons    NEL             ....  518
 Basis Dimension        Dim             .... 1222

ORBITAL ENERGIES
----------------

  NO   OCC          E(Eh)            E(eV)
   0   2.0000     -88.960607     -2420.7412
   1   2.0000     -88.952126     -2420.5104
   2   2.0000     -88.945217     -2420.3224
   3   2.0000     -19.248907      -523.7894
   4   2.0000     -19.244931      -523.6812
   5   2.0000     -19.233266      -523.3638
   6   2.0000     -19.230204      -523.2805
   7   2.0000     -19.228446      -523.2326
   8   2.0000     -19.228319      -523.2291
   9   2.0000     -19.181590      -521.9576
  10   2.0000     -19.181544      -521.9563
  11   2.0000     -14.641424      -398.4134
  12   2.0000     -14.638680      -398.3387
  13   2.0000     -14.495863      -394.4525
  14   2.0000     -14.465060      -393.6143
  15   2.0000     -14.447291      -393.1308
  16   2.0000     -14.445871      -393.0921
  17   2.0000     -10.367305      -282.1087
  18   2.0000     -10.365322      -282.0548
  19   2.0000     -10.362535      -281.9789
  20   2.0000     -10.356798      -281.8228
  21   2.0000     -10.342684      -281.4388
  22   2.0000     -10.334714      -281.2219
  23   2.0000     -10.331711      -281.1402
  24   2.0000     -10.328416      -281.0505
  25   2.0000     -10.327574      -281.0276
  26   2.0000     -10.326890      -281.0090
  27   2.0000     -10.326452      -280.9970
  28   2.0000     -10.326265      -280.9920
  29   2.0000     -10.325133      -280.9612
  30   2.0000     -10.323563      -280.9184
  31   2.0000     -10.320789      -280.8430
  32   2.0000     -10.320294      -280.8295
  33   2.0000     -10.318186      -280.7721
  34   2.0000     -10.316522      -280.7268
  35   2.0000     -10.305044      -280.4145
  36   2.0000     -10.302792      -280.3532
  37   2.0000     -10.302148      -280.3357
  38   2.0000     -10.298729      -280.2427
  39   2.0000     -10.298266      -280.2301
  40   2.0000     -10.297555      -280.2107
  41   2.0000     -10.297222      -280.2016
  42   2.0000     -10.296798      -280.1901
  43   2.0000     -10.295472      -280.1540
  44   2.0000     -10.293468      -280.0995
  45   2.0000     -10.293077      -280.0889
  46   2.0000     -10.291739      -280.0525
  47   2.0000     -10.290964      -280.0314
  48   2.0000     -10.285950      -279.8949
  49   2.0000     -10.283978      -279.8413
  50   2.0000     -10.283075      -279.8167
  51   2.0000     -10.281242      -279.7668
  52   2.0000     -10.279895      -279.7302
  53   2.0000     -10.278501      -279.6922
  54   2.0000     -10.277890      -279.6756
  55   2.0000     -10.277551      -279.6664
  56   2.0000     -10.276991      -279.6511
  57   2.0000     -10.273450      -279.5548
  58   2.0000     -10.272960      -279.5415
  59   2.0000     -10.269635      -279.4510
  60   2.0000     -10.269091      -279.4362
  61   2.0000     -10.267730      -279.3991
  62   2.0000     -10.262427      -279.2548
  63   2.0000     -10.259755      -279.1821
  64   2.0000     -10.257854      -279.1304
  65   2.0000     -10.253979      -279.0249
  66   2.0000     -10.253921      -279.0234
  67   2.0000     -10.253330      -279.0073
  68   2.0000     -10.251808      -278.9659
  69   2.0000     -10.250815      -278.9389
  70   2.0000      -8.056252      -219.2218
  71   2.0000      -8.048252      -219.0041
  72   2.0000      -8.041428      -218.8184
  73   2.0000      -6.025913      -163.9734
  74   2.0000      -6.021353      -163.8493
  75   2.0000      -6.018048      -163.7594
  76   2.0000      -6.017697      -163.7499
  77   2.0000      -6.013544      -163.6368
  78   2.0000      -6.010955      -163.5664
  79   2.0000      -6.009977      -163.5398
  80   2.0000      -6.006749      -163.4520
  81   2.0000      -6.003040      -163.3510
  82   2.0000      -1.308705       -35.6117
  83   2.0000      -1.303234       -35.4628
  84   2.0000      -1.152911       -31.3723
  85   2.0000      -1.149758       -31.2865
  86   2.0000      -1.137658       -30.9572
  87   2.0000      -1.124583       -30.6014
  88   2.0000      -1.123766       -30.5792
  89   2.0000      -1.118483       -30.4355
  90   2.0000      -1.117628       -30.4122
  91   2.0000      -1.056291       -28.7431
  92   2.0000      -1.054956       -28.7068
  93   2.0000      -1.046077       -28.4652
  94   2.0000      -1.010009       -27.4837
  95   2.0000      -0.998834       -27.1796
  96   2.0000      -0.992660       -27.0117
  97   2.0000      -0.979322       -26.6487
  98   2.0000      -0.968783       -26.3619
  99   2.0000      -0.957529       -26.0557
 100   2.0000      -0.921759       -25.0823
 101   2.0000      -0.920568       -25.0499
 102   2.0000      -0.913152       -24.8481
 103   2.0000      -0.908438       -24.7199
 104   2.0000      -0.906190       -24.6587
 105   2.0000      -0.893450       -24.3120
 106   2.0000      -0.881976       -23.9998
 107   2.0000      -0.870944       -23.6996
 108   2.0000      -0.864258       -23.5177
 109   2.0000      -0.858639       -23.3647
 110   2.0000      -0.856628       -23.3100
 111   2.0000      -0.853466       -23.2240
 112   2.0000      -0.849695       -23.1214
 113   2.0000      -0.842140       -22.9158
 114   2.0000      -0.836892       -22.7730
 115   2.0000      -0.827908       -22.5285
 116   2.0000      -0.819111       -22.2891
 117   2.0000      -0.815665       -22.1954
 118   2.0000      -0.806924       -21.9575
 119   2.0000      -0.802353       -21.8331
 120   2.0000      -0.801028       -21.7971
 121   2.0000      -0.792229       -21.5577
 122   2.0000      -0.783594       -21.3227
 123   2.0000      -0.775489       -21.1021
 124   2.0000      -0.762833       -20.7577
 125   2.0000      -0.758168       -20.6308
 126   2.0000      -0.755619       -20.5614
 127   2.0000      -0.745547       -20.2874
 128   2.0000      -0.730212       -19.8701
 129   2.0000      -0.724799       -19.7228
 130   2.0000      -0.717884       -19.5346
 131   2.0000      -0.716050       -19.4847
 132   2.0000      -0.708854       -19.2889
 133   2.0000      -0.706822       -19.2336
 134   2.0000      -0.693876       -18.8813
 135   2.0000      -0.692384       -18.8407
 136   2.0000      -0.687784       -18.7156
 137   2.0000      -0.678545       -18.4641
 138   2.0000      -0.677368       -18.4321
 139   2.0000      -0.672672       -18.3043
 140   2.0000      -0.671758       -18.2795
 141   2.0000      -0.662472       -18.0268
 142   2.0000      -0.648329       -17.6419
 143   2.0000      -0.646059       -17.5801
 144   2.0000      -0.644472       -17.5370
 145   2.0000      -0.640228       -17.4215
 146   2.0000      -0.635872       -17.3030
 147   2.0000      -0.627028       -17.0623
 148   2.0000      -0.622791       -16.9470
 149   2.0000      -0.621324       -16.9071
 150   2.0000      -0.619463       -16.8564
 151   2.0000      -0.616513       -16.7762
 152   2.0000      -0.612720       -16.6730
 153   2.0000      -0.609159       -16.5761
 154   2.0000      -0.602699       -16.4003
 155   2.0000      -0.601251       -16.3609
 156   2.0000      -0.598422       -16.2839
 157   2.0000      -0.595349       -16.2003
 158   2.0000      -0.593307       -16.1447
 159   2.0000      -0.588640       -16.0177
 160   2.0000      -0.581886       -15.8339
 161   2.0000      -0.578905       -15.7528
 162   2.0000      -0.576254       -15.6807
 163   2.0000      -0.573929       -15.6174
 164   2.0000      -0.572321       -15.5737
 165   2.0000      -0.566111       -15.4047
 166   2.0000      -0.556441       -15.1415
 167   2.0000      -0.555467       -15.1150
 168   2.0000      -0.550693       -14.9851
 169   2.0000      -0.549375       -14.9493
 170   2.0000      -0.546795       -14.8791
 171   2.0000      -0.542948       -14.7744
 172   2.0000      -0.542089       -14.7510
 173   2.0000      -0.540532       -14.7086
 174   2.0000      -0.537059       -14.6141
 175   2.0000      -0.535526       -14.5724
 176   2.0000      -0.533720       -14.5233
 177   2.0000      -0.528526       -14.3819
 178   2.0000      -0.526800       -14.3350
 179   2.0000      -0.524315       -14.2673
 180   2.0000      -0.522549       -14.2193
 181   2.0000      -0.518888       -14.1197
 182   2.0000      -0.513976       -13.9860
 183   2.0000      -0.512728       -13.9520
 184   2.0000      -0.511734       -13.9250
 185   2.0000      -0.509666       -13.8687
 186   2.0000      -0.504092       -13.7170
 187   2.0000      -0.500668       -13.6239
 188   2.0000      -0.499559       -13.5937
 189   2.0000      -0.497567       -13.5395
 190   2.0000      -0.496590       -13.5129
 191   2.0000      -0.493494       -13.4286
 192   2.0000      -0.491476       -13.3737
 193   2.0000      -0.490699       -13.3526
 194   2.0000      -0.490087       -13.3359
 195   2.0000      -0.485824       -13.2199
 196   2.0000      -0.484652       -13.1880
 197   2.0000      -0.482899       -13.1404
 198   2.0000      -0.481530       -13.1031
 199   2.0000      -0.477226       -12.9860
 200   2.0000      -0.474538       -12.9128
 201   2.0000      -0.473270       -12.8783
 202   2.0000      -0.472042       -12.8449
 203   2.0000      -0.471644       -12.8341
 204   2.0000      -0.464952       -12.6520
 205   2.0000      -0.464113       -12.6292
 206   2.0000      -0.459116       -12.4932
 207   2.0000      -0.458058       -12.4644
 208   2.0000      -0.455840       -12.4040
 209   2.0000      -0.453247       -12.3335
 210   2.0000      -0.452283       -12.3072
 211   2.0000      -0.449055       -12.2194
 212   2.0000      -0.448290       -12.1986
 213   2.0000      -0.446771       -12.1573
 214   2.0000      -0.445997       -12.1362
 215   2.0000      -0.441091       -12.0027
 216   2.0000      -0.439152       -11.9499
 217   2.0000      -0.437464       -11.9040
 218   2.0000      -0.432110       -11.7583
 219   2.0000      -0.429799       -11.6954
 220   2.0000      -0.428574       -11.6621
 221   2.0000      -0.427943       -11.6449
 222   2.0000      -0.425071       -11.5668
 223   2.0000      -0.422403       -11.4942
 224   2.0000      -0.419525       -11.4159
 225   2.0000      -0.419181       -11.4065
 226   2.0000      -0.417260       -11.3542
 227   2.0000      -0.412016       -11.2115
 228   2.0000      -0.406732       -11.0677
 229   2.0000      -0.403848       -10.9893
 230   2.0000      -0.400728       -10.9044
 231   2.0000      -0.398136       -10.8338
 232   2.0000      -0.391525       -10.6539
 233   2.0000      -0.382905       -10.4194
 234   2.0000      -0.381955       -10.3935
 235   2.0000      -0.381186       -10.3726
 236   2.0000      -0.374720       -10.1967
 237   2.0000      -0.372045       -10.1239
 238   2.0000      -0.368544       -10.0286
 239   2.0000      -0.364878        -9.9288
 240   2.0000      -0.362996        -9.8776
 241   2.0000      -0.357278        -9.7220
 242   2.0000      -0.353485        -9.6188
 243   2.0000      -0.348539        -9.4842
 244   2.0000      -0.339740        -9.2448
 245   2.0000      -0.339086        -9.2270
 246   2.0000      -0.335170        -9.1204
 247   2.0000      -0.324680        -8.8350
 248   2.0000      -0.322842        -8.7850
 249   2.0000      -0.321499        -8.7484
 250   2.0000      -0.314175        -8.5491
 251   2.0000      -0.307560        -8.3691
 252   2.0000      -0.287348        -7.8191
 253   2.0000      -0.284312        -7.7365
 254   2.0000      -0.268767        -7.3135
 255   2.0000      -0.265577        -7.2267
 256   2.0000      -0.258622        -7.0375
 257   2.0000      -0.241571        -6.5735
 258   2.0000      -0.237994        -6.4761
 259   0.0000      -0.133669        -3.6373
 260   0.0000      -0.058979        -1.6049
 261   0.0000      -0.050941        -1.3862
 262   0.0000      -0.026699        -0.7265
 263   0.0000      -0.006901        -0.1878

MULLIKEN ATOMIC CHARGES
-----------------------
   0 C :    0.043610
   1 N :   -0.267183
   2 C :    0.115348
   3 C :   -0.003771
   4 C :    0.156479
   5 O :   -0.200888
   6 C :   -0.075094
   7 C :    0.008724
   8 C :    0.162470
   9 O :   -0.189567
  10 N :   -0.277360
  11 C :    0.103614
  12 C :   -0.002261
  13 C :    0.111588
  14 C :   -0.012386
  15 C :   -0.044987
  16 C :    0.042934
  17 C :   -0.096096
  18 S :    0.132582
  19 C :   -0.146099
  20 C :    0.102883
  21 C :   -0.114813
  22 C :    0.065752
  23 C :    0.030992
  24 C :   -0.127585
  25 C :    0.018217
  26 C :    0.026610
  27 C :    0.110756
  28 C :    0.069137
  29 C :   -0.133363
  30 S :    0.117522
  31 C :   -0.139080
  32 C :   -0.041160
  33 C :    0.083302
  34 N :   -0.226673
  35 C :    0.226157
  36 C :   -0.238121
  37 S :    0.112409
  38 C :   -0.159435
  39 C :    0.129624
  40 N :   -0.172794
  41 C :    0.294685
  42 C :    0.087863
  43 C :    0.007846
  44 N :    0.298099
  45 O :   -0.262137
  46 O :   -0.294967
  47 C :    0.006612
  48 C :   -0.035597
  49 C :    0.023868
  50 C :   -0.046100
  51 C :    0.029785
  52 C :    0.021098
  53 C :    0.041420
  54 N :    0.289041
  55 O :   -0.277787
  56 O :   -0.259134
  57 C :    0.104629
  58 C :   -0.106096
  59 C :   -0.007161
  60 C :    0.021968
  61 C :    0.184059
  62 O :   -0.303737
  63 C :    0.159228
  64 C :   -0.014112
  65 C :    0.000111
  66 C :    0.246827
  67 C :   -0.137247
  68 O :   -0.311875
  69 C :    0.178361
  70 H :    0.013480
  71 H :    0.016885
  72 H :    0.040876
  73 H :    0.013581
  74 H :    0.022569
  75 H :    0.029666
  76 H :    0.018883
  77 H :    0.043676
  78 H :    0.017585
  79 H :    0.020408
  80 H :    0.026022
  81 H :    0.028709
  82 H :    0.002463
  83 H :    0.017451
  84 H :   -0.004094
  85 H :   -0.004549
  86 H :    0.013072
  87 H :    0.014662
  88 H :    0.007578
  89 H :    0.010645
  90 H :    0.005207
  91 H :    0.016845
  92 H :    0.019895
  93 H :    0.016903
  94 H :    0.010569
  95 H :   -0.019895
  96 H :    0.011178
  97 H :    0.028663
  98 H :    0.021674
  99 H :    0.082030
 100 H :    0.031624
 101 H :    0.001615
 102 H :    0.004465
 103 H :   -0.013526
 104 H :    0.005871
 105 H :    0.013010
 106 H :    0.039600
 107 H :    0.029477
 108 H :    0.058319
 109 H :    0.033053
 110 H :   -0.009303
 111 H :   -0.008620
 112 H :   -0.052958
 113 H :    0.040260
 114 H :    0.020182
 115 H :    0.022750
Sum of atomic charges:   -0.0000000

LOEWDIN ATOMIC CHARGES
----------------------
   0 C :    0.093554
   1 N :   -0.004820
   2 C :    0.038009
   3 C :   -0.061062
   4 C :    0.075651
   5 O :   -0.204168
   6 C :   -0.126620
   7 C :   -0.132107
   8 C :    0.084282
   9 O :   -0.191225
  10 N :   -0.013079
  11 C :    0.033899
  12 C :   -0.064463
  13 C :    0.079695
  14 C :   -0.038033
  15 C :    0.005475
  16 C :   -0.065234
  17 C :   -0.163528
  18 S :    0.420024
  19 C :   -0.176676
  20 C :   -0.042275
  21 C :   -0.019157
  22 C :   -0.031919
  23 C :   -0.048829
  24 C :   -0.017819
  25 C :   -0.032427
  26 C :   -0.051542
  27 C :   -0.041671
  28 C :   -0.054036
  29 C :   -0.181866
  30 S :    0.405292
  31 C :   -0.178244
  32 C :   -0.078423
  33 C :    0.027838
  34 N :   -0.010992
  35 C :   -0.009298
  36 C :   -0.235507
  37 S :    0.448663
  38 C :   -0.211656
  39 C :   -0.029858
  40 N :    0.034862
  41 C :    0.126531
  42 C :    0.051716
  43 C :   -0.107228
  44 N :    0.290178
  45 O :   -0.227271
  46 O :   -0.246294
  47 C :    0.022916
  48 C :   -0.071638
  49 C :    0.011737
  50 C :    0.028357
  51 C :   -0.057559
  52 C :    0.037199
  53 C :   -0.081646
  54 N :    0.291086
  55 O :   -0.233139
  56 O :   -0.223676
  57 C :    0.031907
  58 C :   -0.056735
  59 C :    0.051368
  60 C :   -0.072252
  61 C :    0.065199
  62 O :   -0.091956
  63 C :    0.078335
  64 C :   -0.031544
  65 C :   -0.012256
  66 C :    0.039373
  67 C :   -0.061909
  68 O :   -0.106476
  69 C :    0.076346
  70 H :    0.031988
  71 H :    0.023851
  72 H :    0.036020
  73 H :    0.021766
  74 H :    0.029761
  75 H :    0.031167
  76 H :    0.018343
  77 H :    0.037086
  78 H :    0.021516
  79 H :    0.029995
  80 H :    0.031743
  81 H :    0.049326
  82 H :    0.030690
  83 H :    0.023410
  84 H :    0.028420
  85 H :    0.023825
  86 H :    0.021407
  87 H :    0.022594
  88 H :    0.024253
  89 H :    0.028197
  90 H :    0.026665
  91 H :    0.022726
  92 H :    0.028055
  93 H :    0.019743
  94 H :    0.018813
  95 H :    0.026296
  96 H :    0.030665
  97 H :    0.022979
  98 H :    0.024797
  99 H :    0.024808
 100 H :    0.019954
 101 H :    0.036821
 102 H :    0.027951
 103 H :    0.027132
 104 H :    0.038631
 105 H :    0.031827
 106 H :    0.031007
 107 H :    0.018440
 108 H :    0.021272
 109 H :    0.027086
 110 H :    0.036852
 111 H :    0.037452
 112 H :    0.024674
 113 H :    0.030708
 114 H :    0.013274
 115 H :    0.014640

  Mayer bond orders larger than 0.100000
B(  0-C ,  1-N ) :   1.1909 B(  0-C ,  7-C ) :   1.4621 B(  0-C , 70-H ) :   0.9892
B(  1-N ,  2-C ) :   0.9439 B(  1-N ,  4-C ) :   1.0313 B(  2-C ,  3-C ) :   1.1192
B(  2-C , 71-H ) :   0.9538 B(  2-C , 72-H ) :   0.9341 B(  3-C , 73-H ) :   0.9692
B(  3-C , 74-H ) :   0.9688 B(  3-C , 75-H ) :   0.9674 B(  4-C ,  5-O ) :   2.1187
B(  4-C ,  6-C ) :   0.9929 B(  6-C ,  7-C ) :   1.1838 B(  6-C , 13-C ) :   1.4071
B(  7-C ,  8-C ) :   0.9541 B(  8-C ,  9-O ) :   2.1635 B(  8-C , 10-N ) :   1.0165
B( 10-N , 11-C ) :   0.9485 B( 10-N , 13-C ) :   1.1593 B( 11-C , 12-C ) :   1.1132
B( 11-C , 76-H ) :   0.9498 B( 11-C , 77-H ) :   0.9225 B( 12-C , 78-H ) :   0.9680
B( 12-C , 79-H ) :   0.9665 B( 12-C , 80-H ) :   0.9611 B( 13-C , 14-C ) :   1.1805
B( 14-C , 15-C ) :   1.6896 B( 14-C , 81-H ) :   0.9339 B( 15-C , 16-C ) :   1.0226
B( 15-C , 82-H ) :   0.9636 B( 16-C , 17-C ) :   1.5962 B( 16-C , 20-C ) :   1.1409
B( 17-C , 18-S ) :   1.1280 B( 17-C , 83-H ) :   0.9683 B( 18-S , 19-C ) :   1.0749
B( 19-C , 20-C ) :   1.3795 B( 19-C , 31-C ) :   1.3743 B( 20-C , 21-C ) :   1.2637
B( 21-C , 22-C ) :   1.0833 B( 21-C , 24-C ) :   1.5037 B( 22-C , 23-C ) :   1.1126
B( 22-C , 84-H ) :   0.9083 B( 22-C , 85-H ) :   0.9076 B( 23-C , 86-H ) :   0.9653
B( 23-C , 87-H ) :   0.9653 B( 23-C , 88-H ) :   0.9584 B( 24-C , 25-C ) :   1.0616
B( 24-C , 27-C ) :   1.2633 B( 25-C , 26-C ) :   1.1062 B( 25-C , 89-H ) :   0.9176
B( 25-C , 90-H ) :   0.9128 B( 26-C , 91-H ) :   0.9663 B( 26-C , 92-H ) :   0.9590
B( 26-C , 93-H ) :   0.9545 B( 27-C , 28-C ) :   1.1580 B( 27-C , 31-C ) :   1.3714
B( 28-C , 29-C ) :   1.6185 B( 28-C , 32-C ) :   1.0266 B( 29-C , 30-S ) :   1.1017
B( 29-C , 94-H ) :   0.9643 B( 30-S , 31-C ) :   1.0800 B( 32-C , 33-C ) :   1.7556
B( 32-C , 95-H ) :   0.9480 B( 33-C , 34-N ) :   1.0863 B( 33-C , 96-H ) :   0.9635
B( 34-N , 35-C ) :   1.0823 B( 34-N , 41-C ) :   0.9612 B( 35-C , 36-C ) :   1.5184
B( 35-C , 39-C ) :   1.2466 B( 36-C , 37-S ) :   1.1124 B( 36-C , 97-H ) :   0.9776
B( 37-S , 38-C ) :   1.1375 B( 38-C , 39-C ) :   1.5400 B( 38-C , 98-H ) :   0.9799
B( 39-C , 40-N ) :   1.0366 B( 40-N , 41-C ) :   0.9381 B( 40-N , 42-C ) :   1.1942
B( 41-C , 99-H ) :   0.8985 B( 41-C ,100-H ) :   0.9418 B( 42-C , 43-C ) :   1.4575
B( 42-C , 49-C ) :   1.0998 B( 43-C , 44-N ) :   1.0091 B( 43-C , 47-C ) :   1.1330
B( 44-N , 45-O ) :   1.5148 B( 44-N , 46-O ) :   1.4068 B( 45-O , 46-O ) :   0.2275
B( 46-O , 99-H ) :   0.1172 B( 47-C , 48-C ) :   1.5738 B( 47-C ,101-H ) :   1.0118
B( 48-C , 49-C ) :   1.1415 B( 48-C ,102-H ) :   1.0030 B( 49-C , 50-C ) :   1.4328
B( 50-C , 51-C ) :   1.1783 B( 50-C , 57-C ) :   1.0200 B( 51-C , 52-C ) :   1.5405
B( 51-C ,103-H ) :   1.0045 B( 52-C , 53-C ) :   1.1385 B( 52-C ,104-H ) :   1.0092
B( 53-C , 54-N ) :   0.9918 B( 53-C , 57-C ) :   1.4273 B( 54-N , 55-O ) :   1.4347
B( 54-N , 56-O ) :   1.5260 B( 55-O , 56-O ) :   0.2330 B( 57-C , 58-C ) :   1.1905
B( 58-C , 59-C ) :   1.6043 B( 58-C ,105-H ) :   0.9580 B( 59-C , 60-C ) :   1.0753
B( 59-C ,106-H ) :   0.9489 B( 60-C , 61-C ) :   1.2816 B( 60-C , 67-C ) :   1.2581
B( 61-C , 62-O ) :   1.1978 B( 61-C , 64-C ) :   1.3186 B( 62-O , 63-C ) :   0.9281
B( 63-C ,107-H ) :   0.9602 B( 63-C ,108-H ) :   0.9683 B( 63-C ,109-H ) :   0.9728
B( 64-C , 65-C ) :   1.4267 B( 64-C ,110-H ) :   0.9912 B( 65-C , 66-C ) :   1.2941
B( 65-C ,111-H ) :   1.0012 B( 66-C , 67-C ) :   1.3713 B( 66-C , 68-O ) :   1.1347
B( 67-C ,112-H ) :   0.9848 B( 68-O , 69-C ) :   0.9698 B( 69-C ,113-H ) :   0.9781
B( 69-C ,114-H ) :   0.9677 B( 69-C ,115-H ) :   0.9671

-----------------------------------------------------------------------------
         ABSORPTION SPECTRUM VIA TRANSITION ELECTRIC DIPOLE MOMENTS
-----------------------------------------------------------------------------
State   Energy  Wavelength   fosc         T2         TX        TY        TZ
        (cm-1)    (nm)                  (au**2)     (au)      (au)      (au)
-----------------------------------------------------------------------------
   0    6624.7   1509.5   0.110984923   5.51535  -2.02800   0.28915   1.14846
   1    9871.1   1013.1   0.119113713   3.97256  -1.88817  -0.62343   0.13676
   2   11605.5    861.7   0.002376313   0.06741  -0.21546   0.01166  -0.14439
   3   15621.3    640.2   0.014033687   0.29575  -0.35479  -0.39382   0.12159
   4   16204.6    617.1   0.000110411   0.00224   0.02678   0.00041  -0.03906
   5   19089.4    523.8   0.005924100   0.10217  -0.03835   0.05336   0.31281
   6   20695.6    483.2   0.000338158   0.00538  -0.00692  -0.04026  -0.06092
   7   21253.4    470.5   0.028763105   0.44554  -0.43156   0.02822   0.50842
   8   23365.2    428.0   0.455202525   6.41372  -1.32146   0.18073  -2.15286
   9   24920.9    401.3   0.103286520   1.36444   0.82511   0.02804   0.82635
  10   24999.9    400.0   0.056832870   0.74840  -0.84535  -0.18194   0.02604
  11   26288.9    380.4   0.041250410   0.51657  -0.09304   0.67416  -0.23113
  12   26896.4    371.8   0.017752770   0.21729   0.40739  -0.22567  -0.01997
  13   27001.8    370.3   0.009239894   0.11265  -0.08418  -0.22515  -0.23426
  14   27034.0    369.9   0.130087107   1.58416  -0.93592  -0.82773   0.15194
  15   27616.1    362.1   0.071343235   0.85048   0.45187   0.42866  -0.68010
  16   28581.8    349.9   0.158973443   1.83109   0.45079  -0.98355  -0.81272
  17   29036.7    344.4   0.363624164   4.12270   0.46098  -1.47929   1.31221
  18   29759.6    336.0   0.014606887   0.16159   0.23790  -0.31090  -0.09129
  19   30225.1    330.9   0.026526420   0.28893  -0.13162  -0.29891   0.42692
  20   30878.9    323.8   0.022010555   0.23466  -0.08976   0.25050  -0.40479
  21   31209.1    320.4   0.344049160   3.62924  -0.62136   1.06222  -1.45425
  22   31453.8    317.9   0.007688991   0.08048   0.12552  -0.16802   0.19103
  23   31522.8    317.2   0.000642582   0.00671  -0.05733  -0.05457   0.02112
  24   31818.2    314.3   0.009285448   0.09607  -0.24625   0.08154  -0.16967
  25   32090.7    311.6   0.087799985   0.90072   0.51292  -0.53221   0.59530
  26   32406.2    308.6   0.097686706   0.99239  -0.29769   0.55810  -0.76960
  27   32914.9    303.8   0.002648602   0.02649  -0.15993  -0.02649   0.01454
  28   33006.4    303.0   0.000354636   0.00354   0.00156  -0.04828  -0.03470
  29   33353.1    299.8   0.150007289   1.48065  -0.82677   0.56732  -0.68938
  30   33902.8    295.0   0.327281978   3.17806   1.56905   0.58363   0.61279
  31   34325.5    291.3   0.000124901   0.00120   0.02491  -0.02370   0.00397
  32   34597.7    289.0   0.000695711   0.00662   0.05611  -0.02789   0.05190
  33   34658.2    288.5   0.004280216   0.04066  -0.12780  -0.07723  -0.13549
  34   35066.1    285.2   0.136079768   1.27756   0.61446  -0.66983   0.67181
  35   35269.7    283.5   0.064187328   0.59913  -0.69150   0.34637   0.03139
  36   35334.7    283.0   0.002323705   0.02165   0.06630  -0.01879   0.13000
  37   35779.3    279.5   0.018948163   0.17435   0.22228  -0.01806   0.35300
  38   35981.6    277.9   0.062071045   0.56792   0.63082  -0.39001   0.13367
  39   36196.8    276.3   0.585281383   5.32317   2.19227  -0.44328  -0.56625
  40   36494.5    274.0   0.078067245   0.70423   0.19056   0.73837  -0.35033
  41   37144.9    269.2   0.023960665   0.21236   0.23413  -0.16663   0.36024
  42   37447.6    267.0   0.187263132   1.64628  -0.89120  -0.32590  -0.86362
  43   37577.6    266.1   0.066511368   0.58270   0.36333   0.51452  -0.43122
  44   37751.6    264.9   0.014295638   0.12466  -0.31476  -0.08004  -0.13850
  45   37767.0    264.8   0.031851958   0.27765   0.39235   0.01489   0.35141
  46   37888.0    263.9   0.035308801   0.30680  -0.00717  -0.19800   0.51725
  47   38031.9    262.9   0.063679071   0.55122   0.71901  -0.07328  -0.16991
  48   38212.8    261.7   0.000183729   0.00158  -0.02328   0.03125  -0.00803
  49   38705.8    258.4   0.205882145   1.75113  -1.05370   0.64763   0.47055
  50   38815.9    257.6   0.109550035   0.92913  -0.53598   0.51980   0.60965
  51   39002.5    256.4   0.003464580   0.02924  -0.06415  -0.01563   0.15775
  52   39781.1    251.4   0.001541883   0.01276  -0.09281  -0.06324  -0.01209
  53   40063.9    249.6   0.344169519   2.82810  -0.64740   0.53676   1.45631

FINAL SINGLE POINT ENERGY     -4167.810193903168

DIPOLE MOMENT
-------------
                                X             Y             Z
Electronic contribution:     -1.55412      40.71207      31.82294
Nuclear contribution   :      1.12268     -41.01092     -31.75525
                        -----------------------------------------
Total Dipole Moment    :     -0.43144      -0.29885       0.06769
                        -----------------------------------------
Magnitude (a.u.)       :      0.52918
Magnitude (Debye)      :      1.34506

Rotational constants in cm-1:     0.001537     0.000297     0.000276
Rotational constants in MHz :    46.069401     8.909980     8.259917

                             ****ORCA TERMINATED NORMALLY****
TOTAL RUN TIME: 0 days 0 hours 15 minutes 22 seconds 523 msec
