                         Program Version 4.2.0 -  RELEASE  -
|  1> # ORCA input file
|  2> # SCF done       -151.502181384726          0.000524051436
|  3> ! CAM-B3LYP def2-SVP def2/J RIJCOSX Grid4 TightSCF
|  4> %maxcore 5000
|  5> %tddft
|  6>     Mode sTDDFT
|  7>     Ethresh 5.0
|  8>     maxcore 5000
|  9> end
| 10>
| 11> %pal
| 12>   nprocs 6
| 13>   end
| 14> * xyz 0 1
| 15>    C        0.33754         1.30462         8.50665
| 16>    N        1.59525         0.93044         8.39268
| 17>    C        1.77969        -0.30772         7.93686
| 18>    N        0.79380        -1.11010         7.53934
| 19>    C       -0.42083        -0.61911         7.68799
| 20>    N       -0.71448         0.57056         8.18316
| 21>    C        3.14744        -0.81211         7.87729
| 22>    C        3.96015        -1.02167         8.95953
| 23>    N        3.61652        -0.81052        10.31465
| 24>    O        4.52280        -0.80377        11.12437
| 25>    O        2.43945        -0.66761        10.58732
| 26>    C        5.22625        -1.57027         8.51922
| 27>    C        5.15626        -1.76261         7.18488
| 28>    C        3.86616        -1.30479         6.70913
| 29>    C        3.40534        -1.24887         5.41328
| 30>    C        2.42989        -0.33402         4.91033
| 31>    C        2.42914        -0.40531         3.55337
| 32>    C        3.35922        -1.41256         3.12494
| 33>    N        3.50046        -1.68373         1.75409
| 34>    O        2.65407        -1.22280         1.00804
| 35>    O        4.45712        -2.33771         1.36062
| 36>    C        3.94870        -1.99785         4.25350
| 37>    C        4.68730        -3.17501         4.46252
| 38>    C        5.34660        -3.93987         3.53258
| 39>    C        6.02137        -5.11917         3.88632
| 40>    N        6.72333        -5.89003         2.98970
| 41>    C        6.90700        -5.61310         1.58265
| 42>    C        7.96695        -4.54121         1.34746
| 43>    C        7.31676        -7.00193         3.59614
| 44>    O        7.98622        -7.82473         3.00399
| 45>    C        6.92931        -6.90065         4.99200
| 46>    C        6.13793        -5.74728         5.14034
| 47>    C        5.75426        -5.64645         6.53454
| 48>    O        5.08936        -4.83118         7.14021
| 49>    N        6.35670        -6.76192         7.14364
| 50>    C        6.15643        -7.03934         8.54632
| 51>    C        5.08906        -8.10826         8.76568
| 52>    C        7.05667        -7.52457         6.24308
| 53>    C        7.77215        -8.69302         6.58410
| 54>    C        8.47150        -9.40897         5.65989
| 55>    C        9.22962       -10.57108         5.93870
| 56>    S       10.12009       -11.32844         4.64331
| 57>    C       10.74133       -12.54623         5.70200
| 58>    C       10.25889       -12.35957         7.00191
| 59>    C        9.41355       -11.25161         7.12965
| 60>    C       10.59543       -13.20512         8.07587
| 61>    N       10.85467       -13.88224         8.96347
| 62>    C       11.62750       -13.57318         5.27936
| 63>    C       12.08042       -13.71881         4.01837
| 64>    C       12.99198       -14.77282         3.64306
| 65>    N       13.41425       -15.63241         4.57734
| 66>    C       14.24929       -16.55757         4.15606
| 67>    N       14.68570       -16.69416         2.91285
| 68>    C       14.20873       -15.79904         2.06209
| 69>    N       13.37179       -14.82791         2.36240
| 70>    H        0.15311         2.30073         8.88869
| 71>    H       -1.24584        -1.24730         7.37545
| 72>    H        6.04366        -1.77643         9.18243
| 73>    H        5.95130        -2.10051         6.55078
| 74>    H        1.88190         0.36862         5.50563
| 75>    H        1.84984         0.18447         2.86757
| 76>    H        4.70977        -3.51354         5.48958
| 77>    H        5.37213        -3.62981         2.49965
| 78>    H        5.95344        -5.31172         1.14317
| 79>    H        7.22773        -6.55490         1.12936
| 80>    H        7.66716        -3.59347         1.78728
| 81>    H        8.10435        -4.39719         0.28001
| 82>    H        8.91514        -4.84790         1.78288
| 83>    H        5.82917        -6.09840         8.99704
| 84>    H        7.10657        -7.33456         8.99945
| 85>    H        4.13991        -7.77454         8.35396
| 86>    H        4.96110        -8.28555         9.82964
| 87>    H        5.36514        -9.04395         8.28418
| 88>    H        7.76258        -9.00528         7.61774
| 89>    H        8.46896        -9.07820         4.62888
| 90>    H        8.95824       -10.96874         8.06157
| 91>    H       11.95547       -14.27479         6.03646
| 92>    H       11.78591       -13.05030         3.22184
| 93>    H       14.61061       -17.26813         4.88934
| 94>    H       14.53487       -15.87077         1.03173
| 95> *
| 96>
| 97>                          ****END OF INPUT****

CARTESIAN COORDINATES (ANGSTROEM)
---------------------------------
  C      0.337540    1.304620    8.506650
  N      1.595250    0.930440    8.392680
  C      1.779690   -0.307720    7.936860
  N      0.793800   -1.110100    7.539340
  C     -0.420830   -0.619110    7.687990
  N     -0.714480    0.570560    8.183160
  C      3.147440   -0.812110    7.877290
  C      3.960150   -1.021670    8.959530
  N      3.616520   -0.810520   10.314650
  O      4.522800   -0.803770   11.124370
  O      2.439450   -0.667610   10.587320
  C      5.226250   -1.570270    8.519220
  C      5.156260   -1.762610    7.184880
  C      3.866160   -1.304790    6.709130
  C      3.405340   -1.248870    5.413280
  C      2.429890   -0.334020    4.910330
  C      2.429140   -0.405310    3.553370
  C      3.359220   -1.412560    3.124940
  N      3.500460   -1.683730    1.754090
  O      2.654070   -1.222800    1.008040
  O      4.457120   -2.337710    1.360620
  C      3.948700   -1.997850    4.253500
  C      4.687300   -3.175010    4.462520
  C      5.346600   -3.939870    3.532580
  C      6.021370   -5.119170    3.886320
  N      6.723330   -5.890030    2.989700
  C      6.907000   -5.613100    1.582650
  C      7.966950   -4.541210    1.347460
  C      7.316760   -7.001930    3.596140
  O      7.986220   -7.824730    3.003990
  C      6.929310   -6.900650    4.992000
  C      6.137930   -5.747280    5.140340
  C      5.754260   -5.646450    6.534540
  O      5.089360   -4.831180    7.140210
  N      6.356700   -6.761920    7.143640
  C      6.156430   -7.039340    8.546320
  C      5.089060   -8.108260    8.765680
  C      7.056670   -7.524570    6.243080
  C      7.772150   -8.693020    6.584100
  C      8.471500   -9.408970    5.659890
  C      9.229620  -10.571080    5.938700
  S     10.120090  -11.328440    4.643310
  C     10.741330  -12.546230    5.702000
  C     10.258890  -12.359570    7.001910
  C      9.413550  -11.251610    7.129650
  C     10.595430  -13.205120    8.075870
  N     10.854670  -13.882240    8.963470
  C     11.627500  -13.573180    5.279360
  C     12.080420  -13.718810    4.018370
  C     12.991980  -14.772820    3.643060
  N     13.414250  -15.632410    4.577340
  C     14.249290  -16.557570    4.156060
  N     14.685700  -16.694160    2.912850
  C     14.208730  -15.799040    2.062090
  N     13.371790  -14.827910    2.362400
  H      0.153110    2.300730    8.888690
  H     -1.245840   -1.247300    7.375450
  H      6.043660   -1.776430    9.182430
  H      5.951300   -2.100510    6.550780
  H      1.881900    0.368620    5.505630
  H      1.849840    0.184470    2.867570
  H      4.709770   -3.513540    5.489580
  H      5.372130   -3.629810    2.499650
  H      5.953440   -5.311720    1.143170
  H      7.227730   -6.554900    1.129360
  H      7.667160   -3.593470    1.787280
  H      8.104350   -4.397190    0.280010
  H      8.915140   -4.847900    1.782880
  H      5.829170   -6.098400    8.997040
  H      7.106570   -7.334560    8.999450
  H      4.139910   -7.774540    8.353960
  H      4.961100   -8.285550    9.829640
  H      5.365140   -9.043950    8.284180
  H      7.762580   -9.005280    7.617740
  H      8.468960   -9.078200    4.628880
  H      8.958240  -10.968740    8.061570
  H     11.955470  -14.274790    6.036460
  H     11.785910  -13.050300    3.221840
  H     14.610610  -17.268130    4.889340
  H     14.534870  -15.870770    1.031730

 Total Charge           Charge          ....    0
 Multiplicity           Mult            ....    1
 Number of Electrons    NEL             ....  388
 Basis Dimension        Dim             ....  899

ORBITAL ENERGIES
----------------

  NO   OCC          E(Eh)            E(eV)
   0   2.0000     -88.990879     -2421.5649
   1   2.0000     -19.242415      -523.6127
   2   2.0000     -19.241613      -523.5909
   3   2.0000     -19.240965      -523.5733
   4   2.0000     -19.239469      -523.5326
   5   2.0000     -19.215074      -522.8687
   6   2.0000     -19.203420      -522.5516
   7   2.0000     -14.649714      -398.6390
   8   2.0000     -14.649145      -398.6235
   9   2.0000     -14.473338      -393.8396
  10   2.0000     -14.465364      -393.6226
  11   2.0000     -14.426378      -392.5617
  12   2.0000     -14.424839      -392.5198
  13   2.0000     -14.424442      -392.5090
  14   2.0000     -14.422809      -392.4646
  15   2.0000     -14.421465      -392.4280
  16   2.0000     -14.421072      -392.4173
  17   2.0000     -14.419296      -392.3690
  18   2.0000     -10.395199      -282.8677
  19   2.0000     -10.387086      -282.6470
  20   2.0000     -10.372436      -282.2483
  21   2.0000     -10.368338      -282.1368
  22   2.0000     -10.360847      -281.9330
  23   2.0000     -10.357949      -281.8541
  24   2.0000     -10.357378      -281.8386
  25   2.0000     -10.355618      -281.7907
  26   2.0000     -10.354850      -281.7698
  27   2.0000     -10.349372      -281.6207
  28   2.0000     -10.344067      -281.4764
  29   2.0000     -10.336525      -281.2712
  30   2.0000     -10.335598      -281.2459
  31   2.0000     -10.334632      -281.2196
  32   2.0000     -10.332882      -281.1720
  33   2.0000     -10.329705      -281.0856
  34   2.0000     -10.326625      -281.0017
  35   2.0000     -10.326206      -280.9903
  36   2.0000     -10.324528      -280.9447
  37   2.0000     -10.319031      -280.7951
  38   2.0000     -10.317932      -280.7652
  39   2.0000     -10.316277      -280.7202
  40   2.0000     -10.313376      -280.6412
  41   2.0000     -10.311989      -280.6035
  42   2.0000     -10.311395      -280.5873
  43   2.0000     -10.311321      -280.5853
  44   2.0000     -10.303148      -280.3629
  45   2.0000     -10.302606      -280.3482
  46   2.0000     -10.301414      -280.3157
  47   2.0000     -10.298292      -280.2308
  48   2.0000     -10.292341      -280.0688
  49   2.0000     -10.287660      -279.9415
  50   2.0000     -10.286937      -279.9218
  51   2.0000     -10.284493      -279.8553
  52   2.0000     -10.279448      -279.7180
  53   2.0000     -10.277462      -279.6639
  54   2.0000     -10.266724      -279.3718
  55   2.0000      -8.086317      -220.0399
  56   2.0000      -6.055345      -164.7743
  57   2.0000      -6.051309      -164.6645
  58   2.0000      -6.048765      -164.5953
  59   2.0000      -1.321506       -35.9600
  60   2.0000      -1.319444       -35.9039
  61   2.0000      -1.154017       -31.4024
  62   2.0000      -1.142661       -31.0934
  63   2.0000      -1.140195       -31.0263
  64   2.0000      -1.135721       -30.9045
  65   2.0000      -1.128100       -30.6971
  66   2.0000      -1.127631       -30.6844
  67   2.0000      -1.082911       -29.4675
  68   2.0000      -1.070919       -29.1412
  69   2.0000      -1.028026       -27.9740
  70   2.0000      -1.020866       -27.7792
  71   2.0000      -1.004191       -27.3254
  72   2.0000      -1.001642       -27.2561
  73   2.0000      -0.998230       -27.1632
  74   2.0000      -0.997120       -27.1330
  75   2.0000      -0.995499       -27.0889
  76   2.0000      -0.987597       -26.8739
  77   2.0000      -0.945636       -25.7321
  78   2.0000      -0.937363       -25.5070
  79   2.0000      -0.919840       -25.0301
  80   2.0000      -0.912291       -24.8247
  81   2.0000      -0.909892       -24.7594
  82   2.0000      -0.887487       -24.1497
  83   2.0000      -0.882735       -24.0204
  84   2.0000      -0.881368       -23.9832
  85   2.0000      -0.856344       -23.3023
  86   2.0000      -0.850609       -23.1462
  87   2.0000      -0.848997       -23.1024
  88   2.0000      -0.832807       -22.6618
  89   2.0000      -0.814551       -22.1651
  90   2.0000      -0.807092       -21.9621
  91   2.0000      -0.781025       -21.2528
  92   2.0000      -0.774924       -21.0868
  93   2.0000      -0.773243       -21.0410
  94   2.0000      -0.772214       -21.0130
  95   2.0000      -0.769658       -20.9435
  96   2.0000      -0.755432       -20.5564
  97   2.0000      -0.741295       -20.1717
  98   2.0000      -0.729495       -19.8506
  99   2.0000      -0.723609       -19.6904
 100   2.0000      -0.721716       -19.6389
 101   2.0000      -0.715014       -19.4565
 102   2.0000      -0.692181       -18.8352
 103   2.0000      -0.677027       -18.4228
 104   2.0000      -0.675508       -18.3815
 105   2.0000      -0.665042       -18.0967
 106   2.0000      -0.662367       -18.0239
 107   2.0000      -0.660389       -17.9701
 108   2.0000      -0.658493       -17.9185
 109   2.0000      -0.649812       -17.6823
 110   2.0000      -0.643707       -17.5161
 111   2.0000      -0.638115       -17.3640
 112   2.0000      -0.633556       -17.2399
 113   2.0000      -0.630559       -17.1584
 114   2.0000      -0.627960       -17.0877
 115   2.0000      -0.621831       -16.9209
 116   2.0000      -0.617906       -16.8141
 117   2.0000      -0.610853       -16.6222
 118   2.0000      -0.604705       -16.4549
 119   2.0000      -0.598214       -16.2782
 120   2.0000      -0.593359       -16.1461
 121   2.0000      -0.591776       -16.1031
 122   2.0000      -0.587364       -15.9830
 123   2.0000      -0.580476       -15.7955
 124   2.0000      -0.579003       -15.7555
 125   2.0000      -0.574033       -15.6202
 126   2.0000      -0.561820       -15.2879
 127   2.0000      -0.552276       -15.0282
 128   2.0000      -0.552096       -15.0233
 129   2.0000      -0.551550       -15.0084
 130   2.0000      -0.548358       -14.9216
 131   2.0000      -0.545651       -14.8479
 132   2.0000      -0.542905       -14.7732
 133   2.0000      -0.539818       -14.6892
 134   2.0000      -0.538640       -14.6571
 135   2.0000      -0.532838       -14.4993
 136   2.0000      -0.528686       -14.3863
 137   2.0000      -0.526980       -14.3399
 138   2.0000      -0.522156       -14.2086
 139   2.0000      -0.518857       -14.1188
 140   2.0000      -0.518415       -14.1068
 141   2.0000      -0.510520       -13.8920
 142   2.0000      -0.509030       -13.8514
 143   2.0000      -0.503800       -13.7091
 144   2.0000      -0.502661       -13.6781
 145   2.0000      -0.501357       -13.6426
 146   2.0000      -0.492023       -13.3886
 147   2.0000      -0.489679       -13.3248
 148   2.0000      -0.489029       -13.3072
 149   2.0000      -0.483475       -13.1560
 150   2.0000      -0.478861       -13.0305
 151   2.0000      -0.476173       -12.9573
 152   2.0000      -0.474278       -12.9058
 153   2.0000      -0.468496       -12.7484
 154   2.0000      -0.468132       -12.7385
 155   2.0000      -0.461770       -12.5654
 156   2.0000      -0.460089       -12.5197
 157   2.0000      -0.457662       -12.4536
 158   2.0000      -0.452183       -12.3045
 159   2.0000      -0.450820       -12.2674
 160   2.0000      -0.448605       -12.2072
 161   2.0000      -0.447689       -12.1822
 162   2.0000      -0.446802       -12.1581
 163   2.0000      -0.444705       -12.1010
 164   2.0000      -0.443014       -12.0550
 165   2.0000      -0.442881       -12.0514
 166   2.0000      -0.435507       -11.8507
 167   2.0000      -0.430358       -11.7106
 168   2.0000      -0.422395       -11.4940
 169   2.0000      -0.409314       -11.1380
 170   2.0000      -0.408321       -11.1110
 171   2.0000      -0.405546       -11.0355
 172   2.0000      -0.404131       -10.9970
 173   2.0000      -0.390380       -10.6228
 174   2.0000      -0.386687       -10.5223
 175   2.0000      -0.382105       -10.3976
 176   2.0000      -0.378482       -10.2990
 177   2.0000      -0.376672       -10.2498
 178   2.0000      -0.368771       -10.0348
 179   2.0000      -0.366944        -9.9851
 180   2.0000      -0.363687        -9.8964
 181   2.0000      -0.360062        -9.7978
 182   2.0000      -0.350253        -9.5309
 183   2.0000      -0.349513        -9.5107
 184   2.0000      -0.348638        -9.4869
 185   2.0000      -0.348230        -9.4758
 186   2.0000      -0.345772        -9.4089
 187   2.0000      -0.343550        -9.3485
 188   2.0000      -0.337036        -9.1712
 189   2.0000      -0.332762        -9.0549
 190   2.0000      -0.312699        -8.5090
 191   2.0000      -0.308157        -8.3854
 192   2.0000      -0.297875        -8.1056
 193   2.0000      -0.244698        -6.6586
 194   0.0000      -0.140757        -3.8302
 195   0.0000      -0.100372        -2.7313
 196   0.0000      -0.071165        -1.9365
 197   0.0000      -0.046068        -1.2536
 198   0.0000      -0.028157        -0.7662

MULLIKEN ATOMIC CHARGES
-----------------------
   0 C :    0.109675
   1 N :   -0.066512
   2 C :   -0.184564
   3 N :   -0.069283
   4 C :    0.102376
   5 N :   -0.112743
   6 C :    0.127580
   7 C :    0.096961
   8 N :    0.264076
   9 O :   -0.238121
  10 O :   -0.232739
  11 C :    0.009830
  12 C :    0.043601
  13 C :    0.051564
  14 C :    0.017626
  15 C :    0.019545
  16 C :    0.024924
  17 C :    0.060069
  18 N :    0.280281
  19 O :   -0.246810
  20 O :   -0.262430
  21 C :    0.092543
  22 C :   -0.091159
  23 C :   -0.005577
  24 C :    0.130662
  25 N :   -0.249190
  26 C :    0.097550
  27 C :    0.004707
  28 C :    0.171077
  29 O :   -0.212032
  30 C :   -0.077508
  31 C :   -0.053597
  32 C :    0.163906
  33 O :   -0.190652
  34 N :   -0.251492
  35 C :    0.097482
  36 C :    0.001179
  37 C :    0.144075
  38 C :   -0.030574
  39 C :    0.084827
  40 C :   -0.078302
  41 S :    0.187589
  42 C :   -0.033562
  43 C :   -0.056667
  44 C :    0.020171
  45 C :   -0.184615
  46 N :    0.142745
  47 C :    0.028425
  48 C :    0.037628
  49 C :   -0.072621
  50 N :   -0.085919
  51 C :    0.099823
  52 N :   -0.124512
  53 C :    0.100592
  54 N :   -0.080188
  55 H :    0.026069
  56 H :    0.025989
  57 H :   -0.003004
  58 H :   -0.006172
  59 H :   -0.001984
  60 H :    0.008391
  61 H :    0.029499
  62 H :    0.001449
  63 H :    0.039701
  64 H :    0.041348
  65 H :    0.022460
  66 H :    0.030421
  67 H :    0.023291
  68 H :    0.047182
  69 H :    0.026303
  70 H :    0.033347
  71 H :    0.031581
  72 H :    0.015999
  73 H :   -0.025342
  74 H :    0.013364
  75 H :    0.000335
  76 H :    0.039152
  77 H :    0.002093
  78 H :    0.029554
  79 H :    0.027258
Sum of atomic charges:    0.0000000

LOEWDIN ATOMIC CHARGES
----------------------
   0 C :    0.078326
   1 N :   -0.088135
   2 C :    0.040695
   3 N :   -0.091249
   4 C :    0.075306
   5 N :   -0.097091
   6 C :   -0.007779
   7 C :   -0.007643
   8 N :    0.284962
   9 O :   -0.201687
  10 O :   -0.201131
  11 C :    0.001885
  12 C :   -0.016090
  13 C :    0.041540
  14 C :    0.057815
  15 C :   -0.038113
  16 C :    0.024392
  17 C :   -0.050945
  18 N :    0.287363
  19 O :   -0.210690
  20 O :   -0.223808
  21 C :    0.011606
  22 C :    0.002081
  23 C :   -0.003308
  24 C :    0.061982
  25 N :    0.007501
  26 C :    0.039009
  27 C :   -0.058749
  28 C :    0.077424
  29 O :   -0.202038
  30 C :   -0.119708
  31 C :   -0.100141
  32 C :    0.082760
  33 O :   -0.178015
  34 N :    0.003400
  35 C :    0.037259
  36 C :   -0.059896
  37 C :    0.085242
  38 C :   -0.046745
  39 C :    0.020860
  40 C :   -0.165900
  41 S :    0.495301
  42 C :   -0.140116
  43 C :   -0.093135
  44 C :   -0.013283
  45 C :   -0.034037
  46 N :   -0.041980
  47 C :    0.005759
  48 C :   -0.029535
  49 C :    0.047126
  50 N :   -0.096885
  51 C :    0.075538
  52 N :   -0.105931
  53 C :    0.075094
  54 N :   -0.099878
  55 H :    0.025309
  56 H :    0.024817
  57 H :    0.036763
  58 H :    0.030106
  59 H :    0.029314
  60 H :    0.039333
  61 H :    0.040060
  62 H :    0.028887
  63 H :    0.030156
  64 H :    0.037354
  65 H :    0.024928
  66 H :    0.034387
  67 H :    0.029469
  68 H :    0.039333
  69 H :    0.024228
  70 H :    0.033993
  71 H :    0.033987
  72 H :    0.022055
  73 H :    0.029338
  74 H :    0.038274
  75 H :    0.039288
  76 H :    0.049700
  77 H :    0.032423
  78 H :    0.025360
  79 H :    0.024549

  Mayer bond orders larger than 0.100000
B(  0-C ,  1-N ) :   1.4999 B(  0-C ,  5-N ) :   1.5070 B(  0-C , 55-H ) :   0.9764
B(  1-N ,  2-C ) :   1.5554 B(  2-C ,  3-N ) :   1.5475 B(  2-C ,  6-C ) :   0.8914
B(  3-N ,  4-C ) :   1.4932 B(  4-C ,  5-N ) :   1.5183 B(  4-C , 56-H ) :   0.9764
B(  6-C ,  7-C ) :   1.6844 B(  6-C , 13-C ) :   1.1074 B(  7-C ,  8-N ) :   0.9154
B(  7-C , 11-C ) :   1.1105 B(  8-N ,  9-O ) :   1.5339 B(  8-N , 10-O ) :   1.5332
B(  9-O , 10-O ) :   0.2750 B( 11-C , 12-C ) :   1.6241 B( 11-C , 57-H ) :   1.0145
B( 12-C , 13-C ) :   1.0895 B( 12-C , 58-H ) :   0.9987 B( 13-C , 14-C ) :   1.5174
B( 14-C , 15-C ) :   1.1364 B( 14-C , 21-C ) :   1.0061 B( 15-C , 16-C ) :   1.5599
B( 15-C , 59-H ) :   0.9990 B( 16-C , 17-C ) :   1.1471 B( 16-C , 60-H ) :   1.0065
B( 17-C , 18-N ) :   0.9679 B( 17-C , 21-C ) :   1.4326 B( 18-N , 19-O ) :   1.5371
B( 18-N , 20-O ) :   1.4538 B( 19-O , 20-O ) :   0.2465 B( 20-O , 62-H ) :   0.1093
B( 21-C , 22-C ) :   1.2098 B( 22-C , 23-C ) :   1.5090 B( 22-C , 61-H ) :   0.9428
B( 23-C , 24-C ) :   1.1879 B( 23-C , 62-H ) :   0.9437 B( 24-C , 25-N ) :   1.1586
B( 24-C , 31-C ) :   1.2816 B( 25-N , 26-C ) :   0.9353 B( 25-N , 28-C ) :   1.0805
B( 26-C , 27-C ) :   1.1243 B( 26-C , 63-H ) :   0.9481 B( 26-C , 64-H ) :   0.9285
B( 27-C , 65-H ) :   0.9680 B( 27-C , 66-H ) :   0.9674 B( 27-C , 67-H ) :   0.9636
B( 28-C , 29-O ) :   2.0139 B( 28-C , 30-C ) :   0.9826 B( 29-O , 74-H ) :   0.1255
B( 30-C , 31-C ) :   1.3006 B( 30-C , 37-C ) :   1.2904 B( 31-C , 32-C ) :   0.9767
B( 32-C , 33-O ) :   2.0299 B( 32-C , 34-N ) :   1.0574 B( 33-O , 61-H ) :   0.1008
B( 34-N , 35-C ) :   0.9402 B( 34-N , 37-C ) :   1.1716 B( 35-C , 36-C ) :   1.1207
B( 35-C , 68-H ) :   0.9281 B( 35-C , 69-H ) :   0.9496 B( 36-C , 70-H ) :   0.9639
B( 36-C , 71-H ) :   0.9680 B( 36-C , 72-H ) :   0.9687 B( 37-C , 38-C ) :   1.1898
B( 38-C , 39-C ) :   1.5966 B( 38-C , 73-H ) :   0.9622 B( 39-C , 40-C ) :   1.1351
B( 39-C , 74-H ) :   0.9301 B( 40-C , 41-S ) :   1.1333 B( 40-C , 44-C ) :   1.4507
B( 41-S , 42-C ) :   1.1434 B( 42-C , 43-C ) :   1.4282 B( 42-C , 47-C ) :   1.1449
B( 43-C , 44-C ) :   1.3121 B( 43-C , 45-C ) :   1.1017 B( 44-C , 75-H ) :   0.9990
B( 45-C , 46-N ) :   3.0263 B( 47-C , 48-C ) :   1.6640 B( 47-C , 76-H ) :   0.9609
B( 48-C , 49-C ) :   1.0667 B( 48-C , 77-H ) :   0.9729 B( 49-C , 50-N ) :   1.5256
B( 49-C , 54-N ) :   1.5286 B( 50-N , 51-C ) :   1.5196 B( 51-C , 52-N ) :   1.4982
B( 51-C , 78-H ) :   0.9775 B( 52-N , 53-C ) :   1.5098 B( 53-C , 54-N ) :   1.5105
B( 53-C , 79-H ) :   0.9766

-----------------------------------------------------------------------------
         ABSORPTION SPECTRUM VIA TRANSITION ELECTRIC DIPOLE MOMENTS
-----------------------------------------------------------------------------
State   Energy  Wavelength   fosc         T2         TX        TY        TZ
        (cm-1)    (nm)                  (au**2)     (au)      (au)      (au)
-----------------------------------------------------------------------------
   0    7109.0   1406.7   0.324352373  15.02058  -1.95460   3.34610  -0.06139
   1   16350.2    611.6   0.439074448   8.84081   1.45643  -2.29919   1.19723
   2   17013.6    587.8   0.004222982   0.08171   0.04105  -0.23843   0.15225
   3   18011.9    555.2   0.012561577   0.22959  -0.14391   0.17391   0.42266
   4   22076.4    453.0   0.167398243   2.49630  -0.89056   1.30178  -0.09256
   5   23244.4    430.2   0.296342999   4.19713  -1.33754   1.39973   0.66998
   6   23675.9    422.4   0.056863784   0.79069   0.61616  -0.59312  -0.24340
   7   24405.2    409.7   0.044878446   0.60538  -0.17812   0.24113   0.71799
   8   24805.1    403.1   0.042585972   0.56520   0.09787  -0.13287  -0.73346
   9   25736.1    388.6   0.266850696   3.41352   0.19681  -0.37109  -1.79919
  10   26565.4    376.4   0.013064067   0.16190  -0.06498   0.11189   0.38099
  11   27875.0    358.7   0.126221441   1.49071  -0.27443   0.50556   1.07694
  12   28133.4    355.4   0.058690845   0.68679  -0.48455   0.51211   0.43559
  13   28273.7    353.7   0.021139491   0.24614  -0.39766   0.12315  -0.26990
  14   28943.3    345.5   0.294691018   3.35192  -0.94468   1.16169   1.05356
  15   29063.6    344.1   0.260709423   2.95314  -0.85922   0.94678   1.14825
  16   30096.3    332.3   0.316021049   3.45683   0.98295  -1.12915   1.10257
  17   30880.1    323.8   0.148404913   1.58214  -0.52593   0.48045  -1.03668
  18   31326.9    319.2   0.002554857   0.02685  -0.04218   0.01598  -0.15753
  19   31581.0    316.6   0.000039318   0.00041  -0.00852  -0.01774  -0.00475
  20   31639.8    316.1   0.045096133   0.46922  -0.39211   0.53118   0.18254
  21   31819.3    314.3   0.005814643   0.06016   0.04797   0.05220  -0.23481
  22   32331.5    309.3   0.018539378   0.18878  -0.05706   0.18528   0.38883
  23   32397.8    308.7   0.085058006   0.86432   0.17875   0.06986   0.90966
  24   32722.5    305.6   0.025414490   0.25569   0.23503  -0.16381   0.41667
  25   33961.0    294.5   0.018257275   0.17698  -0.09624   0.10747   0.39518
  26   34048.6    293.7   0.002084954   0.02016  -0.09259   0.00795   0.10735
  27   34251.3    292.0   0.006344579   0.06098  -0.08800  -0.18855   0.13299
  28   34323.7    291.3   0.008056736   0.07728   0.14332  -0.23551  -0.03560
  29   35139.6    284.6   0.002627444   0.02462  -0.12516  -0.09210  -0.02163
  30   35541.3    281.4   0.084898992   0.78640   0.48574  -0.35942  -0.64906
  31   36454.0    274.3   0.095233322   0.86004   0.25597   0.06009  -0.88933
  32   36731.0    272.2   0.015031342   0.13472  -0.08735   0.01189   0.35630
  33   36871.6    271.2   0.037655253   0.33621   0.39038  -0.19892   0.37980
  34   37034.8    270.0   0.005180778   0.04605   0.04115  -0.02362   0.20929
  35   37256.0    268.4   0.023837492   0.21064  -0.19063   0.11509  -0.40132
  36   37470.8    266.9   0.132415878   1.16338  -0.20707  -0.07028  -1.05620
  37   37671.6    265.5   0.015645475   0.13673   0.21560  -0.13693  -0.26738
  38   37980.6    263.3   0.025893871   0.22445  -0.28044   0.20282  -0.32351
  39   38099.7    262.5   0.081649748   0.70552  -0.26570   0.04247  -0.79569
  40   38379.4    260.6   0.000035825   0.00031   0.01405   0.00496   0.00924
  41   38976.1    256.6   0.013122025   0.11084  -0.24582   0.21295   0.07115
  42   39613.0    252.4   0.057112696   0.47465   0.35617  -0.11399   0.57862
  43   39883.6    250.7   0.052329138   0.43194   0.06751   0.19841  -0.62291

FINAL SINGLE POINT ENERGY     -2873.336100215762

DIPOLE MOMENT
-------------
                                X             Y             Z
Electronic contribution:     -3.24460       4.89062       5.61520
Nuclear contribution   :      3.96434      -5.55765      -6.38915
                        -----------------------------------------
Total Dipole Moment    :      0.71974      -0.66702      -0.77395
                        -----------------------------------------
Magnitude (a.u.)       :      1.24978
Magnitude (Debye)      :      3.17669

Rotational constants in cm-1:     0.003255     0.000494     0.000440
Rotational constants in MHz :    97.593855    14.800728    13.187737

                             ****ORCA TERMINATED NORMALLY****
TOTAL RUN TIME: 0 days 0 hours 7 minutes 2 seconds 26 msec
