                         Program Version 4.2.0 -  RELEASE  -
|  1> # ORCA input file
|  2> # SCF done       -176.548842879542          0.000446835696
|  3> ! CAM-B3LYP def2-SVP def2/J RIJCOSX Grid4 TightSCF
|  4> %maxcore 5000
|  5> %tddft
|  6>     Mode sTDDFT
|  7>     Ethresh 5.0
|  8>     maxcore 5000
|  9> end
| 10>
| 11> %pal
| 12>   nprocs 6
| 13>   end
| 14> * xyz 0 1
| 15>    C       -3.48901         5.02349        -2.61654
| 16>    C       -3.60693         3.66797        -2.78675
| 17>    C       -4.82802         2.99327        -2.97699
| 18>    N       -5.80041         2.40201        -3.12283
| 19>    C       -2.46199         2.86064        -2.90164
| 20>    N       -1.50005         2.24992        -3.05362
| 21>    C       -4.53585         6.01513        -2.80844
| 22>    C       -3.92194         7.28538        -3.02637
| 23>    C       -4.66392         8.40210        -3.28350
| 24>    C       -6.07314         8.29953        -3.32069
| 25>    C       -6.69117         7.03644        -3.08575
| 26>    C       -5.89854         5.89329        -2.83264
| 27>    C       -8.09778         6.95251        -3.11822
| 28>    C       -8.85967         8.06016        -3.37415
| 29>    C       -8.25067         9.30195        -3.60853
| 30>    C       -6.88723         9.41895        -3.58256
| 31>    C       -2.46044         7.14552        -2.91722
| 32>    O       -1.60192         7.97623        -3.10867
| 33>    C       -2.24086         5.73806        -2.46815
| 34>    C       -1.04294         5.38546        -1.93334
| 35>    C       -0.71063         4.27816        -1.09777
| 36>    C        0.61669         3.82601        -0.94624
| 37>    N        1.04285         3.04152         0.07981
| 38>    C        0.22419         2.50758         0.91900
| 39>    C       -1.17075         2.72542         0.78172
| 40>    C       -1.63465         3.64944        -0.22516
| 41>    N       -2.94437         3.74656        -0.08536
| 42>    O       -3.26810         2.93053         0.92589
| 43>    N       -2.22265         2.31582         1.45679
| 44>    C        1.64443         4.15403        -1.87272
| 45>    S        3.30624         4.05709        -1.35864
| 46>    C        3.93846         4.52528        -2.91373
| 47>    C        2.88528         4.69109        -3.82363
| 48>    C        1.60649         4.47585        -3.22474
| 49>    N        0.66078         4.57449        -4.18880
| 50>    C        1.28924         4.84833        -5.38417
| 51>    C        0.56860         5.00653        -6.57644
| 52>    N       -0.01528         5.13938        -7.55489
| 53>    C        2.65304         4.93852        -5.19641
| 54>    C        5.33320         4.66307        -3.06899
| 55>    C        5.94764         5.13911        -4.18438
| 56>    C        7.35041         5.26174        -4.34238
| 57>    S        7.99345         5.94649        -5.80936
| 58>    C        9.63336         5.72651        -5.27946
| 59>    C        9.65243         5.15687        -4.00098
| 60>    C        8.37467         4.90258        -3.48570
| 61>    C       10.80562         4.90601        -3.23323
| 62>    N       11.69226         4.70782        -2.53388
| 63>    C       10.69322         6.11001        -6.13284
| 64>    C       12.00449         5.78516        -5.96933
| 65>    C       12.98162         6.22634        -6.89163
| 66>    C       14.28886         5.83257        -6.89261
| 67>    C       15.33784         6.29149        -7.78499
| 68>    C       15.22814         7.24646        -8.76365
| 69>    C       16.29309         7.65549        -9.59396
| 70>    N       17.11155         8.03572       -10.30369
| 71>    C       14.05772         7.96247        -9.08933
| 72>    N       13.15149         8.58815        -9.41645
| 73>    C       16.55758         5.56556        -7.44809
| 74>    C       16.28049         4.68301        -6.36534
| 75>    C       14.86411         4.80450        -5.98082
| 76>    O       14.28856         4.16997        -5.12398
| 77>    C       17.23719         3.86763        -5.83355
| 78>    C       18.54298         3.89577        -6.37185
| 79>    C       18.82923         4.77380        -7.45698
| 80>    C       17.81762         5.60792        -7.98538
| 81>    C       20.13425         4.79057        -7.99039
| 82>    C       21.11021         3.97980        -7.47819
| 83>    C       20.82716         3.11611        -6.40941
| 84>    C       19.57103         3.07534        -5.86767
| 85>    H       -4.18328         9.35345        -3.45709
| 86>    H       -6.38606         4.94786        -2.65143
| 87>    H       -8.56193         5.99368        -2.94024
| 88>    H       -9.93642         7.98514        -3.39814
| 89>    H       -8.86682        10.16547        -3.80943
| 90>    H       -6.41296        10.37267        -3.76226
| 91>    H       -0.24421         6.10808        -2.08095
| 92>    H        0.62977         1.91616         1.72586
| 93>    H       -0.32153         4.38160        -4.07719
| 94>    H        3.36691         5.13909        -5.96891
| 95>    H        5.92794         4.37627        -2.21338
| 96>    H        5.34821         5.46336        -5.02111
| 97>    H        8.21694         4.46693        -2.51564
| 98>    H       10.40294         6.67982        -7.00840
| 99>    H       12.32288         5.16641        -5.14389
|100>    H       12.64543         6.92560        -7.64694
|101>    H       16.99828         3.20834        -5.01233
|102>    H       18.06792         6.25905        -8.80764
|103>    H       20.34739         5.45733        -8.81304
|104>    H       22.10640         3.99936        -7.89410
|105>    H       21.60938         2.48313        -6.01781
|106>    H       19.34677         2.41242        -5.04487
|107> *
|108>
|109>                          ****END OF INPUT****

CARTESIAN COORDINATES (ANGSTROEM)
---------------------------------
  C     -3.489010    5.023490   -2.616540
  C     -3.606930    3.667970   -2.786750
  C     -4.828020    2.993270   -2.976990
  N     -5.800410    2.402010   -3.122830
  C     -2.461990    2.860640   -2.901640
  N     -1.500050    2.249920   -3.053620
  C     -4.535850    6.015130   -2.808440
  C     -3.921940    7.285380   -3.026370
  C     -4.663920    8.402100   -3.283500
  C     -6.073140    8.299530   -3.320690
  C     -6.691170    7.036440   -3.085750
  C     -5.898540    5.893290   -2.832640
  C     -8.097780    6.952510   -3.118220
  C     -8.859670    8.060160   -3.374150
  C     -8.250670    9.301950   -3.608530
  C     -6.887230    9.418950   -3.582560
  C     -2.460440    7.145520   -2.917220
  O     -1.601920    7.976230   -3.108670
  C     -2.240860    5.738060   -2.468150
  C     -1.042940    5.385460   -1.933340
  C     -0.710630    4.278160   -1.097770
  C      0.616690    3.826010   -0.946240
  N      1.042850    3.041520    0.079810
  C      0.224190    2.507580    0.919000
  C     -1.170750    2.725420    0.781720
  C     -1.634650    3.649440   -0.225160
  N     -2.944370    3.746560   -0.085360
  O     -3.268100    2.930530    0.925890
  N     -2.222650    2.315820    1.456790
  C      1.644430    4.154030   -1.872720
  S      3.306240    4.057090   -1.358640
  C      3.938460    4.525280   -2.913730
  C      2.885280    4.691090   -3.823630
  C      1.606490    4.475850   -3.224740
  N      0.660780    4.574490   -4.188800
  C      1.289240    4.848330   -5.384170
  C      0.568600    5.006530   -6.576440
  N     -0.015280    5.139380   -7.554890
  C      2.653040    4.938520   -5.196410
  C      5.333200    4.663070   -3.068990
  C      5.947640    5.139110   -4.184380
  C      7.350410    5.261740   -4.342380
  S      7.993450    5.946490   -5.809360
  C      9.633360    5.726510   -5.279460
  C      9.652430    5.156870   -4.000980
  C      8.374670    4.902580   -3.485700
  C     10.805620    4.906010   -3.233230
  N     11.692260    4.707820   -2.533880
  C     10.693220    6.110010   -6.132840
  C     12.004490    5.785160   -5.969330
  C     12.981620    6.226340   -6.891630
  C     14.288860    5.832570   -6.892610
  C     15.337840    6.291490   -7.784990
  C     15.228140    7.246460   -8.763650
  C     16.293090    7.655490   -9.593960
  N     17.111550    8.035720  -10.303690
  C     14.057720    7.962470   -9.089330
  N     13.151490    8.588150   -9.416450
  C     16.557580    5.565560   -7.448090
  C     16.280490    4.683010   -6.365340
  C     14.864110    4.804500   -5.980820
  O     14.288560    4.169970   -5.123980
  C     17.237190    3.867630   -5.833550
  C     18.542980    3.895770   -6.371850
  C     18.829230    4.773800   -7.456980
  C     17.817620    5.607920   -7.985380
  C     20.134250    4.790570   -7.990390
  C     21.110210    3.979800   -7.478190
  C     20.827160    3.116110   -6.409410
  C     19.571030    3.075340   -5.867670
  H     -4.183280    9.353450   -3.457090
  H     -6.386060    4.947860   -2.651430
  H     -8.561930    5.993680   -2.940240
  H     -9.936420    7.985140   -3.398140
  H     -8.866820   10.165470   -3.809430
  H     -6.412960   10.372670   -3.762260
  H     -0.244210    6.108080   -2.080950
  H      0.629770    1.916160    1.725860
  H     -0.321530    4.381600   -4.077190
  H      3.366910    5.139090   -5.968910
  H      5.927940    4.376270   -2.213380
  H      5.348210    5.463360   -5.021110
  H      8.216940    4.466930   -2.515640
  H     10.402940    6.679820   -7.008400
  H     12.322880    5.166410   -5.143890
  H     12.645430    6.925600   -7.646940
  H     16.998280    3.208340   -5.012330
  H     18.067920    6.259050   -8.807640
  H     20.347390    5.457330   -8.813040
  H     22.106400    3.999360   -7.894100
  H     21.609380    2.483130   -6.017810
  H     19.346770    2.412420   -5.044870

 Total Charge           Charge          ....    0
 Multiplicity           Mult            ....    1
 Number of Electrons    NEL             ....  478
 Basis Dimension        Dim             .... 1098

ORBITAL ENERGIES
----------------

  NO   OCC          E(Eh)            E(eV)
   0   2.0000     -88.990710     -2421.5603
   1   2.0000     -88.984448     -2421.3899
   2   2.0000     -19.370726      -527.1042
   3   2.0000     -19.220813      -523.0249
   4   2.0000     -19.215454      -522.8791
   5   2.0000     -14.505384      -394.7116
   6   2.0000     -14.490183      -394.2979
   7   2.0000     -14.488920      -394.2636
   8   2.0000     -14.448792      -393.1716
   9   2.0000     -14.427187      -392.5837
  10   2.0000     -14.423649      -392.4874
  11   2.0000     -14.418096      -392.3363
  12   2.0000     -14.417769      -392.3274
  13   2.0000     -14.416439      -392.2912
  14   2.0000     -14.414933      -392.2503
  15   2.0000     -10.371342      -282.2186
  16   2.0000     -10.365885      -282.0701
  17   2.0000     -10.362036      -281.9653
  18   2.0000     -10.361291      -281.9451
  19   2.0000     -10.359953      -281.9087
  20   2.0000     -10.345650      -281.5194
  21   2.0000     -10.345024      -281.5024
  22   2.0000     -10.344596      -281.4908
  23   2.0000     -10.342896      -281.4445
  24   2.0000     -10.342541      -281.4348
  25   2.0000     -10.342391      -281.4308
  26   2.0000     -10.342324      -281.4290
  27   2.0000     -10.341105      -281.3958
  28   2.0000     -10.338679      -281.3298
  29   2.0000     -10.337361      -281.2939
  30   2.0000     -10.334015      -281.2028
  31   2.0000     -10.329974      -281.0929
  32   2.0000     -10.326050      -280.9861
  33   2.0000     -10.324441      -280.9423
  34   2.0000     -10.322375      -280.8861
  35   2.0000     -10.321787      -280.8701
  36   2.0000     -10.320900      -280.8460
  37   2.0000     -10.319890      -280.8185
  38   2.0000     -10.318472      -280.7799
  39   2.0000     -10.317825      -280.7623
  40   2.0000     -10.316791      -280.7341
  41   2.0000     -10.316302      -280.7209
  42   2.0000     -10.315778      -280.7066
  43   2.0000     -10.315241      -280.6920
  44   2.0000     -10.311850      -280.5997
  45   2.0000     -10.306627      -280.4576
  46   2.0000     -10.305378      -280.4236
  47   2.0000     -10.304508      -280.3999
  48   2.0000     -10.303891      -280.3831
  49   2.0000     -10.302425      -280.3432
  50   2.0000     -10.301078      -280.3066
  51   2.0000     -10.300050      -280.2786
  52   2.0000     -10.299754      -280.2706
  53   2.0000     -10.299314      -280.2586
  54   2.0000     -10.298442      -280.2349
  55   2.0000     -10.297111      -280.1986
  56   2.0000     -10.296870      -280.1921
  57   2.0000     -10.296225      -280.1745
  58   2.0000     -10.295370      -280.1513
  59   2.0000     -10.295334      -280.1503
  60   2.0000     -10.292399      -280.0704
  61   2.0000     -10.287987      -279.9504
  62   2.0000     -10.287556      -279.9386
  63   2.0000     -10.287286      -279.9313
  64   2.0000     -10.287275      -279.9310
  65   2.0000     -10.286697      -279.9153
  66   2.0000     -10.286100      -279.8990
  67   2.0000     -10.285477      -279.8821
  68   2.0000     -10.285304      -279.8773
  69   2.0000     -10.284851      -279.8650
  70   2.0000      -8.086400      -220.0421
  71   2.0000      -8.078807      -219.8355
  72   2.0000      -6.055483      -164.7781
  73   2.0000      -6.051490      -164.6694
  74   2.0000      -6.048730      -164.5943
  75   2.0000      -6.048115      -164.5776
  76   2.0000      -6.043901      -164.4629
  77   2.0000      -6.041069      -164.3859
  78   2.0000      -1.324642       -36.0454
  79   2.0000      -1.135339       -30.8941
  80   2.0000      -1.130403       -30.7598
  81   2.0000      -1.115496       -30.3542
  82   2.0000      -1.086034       -29.5525
  83   2.0000      -1.032611       -28.0988
  84   2.0000      -1.026366       -27.9288
  85   2.0000      -1.022343       -27.8194
  86   2.0000      -1.018747       -27.7215
  87   2.0000      -1.007569       -27.4174
  88   2.0000      -1.004769       -27.3411
  89   2.0000      -0.999263       -27.1913
  90   2.0000      -0.998669       -27.1752
  91   2.0000      -0.998360       -27.1668
  92   2.0000      -0.995592       -27.0914
  93   2.0000      -0.994438       -27.0600
  94   2.0000      -0.985179       -26.8081
  95   2.0000      -0.973952       -26.5026
  96   2.0000      -0.971393       -26.4330
  97   2.0000      -0.947669       -25.7874
  98   2.0000      -0.939685       -25.5701
  99   2.0000      -0.927629       -25.2421
 100   2.0000      -0.923933       -25.1415
 101   2.0000      -0.917380       -24.9632
 102   2.0000      -0.906915       -24.6784
 103   2.0000      -0.895557       -24.3693
 104   2.0000      -0.893247       -24.3065
 105   2.0000      -0.883693       -24.0465
 106   2.0000      -0.882922       -24.0255
 107   2.0000      -0.880558       -23.9612
 108   2.0000      -0.874019       -23.7833
 109   2.0000      -0.868586       -23.6354
 110   2.0000      -0.859518       -23.3887
 111   2.0000      -0.841420       -22.8962
 112   2.0000      -0.830499       -22.5990
 113   2.0000      -0.827663       -22.5219
 114   2.0000      -0.825073       -22.4514
 115   2.0000      -0.808356       -21.9965
 116   2.0000      -0.792221       -21.5574
 117   2.0000      -0.790477       -21.5100
 118   2.0000      -0.774215       -21.0674
 119   2.0000      -0.763200       -20.7677
 120   2.0000      -0.761470       -20.7207
 121   2.0000      -0.757313       -20.6075
 122   2.0000      -0.747001       -20.3269
 123   2.0000      -0.738455       -20.0944
 124   2.0000      -0.731770       -19.9125
 125   2.0000      -0.716671       -19.5016
 126   2.0000      -0.711848       -19.3704
 127   2.0000      -0.705274       -19.1915
 128   2.0000      -0.703197       -19.1350
 129   2.0000      -0.701920       -19.1002
 130   2.0000      -0.692020       -18.8308
 131   2.0000      -0.687568       -18.7097
 132   2.0000      -0.686868       -18.6906
 133   2.0000      -0.681879       -18.5549
 134   2.0000      -0.678360       -18.4591
 135   2.0000      -0.672710       -18.3054
 136   2.0000      -0.661977       -18.0133
 137   2.0000      -0.654810       -17.8183
 138   2.0000      -0.646627       -17.5956
 139   2.0000      -0.639223       -17.3942
 140   2.0000      -0.637381       -17.3440
 141   2.0000      -0.629684       -17.1346
 142   2.0000      -0.624866       -17.0035
 143   2.0000      -0.622728       -16.9453
 144   2.0000      -0.616925       -16.7874
 145   2.0000      -0.609006       -16.5719
 146   2.0000      -0.607706       -16.5365
 147   2.0000      -0.606109       -16.4931
 148   2.0000      -0.602275       -16.3887
 149   2.0000      -0.594704       -16.1827
 150   2.0000      -0.591194       -16.0872
 151   2.0000      -0.576593       -15.6899
 152   2.0000      -0.573672       -15.6104
 153   2.0000      -0.564467       -15.3599
 154   2.0000      -0.561666       -15.2837
 155   2.0000      -0.560666       -15.2565
 156   2.0000      -0.559384       -15.2216
 157   2.0000      -0.554086       -15.0774
 158   2.0000      -0.551052       -14.9949
 159   2.0000      -0.548304       -14.9201
 160   2.0000      -0.547160       -14.8890
 161   2.0000      -0.545096       -14.8328
 162   2.0000      -0.542229       -14.7548
 163   2.0000      -0.538923       -14.6648
 164   2.0000      -0.536799       -14.6070
 165   2.0000      -0.534925       -14.5561
 166   2.0000      -0.529000       -14.3948
 167   2.0000      -0.526254       -14.3201
 168   2.0000      -0.524401       -14.2697
 169   2.0000      -0.521857       -14.2005
 170   2.0000      -0.520862       -14.1734
 171   2.0000      -0.518401       -14.1064
 172   2.0000      -0.514316       -13.9952
 173   2.0000      -0.513864       -13.9829
 174   2.0000      -0.510604       -13.8942
 175   2.0000      -0.509238       -13.8571
 176   2.0000      -0.505139       -13.7455
 177   2.0000      -0.502472       -13.6730
 178   2.0000      -0.500917       -13.6306
 179   2.0000      -0.497182       -13.5290
 180   2.0000      -0.494974       -13.4689
 181   2.0000      -0.488143       -13.2831
 182   2.0000      -0.486849       -13.2478
 183   2.0000      -0.485830       -13.2201
 184   2.0000      -0.485044       -13.1987
 185   2.0000      -0.481238       -13.0952
 186   2.0000      -0.478191       -13.0122
 187   2.0000      -0.470460       -12.8019
 188   2.0000      -0.467618       -12.7245
 189   2.0000      -0.464114       -12.6292
 190   2.0000      -0.461371       -12.5546
 191   2.0000      -0.460149       -12.5213
 192   2.0000      -0.456514       -12.4224
 193   2.0000      -0.454411       -12.3652
 194   2.0000      -0.452009       -12.2998
 195   2.0000      -0.450319       -12.2538
 196   2.0000      -0.447629       -12.1806
 197   2.0000      -0.445137       -12.1128
 198   2.0000      -0.443769       -12.0756
 199   2.0000      -0.443468       -12.0674
 200   2.0000      -0.442359       -12.0372
 201   2.0000      -0.441529       -12.0146
 202   2.0000      -0.439876       -11.9696
 203   2.0000      -0.438992       -11.9456
 204   2.0000      -0.436619       -11.8810
 205   2.0000      -0.433966       -11.8088
 206   2.0000      -0.432585       -11.7712
 207   2.0000      -0.432303       -11.7636
 208   2.0000      -0.431600       -11.7444
 209   2.0000      -0.429415       -11.6850
 210   2.0000      -0.427057       -11.6208
 211   2.0000      -0.425143       -11.5687
 212   2.0000      -0.423082       -11.5126
 213   2.0000      -0.420515       -11.4428
 214   2.0000      -0.419311       -11.4100
 215   2.0000      -0.415210       -11.2984
 216   2.0000      -0.413718       -11.2578
 217   2.0000      -0.412906       -11.2358
 218   2.0000      -0.406293       -11.0558
 219   2.0000      -0.404410       -11.0046
 220   2.0000      -0.397370       -10.8130
 221   2.0000      -0.387939       -10.5564
 222   2.0000      -0.380059       -10.3419
 223   2.0000      -0.378522       -10.3001
 224   2.0000      -0.373847       -10.1729
 225   2.0000      -0.370176       -10.0730
 226   2.0000      -0.360708        -9.8154
 227   2.0000      -0.349993        -9.5238
 228   2.0000      -0.343349        -9.3430
 229   2.0000      -0.340143        -9.2558
 230   2.0000      -0.334420        -9.1000
 231   2.0000      -0.326050        -8.8723
 232   2.0000      -0.317429        -8.6377
 233   2.0000      -0.316630        -8.6159
 234   2.0000      -0.315099        -8.5743
 235   2.0000      -0.297976        -8.1083
 236   2.0000      -0.295515        -8.0414
 237   2.0000      -0.288883        -7.8609
 238   2.0000      -0.254047        -6.9130
 239   0.0000      -0.122111        -3.3228
 240   0.0000      -0.103655        -2.8206
 241   0.0000      -0.074314        -2.0222
 242   0.0000      -0.063466        -1.7270
 243   0.0000      -0.057200        -1.5565

MULLIKEN ATOMIC CHARGES
-----------------------
   0 C :    0.304224
   1 C :   -0.294870
   2 C :   -0.177787
   3 N :    0.159005
   4 C :   -0.194133
   5 N :    0.120925
   6 C :    0.038383
   7 C :    0.013568
   8 C :   -0.080416
   9 C :    0.092852
  10 C :    0.094987
  11 C :   -0.078549
  12 C :   -0.015582
  13 C :    0.034397
  14 C :    0.036939
  15 C :   -0.013262
  16 C :    0.140065
  17 O :   -0.137600
  18 C :   -0.129674
  19 C :   -0.116498
  20 C :    0.070261
  21 C :    0.022434
  22 N :   -0.052875
  23 C :    0.026869
  24 C :   -0.033123
  25 C :   -0.044631
  26 N :    0.024174
  27 O :   -0.090587
  28 N :    0.089710
  29 C :   -0.210141
  30 S :    0.213136
  31 C :   -0.134489
  32 C :    0.100879
  33 C :    0.132136
  34 N :   -0.012626
  35 C :   -0.077887
  36 C :   -0.148177
  37 N :    0.173618
  38 C :   -0.048482
  39 C :    0.067738
  40 C :    0.071554
  41 C :   -0.069395
  42 S :    0.170883
  43 C :   -0.057952
  44 C :   -0.046380
  45 C :    0.007709
  46 C :   -0.189176
  47 N :    0.144470
  48 C :    0.055240
  49 C :   -0.017224
  50 C :   -0.049129
  51 C :   -0.060549
  52 C :    0.338050
  53 C :   -0.349937
  54 C :   -0.181605
  55 N :    0.147463
  56 C :   -0.188682
  57 N :    0.143634
  58 C :    0.049163
  59 C :   -0.006071
  60 C :    0.147920
  61 O :   -0.135441
  62 C :   -0.079158
  63 C :    0.099062
  64 C :    0.097527
  65 C :   -0.085764
  66 C :   -0.020422
  67 C :    0.037878
  68 C :    0.037518
  69 C :   -0.017713
  70 H :   -0.011141
  71 H :   -0.003225
  72 H :   -0.010315
  73 H :   -0.002094
  74 H :   -0.004259
  75 H :   -0.017148
  76 H :    0.040095
  77 H :    0.026470
  78 H :    0.146041
  79 H :   -0.005580
  80 H :   -0.014807
  81 H :   -0.022970
  82 H :    0.002746
  83 H :    0.008179
  84 H :    0.055156
  85 H :    0.010956
  86 H :   -0.010699
  87 H :   -0.010223
  88 H :   -0.008968
  89 H :   -0.005379
  90 H :   -0.004746
  91 H :   -0.016471
Sum of atomic charges:   -0.0000000

LOEWDIN ATOMIC CHARGES
----------------------
   0 C :    0.074484
   1 C :   -0.134482
   2 C :   -0.018452
   3 N :   -0.045796
   4 C :   -0.012078
   5 N :   -0.072665
   6 C :   -0.019506
   7 C :   -0.058616
   8 C :    0.035524
   9 C :   -0.008996
  10 C :   -0.004016
  11 C :    0.019306
  12 C :   -0.005574
  13 C :   -0.011449
  14 C :   -0.012239
  15 C :   -0.008257
  16 C :    0.084592
  17 O :   -0.140000
  18 C :   -0.086770
  19 C :    0.039847
  20 C :   -0.080942
  21 C :    0.032217
  22 N :   -0.057030
  23 C :    0.073050
  24 C :   -0.085987
  25 C :   -0.037606
  26 N :   -0.034491
  27 O :    0.081380
  28 N :    0.009757
  29 C :   -0.219289
  30 S :    0.503735
  31 C :   -0.148900
  32 C :   -0.068392
  33 C :    0.014828
  34 N :    0.093813
  35 C :   -0.016973
  36 C :   -0.043358
  37 N :   -0.029209
  38 C :   -0.035363
  39 C :   -0.028020
  40 C :   -0.029110
  41 C :   -0.159538
  42 S :    0.476047
  43 C :   -0.149072
  44 C :   -0.084957
  45 C :   -0.019074
  46 C :   -0.033329
  47 N :   -0.033701
  48 C :   -0.004906
  49 C :   -0.009283
  50 C :    0.061990
  51 C :   -0.081633
  52 C :    0.075086
  53 C :   -0.137441
  54 C :   -0.016923
  55 N :   -0.052800
  56 C :   -0.019489
  57 N :   -0.054054
  58 C :   -0.026173
  59 C :   -0.055532
  60 C :    0.083307
  61 O :   -0.132414
  62 C :    0.033411
  63 C :   -0.007642
  64 C :   -0.006231
  65 C :    0.019435
  66 C :   -0.005321
  67 C :   -0.013404
  68 C :   -0.011809
  69 C :   -0.009237
  70 H :    0.039823
  71 H :    0.040091
  72 H :    0.034682
  73 H :    0.033921
  74 H :    0.033185
  75 H :    0.032086
  76 H :    0.049121
  77 H :    0.038680
  78 H :    0.092831
  79 H :    0.034222
  80 H :    0.032383
  81 H :    0.031616
  82 H :    0.040321
  83 H :    0.037787
  84 H :    0.041211
  85 H :    0.041760
  86 H :    0.040061
  87 H :    0.038754
  88 H :    0.034778
  89 H :    0.033145
  90 H :    0.032961
  91 H :    0.032303

  Mayer bond orders larger than 0.100000
B(  0-C ,  1-C ) :   1.6364 B(  0-C ,  6-C ) :   1.0123 B(  0-C , 18-C ) :   1.0407
B(  1-C ,  2-C ) :   1.1349 B(  1-C ,  4-C ) :   1.1748 B(  2-C ,  3-N ) :   2.9903
B(  4-C ,  5-N ) :   2.9247 B(  6-C ,  7-C ) :   1.2061 B(  6-C , 11-C ) :   1.4614
B(  7-C ,  8-C ) :   1.4705 B(  7-C , 16-C ) :   0.9242 B(  8-C ,  9-C ) :   1.1855
B(  8-C , 70-H ) :   1.0166 B(  9-C , 10-C ) :   1.2559 B(  9-C , 15-C ) :   1.2459
B( 10-C , 11-C ) :   1.1994 B( 10-C , 12-C ) :   1.2423 B( 11-C , 71-H ) :   0.9949
B( 12-C , 13-C ) :   1.4879 B( 12-C , 72-H ) :   0.9978 B( 13-C , 14-C ) :   1.2605
B( 13-C , 73-H ) :   0.9893 B( 14-C , 15-C ) :   1.4886 B( 14-C , 74-H ) :   0.9887
B( 15-C , 75-H ) :   0.9976 B( 16-C , 17-O ) :   2.2754 B( 16-C , 18-C ) :   0.9236
B( 18-C , 19-C ) :   1.6482 B( 19-C , 20-C ) :   1.0803 B( 19-C , 76-H ) :   0.9414
B( 20-C , 21-C ) :   1.3580 B( 20-C , 25-C ) :   1.1384 B( 21-C , 22-N ) :   1.3666
B( 21-C , 29-C ) :   1.1771 B( 22-N , 23-C ) :   1.7812 B( 23-C , 24-C ) :   1.0856
B( 23-C , 77-H ) :   0.9883 B( 24-C , 25-C ) :   1.1718 B( 24-C , 28-N ) :   1.6172
B( 25-C , 26-N ) :   1.5851 B( 26-N , 27-O ) :   1.0302 B( 26-N , 28-N ) :   0.1684
B( 27-O , 28-N ) :   1.1011 B( 29-C , 30-S ) :   1.1023 B( 29-C , 31-C ) :   0.1074
B( 29-C , 33-C ) :   1.3588 B( 30-S , 31-C ) :   1.1520 B( 31-C , 32-C ) :   1.2918
B( 31-C , 39-C ) :   1.1762 B( 32-C , 33-C ) :   1.2508 B( 32-C , 38-C ) :   1.1742
B( 33-C , 34-N ) :   1.2217 B( 34-N , 35-C ) :   1.2060 B( 34-N , 78-H ) :   0.9116
B( 35-C , 36-C ) :   1.0538 B( 35-C , 38-C ) :   1.5931 B( 36-C , 37-N ) :   3.0553
B( 38-C , 79-H ) :   1.0068 B( 39-C , 40-C ) :   1.6552 B( 39-C , 80-H ) :   0.9549
B( 40-C , 41-C ) :   1.1340 B( 40-C , 81-H ) :   0.9582 B( 41-C , 42-S ) :   1.1293
B( 41-C , 45-C ) :   1.4534 B( 42-S , 43-C ) :   1.1355 B( 43-C , 44-C ) :   1.4301
B( 43-C , 48-C ) :   1.1317 B( 44-C , 45-C ) :   1.3273 B( 44-C , 46-C ) :   1.1108
B( 45-C , 82-H ) :   0.9980 B( 46-C , 47-N ) :   2.9951 B( 48-C , 49-C ) :   1.5896
B( 48-C , 83-H ) :   0.9588 B( 49-C , 50-C ) :   1.1588 B( 49-C , 84-H ) :   0.9657
B( 50-C , 51-C ) :   1.5503 B( 50-C , 85-H ) :   0.9633 B( 51-C , 52-C ) :   1.0595
B( 51-C , 60-C ) :   0.9330 B( 52-C , 53-C ) :   1.6258 B( 52-C , 58-C ) :   0.9889
B( 53-C , 54-C ) :   1.1452 B( 53-C , 56-C ) :   1.1465 B( 54-C , 55-N ) :   2.9609
B( 56-C , 57-N ) :   2.9571 B( 58-C , 59-C ) :   1.2147 B( 58-C , 65-C ) :   1.4436
B( 59-C , 60-C ) :   0.9446 B( 59-C , 62-C ) :   1.4701 B( 60-C , 61-O ) :   2.2123
B( 62-C , 63-C ) :   1.1775 B( 62-C , 86-H ) :   1.0178 B( 63-C , 64-C ) :   1.2552
B( 63-C , 69-C ) :   1.2424 B( 64-C , 65-C ) :   1.2067 B( 64-C , 66-C ) :   1.2380
B( 65-C , 87-H ) :   0.9909 B( 66-C , 67-C ) :   1.4894 B( 66-C , 88-H ) :   0.9983
B( 67-C , 68-C ) :   1.2571 B( 67-C , 89-H ) :   0.9889 B( 68-C , 69-C ) :   1.4889
B( 68-C , 90-H ) :   0.9891 B( 69-C , 91-H ) :   0.9989

-----------------------------------------------------------------------------
         ABSORPTION SPECTRUM VIA TRANSITION ELECTRIC DIPOLE MOMENTS
-----------------------------------------------------------------------------
State   Energy  Wavelength   fosc         T2         TX        TY        TZ
        (cm-1)    (nm)                  (au**2)     (au)      (au)      (au)
-----------------------------------------------------------------------------
   0   13870.3    721.0   1.740321404  41.30670  -6.21005  -0.18850   1.64513
   1   19036.1    525.3   0.605225360  10.46684   2.80867   0.65497  -1.46602
   2   23019.1    434.4   0.030302546   0.43338  -0.33641   0.52591   0.20886
   3   23774.3    420.6   0.079485735   1.10067   0.29302   0.63123  -0.78508
   4   24699.3    404.9   0.128761965   1.71624   1.24357   0.07414  -0.40531
   5   25049.0    399.2   0.025037185   0.32906  -0.47297   0.08501  -0.31326
   6   25595.9    390.7   0.055611577   0.71527   0.81893  -0.15855  -0.13961
   7   25792.4    387.7   0.009442879   0.12053  -0.26169  -0.00879   0.22796
   8   26082.8    383.4   0.006205019   0.07832   0.09705   0.26234  -0.00864
   9   26514.5    377.2   0.080322799   0.99731   0.71729   0.11545   0.68519
  10   27747.4    360.4   0.033054109   0.39217   0.52998  -0.30476   0.13571
  11   27948.8    357.8   0.219967301   2.59102   1.36344  -0.72968   0.44678
  12   28189.8    354.7   0.031518274   0.36808   0.55595  -0.04185   0.23928
  13   28403.3    352.1   0.041433826   0.48024  -0.52494   0.42537  -0.15410
  14   29324.5    341.0   0.147988198   1.66139   0.17277  -0.78621   1.00668
  15   30036.9    332.9   0.184393411   2.02100  -1.22048   0.70723  -0.17684
  16   31643.0    316.0   0.360107768   3.74654  -1.22882   1.45760  -0.33460
  17   32120.1    311.3   0.153069735   1.56887  -1.03323   0.56837  -0.42221
  18   32387.1    308.8   0.165694477   1.68427   1.00008  -0.82556  -0.05054
  19   32541.5    307.3   0.051224958   0.51823  -0.15590  -0.09946  -0.69572
  20   32694.4    305.9   0.104356184   1.05080   0.89859  -0.47444   0.13507
  21   32957.9    303.4   0.002959118   0.02956   0.15473  -0.07465   0.00679
  22   33280.8    300.5   0.208911532   2.06654  -0.58101   0.62040  -1.15934
  23   33959.9    294.5   0.247175581   2.39615   1.28603  -0.84915   0.14569
  24   34038.4    293.8   0.039210085   0.37923  -0.20657   0.49779   0.29793
  25   34350.4    291.1   0.052154079   0.49984  -0.10255  -0.25629  -0.65088
  26   34425.8    290.5   0.050197929   0.48004  -0.02573  -0.67643   0.14772
  27   34684.0    288.3   0.031244330   0.29656  -0.01922   0.54366  -0.02496
  28   35486.1    281.8   0.107636019   0.99856  -0.27670   0.56870  -0.77368
  29   35678.9    280.3   0.087704291   0.80925   0.27853  -0.77483   0.36237
  30   36312.8    275.4   0.012199494   0.11060  -0.09909   0.22154  -0.22737
  31   36560.1    273.5   0.101579259   0.91469  -0.50614   0.77113   0.25274
  32   36903.6    271.0   0.180311021   1.60853   0.46250  -0.98306   0.65438
  33   37129.2    269.3   0.100296588   0.88930  -0.27483  -0.73543   0.52240
  34   37676.6    265.4   0.038663549   0.33784   0.31150  -0.19991   0.44815
  35   37865.1    264.1   0.173905048   1.51199  -0.89401   0.83414  -0.13015
  36   38042.3    262.9   0.211842991   1.83325   1.03346  -0.84044   0.24263
  37   38229.1    261.6   0.017088087   0.14716  -0.01057   0.28387   0.25780
  38   38527.5    259.6   0.046121513   0.39410  -0.11659  -0.61685  -0.00257
  39   38681.7    258.5   0.084304692   0.71750  -0.70139  -0.47420  -0.02629
  40   38775.0    257.9   0.004035992   0.03427   0.16208  -0.07200  -0.05304
  41   38930.2    256.9   0.099695850   0.84307   0.45625   0.06474   0.79418
  42   39142.5    255.5   0.043059753   0.36216   0.38083   0.05859   0.46227
  43   39330.4    254.3   0.035917006   0.30064   0.37618   0.39301  -0.06835
  44   39408.5    253.8   0.078304713   0.65414   0.36125  -0.72262  -0.03836
  45   39512.3    253.1   0.030931991   0.25772  -0.09771   0.44045  -0.23276
  46   39834.1    251.0   0.141021580   1.16548  -0.99573  -0.20141   0.36530
  47   40030.8    249.8   0.492376583   4.04929  -0.42055   1.06846  -1.65252
  48   40213.9    248.7   0.083129056   0.68054   0.01109   0.00807   0.82483

FINAL SINGLE POINT ENERGY     -3674.573816686047

DIPOLE MOMENT
-------------
                                X             Y             Z
Electronic contribution:    -21.23581      -7.91265      10.36560
Nuclear contribution   :     21.18074       8.08470      -8.60890
                        -----------------------------------------
Total Dipole Moment    :     -0.05507       0.17205       1.75669
                        -----------------------------------------
Magnitude (a.u.)       :      1.76596
Magnitude (Debye)      :      4.48871

Rotational constants in cm-1:     0.002729     0.000222     0.000210
Rotational constants in MHz :    81.808605     6.658441     6.309123

                             ****ORCA TERMINATED NORMALLY****
TOTAL RUN TIME: 0 days 0 hours 9 minutes 12 seconds 22 msec
