                         Program Version 4.2.0 -  RELEASE  -
|  1> # ORCA input file
|  2> # SCF done       -207.321576773155          0.004963809512
|  3> ! CAM-B3LYP def2-SVP def2/J RIJCOSX Grid4 TightSCF
|  4> %maxcore 5000
|  5> %tddft
|  6>     Mode sTDDFT
|  7>     Ethresh 5.0
|  8>     maxcore 5000
|  9> end
| 10>
| 11> %pal
| 12>   nprocs 6
| 13>   end
| 14> * xyz 0 1
| 15>    C        3.66482        -8.23697        -9.62146
| 16>    N        3.81436        -8.11129        -8.26589
| 17>    C        4.37506        -6.89116        -8.06067
| 18>    N        4.70448        -6.29228        -6.92705
| 19>    C        5.21242        -5.09476        -7.14563
| 20>    N        5.67511        -4.18025        -6.26227
| 21>    C        6.09117        -3.09036        -7.00167
| 22>    N        5.93531        -3.27271        -8.29361
| 23>    C        5.38043        -4.49264        -8.45163
| 24>    N        5.03214        -5.11078        -9.56231
| 25>    C        4.53333        -6.31669        -9.37237
| 26>    N        4.07131        -7.20859       -10.29272
| 27>    C        6.72267        -1.93181        -6.46137
| 28>    C        7.35838        -0.99077        -7.24278
| 29>    N        7.21825        -0.83596        -8.66242
| 30>    O        8.19492        -1.05568        -9.33969
| 31>    O        6.15259        -0.43895        -9.05998
| 32>    C        8.17548        -0.15172        -6.41640
| 33>    C        8.06803        -0.58003        -5.13116
| 34>    C        7.11609        -1.66593        -5.07872
| 35>    C        6.52809        -2.16184        -3.93186
| 36>    C        5.15706        -2.57012        -3.80614
| 37>    C        4.85609        -2.69281        -2.48504
| 38>    C        6.04598        -2.46138        -1.71493
| 39>    N        6.08002        -2.59858        -0.31648
| 40>    O        7.13418        -2.39741         0.26742
| 41>    O        5.04014        -2.90434         0.23882
| 42>    C        7.09537        -2.15029        -2.57245
| 43>    C        8.46426        -2.02127        -2.22815
| 44>    C        9.49213        -2.25129        -3.08074
| 45>    C       10.87331        -2.10418        -2.73663
| 46>    C       11.43263        -1.95348        -1.51341
| 47>    C       12.91739        -1.84653        -1.64385
| 48>    N       13.61153        -2.99301        -0.97152
| 49>    O       14.45919        -2.71510        -0.16436
| 50>    O       13.28574        -4.10091        -1.30793
| 51>    C       13.13069        -1.94566        -3.13346
| 52>    C       14.49670        -1.83565        -3.72806
| 53>    C       15.35416        -3.04596        -3.49447
| 54>    C       16.49569        -2.69438        -2.87494
| 55>    C       16.50444        -1.27461        -2.64752
| 56>    C       15.34845        -0.75589        -3.12336
| 57>    N       14.93251         0.58941        -3.08481
| 58>    O       15.70935         1.41294        -2.64450
| 59>    O       13.80449         0.83505        -3.48302
| 60>    C       11.94476        -2.12177        -3.75277
| 61>    C       11.66405        -2.23736        -5.16446
| 62>    C       12.41505        -2.91422        -6.04283
| 63>    C       12.14608        -3.00837        -7.46688
| 64>    C       13.21007        -3.23188        -8.34504
| 65>    C       13.00986        -3.23940        -9.70619
| 66>    F       14.06058        -3.50171       -10.50003
| 67>    C       11.74538        -3.04900       -10.27376
| 68>    C       10.66532        -2.92684        -9.40190
| 69>    C       10.87585        -2.89458        -8.04083
| 70>    F        9.78921        -2.79320        -7.24149
| 71>    C       11.55314        -3.01628       -11.71259
| 72>    C       12.31613        -2.28281       -12.54872
| 73>    C       12.28400        -2.27461       -14.00677
| 74>    C       11.68083        -3.20969       -14.80121
| 75>    C       11.72459        -3.19548       -16.21212
| 76>    N       11.72723        -3.23543       -17.35842
| 77>    C       10.96932        -4.33205       -14.32460
| 78>    N       10.39617        -5.27470       -14.01109
| 79>    C       13.10318        -1.16110       -14.46195
| 80>    C       13.68102        -0.52212       -13.32755
| 81>    C       13.23680        -1.19100       -12.09615
| 82>    O       13.50127        -0.87546       -10.95875
| 83>    C       14.51685         0.55021       -13.45189
| 84>    C       14.82872         1.03526       -14.74064
| 85>    C       14.25093         0.40587       -15.88125
| 86>    C       13.37841        -0.69387       -15.72144
| 87>    C       14.57463         0.89717       -17.16316
| 88>    C       15.43239         1.95314       -17.31326
| 89>    C       16.00004         2.57162       -16.18949
| 90>    C       15.70309         2.12363       -14.93070
| 91>    H        3.24546        -9.11575       -10.07118
| 92>    H        3.56605        -8.78052        -7.55550
| 93>    H        5.73647        -4.28916        -5.26172
| 94>    H        8.75745         0.67362        -6.77968
| 95>    H        8.50371        -0.11416        -4.26898
| 96>    H        4.45097        -2.58884        -4.61471
| 97>    H        3.90237        -2.91905        -2.04685
| 98>    H        8.66788        -1.78967        -1.19142
| 99>    H        9.28563        -2.58530        -4.08830
|100>    H       10.93772        -1.94928        -0.56130
|101>    H       13.31664        -0.93205        -1.19623
|102>    H       14.37472        -1.65474        -4.80321
|103>    H       15.04523        -4.03608        -3.77348
|104>    H       17.29179        -3.35262        -2.58105
|105>    H       17.29587        -0.72392        -2.17386
|106>    H       10.77093        -1.72671        -5.49467
|107>    H       13.30255        -3.43574        -5.71079
|108>    H       14.21008        -3.36940        -7.96473
|109>    H        9.66488        -2.79480        -9.78223
|110>    H       10.73078        -3.60760       -12.09193
|111>    H       14.94018         1.01659       -12.57510
|112>    H       12.94706        -1.14188       -16.60237
|113>    H       14.13661         0.41818       -18.02604
|114>    H       15.67905         2.31785       -18.29956
|115>    H       16.67326         3.40471       -16.32710
|116>    H       16.13458         2.59602       -14.06078
|117> *
|118>
|119>                          ****END OF INPUT****

CARTESIAN COORDINATES (ANGSTROEM)
---------------------------------
  C      3.664820   -8.236970   -9.621460
  N      3.814360   -8.111290   -8.265890
  C      4.375060   -6.891160   -8.060670
  N      4.704480   -6.292280   -6.927050
  C      5.212420   -5.094760   -7.145630
  N      5.675110   -4.180250   -6.262270
  C      6.091170   -3.090360   -7.001670
  N      5.935310   -3.272710   -8.293610
  C      5.380430   -4.492640   -8.451630
  N      5.032140   -5.110780   -9.562310
  C      4.533330   -6.316690   -9.372370
  N      4.071310   -7.208590  -10.292720
  C      6.722670   -1.931810   -6.461370
  C      7.358380   -0.990770   -7.242780
  N      7.218250   -0.835960   -8.662420
  O      8.194920   -1.055680   -9.339690
  O      6.152590   -0.438950   -9.059980
  C      8.175480   -0.151720   -6.416400
  C      8.068030   -0.580030   -5.131160
  C      7.116090   -1.665930   -5.078720
  C      6.528090   -2.161840   -3.931860
  C      5.157060   -2.570120   -3.806140
  C      4.856090   -2.692810   -2.485040
  C      6.045980   -2.461380   -1.714930
  N      6.080020   -2.598580   -0.316480
  O      7.134180   -2.397410    0.267420
  O      5.040140   -2.904340    0.238820
  C      7.095370   -2.150290   -2.572450
  C      8.464260   -2.021270   -2.228150
  C      9.492130   -2.251290   -3.080740
  C     10.873310   -2.104180   -2.736630
  C     11.432630   -1.953480   -1.513410
  C     12.917390   -1.846530   -1.643850
  N     13.611530   -2.993010   -0.971520
  O     14.459190   -2.715100   -0.164360
  O     13.285740   -4.100910   -1.307930
  C     13.130690   -1.945660   -3.133460
  C     14.496700   -1.835650   -3.728060
  C     15.354160   -3.045960   -3.494470
  C     16.495690   -2.694380   -2.874940
  C     16.504440   -1.274610   -2.647520
  C     15.348450   -0.755890   -3.123360
  N     14.932510    0.589410   -3.084810
  O     15.709350    1.412940   -2.644500
  O     13.804490    0.835050   -3.483020
  C     11.944760   -2.121770   -3.752770
  C     11.664050   -2.237360   -5.164460
  C     12.415050   -2.914220   -6.042830
  C     12.146080   -3.008370   -7.466880
  C     13.210070   -3.231880   -8.345040
  C     13.009860   -3.239400   -9.706190
  F     14.060580   -3.501710  -10.500030
  C     11.745380   -3.049000  -10.273760
  C     10.665320   -2.926840   -9.401900
  C     10.875850   -2.894580   -8.040830
  F      9.789210   -2.793200   -7.241490
  C     11.553140   -3.016280  -11.712590
  C     12.316130   -2.282810  -12.548720
  C     12.284000   -2.274610  -14.006770
  C     11.680830   -3.209690  -14.801210
  C     11.724590   -3.195480  -16.212120
  N     11.727230   -3.235430  -17.358420
  C     10.969320   -4.332050  -14.324600
  N     10.396170   -5.274700  -14.011090
  C     13.103180   -1.161100  -14.461950
  C     13.681020   -0.522120  -13.327550
  C     13.236800   -1.191000  -12.096150
  O     13.501270   -0.875460  -10.958750
  C     14.516850    0.550210  -13.451890
  C     14.828720    1.035260  -14.740640
  C     14.250930    0.405870  -15.881250
  C     13.378410   -0.693870  -15.721440
  C     14.574630    0.897170  -17.163160
  C     15.432390    1.953140  -17.313260
  C     16.000040    2.571620  -16.189490
  C     15.703090    2.123630  -14.930700
  H      3.245460   -9.115750  -10.071180
  H      3.566050   -8.780520   -7.555500
  H      5.736470   -4.289160   -5.261720
  H      8.757450    0.673620   -6.779680
  H      8.503710   -0.114160   -4.268980
  H      4.450970   -2.588840   -4.614710
  H      3.902370   -2.919050   -2.046850
  H      8.667880   -1.789670   -1.191420
  H      9.285630   -2.585300   -4.088300
  H     10.937720   -1.949280   -0.561300
  H     13.316640   -0.932050   -1.196230
  H     14.374720   -1.654740   -4.803210
  H     15.045230   -4.036080   -3.773480
  H     17.291790   -3.352620   -2.581050
  H     17.295870   -0.723920   -2.173860
  H     10.770930   -1.726710   -5.494670
  H     13.302550   -3.435740   -5.710790
  H     14.210080   -3.369400   -7.964730
  H      9.664880   -2.794800   -9.782230
  H     10.730780   -3.607600  -12.091930
  H     14.940180    1.016590  -12.575100
  H     12.947060   -1.141880  -16.602370
  H     14.136610    0.418180  -18.026040
  H     15.679050    2.317850  -18.299560
  H     16.673260    3.404710  -16.327100
  H     16.134580    2.596020  -14.060780

 Total Charge           Charge          ....    0
 Multiplicity           Mult            ....    1
 Number of Electrons    NEL             ....  518
 Basis Dimension        Dim             .... 1194

ORBITAL ENERGIES
----------------

  NO   OCC          E(Eh)            E(eV)
   0   2.0000     -24.795745      -674.7265
   1   2.0000     -24.787362      -674.4984
   2   2.0000     -19.258845      -524.0598
   3   2.0000     -19.256985      -524.0092
   4   2.0000     -19.254337      -523.9372
   5   2.0000     -19.253992      -523.9278
   6   2.0000     -19.247334      -523.7466
   7   2.0000     -19.246339      -523.7195
   8   2.0000     -19.243971      -523.6551
   9   2.0000     -19.242401      -523.6124
  10   2.0000     -19.217668      -522.9393
  11   2.0000     -14.659141      -398.8955
  12   2.0000     -14.658430      -398.8762
  13   2.0000     -14.656500      -398.8237
  14   2.0000     -14.651795      -398.6956
  15   2.0000     -14.481776      -394.0691
  16   2.0000     -14.477793      -393.9608
  17   2.0000     -14.431518      -392.7016
  18   2.0000     -14.415855      -392.2754
  19   2.0000     -14.414864      -392.2484
  20   2.0000     -14.412234      -392.1768
  21   2.0000     -14.401089      -391.8735
  22   2.0000     -14.392936      -391.6517
  23   2.0000     -10.368484      -282.1408
  24   2.0000     -10.368342      -282.1369
  25   2.0000     -10.366595      -282.0894
  26   2.0000     -10.364349      -282.0283
  27   2.0000     -10.352390      -281.7028
  28   2.0000     -10.350928      -281.6631
  29   2.0000     -10.349664      -281.6287
  30   2.0000     -10.348243      -281.5900
  31   2.0000     -10.346559      -281.5442
  32   2.0000     -10.345839      -281.5246
  33   2.0000     -10.345697      -281.5207
  34   2.0000     -10.344749      -281.4949
  35   2.0000     -10.340909      -281.3904
  36   2.0000     -10.340409      -281.3768
  37   2.0000     -10.337705      -281.3032
  38   2.0000     -10.331904      -281.1454
  39   2.0000     -10.328316      -281.0478
  40   2.0000     -10.324797      -280.9520
  41   2.0000     -10.320505      -280.8352
  42   2.0000     -10.318951      -280.7929
  43   2.0000     -10.318892      -280.7913
  44   2.0000     -10.318649      -280.7847
  45   2.0000     -10.318032      -280.7679
  46   2.0000     -10.317506      -280.7536
  47   2.0000     -10.317082      -280.7421
  48   2.0000     -10.316681      -280.7312
  49   2.0000     -10.315474      -280.6983
  50   2.0000     -10.311536      -280.5912
  51   2.0000     -10.311506      -280.5904
  52   2.0000     -10.310893      -280.5737
  53   2.0000     -10.308844      -280.5179
  54   2.0000     -10.307967      -280.4940
  55   2.0000     -10.307208      -280.4734
  56   2.0000     -10.305330      -280.4223
  57   2.0000     -10.304619      -280.4029
  58   2.0000     -10.304482      -280.3992
  59   2.0000     -10.303966      -280.3852
  60   2.0000     -10.303579      -280.3746
  61   2.0000     -10.303204      -280.3644
  62   2.0000     -10.302473      -280.3445
  63   2.0000     -10.300238      -280.2837
  64   2.0000     -10.298834      -280.2455
  65   2.0000     -10.298581      -280.2386
  66   2.0000     -10.298336      -280.2320
  67   2.0000     -10.297780      -280.2168
  68   2.0000     -10.297571      -280.2112
  69   2.0000     -10.292422      -280.0710
  70   2.0000     -10.292191      -280.0647
  71   2.0000     -10.289416      -279.9893
  72   2.0000     -10.287536      -279.9381
  73   2.0000     -10.286997      -279.9234
  74   2.0000     -10.286749      -279.9167
  75   2.0000     -10.286235      -279.9027
  76   2.0000      -1.340115       -36.4664
  77   2.0000      -1.335364       -36.3371
  78   2.0000      -1.326213       -36.0881
  79   2.0000      -1.322827       -35.9959
  80   2.0000      -1.307135       -35.5690
  81   2.0000      -1.302796       -35.4509
  82   2.0000      -1.161630       -31.6096
  83   2.0000      -1.155215       -31.4350
  84   2.0000      -1.145265       -31.1643
  85   2.0000      -1.143440       -31.1146
  86   2.0000      -1.141207       -31.0538
  87   2.0000      -1.133227       -30.8367
  88   2.0000      -1.128732       -30.7144
  89   2.0000      -1.051734       -28.6191
  90   2.0000      -1.032518       -28.0962
  91   2.0000      -1.030249       -28.0345
  92   2.0000      -1.019239       -27.7349
  93   2.0000      -1.018475       -27.7141
  94   2.0000      -1.012324       -27.5467
  95   2.0000      -0.998882       -27.1810
  96   2.0000      -0.996837       -27.1253
  97   2.0000      -0.994076       -27.0502
  98   2.0000      -0.984874       -26.7998
  99   2.0000      -0.983010       -26.7491
 100   2.0000      -0.971324       -26.4311
 101   2.0000      -0.951196       -25.8833
 102   2.0000      -0.933982       -25.4150
 103   2.0000      -0.931405       -25.3448
 104   2.0000      -0.922752       -25.1094
 105   2.0000      -0.921827       -25.0842
 106   2.0000      -0.905982       -24.6530
 107   2.0000      -0.894466       -24.3397
 108   2.0000      -0.893702       -24.3189
 109   2.0000      -0.888631       -24.1809
 110   2.0000      -0.881853       -23.9964
 111   2.0000      -0.879483       -23.9319
 112   2.0000      -0.877063       -23.8661
 113   2.0000      -0.865460       -23.5504
 114   2.0000      -0.850976       -23.1562
 115   2.0000      -0.841124       -22.8882
 116   2.0000      -0.835393       -22.7322
 117   2.0000      -0.829108       -22.5612
 118   2.0000      -0.825036       -22.4504
 119   2.0000      -0.811159       -22.0727
 120   2.0000      -0.802434       -21.8353
 121   2.0000      -0.786324       -21.3970
 122   2.0000      -0.771118       -20.9832
 123   2.0000      -0.770196       -20.9581
 124   2.0000      -0.762126       -20.7385
 125   2.0000      -0.757562       -20.6143
 126   2.0000      -0.748584       -20.3700
 127   2.0000      -0.739974       -20.1357
 128   2.0000      -0.737562       -20.0701
 129   2.0000      -0.728477       -19.8229
 130   2.0000      -0.726732       -19.7754
 131   2.0000      -0.711877       -19.3712
 132   2.0000      -0.710675       -19.3385
 133   2.0000      -0.704666       -19.1749
 134   2.0000      -0.701258       -19.0822
 135   2.0000      -0.694137       -18.8884
 136   2.0000      -0.693127       -18.8609
 137   2.0000      -0.688441       -18.7334
 138   2.0000      -0.681572       -18.5465
 139   2.0000      -0.678688       -18.4680
 140   2.0000      -0.675465       -18.3803
 141   2.0000      -0.672187       -18.2911
 142   2.0000      -0.660131       -17.9631
 143   2.0000      -0.659682       -17.9509
 144   2.0000      -0.651170       -17.7192
 145   2.0000      -0.646380       -17.5889
 146   2.0000      -0.645870       -17.5750
 147   2.0000      -0.643982       -17.5236
 148   2.0000      -0.641166       -17.4470
 149   2.0000      -0.638332       -17.3699
 150   2.0000      -0.637803       -17.3555
 151   2.0000      -0.636715       -17.3259
 152   2.0000      -0.635301       -17.2874
 153   2.0000      -0.631909       -17.1951
 154   2.0000      -0.628944       -17.1144
 155   2.0000      -0.623620       -16.9696
 156   2.0000      -0.621559       -16.9135
 157   2.0000      -0.619955       -16.8698
 158   2.0000      -0.612910       -16.6781
 159   2.0000      -0.611687       -16.6449
 160   2.0000      -0.607660       -16.5353
 161   2.0000      -0.603677       -16.4269
 162   2.0000      -0.602191       -16.3864
 163   2.0000      -0.598396       -16.2832
 164   2.0000      -0.595161       -16.1951
 165   2.0000      -0.590394       -16.0654
 166   2.0000      -0.588744       -16.0205
 167   2.0000      -0.585688       -15.9374
 168   2.0000      -0.585590       -15.9347
 169   2.0000      -0.578999       -15.7554
 170   2.0000      -0.570690       -15.5293
 171   2.0000      -0.568428       -15.4677
 172   2.0000      -0.564719       -15.3668
 173   2.0000      -0.561891       -15.2898
 174   2.0000      -0.556734       -15.1495
 175   2.0000      -0.556287       -15.1373
 176   2.0000      -0.553004       -15.0480
 177   2.0000      -0.552468       -15.0334
 178   2.0000      -0.549849       -14.9622
 179   2.0000      -0.549148       -14.9431
 180   2.0000      -0.547030       -14.8855
 181   2.0000      -0.545241       -14.8368
 182   2.0000      -0.539543       -14.6817
 183   2.0000      -0.538978       -14.6663
 184   2.0000      -0.536933       -14.6107
 185   2.0000      -0.533308       -14.5120
 186   2.0000      -0.532455       -14.4888
 187   2.0000      -0.530070       -14.4239
 188   2.0000      -0.523991       -14.2585
 189   2.0000      -0.520151       -14.1540
 190   2.0000      -0.516994       -14.0681
 191   2.0000      -0.515124       -14.0172
 192   2.0000      -0.513791       -13.9810
 193   2.0000      -0.510556       -13.8929
 194   2.0000      -0.509235       -13.8570
 195   2.0000      -0.506238       -13.7754
 196   2.0000      -0.505411       -13.7529
 197   2.0000      -0.503183       -13.6923
 198   2.0000      -0.498160       -13.5556
 199   2.0000      -0.496316       -13.5054
 200   2.0000      -0.495582       -13.4855
 201   2.0000      -0.492863       -13.4115
 202   2.0000      -0.490188       -13.3387
 203   2.0000      -0.485425       -13.2091
 204   2.0000      -0.483360       -13.1529
 205   2.0000      -0.481352       -13.0983
 206   2.0000      -0.476800       -12.9744
 207   2.0000      -0.469629       -12.7793
 208   2.0000      -0.466318       -12.6892
 209   2.0000      -0.462965       -12.5979
 210   2.0000      -0.459890       -12.5143
 211   2.0000      -0.457000       -12.4356
 212   2.0000      -0.451986       -12.2992
 213   2.0000      -0.449523       -12.2321
 214   2.0000      -0.447701       -12.1826
 215   2.0000      -0.443763       -12.0754
 216   2.0000      -0.441253       -12.0071
 217   2.0000      -0.439388       -11.9564
 218   2.0000      -0.435920       -11.8620
 219   2.0000      -0.433162       -11.7869
 220   2.0000      -0.432096       -11.7579
 221   2.0000      -0.426731       -11.6120
 222   2.0000      -0.419785       -11.4229
 223   2.0000      -0.419143       -11.4055
 224   2.0000      -0.414002       -11.2656
 225   2.0000      -0.410756       -11.1772
 226   2.0000      -0.408841       -11.1251
 227   2.0000      -0.403201       -10.9717
 228   2.0000      -0.397189       -10.8081
 229   2.0000      -0.395401       -10.7594
 230   2.0000      -0.393848       -10.7172
 231   2.0000      -0.393583       -10.7099
 232   2.0000      -0.392542       -10.6816
 233   2.0000      -0.390073       -10.6144
 234   2.0000      -0.389568       -10.6007
 235   2.0000      -0.387100       -10.5335
 236   2.0000      -0.384749       -10.4695
 237   2.0000      -0.383412       -10.4332
 238   2.0000      -0.381830       -10.3901
 239   2.0000      -0.379440       -10.3251
 240   2.0000      -0.377635       -10.2760
 241   2.0000      -0.374997       -10.2042
 242   2.0000      -0.372047       -10.1239
 243   2.0000      -0.369828       -10.0635
 244   2.0000      -0.358761        -9.7624
 245   2.0000      -0.352454        -9.5908
 246   2.0000      -0.347760        -9.4630
 247   2.0000      -0.343543        -9.3483
 248   2.0000      -0.342796        -9.3280
 249   2.0000      -0.333653        -9.0792
 250   2.0000      -0.327976        -8.9247
 251   2.0000      -0.320333        -8.7167
 252   2.0000      -0.316634        -8.6160
 253   2.0000      -0.315184        -8.5766
 254   2.0000      -0.312500        -8.5035
 255   2.0000      -0.298656        -8.1268
 256   2.0000      -0.292871        -7.9694
 257   2.0000      -0.283625        -7.7178
 258   2.0000      -0.274565        -7.4713
 259   0.0000      -0.142711        -3.8834
 260   0.0000      -0.091947        -2.5020
 261   0.0000      -0.076943        -2.0937
 262   0.0000      -0.068800        -1.8721
 263   0.0000      -0.058188        -1.5834

MULLIKEN ATOMIC CHARGES
-----------------------
   0 C :    0.118331
   1 N :   -0.061005
   2 C :   -0.046615
   3 N :    0.026150
   4 C :   -0.047697
   5 N :   -0.042829
   6 C :   -0.065318
   7 N :   -0.044866
   8 C :   -0.117615
   9 N :    0.075467
  10 C :   -0.122013
  11 N :   -0.068130
  12 C :    0.134027
  13 C :    0.055435
  14 N :    0.272264
  15 O :   -0.229417
  16 O :   -0.187676
  17 C :    0.048564
  18 C :   -0.008049
  19 C :    0.012748
  20 C :   -0.003308
  21 C :   -0.050134
  22 C :    0.032810
  23 C :    0.080710
  24 N :    0.275753
  25 O :   -0.254623
  26 O :   -0.242543
  27 C :    0.054754
  28 C :   -0.018573
  29 C :   -0.014207
  30 C :    0.109539
  31 C :   -0.096399
  32 C :    0.224229
  33 N :    0.177495
  34 O :   -0.214242
  35 O :   -0.215030
  36 C :   -0.155187
  37 C :    0.097969
  38 C :    0.014134
  39 C :    0.047792
  40 C :    0.003952
  41 C :    0.033931
  42 N :    0.268582
  43 O :   -0.244914
  44 O :   -0.255242
  45 C :    0.092454
  46 C :   -0.024034
  47 C :   -0.001996
  48 C :    0.058456
  49 C :   -0.105138
  50 C :    0.318525
  51 F :   -0.183168
  52 C :   -0.016477
  53 C :   -0.046398
  54 C :    0.232267
  55 F :   -0.197857
  56 C :   -0.013248
  57 C :   -0.074963
  58 C :    0.301147
  59 C :   -0.329508
  60 C :   -0.182578
  61 N :    0.152693
  62 C :   -0.199707
  63 N :    0.168857
  64 C :    0.051151
  65 C :   -0.012405
  66 C :    0.155272
  67 O :   -0.140963
  68 C :   -0.072602
  69 C :    0.096390
  70 C :    0.093921
  71 C :   -0.078136
  72 C :   -0.016185
  73 C :    0.036569
  74 C :    0.034055
  75 C :   -0.013155
  76 H :    0.021612
  77 H :    0.139339
  78 H :    0.138123
  79 H :    0.005543
  80 H :    0.016337
  81 H :    0.014270
  82 H :    0.013286
  83 H :    0.027325
  84 H :    0.021055
  85 H :    0.016038
  86 H :    0.044685
  87 H :    0.046454
  88 H :    0.021589
  89 H :    0.006536
  90 H :    0.014592
  91 H :    0.020075
  92 H :   -0.002587
  93 H :   -0.014706
  94 H :    0.013502
  95 H :    0.049781
  96 H :   -0.013862
  97 H :   -0.007825
  98 H :   -0.008430
  99 H :   -0.004150
 100 H :   -0.003298
 101 H :   -0.017526
Sum of atomic charges:   -0.0000000

LOEWDIN ATOMIC CHARGES
----------------------
   0 C :    0.060122
   1 N :    0.055925
   2 C :   -0.007879
   3 N :   -0.093921
   4 C :   -0.006099
   5 N :    0.064192
   6 C :    0.034400
   7 N :   -0.114012
   8 C :   -0.040916
   9 N :   -0.024684
  10 C :   -0.039755
  11 N :   -0.105736
  12 C :   -0.056473
  13 C :    0.023723
  14 N :    0.285816
  15 O :   -0.185284
  16 O :   -0.152936
  17 C :    0.004812
  18 C :   -0.023281
  19 C :    0.048080
  20 C :    0.026677
  21 C :   -0.066219
  22 C :    0.032270
  23 C :   -0.055768
  24 N :    0.285990
  25 O :   -0.217571
  26 O :   -0.207553
  27 C :    0.018505
  28 C :   -0.002860
  29 C :    0.014599
  30 C :   -0.007081
  31 C :    0.005351
  32 C :    0.025281
  33 N :    0.272937
  34 O :   -0.189618
  35 O :   -0.192550
  36 C :   -0.009476
  37 C :   -0.025200
  38 C :    0.018467
  39 C :   -0.021014
  40 C :    0.049825
  41 C :   -0.052427
  42 N :    0.280273
  43 O :   -0.209425
  44 O :   -0.222547
  45 C :   -0.009030
  46 C :   -0.017920
  47 C :   -0.003707
  48 C :   -0.037246
  49 C :   -0.034911
  50 C :    0.102643
  51 F :   -0.055813
  52 C :   -0.052031
  53 C :   -0.005788
  54 C :    0.082708
  55 F :   -0.066311
  56 C :    0.080844
  57 C :   -0.072145
  58 C :    0.074332
  59 C :   -0.126887
  60 C :   -0.016228
  61 N :   -0.047606
  62 C :   -0.023100
  63 N :   -0.039969
  64 C :   -0.025536
  65 C :   -0.055816
  66 C :    0.085498
  67 O :   -0.130998
  68 C :    0.034520
  69 C :   -0.007896
  70 C :   -0.005538
  71 C :    0.021233
  72 C :   -0.004507
  73 C :   -0.012367
  74 C :   -0.011798
  75 C :   -0.008828
  76 H :    0.023620
  77 H :    0.097718
  78 H :    0.089978
  79 H :    0.041268
  80 H :    0.035493
  81 H :    0.033533
  82 H :    0.042608
  83 H :    0.040383
  84 H :    0.034430
  85 H :    0.033141
  86 H :    0.052008
  87 H :    0.069128
  88 H :    0.031907
  89 H :    0.035134
  90 H :    0.043679
  91 H :    0.030770
  92 H :    0.031240
  93 H :    0.038958
  94 H :    0.045159
  95 H :    0.051129
  96 H :    0.038963
  97 H :    0.039225
  98 H :    0.035020
  99 H :    0.033567
 100 H :    0.033279
 101 H :    0.031900

  Mayer bond orders larger than 0.100000
B(  0-C ,  1-N ) :   1.1580 B(  0-C , 11-N ) :   1.7211 B(  0-C , 76-H ) :   0.9814
B(  1-N ,  2-C ) :   1.2065 B(  1-N , 77-H ) :   0.9301 B(  2-C ,  3-N ) :   1.5293
B(  2-C , 10-C ) :   1.1454 B(  3-N ,  4-C ) :   1.5479 B(  4-C ,  5-N ) :   1.1904
B(  4-C ,  8-C ) :   1.1257 B(  5-N ,  6-C ) :   1.2046 B(  5-N , 78-H ) :   0.9017
B(  6-C ,  7-N ) :   1.7253 B(  6-C , 12-C ) :   1.0006 B(  7-N ,  8-C ) :   1.3761
B(  8-C ,  9-N ) :   1.5298 B(  9-N , 10-C ) :   1.5274 B( 10-C , 11-N ) :   1.3665
B( 12-C , 13-C ) :   1.6219 B( 12-C , 19-C ) :   1.0528 B( 13-C , 14-N ) :   0.8589
B( 13-C , 17-C ) :   1.1274 B( 14-N , 15-O ) :   1.5206 B( 14-N , 16-O ) :   1.5804
B( 15-O , 16-O ) :   0.2873 B( 17-C , 18-C ) :   1.5936 B( 17-C , 79-H ) :   1.0229
B( 18-C , 19-C ) :   1.1182 B( 18-C , 80-H ) :   0.9947 B( 19-C , 20-C ) :   1.4921
B( 20-C , 21-C ) :   1.1395 B( 20-C , 27-C ) :   1.0163 B( 21-C , 22-C ) :   1.5542
B( 21-C , 81-H ) :   1.0046 B( 22-C , 23-C ) :   1.1429 B( 22-C , 82-H ) :   1.0115
B( 23-C , 24-N ) :   0.9500 B( 23-C , 27-C ) :   1.4989 B( 24-N , 25-O ) :   1.4932
B( 24-N , 26-O ) :   1.5370 B( 25-O , 26-O ) :   0.2612 B( 27-C , 28-C ) :   1.1711
B( 28-C , 29-C ) :   1.6127 B( 28-C , 83-H ) :   0.9554 B( 29-C , 30-C ) :   1.0916
B( 29-C , 84-H ) :   0.9519 B( 30-C , 31-C ) :   1.6889 B( 30-C , 45-C ) :   1.0258
B( 31-C , 32-C ) :   0.9721 B( 31-C , 85-H ) :   1.0016 B( 32-C , 33-N ) :   0.8323
B( 32-C , 36-C ) :   1.0035 B( 32-C , 86-H ) :   0.8766 B( 33-N , 34-O ) :   1.5607
B( 33-N , 35-O ) :   1.5855 B( 34-O , 35-O ) :   0.2698 B( 36-C , 37-C ) :   1.0136
B( 36-C , 45-C ) :   1.7412 B( 37-C , 38-C ) :   1.0071 B( 37-C , 41-C ) :   1.0084
B( 37-C , 87-H ) :   0.8341 B( 38-C , 39-C ) :   1.7051 B( 38-C , 88-H ) :   1.0006
B( 39-C , 40-C ) :   1.0708 B( 39-C , 89-H ) :   1.0035 B( 40-C , 41-C ) :   1.6697
B( 40-C , 90-H ) :   1.0015 B( 41-C , 42-N ) :   0.9446 B( 42-N , 43-O ) :   1.5358
B( 42-N , 44-O ) :   1.5187 B( 43-O , 44-O ) :   0.2639 B( 45-C , 46-C ) :   1.0466
B( 46-C , 47-C ) :   1.7833 B( 46-C , 91-H ) :   0.9371 B( 47-C , 48-C ) :   1.0419
B( 47-C , 92-H ) :   0.9721 B( 48-C , 49-C ) :   1.2826 B( 48-C , 54-C ) :   1.3308
B( 49-C , 50-C ) :   1.3801 B( 49-C , 93-H ) :   1.0047 B( 50-C , 51-F ) :   1.1163
B( 50-C , 52-C ) :   1.3196 B( 52-C , 53-C ) :   1.2965 B( 52-C , 56-C ) :   1.0191
B( 53-C , 54-C ) :   1.3791 B( 53-C , 94-H ) :   0.9899 B( 54-C , 55-F ) :   1.0538
B( 56-C , 57-C ) :   1.7430 B( 56-C , 95-H ) :   0.9445 B( 57-C , 58-C ) :   1.0372
B( 57-C , 66-C ) :   0.9184 B( 58-C , 59-C ) :   1.6681 B( 58-C , 64-C ) :   0.9994
B( 59-C , 60-C ) :   1.1402 B( 59-C , 62-C ) :   1.1372 B( 60-C , 61-N ) :   2.9707
B( 62-C , 63-N ) :   2.9901 B( 64-C , 65-C ) :   1.2129 B( 64-C , 71-C ) :   1.4426
B( 65-C , 66-C ) :   0.9510 B( 65-C , 68-C ) :   1.4716 B( 66-C , 67-O ) :   2.2275
B( 68-C , 69-C ) :   1.1824 B( 68-C , 96-H ) :   1.0160 B( 69-C , 70-C ) :   1.2544
B( 69-C , 75-C ) :   1.2423 B( 70-C , 71-C ) :   1.2118 B( 70-C , 72-C ) :   1.2371
B( 71-C , 97-H ) :   0.9904 B( 72-C , 73-C ) :   1.4925 B( 72-C , 98-H ) :   0.9975
B( 73-C , 74-C ) :   1.2569 B( 73-C , 99-H ) :   0.9891 B( 74-C , 75-C ) :   1.4895
B( 74-C ,100-H ) :   0.9897 B( 75-C ,101-H ) :   0.9979

-----------------------------------------------------------------------------
         ABSORPTION SPECTRUM VIA TRANSITION ELECTRIC DIPOLE MOMENTS
-----------------------------------------------------------------------------
State   Energy  Wavelength   fosc         T2         TX        TY        TZ
        (cm-1)    (nm)                  (au**2)     (au)      (au)      (au)
-----------------------------------------------------------------------------
   0   10400.0    961.5   0.071969589   2.27820  -0.93872  -0.92814  -0.73181
   1   13816.5    723.8   0.066557186   1.58589  -1.11190   0.35679  -0.47146
   2   16893.6    591.9   0.013111165   0.25550   0.04224  -0.14238   0.48316
   3   20054.3    498.6   0.000676747   0.01111   0.00388   0.10529  -0.00293
   4   20791.3    481.0   0.013856020   0.21940  -0.10617  -0.40281  -0.21417
   5   22550.2    443.5   0.017094350   0.24956   0.41896   0.14463   0.23048
   6   24166.6    413.8   0.005085787   0.06928  -0.15605  -0.18779   0.09831
   7   24411.8    409.6   0.105645040   1.42470   0.20401   0.45324  -1.08520
   8   24513.8    407.9   0.367291193   4.93260  -0.25332  -0.36312  -2.17637
   9   25778.0    387.9   0.051551643   0.65837  -0.26051  -0.23509   0.73160
  10   26442.3    378.2   0.109127177   1.35865   0.38320  -0.75103   0.80484
  11   27182.7    367.9   0.034566411   0.41864  -0.09225   0.00028  -0.64041
  12   27263.0    366.8   0.025307584   0.30560   0.07683   0.02523   0.54686
  13   27326.1    365.9   0.237006802   2.85534   0.21774   0.44262   1.61617
  14   27364.3    365.4   0.115969542   1.39520  -0.57660  -0.99800  -0.25831
  15   28188.0    354.8   0.040646050   0.47471  -0.10835  -0.46169  -0.49981
  16   28495.8    350.9   0.042777008   0.49420  -0.09768  -0.29497   0.63060
  17   28829.5    346.9   0.107347537   1.22583   0.40694   0.29494  -0.98653
  18   29166.3    342.9   0.157428631   1.77696   0.65255   0.23687  -1.13800
  19   29350.3    340.7   0.049934056   0.56009   0.10546   0.18781  -0.71673
  20   29477.7    339.2   0.027252190   0.30436   0.14336  -0.02331  -0.53222
  21   29844.6    335.1   0.122912436   1.35583   0.21815   0.30349   1.10279
  22   30487.1    328.0   0.028329094   0.30591   0.46325   0.02788  -0.30089
  23   30866.9    324.0   0.157382291   1.67857   0.84233   0.53901  -0.82372
  24   31096.7    321.6   0.065209395   0.69035  -0.72968  -0.32871   0.22332
  25   31540.5    317.1   0.068693555   0.71701  -0.82230   0.18194  -0.08788
  26   31820.5    314.3   0.015255672   0.15783  -0.27422   0.01457   0.28710
  27   31904.6    313.4   0.005673573   0.05854  -0.01733  -0.22885   0.07662
  28   32096.9    311.6   0.065374451   0.67053   0.29653   0.64920  -0.40143
  29   32328.4    309.3   0.004442476   0.04524   0.02637  -0.20365   0.05543
  30   32351.8    309.1   0.059805354   0.60858  -0.70990   0.01020   0.32328
  31   32618.4    306.6   0.005354552   0.05404   0.21185   0.05181   0.08049
  32   32985.0    303.2   0.268501098   2.67982  -0.78324  -0.55411   1.32639
  33   33535.6    298.2   0.003863144   0.03792  -0.01238  -0.01672  -0.19363
  34   33720.8    296.6   0.051914345   0.50683   0.66607  -0.07304  -0.24051
  35   34021.2    293.9   0.036584533   0.35402   0.15977   0.57110   0.04828
  36   34075.9    293.5   0.251945978   2.43409  -0.08457  -0.45012  -1.49142
  37   34211.1    292.3   1.032905805   9.93962  -1.76286  -2.58724   0.37166
  38   34399.9    290.7   0.065014591   0.62220   0.62449   0.33447  -0.34690
  39   35104.0    284.9   0.113640061   1.06574  -0.92380  -0.41933   0.19103
  40   35361.7    282.8   0.040930094   0.38105  -0.22644  -0.29068  -0.49526
  41   35709.9    280.0   0.030798657   0.28394  -0.38845  -0.36104   0.05191
  42   35770.6    279.6   0.054884169   0.50512  -0.52865  -0.47491  -0.01068
  43   36090.7    277.1   0.094609284   0.86301   0.22228   0.69908   0.56999
  44   36314.2    275.4   0.044450626   0.40297  -0.20459  -0.26158   0.54101
  45   36389.3    274.8   0.099601637   0.90109   0.65368   0.64242  -0.24717
  46   36520.3    273.8   0.009540877   0.08601  -0.21975  -0.13180   0.14264
  47   36652.3    272.8   0.009352221   0.08400   0.25294   0.13511  -0.04202
  48   36675.6    272.7   0.005475574   0.04915  -0.08723  -0.14705   0.14113
  49   36893.2    271.1   0.357513782   3.19023   1.13706   1.24500  -0.58933
  50   37274.9    268.3   0.044343054   0.39164   0.31311   0.33622   0.42492
  51   37590.8    266.0   0.001444824   0.01265  -0.02187  -0.08821   0.06629
  52   37646.6    265.6   0.164281306   1.43661  -0.13535   0.04055  -1.19023
  53   37766.7    264.8   0.008686683   0.07572   0.10441  -0.08604  -0.23962
  54   37838.2    264.3   0.045336673   0.39445   0.09103   0.62073   0.02928
  55   37993.0    263.2   0.065923239   0.57123  -0.22788  -0.31243  -0.64938
  56   38204.4    261.8   0.036432463   0.31394  -0.36877  -0.23765  -0.34854
  57   38346.4    260.8   0.019554704   0.16788  -0.02120   0.00573  -0.40914
  58   38535.2    259.5   0.027611891   0.23589   0.47428   0.10332   0.01670
  59   38591.5    259.1   0.003741995   0.03192  -0.17817  -0.01277  -0.00374
  60   38846.3    257.4   0.000934743   0.00792   0.08053   0.02456   0.02887
  61   39219.5    255.0   0.011734665   0.09850   0.07621  -0.21442  -0.21614
  62   39280.2    254.6   0.006323927   0.05300  -0.17371  -0.06805   0.13489
  63   39447.5    253.5   0.105411185   0.87972   0.28552  -0.79232  -0.41283
  64   39700.9    251.9   0.191410530   1.58724   0.54846  -0.21083   1.11444
  65   39818.2    251.1   0.032236642   0.26653   0.26608  -0.41477   0.15395
  66   39867.1    250.8   0.267856463   2.21189   0.24016   1.09047   0.98238
  67   40154.0    249.0   0.049547797   0.40623  -0.35259  -0.46717  -0.25231

FINAL SINGLE POINT ENERGY     -3564.112330046023

DIPOLE MOMENT
-------------
                                X             Y             Z
Electronic contribution:    -17.12547     -11.42638      -2.36103
Nuclear contribution   :     18.40734      11.48455       3.53680
                        -----------------------------------------
Total Dipole Moment    :      1.28186       0.05817       1.17577
                        -----------------------------------------
Magnitude (a.u.)       :      1.74040
Magnitude (Debye)      :      4.42375

Rotational constants in cm-1:     0.000923     0.000570     0.000398
Rotational constants in MHz :    27.665357    17.096255    11.929933

                             ****ORCA TERMINATED NORMALLY****
TOTAL RUN TIME: 0 days 0 hours 10 minutes 41 seconds 932 msec
