                         Program Version 4.2.0 -  RELEASE  -
|  1> # ORCA input file
|  2> # SCF done       -166.958367178971          0.000872440895
|  3> ! CAM-B3LYP def2-SVP def2/J RIJCOSX Grid4 TightSCF
|  4> %maxcore 5000
|  5> %tddft
|  6>     Mode sTDDFT
|  7>     Ethresh 5.0
|  8>     maxcore 5000
|  9> end
| 10>
| 11> %pal
| 12>   nprocs 6
| 13>   end
| 14> * xyz 0 1
| 15>    C        1.65253         2.15103        -6.63872
| 16>    S        3.01374         2.25709        -5.61044
| 17>    C        3.50099         0.64815        -6.03614
| 18>    C        4.72253         0.08630        -5.52465
| 19>    O        5.17302        -0.99876        -5.81517
| 20>    C        2.61980         0.07905        -6.94847
| 21>    C        1.56912         0.95816        -7.28855
| 22>    C        2.79078        -1.26071        -7.46904
| 23>    C        3.02611        -1.62571        -8.77119
| 24>    N        3.11609        -0.77516        -9.88979
| 25>    O        3.31861        -1.29346       -10.97291
| 26>    O        2.98515         0.42579        -9.71703
| 27>    C        3.25935        -3.05503        -8.83356
| 28>    C        3.22282        -3.54930        -7.57534
| 29>    C        2.92236        -2.47914        -6.66070
| 30>    C        2.67297        -2.53966        -5.30374
| 31>    C        1.82042        -1.64516        -4.59044
| 32>    C        1.69670        -2.08398        -3.30728
| 33>    C        2.52981        -3.22938        -3.11750
| 34>    N        2.51003        -3.89910        -1.88482
| 35>    O        3.00724        -5.01429        -1.79009
| 36>    O        1.95721        -3.33560        -0.95414
| 37>    C        3.18530        -3.52603        -4.32865
| 38>    C        4.27881        -4.35227        -4.62935
| 39>    C        5.05749        -5.02106        -3.71367
| 40>    C        6.10943        -5.87668        -4.05944
| 41>    N        6.90766        -6.49745        -3.12201
| 42>    C        6.80503        -6.37377        -1.68436
| 43>    C        5.64712        -7.18741        -1.11272
| 44>    C        7.85777        -7.33195        -3.70641
| 45>    O        8.67882        -7.98118        -3.08235
| 46>    C        7.62068        -7.21019        -5.13297
| 47>    C        6.55685        -6.31500        -5.32198
| 48>    C        6.30668        -6.21570        -6.74748
| 49>    O        5.48695        -5.59539        -7.38962
| 50>    N        7.27012        -7.05745        -7.33139
| 51>    C        7.32937        -7.24647        -8.76115
| 52>    C        6.62333        -8.52835        -9.19544
| 53>    C        8.05470        -7.67432        -6.38981
| 54>    C        9.07029        -8.60025        -6.67478
| 55>    C        9.79851        -9.18899        -5.67461
| 56>    C       10.79432       -10.15184        -5.85289
| 57>    S       11.24350       -10.78809        -7.40683
| 58>    C       12.40562       -11.87828        -6.73617
| 59>    C       12.48462       -11.73184        -5.33861
| 60>    C       11.55927       -10.76385        -4.83636
| 61>    C       11.48571       -10.49727        -3.46108
| 62>    C       12.33356       -11.15872        -2.60085
| 63>    C       12.27692       -10.91229        -1.20866
| 64>    N       12.22903       -10.71348        -0.08176
| 65>    C       13.29549       -12.08507        -3.10339
| 66>    C       14.18642       -12.72194        -2.20679
| 67>    N       14.91506       -13.25494        -1.50196
| 68>    C       13.37110       -12.36293        -4.44888
| 69>    C       13.10010       -12.77210        -7.59332
| 70>    S       13.24290       -12.41164        -9.29082
| 71>    C       14.10167       -13.88705        -9.57652
| 72>    C       14.55975       -14.24392       -10.90257
| 73>    O       15.16153       -15.25519       -11.16635
| 74>    C       14.25200       -14.61063        -8.41061
| 75>    C       13.69202       -13.99085        -7.29824
| 76>    H        0.98229         2.98452        -6.71656
| 77>    H        5.24802         0.75427        -4.81559
| 78>    H        0.78717         0.70733        -7.98139
| 79>    H        3.43113        -3.58681        -9.74914
| 80>    H        3.31297        -4.58279        -7.31052
| 81>    H        1.27247        -0.83658        -5.03292
| 82>    H        1.07473        -1.67368        -2.53384
| 83>    H        4.56583        -4.40926        -5.66897
| 84>    H        4.85573        -4.91020        -2.66148
| 85>    H        6.70753        -5.31852        -1.41719
| 86>    H        7.75118        -6.75114        -1.28593
| 87>    H        4.68550        -6.80287        -1.44264
| 88>    H        5.67999        -7.14262        -0.02793
| 89>    H        5.73525        -8.22732        -1.41827
| 90>    H        8.37414        -7.24772        -9.08306
| 91>    H        6.82490        -6.38303        -9.20327
| 92>    H        7.07851        -9.40220        -8.73436
| 93>    H        6.68231        -8.63137       -10.27515
| 94>    H        5.57586        -8.49084        -8.90722
| 95>    H        9.27037        -8.85803        -7.70574
| 96>    H        9.58764        -8.90385        -4.65237
| 97>    H       10.77810        -9.77969        -3.07457
| 98>    H       14.12831       -13.03986        -4.80925
| 99>    H       14.30657       -13.49592       -11.67820
|100>    H       14.75160       -15.56247        -8.39295
|101>    H       13.67148       -14.43977        -6.32271
|102> *
|103>
|104>                          ****END OF INPUT****

CARTESIAN COORDINATES (ANGSTROEM)
---------------------------------
  C      1.652530    2.151030   -6.638720
  S      3.013740    2.257090   -5.610440
  C      3.500990    0.648150   -6.036140
  C      4.722530    0.086300   -5.524650
  O      5.173020   -0.998760   -5.815170
  C      2.619800    0.079050   -6.948470
  C      1.569120    0.958160   -7.288550
  C      2.790780   -1.260710   -7.469040
  C      3.026110   -1.625710   -8.771190
  N      3.116090   -0.775160   -9.889790
  O      3.318610   -1.293460  -10.972910
  O      2.985150    0.425790   -9.717030
  C      3.259350   -3.055030   -8.833560
  C      3.222820   -3.549300   -7.575340
  C      2.922360   -2.479140   -6.660700
  C      2.672970   -2.539660   -5.303740
  C      1.820420   -1.645160   -4.590440
  C      1.696700   -2.083980   -3.307280
  C      2.529810   -3.229380   -3.117500
  N      2.510030   -3.899100   -1.884820
  O      3.007240   -5.014290   -1.790090
  O      1.957210   -3.335600   -0.954140
  C      3.185300   -3.526030   -4.328650
  C      4.278810   -4.352270   -4.629350
  C      5.057490   -5.021060   -3.713670
  C      6.109430   -5.876680   -4.059440
  N      6.907660   -6.497450   -3.122010
  C      6.805030   -6.373770   -1.684360
  C      5.647120   -7.187410   -1.112720
  C      7.857770   -7.331950   -3.706410
  O      8.678820   -7.981180   -3.082350
  C      7.620680   -7.210190   -5.132970
  C      6.556850   -6.315000   -5.321980
  C      6.306680   -6.215700   -6.747480
  O      5.486950   -5.595390   -7.389620
  N      7.270120   -7.057450   -7.331390
  C      7.329370   -7.246470   -8.761150
  C      6.623330   -8.528350   -9.195440
  C      8.054700   -7.674320   -6.389810
  C      9.070290   -8.600250   -6.674780
  C      9.798510   -9.188990   -5.674610
  C     10.794320  -10.151840   -5.852890
  S     11.243500  -10.788090   -7.406830
  C     12.405620  -11.878280   -6.736170
  C     12.484620  -11.731840   -5.338610
  C     11.559270  -10.763850   -4.836360
  C     11.485710  -10.497270   -3.461080
  C     12.333560  -11.158720   -2.600850
  C     12.276920  -10.912290   -1.208660
  N     12.229030  -10.713480   -0.081760
  C     13.295490  -12.085070   -3.103390
  C     14.186420  -12.721940   -2.206790
  N     14.915060  -13.254940   -1.501960
  C     13.371100  -12.362930   -4.448880
  C     13.100100  -12.772100   -7.593320
  S     13.242900  -12.411640   -9.290820
  C     14.101670  -13.887050   -9.576520
  C     14.559750  -14.243920  -10.902570
  O     15.161530  -15.255190  -11.166350
  C     14.252000  -14.610630   -8.410610
  C     13.692020  -13.990850   -7.298240
  H      0.982290    2.984520   -6.716560
  H      5.248020    0.754270   -4.815590
  H      0.787170    0.707330   -7.981390
  H      3.431130   -3.586810   -9.749140
  H      3.312970   -4.582790   -7.310520
  H      1.272470   -0.836580   -5.032920
  H      1.074730   -1.673680   -2.533840
  H      4.565830   -4.409260   -5.668970
  H      4.855730   -4.910200   -2.661480
  H      6.707530   -5.318520   -1.417190
  H      7.751180   -6.751140   -1.285930
  H      4.685500   -6.802870   -1.442640
  H      5.679990   -7.142620   -0.027930
  H      5.735250   -8.227320   -1.418270
  H      8.374140   -7.247720   -9.083060
  H      6.824900   -6.383030   -9.203270
  H      7.078510   -9.402200   -8.734360
  H      6.682310   -8.631370  -10.275150
  H      5.575860   -8.490840   -8.907220
  H      9.270370   -8.858030   -7.705740
  H      9.587640   -8.903850   -4.652370
  H     10.778100   -9.779690   -3.074570
  H     14.128310  -13.039860   -4.809250
  H     14.306570  -13.495920  -11.678200
  H     14.751600  -15.562470   -8.392950
  H     13.671480  -14.439770   -6.322710

 Total Charge           Charge          ....    0
 Multiplicity           Mult            ....    1
 Number of Electrons    NEL             ....  444
 Basis Dimension        Dim             ....  996

ORBITAL ENERGIES
----------------

  NO   OCC          E(Eh)            E(eV)
   0   2.0000     -89.006756     -2421.9970
   1   2.0000     -88.992238     -2421.6019
   2   2.0000     -88.977133     -2421.1909
   3   2.0000     -19.238717      -523.5121
   4   2.0000     -19.235867      -523.4346
   5   2.0000     -19.234271      -523.3911
   6   2.0000     -19.233345      -523.3659
   7   2.0000     -19.223787      -523.1058
   8   2.0000     -19.218874      -522.9721
   9   2.0000     -19.211583      -522.7738
  10   2.0000     -19.203472      -522.5530
  11   2.0000     -14.645864      -398.5342
  12   2.0000     -14.643472      -398.4691
  13   2.0000     -14.470448      -393.7609
  14   2.0000     -14.462639      -393.5484
  15   2.0000     -14.417965      -392.3328
  16   2.0000     -14.415374      -392.2623
  17   2.0000     -10.392426      -282.7923
  18   2.0000     -10.385809      -282.6122
  19   2.0000     -10.373972      -282.2901
  20   2.0000     -10.368283      -282.1353
  21   2.0000     -10.358012      -281.8558
  22   2.0000     -10.355923      -281.7990
  23   2.0000     -10.348946      -281.6091
  24   2.0000     -10.345800      -281.5235
  25   2.0000     -10.344009      -281.4748
  26   2.0000     -10.342774      -281.4412
  27   2.0000     -10.341312      -281.4014
  28   2.0000     -10.328791      -281.0607
  29   2.0000     -10.327776      -281.0331
  30   2.0000     -10.327117      -281.0151
  31   2.0000     -10.326148      -280.9888
  32   2.0000     -10.323649      -280.9208
  33   2.0000     -10.323204      -280.9087
  34   2.0000     -10.322561      -280.8912
  35   2.0000     -10.321880      -280.8726
  36   2.0000     -10.320979      -280.8481
  37   2.0000     -10.319907      -280.8189
  38   2.0000     -10.318936      -280.7925
  39   2.0000     -10.316949      -280.7384
  40   2.0000     -10.316790      -280.7341
  41   2.0000     -10.316502      -280.7263
  42   2.0000     -10.315977      -280.7120
  43   2.0000     -10.313081      -280.6332
  44   2.0000     -10.311383      -280.5870
  45   2.0000     -10.311153      -280.5808
  46   2.0000     -10.310380      -280.5597
  47   2.0000     -10.309524      -280.5364
  48   2.0000     -10.308827      -280.5174
  49   2.0000     -10.308313      -280.5034
  50   2.0000     -10.299241      -280.2566
  51   2.0000     -10.298708      -280.2421
  52   2.0000     -10.292816      -280.0818
  53   2.0000     -10.292053      -280.0610
  54   2.0000     -10.289726      -279.9977
  55   2.0000     -10.281769      -279.7811
  56   2.0000     -10.279358      -279.7156
  57   2.0000     -10.277836      -279.6741
  58   2.0000     -10.277815      -279.6736
  59   2.0000     -10.276675      -279.6425
  60   2.0000     -10.256597      -279.0962
  61   2.0000      -8.101768      -220.4603
  62   2.0000      -8.088133      -220.0893
  63   2.0000      -8.073033      -219.6784
  64   2.0000      -6.070636      -165.1904
  65   2.0000      -6.066618      -165.0811
  66   2.0000      -6.064679      -165.0283
  67   2.0000      -6.057272      -164.8268
  68   2.0000      -6.053159      -164.7148
  69   2.0000      -6.050456      -164.6413
  70   2.0000      -6.042121      -164.4145
  71   2.0000      -6.037901      -164.2996
  72   2.0000      -6.035631      -164.2379
  73   2.0000      -1.316519       -35.8243
  74   2.0000      -1.312464       -35.7140
  75   2.0000      -1.151427       -31.3319
  76   2.0000      -1.140904       -31.0456
  77   2.0000      -1.137049       -30.9407
  78   2.0000      -1.133833       -30.8532
  79   2.0000      -1.131883       -30.8001
  80   2.0000      -1.128318       -30.7031
  81   2.0000      -1.080329       -29.3972
  82   2.0000      -1.068177       -29.0666
  83   2.0000      -1.043600       -28.3978
  84   2.0000      -1.017787       -27.6954
  85   2.0000      -1.015368       -27.6296
  86   2.0000      -1.007557       -27.4170
  87   2.0000      -1.000290       -27.2193
  88   2.0000      -0.996750       -27.1229
  89   2.0000      -0.988547       -26.8997
  90   2.0000      -0.973695       -26.4956
  91   2.0000      -0.944525       -25.7018
  92   2.0000      -0.936633       -25.4871
  93   2.0000      -0.914819       -24.8935
  94   2.0000      -0.907183       -24.6857
  95   2.0000      -0.906541       -24.6682
  96   2.0000      -0.891594       -24.2615
  97   2.0000      -0.882433       -24.0122
  98   2.0000      -0.880585       -23.9619
  99   2.0000      -0.877798       -23.8861
 100   2.0000      -0.873124       -23.7589
 101   2.0000      -0.865996       -23.5649
 102   2.0000      -0.854163       -23.2430
 103   2.0000      -0.848070       -23.0772
 104   2.0000      -0.841735       -22.9048
 105   2.0000      -0.829198       -22.5636
 106   2.0000      -0.816771       -22.2255
 107   2.0000      -0.801332       -21.8053
 108   2.0000      -0.785303       -21.3692
 109   2.0000      -0.774964       -21.0878
 110   2.0000      -0.768888       -20.9225
 111   2.0000      -0.764655       -20.8073
 112   2.0000      -0.761563       -20.7232
 113   2.0000      -0.742387       -20.2014
 114   2.0000      -0.733286       -19.9537
 115   2.0000      -0.729070       -19.8390
 116   2.0000      -0.723675       -19.6922
 117   2.0000      -0.717832       -19.5332
 118   2.0000      -0.712904       -19.3991
 119   2.0000      -0.689367       -18.7586
 120   2.0000      -0.687337       -18.7034
 121   2.0000      -0.676417       -18.4062
 122   2.0000      -0.670375       -18.2418
 123   2.0000      -0.666741       -18.1429
 124   2.0000      -0.660620       -17.9764
 125   2.0000      -0.660462       -17.9721
 126   2.0000      -0.655745       -17.8437
 127   2.0000      -0.649377       -17.6704
 128   2.0000      -0.638148       -17.3649
 129   2.0000      -0.631725       -17.1901
 130   2.0000      -0.626644       -17.0519
 131   2.0000      -0.626528       -17.0487
 132   2.0000      -0.623947       -16.9785
 133   2.0000      -0.617828       -16.8120
 134   2.0000      -0.617408       -16.8005
 135   2.0000      -0.609893       -16.5960
 136   2.0000      -0.605737       -16.4829
 137   2.0000      -0.601772       -16.3751
 138   2.0000      -0.598642       -16.2899
 139   2.0000      -0.594162       -16.1680
 140   2.0000      -0.589723       -16.0472
 141   2.0000      -0.587257       -15.9801
 142   2.0000      -0.585341       -15.9279
 143   2.0000      -0.575205       -15.6521
 144   2.0000      -0.565143       -15.3783
 145   2.0000      -0.562440       -15.3048
 146   2.0000      -0.561833       -15.2882
 147   2.0000      -0.559679       -15.2297
 148   2.0000      -0.555285       -15.1101
 149   2.0000      -0.549840       -14.9619
 150   2.0000      -0.547158       -14.8889
 151   2.0000      -0.546505       -14.8712
 152   2.0000      -0.542783       -14.7699
 153   2.0000      -0.541990       -14.7483
 154   2.0000      -0.536435       -14.5971
 155   2.0000      -0.531386       -14.4598
 156   2.0000      -0.528559       -14.3828
 157   2.0000      -0.526669       -14.3314
 158   2.0000      -0.524508       -14.2726
 159   2.0000      -0.521682       -14.1957
 160   2.0000      -0.520431       -14.1617
 161   2.0000      -0.519150       -14.1268
 162   2.0000      -0.514430       -13.9984
 163   2.0000      -0.511361       -13.9148
 164   2.0000      -0.509433       -13.8624
 165   2.0000      -0.504403       -13.7255
 166   2.0000      -0.501564       -13.6483
 167   2.0000      -0.498795       -13.5729
 168   2.0000      -0.496379       -13.5072
 169   2.0000      -0.494269       -13.4497
 170   2.0000      -0.487421       -13.2634
 171   2.0000      -0.486449       -13.2370
 172   2.0000      -0.483911       -13.1679
 173   2.0000      -0.482970       -13.1423
 174   2.0000      -0.475529       -12.9398
 175   2.0000      -0.474646       -12.9158
 176   2.0000      -0.473086       -12.8733
 177   2.0000      -0.470385       -12.7998
 178   2.0000      -0.470129       -12.7929
 179   2.0000      -0.468412       -12.7461
 180   2.0000      -0.463905       -12.6235
 181   2.0000      -0.461112       -12.5475
 182   2.0000      -0.460022       -12.5178
 183   2.0000      -0.454942       -12.3796
 184   2.0000      -0.452386       -12.3100
 185   2.0000      -0.450883       -12.2691
 186   2.0000      -0.448469       -12.2035
 187   2.0000      -0.446242       -12.1429
 188   2.0000      -0.443134       -12.0583
 189   2.0000      -0.441621       -12.0171
 190   2.0000      -0.440783       -11.9943
 191   2.0000      -0.440260       -11.9801
 192   2.0000      -0.439732       -11.9657
 193   2.0000      -0.435881       -11.8609
 194   2.0000      -0.424077       -11.5397
 195   2.0000      -0.423473       -11.5233
 196   2.0000      -0.420065       -11.4306
 197   2.0000      -0.417472       -11.3600
 198   2.0000      -0.413202       -11.2438
 199   2.0000      -0.387260       -10.5379
 200   2.0000      -0.386521       -10.5178
 201   2.0000      -0.377758       -10.2793
 202   2.0000      -0.376782       -10.2528
 203   2.0000      -0.373233       -10.1562
 204   2.0000      -0.367334        -9.9957
 205   2.0000      -0.365645        -9.9497
 206   2.0000      -0.363633        -9.8950
 207   2.0000      -0.358391        -9.7523
 208   2.0000      -0.357484        -9.7276
 209   2.0000      -0.348168        -9.4741
 210   2.0000      -0.347790        -9.4638
 211   2.0000      -0.347335        -9.4515
 212   2.0000      -0.347120        -9.4456
 213   2.0000      -0.344530        -9.3751
 214   2.0000      -0.338237        -9.2039
 215   2.0000      -0.330173        -8.9845
 216   2.0000      -0.328750        -8.9457
 217   2.0000      -0.324654        -8.8343
 218   2.0000      -0.305213        -8.3053
 219   2.0000      -0.293774        -7.9940
 220   2.0000      -0.283636        -7.7181
 221   2.0000      -0.236532        -6.4364
 222   0.0000      -0.140429        -3.8213
 223   0.0000      -0.111037        -3.0215
 224   0.0000      -0.073588        -2.0024
 225   0.0000      -0.053640        -1.4596
 226   0.0000      -0.047586        -1.2949

MULLIKEN ATOMIC CHARGES
-----------------------
   0 C :   -0.063916
   1 S :    0.149141
   2 C :   -0.190692
   3 C :    0.197409
   4 O :   -0.191855
   5 C :   -0.020732
   6 C :    0.086875
   7 C :    0.030433
   8 C :    0.088259
   9 N :    0.266579
  10 O :   -0.243105
  11 O :   -0.245362
  12 C :    0.007519
  13 C :    0.036363
  14 C :    0.083290
  15 C :    0.007822
  16 C :    0.011735
  17 C :    0.021147
  18 C :    0.041016
  19 N :    0.278195
  20 O :   -0.270902
  21 O :   -0.249265
  22 C :    0.073866
  23 C :   -0.014727
  24 C :    0.019259
  25 C :    0.126273
  26 N :   -0.248956
  27 C :    0.094421
  28 C :   -0.003442
  29 C :    0.173622
  30 O :   -0.227524
  31 C :   -0.079676
  32 C :   -0.046399
  33 C :    0.162215
  34 O :   -0.194437
  35 N :   -0.254447
  36 C :    0.098767
  37 C :    0.000038
  38 C :    0.152251
  39 C :   -0.043862
  40 C :    0.006896
  41 C :   -0.082714
  42 S :    0.184905
  43 C :   -0.073356
  44 C :    0.132495
  45 C :    0.116406
  46 C :   -0.051205
  47 C :   -0.066400
  48 C :   -0.171774
  49 N :    0.182768
  50 C :   -0.065891
  51 C :   -0.179374
  52 N :    0.181028
  53 C :   -0.062895
  54 C :   -0.095710
  55 S :    0.153599
  56 C :   -0.145405
  57 C :    0.193147
  58 O :   -0.174786
  59 C :    0.054912
  60 C :    0.007710
  61 H :    0.042848
  62 H :   -0.016496
  63 H :   -0.006271
  64 H :   -0.003626
  65 H :   -0.001296
  66 H :   -0.009913
  67 H :    0.001297
  68 H :    0.009551
  69 H :   -0.010718
  70 H :    0.029545
  71 H :    0.042863
  72 H :    0.041871
  73 H :    0.028122
  74 H :    0.019056
  75 H :    0.025185
  76 H :    0.046997
  77 H :    0.015108
  78 H :    0.029227
  79 H :    0.032820
  80 H :   -0.024974
  81 H :    0.024783
  82 H :    0.024815
  83 H :   -0.004513
  84 H :   -0.019421
  85 H :    0.015488
  86 H :    0.006099
Sum of atomic charges:   -0.0000000

LOEWDIN ATOMIC CHARGES
----------------------
   0 C :   -0.158151
   1 S :    0.469643
   2 C :   -0.237384
   3 C :    0.090587
   4 O :   -0.142449
   5 C :   -0.024758
   6 C :   -0.039182
   7 C :    0.013961
   8 C :   -0.030941
   9 N :    0.283764
  10 O :   -0.207574
  11 O :   -0.209425
  12 C :    0.012257
  13 C :   -0.021854
  14 C :    0.049312
  15 C :    0.047119
  16 C :   -0.047700
  17 C :    0.015640
  18 C :   -0.061251
  19 N :    0.287796
  20 O :   -0.229150
  21 O :   -0.214371
  22 C :    0.012987
  23 C :    0.015803
  24 C :    0.002307
  25 C :    0.065688
  26 N :    0.009979
  27 C :    0.037847
  28 C :   -0.061511
  29 C :    0.079489
  30 O :   -0.213086
  31 C :   -0.117185
  32 C :   -0.096372
  33 C :    0.085572
  34 O :   -0.181597
  35 N :    0.001622
  36 C :    0.037774
  37 C :   -0.060892
  38 C :    0.080547
  39 C :   -0.057854
  40 C :    0.015654
  41 C :   -0.172450
  42 S :    0.497109
  43 C :   -0.172326
  44 C :   -0.041339
  45 C :   -0.026531
  46 C :    0.041013
  47 C :   -0.046496
  48 C :   -0.031422
  49 N :   -0.026049
  50 C :   -0.047353
  51 C :   -0.032926
  52 N :   -0.029260
  53 C :    0.028923
  54 C :   -0.177098
  55 S :    0.452149
  56 C :   -0.231828
  57 C :    0.085277
  58 O :   -0.131025
  59 C :   -0.002870
  60 C :   -0.049073
  61 H :    0.031107
  62 H :   -0.002373
  63 H :    0.035399
  64 H :    0.036789
  65 H :    0.029563
  66 H :    0.030226
  67 H :    0.037068
  68 H :    0.041270
  69 H :    0.028484
  70 H :    0.026391
  71 H :    0.037263
  72 H :    0.028140
  73 H :    0.034178
  74 H :    0.028342
  75 H :    0.024383
  76 H :    0.039329
  77 H :    0.021589
  78 H :    0.032787
  79 H :    0.033379
  80 H :    0.022674
  81 H :    0.043362
  82 H :    0.054025
  83 H :    0.042872
  84 H :   -0.006027
  85 H :    0.045107
  86 H :    0.035588

  Mayer bond orders larger than 0.100000
B(  0-C ,  1-S ) :   1.2004 B(  0-C ,  6-C ) :   1.5272 B(  0-C , 61-H ) :   0.9685
B(  1-S ,  2-C ) :   1.1109 B(  2-C ,  3-C ) :   1.0309 B(  2-C ,  5-C ) :   1.4895
B(  3-C ,  4-O ) :   2.1104 B(  3-C , 62-H ) :   0.9510 B(  5-C ,  6-C ) :   1.3124
B(  5-C ,  7-C ) :   0.9704 B(  6-C , 63-H ) :   0.9981 B(  7-C ,  8-C ) :   1.6454
B(  7-C , 14-C ) :   1.0704 B(  8-C ,  9-N ) :   0.9302 B(  8-C , 12-C ) :   1.0921
B(  9-N , 10-O ) :   1.5301 B(  9-N , 11-O ) :   1.5132 B( 10-O , 11-O ) :   0.2674
B( 12-C , 13-C ) :   1.6200 B( 12-C , 64-H ) :   1.0147 B( 13-C , 14-C ) :   1.0993
B( 13-C , 65-H ) :   0.9951 B( 14-C , 15-C ) :   1.4662 B( 15-C , 16-C ) :   1.1635
B( 15-C , 22-C ) :   1.0267 B( 16-C , 17-C ) :   1.5257 B( 16-C , 66-H ) :   1.0050
B( 17-C , 18-C ) :   1.1705 B( 17-C , 67-H ) :   1.0082 B( 18-C , 19-N ) :   0.9682
B( 18-C , 22-C ) :   1.3823 B( 19-N , 20-O ) :   1.4511 B( 19-N , 21-O ) :   1.5323
B( 20-O , 21-O ) :   0.2393 B( 22-C , 23-C ) :   1.2420 B( 23-C , 24-C ) :   1.4932
B( 23-C , 68-H ) :   0.9475 B( 24-C , 25-C ) :   1.2434 B( 24-C , 69-H ) :   0.9339
B( 25-C , 26-N ) :   1.1463 B( 25-C , 32-C ) :   1.2687 B( 26-N , 27-C ) :   0.9336
B( 26-N , 29-C ) :   1.1002 B( 27-C , 28-C ) :   1.1203 B( 27-C , 70-H ) :   0.9492
B( 27-C , 71-H ) :   0.9285 B( 28-C , 72-H ) :   0.9652 B( 28-C , 73-H ) :   0.9662
B( 28-C , 74-H ) :   0.9610 B( 29-C , 30-O ) :   1.9735 B( 29-C , 31-C ) :   0.9940
B( 30-O , 81-H ) :   0.1185 B( 31-C , 32-C ) :   1.3138 B( 31-C , 38-C ) :   1.2725
B( 32-C , 33-C ) :   0.9828 B( 33-C , 34-O ) :   2.0418 B( 33-C , 35-N ) :   1.0540
B( 35-N , 36-C ) :   0.9429 B( 35-N , 38-C ) :   1.1650 B( 36-C , 37-C ) :   1.1196
B( 36-C , 75-H ) :   0.9502 B( 36-C , 76-H ) :   0.9297 B( 37-C , 77-H ) :   0.9686
B( 37-C , 78-H ) :   0.9683 B( 37-C , 79-H ) :   0.9641 B( 38-C , 39-C ) :   1.2169
B( 39-C , 40-C ) :   1.5038 B( 39-C , 80-H ) :   0.9667 B( 40-C , 41-C ) :   1.2430
B( 40-C , 81-H ) :   0.9379 B( 41-C , 42-S ) :   1.1165 B( 41-C , 43-C ) :   0.1076
B( 41-C , 45-C ) :   1.2780 B( 42-S , 43-C ) :   1.1837 B( 43-C , 44-C ) :   1.3432
B( 43-C , 54-C ) :   1.1298 B( 44-C , 45-C ) :   1.2069 B( 44-C , 53-C ) :   1.1891
B( 45-C , 46-C ) :   1.2194 B( 46-C , 47-C ) :   1.5403 B( 46-C , 82-H ) :   0.9945
B( 47-C , 48-C ) :   1.0852 B( 47-C , 50-C ) :   1.2448 B( 48-C , 49-N ) :   3.0417
B( 50-C , 51-C ) :   1.0782 B( 50-C , 53-C ) :   1.5621 B( 51-C , 52-N ) :   3.0483
B( 53-C , 83-H ) :   0.9965 B( 54-C , 55-S ) :   1.1554 B( 54-C , 56-C ) :   0.1036
B( 54-C , 60-C ) :   1.4556 B( 55-S , 56-C ) :   1.1060 B( 56-C , 57-C ) :   0.9969
B( 56-C , 59-C ) :   1.4855 B( 57-C , 58-O ) :   2.1868 B( 57-C , 84-H ) :   0.9563
B( 59-C , 60-C ) :   1.2936 B( 59-C , 85-H ) :   1.0010 B( 60-C , 86-H ) :   0.9987

-----------------------------------------------------------------------------
         ABSORPTION SPECTRUM VIA TRANSITION ELECTRIC DIPOLE MOMENTS
-----------------------------------------------------------------------------
State   Energy  Wavelength   fosc         T2         TX        TY        TZ
        (cm-1)    (nm)                  (au**2)     (au)      (au)      (au)
-----------------------------------------------------------------------------
   0    6016.1   1662.2   0.371869992  20.34932  -3.15708   3.20454   0.33633
   1   13134.2    761.4   0.386174610   9.67958   2.09878  -1.89103  -1.30334
   2   14561.5    686.7   0.022821361   0.51595   0.42806   0.21385  -0.53571
   3   16993.2    588.5   0.078992290   1.53033  -0.78713   0.89744   0.32461
   4   19023.0    525.7   0.269298921   4.66048  -1.61069   1.41266   0.26562
   5   20294.8    492.7   0.023465255   0.38064   0.27969  -0.48900  -0.25157
   6   21244.1    470.7   0.052639032   0.81573  -0.05536   0.48808  -0.75792
   7   22988.9    435.0   0.029213189   0.41835  -0.35648  -0.22373   0.49113
   8   23348.2    428.3   0.002962817   0.04178   0.02488  -0.12680  -0.15837
   9   24191.3    413.4   0.080319600   1.09305   0.01389   0.10824  -1.03978
  10   24263.5    412.1   0.033253224   0.45119  -0.14835  -0.62002   0.21155
  11   25009.4    399.9   0.011925674   0.15698  -0.29796  -0.12913   0.22700
  12   25269.0    395.7   0.022758207   0.29650   0.10309   0.05403  -0.53193
  13   25528.9    391.7   0.039737237   0.51244  -0.26586   0.45662  -0.48297
  14   26028.0    384.2   0.064541235   0.81634  -0.69233   0.55910   0.15631
  15   26591.1    376.1   0.067102802   0.83077   0.43247  -0.17195   0.78369
  16   27170.0    368.1   0.166676452   2.01958   0.42117  -0.37250  -1.30516
  17   28101.1    355.9   0.174719963   2.04689   0.15745  -0.85043   1.13968
  18   28578.4    349.9   0.173465433   1.99826  -0.75683   0.29376   1.15723
  19   28678.5    348.7   0.005984405   0.06870  -0.09948   0.05837   0.23536
  20   28772.2    347.6   0.080230078   0.91799  -0.27252  -0.00372   0.91854
  21   29727.5    336.4   0.000529737   0.00587   0.03756  -0.02914  -0.06006
  22   30415.4    328.8   0.000746895   0.00808  -0.01940  -0.08568   0.01914
  23   30727.9    325.4   0.038568785   0.41322   0.31716  -0.27607  -0.48622
  24   30860.8    324.0   0.118797148   1.26728   0.05467   0.21302  -1.10405
  25   31185.6    320.7   0.051501023   0.54367  -0.00862  -0.11836  -0.72773
  26   31696.3    315.5   0.358754224   3.72619  -0.66857   0.11868  -1.80696
  27   32004.0    312.5   0.043654145   0.44905   0.17035  -0.20891   0.61350
  28   32474.3    307.9   0.077223804   0.78286  -0.16152   0.17421   0.85231
  29   32520.5    307.5   0.008487958   0.08593   0.08866  -0.22078   0.17124
  30   32643.2    306.3   0.050395289   0.50825   0.28489   0.00241   0.65351
  31   32907.0    303.9   0.101519175   1.01563  -0.04665   0.00540   1.00669
  32   33034.6    302.7   0.110049529   1.09672   0.72293  -0.40060   0.64313
  33   33497.5    298.5   0.029949469   0.29434  -0.35837   0.36893   0.17262
  34   33623.2    297.4   0.035238349   0.34503   0.47485  -0.33497  -0.08569
  35   34489.2    289.9   0.129805496   1.23904  -0.24638   0.14652   1.07558
  36   34644.3    288.6   0.069443299   0.65989   0.19403  -0.24906  -0.74848
  37   34736.6    287.9   0.135794111   1.28697  -0.58581   0.64673  -0.72494
  38   34987.8    285.8   0.035024709   0.32956  -0.18773   0.45388   0.29718
  39   35100.1    284.9   0.021696874   0.20350   0.40493  -0.16551   0.11019
  40   35548.3    281.3   0.005237362   0.04850   0.06028  -0.00229  -0.21181
  41   35747.0    279.7   0.130225485   1.19931  -0.20690   0.38786   1.00303
  42   35954.7    278.1   0.010520010   0.09632   0.14431  -0.11214  -0.25085
  43   35978.5    277.9   0.007947626   0.07272   0.24206   0.11021   0.04454
  44   36626.5    273.0   0.000521988   0.00469   0.05151  -0.04514   0.00054
  45   36960.7    270.6   0.015515250   0.13820   0.17026  -0.02425   0.32957
  46   37282.3    268.2   0.044409826   0.39215   0.31999  -0.41713  -0.34024
  47   37575.0    266.1   0.024174421   0.21180   0.30837   0.09496  -0.32816
  48   37721.6    265.1   0.056857014   0.49621   0.21791   0.11397   0.66011
  49   37906.1    263.8   0.158084104   1.37295   0.05526  -0.07148  -1.16824
  50   38051.8    262.8   0.066236578   0.57306   0.03147  -0.01600   0.75618
  51   38459.8    260.0   0.001929272   0.01651  -0.03474   0.01494   0.12282
  52   38516.5    259.6   0.022295259   0.19056   0.34081   0.02931  -0.27121
  53   38608.5    259.0   0.031110670   0.26528  -0.00775  -0.38024   0.34732
  54   38809.5    257.7   0.048091913   0.40795  -0.29602   0.12653  -0.55165
  55   39091.8    255.8   0.044359962   0.37358   0.45802   0.03071   0.40355
  56   39410.4    253.7   0.025879414   0.21618  -0.29911   0.08326  -0.34609
  57   39649.6    252.2   0.457087304   3.79521  -0.60893   1.02402  -1.54136
  58   40309.4    248.1   0.006982035   0.05702   0.14193   0.03718  -0.18841

FINAL SINGLE POINT ENERGY     -3813.302884986998

DIPOLE MOMENT
-------------
                                X             Y             Z
Electronic contribution:     15.06176       3.03949      -2.37805
Nuclear contribution   :    -16.22318      -2.21882      -0.01126
                        -----------------------------------------
Total Dipole Moment    :     -1.16142       0.82067      -2.38931
                        -----------------------------------------
Magnitude (a.u.)       :      2.78050
Magnitude (Debye)      :      7.06748

Rotational constants in cm-1:     0.002161     0.000443     0.000384
Rotational constants in MHz :    64.792712    13.267574    11.505576

                             ****ORCA TERMINATED NORMALLY****
TOTAL RUN TIME: 0 days 0 hours 9 minutes 55 seconds 939 msec
