                         Program Version 4.2.0 -  RELEASE  -
|  1> # ORCA input file
|  2> # SCF done       -178.274369781968          0.000564631223
|  3> ! CAM-B3LYP def2-SVP def2/J RIJCOSX Grid4 TightSCF
|  4> %maxcore 5000
|  5> %tddft
|  6>     Mode sTDDFT
|  7>     Ethresh 5.0
|  8>     maxcore 5000
|  9> end
| 10>
| 11> %pal
| 12>   nprocs 6
| 13>   end
| 14> * xyz 0 1
| 15>    C        3.93661         2.57505         0.94587
| 16>    C        3.49218         3.98584         1.13796
| 17>    O        4.02466         4.96788         0.66937
| 18>    C        2.27043         3.89859         1.95734
| 19>    C        2.06692         2.57432         2.34610
| 20>    C        3.17569         1.75537         1.86168
| 21>    C        3.55897         0.54988         2.38913
| 22>    C        4.78485        -0.07788         2.08850
| 23>    N        5.78655        -0.60729         1.90506
| 24>    C        2.82607        -0.15918         3.36266
| 25>    N        2.26381        -0.78915         4.14043
| 26>    C        0.94625         2.21815         3.10694
| 27>    C        0.05915         3.19787         3.47009
| 28>    C        0.24588         4.55039         3.11002
| 29>    C        1.37894         4.92332         2.32974
| 30>    C        1.56032         6.27456         1.97096
| 31>    C        0.65634         7.21913         2.37202
| 32>    C       -0.46144         6.85752         3.14108
| 33>    C       -0.66370         5.55372         3.50169
| 34>    C        4.84302         2.29794        -0.02970
| 35>    C        5.14989         1.06766        -0.65435
| 36>    C        4.40805        -0.09913        -0.72792
| 37>    C        5.03682        -1.06989        -1.49812
| 38>    C        6.27522        -0.66450        -2.02157
| 39>    S        6.64214         0.95243        -1.57794
| 40>    C        6.88757        -1.66839        -2.77622
| 41>    C        6.11189        -2.83330        -2.83062
| 42>    S        4.61768        -2.70004        -1.94409
| 43>    C        6.68798        -3.84973        -3.58918
| 44>    C        7.90724        -3.47373        -4.12028
| 45>    S        8.35279        -1.84233        -3.67030
| 46>    C        8.76480        -4.24749        -4.96925
| 47>    C        8.44998        -5.52500        -5.40833
| 48>    C        9.27539        -6.24594        -6.26606
| 49>    C       10.47997        -5.76169        -6.75433
| 50>    C       10.86634        -4.46241        -6.31032
| 51>    C       10.00387        -3.71494        -5.42550
| 52>    N       10.46717        -2.51987        -5.09278
| 53>   Se       12.01373        -2.25577        -5.86164
| 54>    N       11.98080        -3.82225        -6.63813
| 55>    C       11.27680        -6.51557        -7.67711
| 56>    C       12.48472        -6.16876        -8.24073
| 57>    C       12.94500        -7.13585        -9.13462
| 58>    C       12.09260        -8.23930        -9.26389
| 59>    S       10.70581        -8.07666        -8.25591
| 60>    C       12.56971        -9.17442       -10.18550
| 61>    C       13.78560        -8.77304       -10.76180
| 62>    S       14.35524        -7.24710       -10.14855
| 63>    C       14.26560        -9.65272       -11.72529
| 64>    C       13.43216       -10.74360       -11.89572
| 65>    S       12.04599       -10.68375       -10.81598
| 66>    C       13.58125       -11.86401       -12.74661
| 67>    C       14.32788       -11.99010       -13.87569
| 68>    C       14.66548       -13.35469       -14.37457
| 69>    O       14.15474       -14.39037       -14.00869
| 70>    C       15.75896       -13.15357       -15.34165
| 71>    C       15.97444       -11.78666       -15.52057
| 72>    C       14.99399       -11.03843       -14.73787
| 73>    C       14.60729        -9.74664       -14.98168
| 74>    C       13.47413        -9.14355       -14.39847
| 75>    N       12.53880        -8.61916       -13.98879
| 76>    C       15.23307        -8.89273       -15.91315
| 77>    N       15.71319        -8.14606       -16.64086
| 78>    C       16.98768       -11.32964       -16.37303
| 79>    C       17.75531       -12.25129       -17.03620
| 80>    C       17.55125       -13.64107       -16.89197
| 81>    C       16.52937       -14.11796       -16.01994
| 82>    C       16.33230       -15.50641       -15.87559
| 83>    C       17.11420       -16.38712       -16.57083
| 84>    C       18.12064       -15.92290       -17.43308
| 85>    C       18.33586       -14.58129       -17.59031
| 86>    H        0.77507         1.19286         3.39216
| 87>    H       -0.81388         2.93970         4.05184
| 88>    H        2.42227         6.54029         1.37978
| 89>    H        0.79674         8.25425         2.09883
| 90>    H       -1.16271         7.62001         3.44635
| 91>    H       -1.52259         5.27301         4.09392
| 92>    H        5.35494         3.16782        -0.43102
| 93>    H        3.43792        -0.22028        -0.28186
| 94>    H        6.23264        -4.81025        -3.73956
| 95>    H        7.52749        -5.98191        -5.08866
| 96>    H        8.95553        -7.23049        -6.57556
| 97>    H       12.99206        -5.25163        -8.01111
| 98>    H       15.19549        -9.52412       -12.24853
| 99>    H       13.07884       -12.77237       -12.42751
|100>    H       17.17057       -10.27483       -16.49852
|101>    H       18.54383       -11.91594       -17.69435
|102>    H       15.55627       -15.85131       -15.21072
|103>    H       16.96198       -17.45041       -16.46102
|104>    H       18.72576       -16.63638       -17.97266
|105>    H       19.10924       -14.22140       -18.25344
|106> *
|107>
|108>                          ****END OF INPUT****

CARTESIAN COORDINATES (ANGSTROEM)
---------------------------------
  C      3.936610    2.575050    0.945870
  C      3.492180    3.985840    1.137960
  O      4.024660    4.967880    0.669370
  C      2.270430    3.898590    1.957340
  C      2.066920    2.574320    2.346100
  C      3.175690    1.755370    1.861680
  C      3.558970    0.549880    2.389130
  C      4.784850   -0.077880    2.088500
  N      5.786550   -0.607290    1.905060
  C      2.826070   -0.159180    3.362660
  N      2.263810   -0.789150    4.140430
  C      0.946250    2.218150    3.106940
  C      0.059150    3.197870    3.470090
  C      0.245880    4.550390    3.110020
  C      1.378940    4.923320    2.329740
  C      1.560320    6.274560    1.970960
  C      0.656340    7.219130    2.372020
  C     -0.461440    6.857520    3.141080
  C     -0.663700    5.553720    3.501690
  C      4.843020    2.297940   -0.029700
  C      5.149890    1.067660   -0.654350
  C      4.408050   -0.099130   -0.727920
  C      5.036820   -1.069890   -1.498120
  C      6.275220   -0.664500   -2.021570
  S      6.642140    0.952430   -1.577940
  C      6.887570   -1.668390   -2.776220
  C      6.111890   -2.833300   -2.830620
  S      4.617680   -2.700040   -1.944090
  C      6.687980   -3.849730   -3.589180
  C      7.907240   -3.473730   -4.120280
  S      8.352790   -1.842330   -3.670300
  C      8.764800   -4.247490   -4.969250
  C      8.449980   -5.525000   -5.408330
  C      9.275390   -6.245940   -6.266060
  C     10.479970   -5.761690   -6.754330
  C     10.866340   -4.462410   -6.310320
  C     10.003870   -3.714940   -5.425500
  N     10.467170   -2.519870   -5.092780
  Se    12.013730   -2.255770   -5.861640
  N     11.980800   -3.822250   -6.638130
  C     11.276800   -6.515570   -7.677110
  C     12.484720   -6.168760   -8.240730
  C     12.945000   -7.135850   -9.134620
  C     12.092600   -8.239300   -9.263890
  S     10.705810   -8.076660   -8.255910
  C     12.569710   -9.174420  -10.185500
  C     13.785600   -8.773040  -10.761800
  S     14.355240   -7.247100  -10.148550
  C     14.265600   -9.652720  -11.725290
  C     13.432160  -10.743600  -11.895720
  S     12.045990  -10.683750  -10.815980
  C     13.581250  -11.864010  -12.746610
  C     14.327880  -11.990100  -13.875690
  C     14.665480  -13.354690  -14.374570
  O     14.154740  -14.390370  -14.008690
  C     15.758960  -13.153570  -15.341650
  C     15.974440  -11.786660  -15.520570
  C     14.993990  -11.038430  -14.737870
  C     14.607290   -9.746640  -14.981680
  C     13.474130   -9.143550  -14.398470
  N     12.538800   -8.619160  -13.988790
  C     15.233070   -8.892730  -15.913150
  N     15.713190   -8.146060  -16.640860
  C     16.987680  -11.329640  -16.373030
  C     17.755310  -12.251290  -17.036200
  C     17.551250  -13.641070  -16.891970
  C     16.529370  -14.117960  -16.019940
  C     16.332300  -15.506410  -15.875590
  C     17.114200  -16.387120  -16.570830
  C     18.120640  -15.922900  -17.433080
  C     18.335860  -14.581290  -17.590310
  H      0.775070    1.192860    3.392160
  H     -0.813880    2.939700    4.051840
  H      2.422270    6.540290    1.379780
  H      0.796740    8.254250    2.098830
  H     -1.162710    7.620010    3.446350
  H     -1.522590    5.273010    4.093920
  H      5.354940    3.167820   -0.431020
  H      3.437920   -0.220280   -0.281860
  H      6.232640   -4.810250   -3.739560
  H      7.527490   -5.981910   -5.088660
  H      8.955530   -7.230490   -6.575560
  H     12.992060   -5.251630   -8.011110
  H     15.195490   -9.524120  -12.248530
  H     13.078840  -12.772370  -12.427510
  H     17.170570  -10.274830  -16.498520
  H     18.543830  -11.915940  -17.694350
  H     15.556270  -15.851310  -15.210720
  H     16.961980  -17.450410  -16.461020
  H     18.725760  -16.636380  -17.972660
  H     19.109240  -14.221400  -18.253440

 Total Charge           Charge          ....    0
 Multiplicity           Mult            ....    1
 Number of Electrons    NEL             ....  544
 Basis Dimension        Dim             .... 1136

ORBITAL ENERGIES
----------------

  NO   OCC          E(Eh)            E(eV)
   0   2.0000    -453.988337    -12353.6507
   1   2.0000     -88.969972     -2420.9960
   2   2.0000     -88.966907     -2420.9126
   3   2.0000     -88.965560     -2420.8760
   4   2.0000     -88.963042     -2420.8075
   5   2.0000     -88.960536     -2420.7393
   6   2.0000     -88.959799     -2420.7192
   7   2.0000     -58.202099     -1583.7596
   8   2.0000     -52.272826     -1422.4159
   9   2.0000     -52.270470     -1422.3518
  10   2.0000     -52.269935     -1422.3373
  11   2.0000     -19.215728      -522.8866
  12   2.0000     -19.213530      -522.8267
  13   2.0000     -14.444930      -393.0665
  14   2.0000     -14.444395      -393.0520
  15   2.0000     -14.413978      -392.2243
  16   2.0000     -14.412563      -392.1858
  17   2.0000     -14.412060      -392.1721
  18   2.0000     -14.410587      -392.1320
  19   2.0000     -10.366363      -282.0831
  20   2.0000     -10.364098      -282.0214
  21   2.0000     -10.342794      -281.4417
  22   2.0000     -10.340724      -281.3854
  23   2.0000     -10.340455      -281.3781
  24   2.0000     -10.338410      -281.3224
  25   2.0000     -10.333770      -281.1962
  26   2.0000     -10.332313      -281.1565
  27   2.0000     -10.319192      -280.7995
  28   2.0000     -10.317986      -280.7667
  29   2.0000     -10.316834      -280.7353
  30   2.0000     -10.316329      -280.7216
  31   2.0000     -10.316103      -280.7154
  32   2.0000     -10.315456      -280.6978
  33   2.0000     -10.315283      -280.6931
  34   2.0000     -10.314978      -280.6848
  35   2.0000     -10.314968      -280.6846
  36   2.0000     -10.313772      -280.6520
  37   2.0000     -10.313412      -280.6422
  38   2.0000     -10.312488      -280.6171
  39   2.0000     -10.311592      -280.5927
  40   2.0000     -10.310132      -280.5530
  41   2.0000     -10.308901      -280.5195
  42   2.0000     -10.307938      -280.4933
  43   2.0000     -10.307636      -280.4850
  44   2.0000     -10.307450      -280.4800
  45   2.0000     -10.307210      -280.4735
  46   2.0000     -10.306859      -280.4639
  47   2.0000     -10.305804      -280.4352
  48   2.0000     -10.302764      -280.3525
  49   2.0000     -10.300810      -280.2993
  50   2.0000     -10.298755      -280.2434
  51   2.0000     -10.296078      -280.1705
  52   2.0000     -10.295696      -280.1601
  53   2.0000     -10.295499      -280.1548
  54   2.0000     -10.294554      -280.1291
  55   2.0000     -10.294524      -280.1282
  56   2.0000     -10.294020      -280.1145
  57   2.0000     -10.293803      -280.1086
  58   2.0000     -10.293734      -280.1068
  59   2.0000     -10.292776      -280.0807
  60   2.0000     -10.292289      -280.0674
  61   2.0000     -10.291747      -280.0527
  62   2.0000     -10.291536      -280.0469
  63   2.0000     -10.290387      -280.0157
  64   2.0000     -10.288705      -279.9699
  65   2.0000     -10.288452      -279.9630
  66   2.0000     -10.282904      -279.8120
  67   2.0000     -10.282832      -279.8101
  68   2.0000     -10.282395      -279.7982
  69   2.0000     -10.281285      -279.7680
  70   2.0000     -10.280752      -279.7535
  71   2.0000     -10.280392      -279.7437
  72   2.0000     -10.278924      -279.7037
  73   2.0000     -10.276361      -279.6340
  74   2.0000     -10.274790      -279.5913
  75   2.0000      -8.065205      -219.4654
  76   2.0000      -8.062204      -219.3837
  77   2.0000      -8.060622      -219.3407
  78   2.0000      -8.058275      -219.2768
  79   2.0000      -8.055095      -219.1903
  80   2.0000      -8.054269      -219.1678
  81   2.0000      -7.977805      -217.0871
  82   2.0000      -6.034705      -164.2127
  83   2.0000      -6.031667      -164.1300
  84   2.0000      -6.030639      -164.1020
  85   2.0000      -6.030219      -164.0906
  86   2.0000      -6.028015      -164.0306
  87   2.0000      -6.027640      -164.0204
  88   2.0000      -6.026853      -163.9990
  89   2.0000      -6.026138      -163.9795
  90   2.0000      -6.024854      -163.9446
  91   2.0000      -6.024156      -163.9256
  92   2.0000      -6.024023      -163.9220
  93   2.0000      -6.023867      -163.9177
  94   2.0000      -6.022135      -163.8706
  95   2.0000      -6.021025      -163.8404
  96   2.0000      -6.019472      -163.7982
  97   2.0000      -6.019230      -163.7916
  98   2.0000      -6.015971      -163.7029
  99   2.0000      -6.015915      -163.7014
 100   2.0000      -5.928043      -161.3102
 101   2.0000      -5.921411      -161.1298
 102   2.0000      -5.917440      -161.0217
 103   2.0000      -2.282199       -62.1018
 104   2.0000      -2.281562       -62.0845
 105   2.0000      -2.276894       -61.9574
 106   2.0000      -2.271748       -61.8174
 107   2.0000      -2.271629       -61.8142
 108   2.0000      -1.130803       -30.7707
 109   2.0000      -1.128623       -30.7114
 110   2.0000      -1.100186       -29.9376
 111   2.0000      -1.026333       -27.9279
 112   2.0000      -1.023075       -27.8393
 113   2.0000      -1.017000       -27.6740
 114   2.0000      -1.014840       -27.6152
 115   2.0000      -0.997539       -27.1444
 116   2.0000      -0.995555       -27.0904
 117   2.0000      -0.993284       -27.0286
 118   2.0000      -0.991675       -26.9848
 119   2.0000      -0.989116       -26.9152
 120   2.0000      -0.987563       -26.8729
 121   2.0000      -0.974103       -26.5067
 122   2.0000      -0.967753       -26.3339
 123   2.0000      -0.965465       -26.2716
 124   2.0000      -0.962070       -26.1793
 125   2.0000      -0.934791       -25.4369
 126   2.0000      -0.928015       -25.2526
 127   2.0000      -0.919802       -25.0291
 128   2.0000      -0.917706       -24.9721
 129   2.0000      -0.901806       -24.5394
 130   2.0000      -0.899562       -24.4783
 131   2.0000      -0.886849       -24.1324
 132   2.0000      -0.884460       -24.0674
 133   2.0000      -0.881348       -23.9827
 134   2.0000      -0.865048       -23.5392
 135   2.0000      -0.859983       -23.4013
 136   2.0000      -0.857892       -23.3444
 137   2.0000      -0.852400       -23.1950
 138   2.0000      -0.845847       -23.0167
 139   2.0000      -0.841095       -22.8874
 140   2.0000      -0.838751       -22.8236
 141   2.0000      -0.836019       -22.7492
 142   2.0000      -0.832473       -22.6527
 143   2.0000      -0.804882       -21.9020
 144   2.0000      -0.797992       -21.7145
 145   2.0000      -0.796126       -21.6637
 146   2.0000      -0.784574       -21.3494
 147   2.0000      -0.775723       -21.1085
 148   2.0000      -0.770487       -20.9660
 149   2.0000      -0.765331       -20.8257
 150   2.0000      -0.750218       -20.4145
 151   2.0000      -0.743700       -20.2371
 152   2.0000      -0.723052       -19.6752
 153   2.0000      -0.712680       -19.3930
 154   2.0000      -0.711271       -19.3547
 155   2.0000      -0.710331       -19.3291
 156   2.0000      -0.706054       -19.2127
 157   2.0000      -0.704257       -19.1638
 158   2.0000      -0.698919       -19.0185
 159   2.0000      -0.685390       -18.6504
 160   2.0000      -0.675292       -18.3756
 161   2.0000      -0.672918       -18.3110
 162   2.0000      -0.663001       -18.0412
 163   2.0000      -0.658987       -17.9319
 164   2.0000      -0.653765       -17.7899
 165   2.0000      -0.647256       -17.6127
 166   2.0000      -0.641526       -17.4568
 167   2.0000      -0.637252       -17.3405
 168   2.0000      -0.634586       -17.2680
 169   2.0000      -0.628108       -17.0917
 170   2.0000      -0.627527       -17.0759
 171   2.0000      -0.623990       -16.9796
 172   2.0000      -0.608579       -16.5603
 173   2.0000      -0.598590       -16.2885
 174   2.0000      -0.594704       -16.1827
 175   2.0000      -0.593649       -16.1540
 176   2.0000      -0.587283       -15.9808
 177   2.0000      -0.586435       -15.9577
 178   2.0000      -0.585332       -15.9277
 179   2.0000      -0.582884       -15.8611
 180   2.0000      -0.578273       -15.7356
 181   2.0000      -0.571673       -15.5560
 182   2.0000      -0.569224       -15.4894
 183   2.0000      -0.562756       -15.3134
 184   2.0000      -0.560379       -15.2487
 185   2.0000      -0.553796       -15.0696
 186   2.0000      -0.546412       -14.8686
 187   2.0000      -0.544362       -14.8128
 188   2.0000      -0.543736       -14.7958
 189   2.0000      -0.535206       -14.5637
 190   2.0000      -0.534124       -14.5342
 191   2.0000      -0.532860       -14.4998
 192   2.0000      -0.529099       -14.3975
 193   2.0000      -0.525694       -14.3048
 194   2.0000      -0.523217       -14.2374
 195   2.0000      -0.522234       -14.2107
 196   2.0000      -0.519802       -14.1445
 197   2.0000      -0.518385       -14.1060
 198   2.0000      -0.511588       -13.9210
 199   2.0000      -0.509830       -13.8732
 200   2.0000      -0.506601       -13.7853
 201   2.0000      -0.504976       -13.7411
 202   2.0000      -0.504446       -13.7267
 203   2.0000      -0.502832       -13.6828
 204   2.0000      -0.498501       -13.5649
 205   2.0000      -0.496273       -13.5043
 206   2.0000      -0.492576       -13.4037
 207   2.0000      -0.491999       -13.3880
 208   2.0000      -0.488919       -13.3042
 209   2.0000      -0.484019       -13.1708
 210   2.0000      -0.482540       -13.1306
 211   2.0000      -0.480265       -13.0687
 212   2.0000      -0.478376       -13.0173
 213   2.0000      -0.475438       -12.9373
 214   2.0000      -0.474272       -12.9056
 215   2.0000      -0.473247       -12.8777
 216   2.0000      -0.471888       -12.8407
 217   2.0000      -0.471202       -12.8220
 218   2.0000      -0.467929       -12.7330
 219   2.0000      -0.464636       -12.6434
 220   2.0000      -0.459860       -12.5134
 221   2.0000      -0.455577       -12.3969
 222   2.0000      -0.452552       -12.3146
 223   2.0000      -0.449186       -12.2230
 224   2.0000      -0.447341       -12.1728
 225   2.0000      -0.445854       -12.1323
 226   2.0000      -0.445142       -12.1129
 227   2.0000      -0.441222       -12.0063
 228   2.0000      -0.439369       -11.9558
 229   2.0000      -0.437691       -11.9102
 230   2.0000      -0.436828       -11.8867
 231   2.0000      -0.434908       -11.8345
 232   2.0000      -0.432575       -11.7710
 233   2.0000      -0.432225       -11.7614
 234   2.0000      -0.430310       -11.7093
 235   2.0000      -0.428968       -11.6728
 236   2.0000      -0.427209       -11.6249
 237   2.0000      -0.426318       -11.6007
 238   2.0000      -0.424433       -11.5494
 239   2.0000      -0.423191       -11.5156
 240   2.0000      -0.419000       -11.4016
 241   2.0000      -0.417427       -11.3588
 242   2.0000      -0.416651       -11.3376
 243   2.0000      -0.414399       -11.2764
 244   2.0000      -0.411874       -11.2077
 245   2.0000      -0.408325       -11.1111
 246   2.0000      -0.402273       -10.9464
 247   2.0000      -0.399247       -10.8641
 248   2.0000      -0.394541       -10.7360
 249   2.0000      -0.391387       -10.6502
 250   2.0000      -0.385916       -10.5013
 251   2.0000      -0.376417       -10.2428
 252   2.0000      -0.374649       -10.1947
 253   2.0000      -0.365134        -9.9358
 254   2.0000      -0.360797        -9.8178
 255   2.0000      -0.357232        -9.7208
 256   2.0000      -0.349682        -9.5153
 257   2.0000      -0.339090        -9.2271
 258   2.0000      -0.337355        -9.1799
 259   2.0000      -0.335749        -9.1362
 260   2.0000      -0.333316        -9.0700
 261   2.0000      -0.332320        -9.0429
 262   2.0000      -0.328891        -8.9496
 263   2.0000      -0.316852        -8.6220
 264   2.0000      -0.312836        -8.5127
 265   2.0000      -0.299706        -8.1554
 266   2.0000      -0.292692        -7.9646
 267   2.0000      -0.290887        -7.9154
 268   2.0000      -0.288193        -7.8421
 269   2.0000      -0.285244        -7.7619
 270   2.0000      -0.265264        -7.2182
 271   2.0000      -0.238311        -6.4848
 272   0.0000      -0.098200        -2.6722
 273   0.0000      -0.084081        -2.2880
 274   0.0000      -0.077524        -2.1095
 275   0.0000      -0.067160        -1.8275
 276   0.0000      -0.063668        -1.7325

MULLIKEN ATOMIC CHARGES
-----------------------
   0 C :   -0.126680
   1 C :    0.114382
   2 O :   -0.152097
   3 C :    0.014271
   4 C :   -0.012659
   5 C :    0.258335
   6 C :   -0.336388
   7 C :   -0.207413
   8 N :    0.176760
   9 C :   -0.176492
  10 N :    0.155460
  11 C :   -0.022312
  12 C :    0.004214
  13 C :    0.080119
  14 C :    0.032811
  15 C :   -0.025411
  16 C :    0.039015
  17 C :    0.037136
  18 C :   -0.020684
  19 C :    0.080701
  20 C :   -0.114654
  21 C :    0.009535
  22 C :   -0.040116
  23 C :   -0.061296
  24 S :    0.170837
  25 C :   -0.060932
  26 C :   -0.014080
  27 S :    0.160369
  28 C :   -0.055297
  29 C :   -0.091291
  30 S :    0.184316
  31 C :    0.161389
  32 C :   -0.057054
  33 C :   -0.057313
  34 C :    0.154287
  35 C :    0.016874
  36 C :   -0.008522
  37 N :   -0.322625
  38 Se:    0.551533
  39 N :   -0.291126
  40 C :   -0.107734
  41 C :   -0.046018
  42 C :   -0.010895
  43 C :   -0.064087
  44 S :    0.124829
  45 C :   -0.056107
  46 C :   -0.042011
  47 S :    0.169398
  48 C :    0.011150
  49 C :   -0.119989
  50 S :    0.173206
  51 C :    0.082701
  52 C :   -0.126150
  53 C :    0.113533
  54 O :   -0.150476
  55 C :    0.013586
  56 C :   -0.013612
  57 C :    0.259168
  58 C :   -0.341512
  59 C :   -0.203754
  60 N :    0.179523
  61 C :   -0.176945
  62 N :    0.155873
  63 C :   -0.020536
  64 C :    0.005256
  65 C :    0.076930
  66 C :    0.035048
  67 C :   -0.024713
  68 C :    0.036524
  69 C :    0.038172
  70 C :   -0.020574
  71 H :   -0.000149
  72 H :   -0.013850
  73 H :   -0.000423
  74 H :   -0.007663
  75 H :   -0.007163
  76 H :   -0.022421
  77 H :    0.020795
  78 H :    0.000802
  79 H :   -0.018137
  80 H :   -0.020681
  81 H :   -0.004486
  82 H :   -0.002398
  83 H :    0.001779
  84 H :    0.022420
  85 H :    0.000396
  86 H :   -0.012694
  87 H :    0.000574
  88 H :   -0.006292
  89 H :   -0.006613
  90 H :   -0.021488
Sum of atomic charges:   -0.0000000

LOEWDIN ATOMIC CHARGES
----------------------
   0 C :   -0.095649
   1 C :    0.086856
   2 O :   -0.144715
   3 C :   -0.033320
   4 C :   -0.005131
   5 C :    0.066190
   6 C :   -0.140637
   7 C :   -0.020445
   8 N :   -0.038872
   9 C :   -0.021881
  10 N :   -0.052507
  11 C :   -0.018087
  12 C :    0.017422
  13 C :   -0.009786
  14 C :   -0.003038
  15 C :   -0.002306
  16 C :   -0.012979
  17 C :   -0.013722
  18 C :   -0.012843
  19 C :    0.043411
  20 C :   -0.179843
  21 C :   -0.024424
  22 C :   -0.189032
  23 C :   -0.195909
  24 S :    0.448942
  25 C :   -0.227000
  26 C :   -0.181252
  27 S :    0.405808
  28 C :   -0.064159
  29 C :   -0.151316
  30 S :    0.472074
  31 C :   -0.041297
  32 C :   -0.006312
  33 C :   -0.017906
  34 C :   -0.041778
  35 C :   -0.027540
  36 C :   -0.036582
  37 N :   -0.263060
  38 Se:    0.583831
  39 N :   -0.243566
  40 C :   -0.147501
  41 C :   -0.053603
  42 C :   -0.181913
  43 C :   -0.216343
  44 S :    0.424861
  45 C :   -0.197012
  46 C :   -0.188622
  47 S :    0.415681
  48 C :   -0.026422
  49 C :   -0.179346
  50 S :    0.448926
  51 C :    0.043945
  52 C :   -0.093185
  53 C :    0.086555
  54 O :   -0.143688
  55 C :   -0.033314
  56 C :   -0.005022
  57 C :    0.065883
  58 C :   -0.138985
  59 C :   -0.020007
  60 N :   -0.038919
  61 C :   -0.021759
  62 N :   -0.051352
  63 C :   -0.018201
  64 C :    0.018099
  65 C :   -0.009682
  66 C :   -0.003010
  67 C :   -0.002147
  68 C :   -0.012791
  69 C :   -0.012901
  70 C :   -0.012858
  71 H :    0.039072
  72 H :    0.035138
  73 H :    0.035312
  74 H :    0.032200
  75 H :    0.031707
  76 H :    0.029907
  77 H :    0.045112
  78 H :    0.037048
  79 H :    0.031263
  80 H :    0.033057
  81 H :    0.026287
  82 H :    0.033140
  83 H :    0.037221
  84 H :    0.045690
  85 H :    0.039219
  86 H :    0.035493
  87 H :    0.035497
  88 H :    0.032562
  89 H :    0.031876
  90 H :    0.030190

  Mayer bond orders larger than 0.100000
B(  0-C ,  1-C ) :   0.9632 B(  0-C ,  5-C ) :   1.0354 B(  0-C , 19-C ) :   1.6692
B(  1-C ,  2-O ) :   2.1913 B(  1-C ,  3-C ) :   0.9381 B(  3-C ,  4-C ) :   1.4194
B(  3-C , 14-C ) :   1.2359 B(  4-C ,  5-C ) :   0.9976 B(  4-C , 11-C ) :   1.2626
B(  5-C ,  6-C ) :   1.6455 B(  6-C ,  7-C ) :   1.1622 B(  6-C ,  9-C ) :   1.1259
B(  7-C ,  8-N ) :   3.0116 B(  9-C , 10-N ) :   2.9956 B( 11-C , 12-C ) :   1.4674
B( 11-C , 71-H ) :   0.9860 B( 12-C , 13-C ) :   1.2244 B( 12-C , 72-H ) :   0.9937
B( 13-C , 14-C ) :   1.2416 B( 13-C , 18-C ) :   1.2402 B( 14-C , 15-C ) :   1.2740
B( 15-C , 16-C ) :   1.4762 B( 15-C , 73-H ) :   0.9863 B( 16-C , 17-C ) :   1.2549
B( 16-C , 74-H ) :   0.9873 B( 17-C , 18-C ) :   1.4957 B( 17-C , 75-H ) :   0.9888
B( 18-C , 76-H ) :   0.9973 B( 19-C , 20-C ) :   1.1388 B( 19-C , 77-H ) :   0.9261
B( 20-C , 21-C ) :   1.4509 B( 20-C , 24-S ) :   1.0770 B( 21-C , 22-C ) :   1.3381
B( 21-C , 78-H ) :   0.9883 B( 22-C , 23-C ) :   1.4319 B( 22-C , 27-S ) :   1.0423
B( 23-C , 24-S ) :   1.0975 B( 23-C , 25-C ) :   1.3080 B( 25-C , 26-C ) :   1.4453
B( 25-C , 30-S ) :   1.0360 B( 26-C , 27-S ) :   1.0491 B( 26-C , 28-C ) :   1.2847
B( 28-C , 29-C ) :   1.4957 B( 28-C , 79-H ) :   0.9931 B( 29-C , 30-S ) :   1.1170
B( 29-C , 31-C ) :   1.1074 B( 31-C , 32-C ) :   1.4559 B( 31-C , 34-C ) :   0.1084
B( 31-C , 36-C ) :   1.1450 B( 32-C , 33-C ) :   1.2357 B( 32-C , 80-H ) :   0.9930
B( 33-C , 34-C ) :   1.4421 B( 33-C , 81-H ) :   0.9833 B( 34-C , 35-C ) :   1.1673
B( 34-C , 40-C ) :   1.1327 B( 35-C , 36-C ) :   1.1210 B( 35-C , 39-N ) :   1.5882
B( 36-C , 37-N ) :   1.5580 B( 37-N , 38-Se) :   1.2256 B( 37-N , 39-N ) :   0.1260
B( 38-Se, 39-N ) :   1.2325 B( 40-C , 41-C ) :   1.5380 B( 40-C , 44-S ) :   1.0837
B( 41-C , 42-C ) :   1.2274 B( 41-C , 82-H ) :   0.9861 B( 42-C , 43-C ) :   1.4558
B( 42-C , 47-S ) :   1.0556 B( 43-C , 44-S ) :   1.0685 B( 43-C , 45-C ) :   1.3079
B( 45-C , 46-C ) :   1.4321 B( 45-C , 50-S ) :   1.0942 B( 46-C , 47-S ) :   1.0477
B( 46-C , 48-C ) :   1.3316 B( 48-C , 49-C ) :   1.4619 B( 48-C , 83-H ) :   0.9901
B( 49-C , 50-S ) :   1.0778 B( 49-C , 51-C ) :   1.1263 B( 51-C , 52-C ) :   1.6796
B( 51-C , 84-H ) :   0.9271 B( 52-C , 53-C ) :   0.9604 B( 52-C , 57-C ) :   1.0322
B( 53-C , 54-O ) :   2.1947 B( 53-C , 55-C ) :   0.9385 B( 55-C , 56-C ) :   1.4197
B( 55-C , 66-C ) :   1.2367 B( 56-C , 57-C ) :   1.0007 B( 56-C , 63-C ) :   1.2620
B( 57-C , 58-C ) :   1.6463 B( 58-C , 59-C ) :   1.1636 B( 58-C , 61-C ) :   1.1267
B( 59-C , 60-N ) :   3.0126 B( 61-C , 62-N ) :   2.9949 B( 63-C , 64-C ) :   1.4673
B( 63-C , 85-H ) :   0.9861 B( 64-C , 65-C ) :   1.2261 B( 64-C , 86-H ) :   0.9938
B( 65-C , 66-C ) :   1.2418 B( 65-C , 70-C ) :   1.2386 B( 66-C , 67-C ) :   1.2758
B( 67-C , 68-C ) :   1.4747 B( 67-C , 87-H ) :   0.9866 B( 68-C , 69-C ) :   1.2550
B( 68-C , 88-H ) :   0.9876 B( 69-C , 70-C ) :   1.4977 B( 69-C , 89-H ) :   0.9889
B( 70-C , 90-H ) :   0.9974

-----------------------------------------------------------------------------
         ABSORPTION SPECTRUM VIA TRANSITION ELECTRIC DIPOLE MOMENTS
-----------------------------------------------------------------------------
State   Energy  Wavelength   fosc         T2         TX        TY        TZ
        (cm-1)    (nm)                  (au**2)     (au)      (au)      (au)
-----------------------------------------------------------------------------
   0   15472.9    646.3   2.123014691  45.17078  -3.33584   3.73318   4.48400
   1   19427.7    514.7   0.013834987   0.23444   0.30158  -0.07953   0.37036
   2   20265.4    493.5   0.154468356   2.50934   0.46953  -0.49135  -1.43089
   3   23342.9    428.4   0.008266001   0.11658   0.28069   0.06391   0.18359
   4   24058.6    415.7   0.724410649   9.91267   1.34940  -2.03617  -1.98641
   5   24363.5    410.5   0.005587152   0.07550  -0.17212   0.01537  -0.21362
   6   25313.6    395.0   0.046100404   0.59955  -0.57048  -0.49985   0.15574
   7   25889.9    386.3   0.060497938   0.76928  -0.71221  -0.19495   0.47333
   8   27619.3    362.1   0.318247779   3.79340   0.85173  -1.62847  -0.64501
   9   27792.1    359.8   0.087174955   1.03263   0.52424  -0.87011  -0.02685
  10   28176.5    354.9   0.037791950   0.44156  -0.01245  -0.34335   0.56878
  11   28295.2    353.4   0.043810550   0.50973  -0.30949   0.39483  -0.50799
  12   28756.3    347.8   0.010066572   0.11525  -0.28398   0.16253  -0.09047
  13   29465.1    339.4   0.010211119   0.11409   0.18142   0.05539   0.27947
  14   30287.4    330.2   0.077048096   0.83748  -0.42739  -0.72567   0.35807
  15   30600.0    326.8   0.034277004   0.36877  -0.16138   0.57896  -0.08683
  16   30640.1    326.4   0.099354305   1.06751   0.59285  -0.77886  -0.33077
  17   30690.7    325.8   0.001718054   0.01843   0.11981   0.06308  -0.00981
  18   31062.0    321.9   0.070201930   0.74404   0.26445   0.41993  -0.70552
  19   31495.6    317.5   0.218012148   2.27880  -0.75910   1.15724   0.60281
  20   31856.0    313.9   0.051158385   0.52869  -0.43867   0.56620   0.12518
  21   32273.1    309.9   0.000094013   0.00096  -0.00805   0.02511  -0.01624
  22   32742.6    305.4   0.193736895   1.94794   1.06746  -0.16563  -0.88376
  23   33011.7    302.9   0.350697613   3.49736  -0.71817   1.66945   0.44106
  24   33069.1    302.4   0.579718189   5.77125   1.43127  -1.87969  -0.43530
  25   33150.8    301.7   0.034022796   0.33787  -0.44751   0.36245  -0.07896
  26   33347.9    299.9   0.092432729   0.91250   0.33055   0.66606  -0.59967
  27   33709.4    296.7   0.004950172   0.04834  -0.11769  -0.01402  -0.18519
  28   34044.2    293.7   0.520806012   5.03627  -0.46867   2.15624   0.40894
  29   34535.9    289.6   0.063227932   0.60272   0.69897   0.32983   0.07325
  30   35075.3    285.1   0.047469803   0.44554   0.59466   0.23367  -0.19318
  31   35310.5    283.2   0.098930763   0.92237  -0.21497   0.93443  -0.05464
  32   35672.7    280.3   0.007202886   0.06647  -0.05368   0.22296  -0.11782
  33   35910.5    278.5   0.016011406   0.14679   0.15327  -0.29580  -0.18919
  34   36319.0    275.3   0.065640107   0.59499  -0.19810   0.74507  -0.02495
  35   36361.0    275.0   0.087942942   0.79623   0.66397  -0.59470  -0.04129
  36   36596.0    273.3   0.060970685   0.54848   0.39646  -0.34843  -0.51952
  37   36674.9    272.7   0.042627517   0.38265  -0.13442  -0.58604   0.14539
  38   36798.5    271.7   0.093967452   0.84066  -0.59092   0.20057   0.67175
  39   37024.1    270.1   0.022697509   0.20182   0.38655   0.22783   0.02231
  40   37050.9    269.9   0.004118556   0.03660  -0.15025  -0.11830  -0.00502
  41   37812.0    264.5   0.003614216   0.03147   0.01749   0.16475  -0.06339
  42   38087.0    262.6   0.003476662   0.03005  -0.06185  -0.00476   0.16187
  43   39136.8    255.5   0.018871644   0.15874  -0.07087   0.37301   0.12076
  44   39392.1    253.9   0.041126989   0.34371   0.37316  -0.44896  -0.05377
  45   39567.8    252.7   0.011138157   0.09267  -0.25132   0.12057  -0.12236
  46   39701.5    251.9   0.006458965   0.05356   0.03402   0.21798  -0.06989
  47   40203.4    248.7   0.042218824   0.34572  -0.31216   0.28188   0.41087

FINAL SINGLE POINT ENERGY     -7411.349901282907

DIPOLE MOMENT
-------------
                                X             Y             Z
Electronic contribution:     36.18955      29.12276      10.08386
Nuclear contribution   :    -35.76503     -29.35318     -10.65495
                        -----------------------------------------
Total Dipole Moment    :      0.42452      -0.23043      -0.57109
                        -----------------------------------------
Magnitude (a.u.)       :      0.74797
Magnitude (Debye)      :      1.90119

Rotational constants in cm-1:     0.003779     0.000148     0.000146
Rotational constants in MHz :   113.304230     4.449357     4.372417

                             ****ORCA TERMINATED NORMALLY****
TOTAL RUN TIME: 0 days 0 hours 10 minutes 22 seconds 823 msec
