                         Program Version 4.2.0 -  RELEASE  -
|  1> # ORCA input file
|  2> # SCF done       -163.546343226581          0.000684945113
|  3> ! CAM-B3LYP def2-SVP def2/J RIJCOSX Grid4 TightSCF
|  4> %maxcore 5000
|  5> %tddft
|  6>     Mode sTDDFT
|  7>     Ethresh 5.0
|  8>     maxcore 5000
|  9> end
| 10>
| 11> %pal
| 12>   nprocs 6
| 13>   end
| 14> * xyz 0 1
| 15>    C        0.50593         2.32846         1.43010
| 16>    C       -0.09851         1.40755         2.43664
| 17>    O       -0.17055         0.20230         2.34213
| 18>    C       -0.52380         2.27641         3.54821
| 19>    C       -0.32708         3.61208         3.19508
| 20>    C        0.15985         3.67896         1.82001
| 21>    C        0.04113         4.76309         0.99122
| 22>    C        0.27025         4.71843        -0.39955
| 23>    N        0.39936         4.73066        -1.53992
| 24>    C       -0.41848         6.03024         1.40652
| 25>    N       -0.77305         7.08459         1.68924
| 26>    C       -0.61603         4.64069         4.10094
| 27>    C       -1.10756         4.30978         5.33679
| 28>    C       -1.34010         2.96997         5.71766
| 29>    C       -1.04140         1.91442         4.80711
| 30>    C       -1.27285         0.57840         5.19297
| 31>    C       -1.78326         0.29968         6.43085
| 32>    C       -2.07982         1.33542         7.33161
| 33>    C       -1.86292         2.64069         6.98476
| 34>    C        1.28380         1.81774         0.44053
| 35>    C        2.21988         2.48817        -0.38416
| 36>    C        2.89760         3.67123        -0.15167
| 37>    C        3.75104         3.99342        -1.20166
| 38>    C        3.73609         3.06913        -2.25647
| 39>    S        2.68182         1.75357        -1.91199
| 40>    C        4.54616         3.42707        -3.33492
| 41>    C        5.19154         4.62368        -3.11430
| 42>    S        4.80545         5.31514        -1.54562
| 43>    C        6.05491         5.32377        -4.01494
| 44>    C        6.66380         6.53223        -3.68187
| 45>    N        7.41157         7.26877        -4.48482
| 46>    C        7.65467         6.89852        -5.73142
| 47>    C        7.13710         5.66203        -6.20782
| 48>    C        6.32659         4.86179        -5.32979
| 49>    N        5.92072         3.73944        -5.92246
| 50>    S        6.49965         3.69862        -7.42030
| 51>    N        7.29011         5.09645        -7.40247
| 52>    C        8.41400         7.79336        -6.54406
| 53>    C        8.71555         7.69474        -7.88650
| 54>    C        9.43539         8.80519        -8.32050
| 55>    C        9.69070         9.75090        -7.31350
| 56>    S        9.02296         9.25263        -5.80090
| 57>    C       10.38025        10.87431        -7.76294
| 58>    C       10.68903        10.79647        -9.10841
| 59>    S       10.07581         9.31574        -9.83661
| 60>    C       11.29426        11.82933        -9.86693
| 61>    C       11.80796        11.79420       -11.12233
| 62>    C       11.92579        13.05744       -11.90773
| 63>    O       11.88785        14.18163       -11.45939
| 64>    C       12.02759        12.62136       -13.31227
| 65>    C       12.13540        11.23046       -13.36301
| 66>    C       12.17489        10.70500       -12.00279
| 67>    C       12.73444         9.51764       -11.61524
| 68>    C       13.02443         9.21774       -10.26651
| 69>    N       13.32777         8.97351        -9.18699
| 70>    C       13.17923         8.52328       -12.50942
| 71>    N       13.54240         7.67688       -13.19434
| 72>    C       12.21710        10.56272       -14.59122
| 73>    C       12.19220        11.30338       -15.74417
| 74>    C       12.09712        12.71259       -15.72901
| 75>    C       12.01066        13.40243       -14.48441
| 76>    C       11.91255        14.80866       -14.47520
| 77>    C       11.90309        15.50448       -15.65265
| 78>    C       11.98940        14.83055       -16.88147
| 79>    C       12.08376        13.46643       -16.92020
| 80>    H       -0.44381         5.67209         3.83918
| 81>    H       -1.32996         5.09012         6.05025
| 82>    H       -1.04103        -0.20875         4.49292
| 83>    H       -1.96286        -0.72357         6.72499
| 84>    H       -2.48180         1.09218         8.30404
| 85>    H       -2.09088         3.43954         7.67568
| 86>    H        1.21425         0.74243         0.30767
| 87>    H        2.80030         4.24835         0.74984
| 88>    H        4.66133         2.86300        -4.24123
| 89>    H        6.52450         6.94418        -2.69069
| 90>    H        8.41876         6.86074        -8.49429
| 91>    H       10.66478        11.70538        -7.14433
| 92>    H       11.25138        12.81580        -9.41407
| 93>    H       12.28359         9.48733       -14.62966
| 94>    H       12.24673        10.80562       -16.70166
| 95>    H       11.84629        15.31540       -13.52535
| 96>    H       11.82846        16.58161       -15.64498
| 97>    H       11.98001        15.40002       -17.79907
| 98>    H       12.15073        12.94586       -17.86464
| 99> *
|100>
|101>                          ****END OF INPUT****

CARTESIAN COORDINATES (ANGSTROEM)
---------------------------------
  C      0.505930    2.328460    1.430100
  C     -0.098510    1.407550    2.436640
  O     -0.170550    0.202300    2.342130
  C     -0.523800    2.276410    3.548210
  C     -0.327080    3.612080    3.195080
  C      0.159850    3.678960    1.820010
  C      0.041130    4.763090    0.991220
  C      0.270250    4.718430   -0.399550
  N      0.399360    4.730660   -1.539920
  C     -0.418480    6.030240    1.406520
  N     -0.773050    7.084590    1.689240
  C     -0.616030    4.640690    4.100940
  C     -1.107560    4.309780    5.336790
  C     -1.340100    2.969970    5.717660
  C     -1.041400    1.914420    4.807110
  C     -1.272850    0.578400    5.192970
  C     -1.783260    0.299680    6.430850
  C     -2.079820    1.335420    7.331610
  C     -1.862920    2.640690    6.984760
  C      1.283800    1.817740    0.440530
  C      2.219880    2.488170   -0.384160
  C      2.897600    3.671230   -0.151670
  C      3.751040    3.993420   -1.201660
  C      3.736090    3.069130   -2.256470
  S      2.681820    1.753570   -1.911990
  C      4.546160    3.427070   -3.334920
  C      5.191540    4.623680   -3.114300
  S      4.805450    5.315140   -1.545620
  C      6.054910    5.323770   -4.014940
  C      6.663800    6.532230   -3.681870
  N      7.411570    7.268770   -4.484820
  C      7.654670    6.898520   -5.731420
  C      7.137100    5.662030   -6.207820
  C      6.326590    4.861790   -5.329790
  N      5.920720    3.739440   -5.922460
  S      6.499650    3.698620   -7.420300
  N      7.290110    5.096450   -7.402470
  C      8.414000    7.793360   -6.544060
  C      8.715550    7.694740   -7.886500
  C      9.435390    8.805190   -8.320500
  C      9.690700    9.750900   -7.313500
  S      9.022960    9.252630   -5.800900
  C     10.380250   10.874310   -7.762940
  C     10.689030   10.796470   -9.108410
  S     10.075810    9.315740   -9.836610
  C     11.294260   11.829330   -9.866930
  C     11.807960   11.794200  -11.122330
  C     11.925790   13.057440  -11.907730
  O     11.887850   14.181630  -11.459390
  C     12.027590   12.621360  -13.312270
  C     12.135400   11.230460  -13.363010
  C     12.174890   10.705000  -12.002790
  C     12.734440    9.517640  -11.615240
  C     13.024430    9.217740  -10.266510
  N     13.327770    8.973510   -9.186990
  C     13.179230    8.523280  -12.509420
  N     13.542400    7.676880  -13.194340
  C     12.217100   10.562720  -14.591220
  C     12.192200   11.303380  -15.744170
  C     12.097120   12.712590  -15.729010
  C     12.010660   13.402430  -14.484410
  C     11.912550   14.808660  -14.475200
  C     11.903090   15.504480  -15.652650
  C     11.989400   14.830550  -16.881470
  C     12.083760   13.466430  -16.920200
  H     -0.443810    5.672090    3.839180
  H     -1.329960    5.090120    6.050250
  H     -1.041030   -0.208750    4.492920
  H     -1.962860   -0.723570    6.724990
  H     -2.481800    1.092180    8.304040
  H     -2.090880    3.439540    7.675680
  H      1.214250    0.742430    0.307670
  H      2.800300    4.248350    0.749840
  H      4.661330    2.863000   -4.241230
  H      6.524500    6.944180   -2.690690
  H      8.418760    6.860740   -8.494290
  H     10.664780   11.705380   -7.144330
  H     11.251380   12.815800   -9.414070
  H     12.283590    9.487330  -14.629660
  H     12.246730   10.805620  -16.701660
  H     11.846290   15.315400  -13.525350
  H     11.828460   16.581610  -15.644980
  H     11.980010   15.400020  -17.799070
  H     12.150730   12.945860  -17.864640

 Total Charge           Charge          ....    0
 Multiplicity           Mult            ....    1
 Number of Electrons    NEL             ....  470
 Basis Dimension        Dim             .... 1025

ORBITAL ENERGIES
----------------

  NO   OCC          E(Eh)            E(eV)
   0   2.0000     -89.044156     -2423.0147
   1   2.0000     -88.966817     -2420.9102
   2   2.0000     -88.965968     -2420.8871
   3   2.0000     -88.964704     -2420.8527
   4   2.0000     -88.962860     -2420.8025
   5   2.0000     -19.217201      -522.9266
   6   2.0000     -19.216075      -522.8960
   7   2.0000     -14.461037      -393.5048
   8   2.0000     -14.455550      -393.3555
   9   2.0000     -14.424811      -392.5191
  10   2.0000     -14.415076      -392.2542
  11   2.0000     -14.414208      -392.2305
  12   2.0000     -14.413544      -392.2125
  13   2.0000     -14.409426      -392.1004
  14   2.0000     -10.367912      -282.1252
  15   2.0000     -10.367375      -282.1106
  16   2.0000     -10.344709      -281.4939
  17   2.0000     -10.344306      -281.4829
  18   2.0000     -10.343689      -281.4661
  19   2.0000     -10.343238      -281.4538
  20   2.0000     -10.342048      -281.4214
  21   2.0000     -10.340673      -281.3840
  22   2.0000     -10.339522      -281.3527
  23   2.0000     -10.323754      -280.9236
  24   2.0000     -10.320035      -280.8224
  25   2.0000     -10.318932      -280.7924
  26   2.0000     -10.318862      -280.7905
  27   2.0000     -10.317784      -280.7612
  28   2.0000     -10.317430      -280.7515
  29   2.0000     -10.317011      -280.7401
  30   2.0000     -10.316539      -280.7273
  31   2.0000     -10.314851      -280.6814
  32   2.0000     -10.314664      -280.6763
  33   2.0000     -10.311528      -280.5909
  34   2.0000     -10.311471      -280.5894
  35   2.0000     -10.310883      -280.5734
  36   2.0000     -10.310542      -280.5641
  37   2.0000     -10.309270      -280.5295
  38   2.0000     -10.308352      -280.5045
  39   2.0000     -10.308133      -280.4986
  40   2.0000     -10.307492      -280.4811
  41   2.0000     -10.301038      -280.3055
  42   2.0000     -10.300471      -280.2901
  43   2.0000     -10.296694      -280.1873
  44   2.0000     -10.296631      -280.1856
  45   2.0000     -10.295710      -280.1605
  46   2.0000     -10.295433      -280.1530
  47   2.0000     -10.295338      -280.1504
  48   2.0000     -10.295188      -280.1463
  49   2.0000     -10.295153      -280.1454
  50   2.0000     -10.294726      -280.1337
  51   2.0000     -10.294052      -280.1154
  52   2.0000     -10.293957      -280.1128
  53   2.0000     -10.291715      -280.0518
  54   2.0000     -10.291617      -280.0491
  55   2.0000     -10.290490      -280.0185
  56   2.0000     -10.286886      -279.9204
  57   2.0000     -10.283762      -279.8354
  58   2.0000     -10.283260      -279.8217
  59   2.0000     -10.282713      -279.8068
  60   2.0000     -10.282180      -279.7923
  61   2.0000     -10.281475      -279.7732
  62   2.0000     -10.280306      -279.7414
  63   2.0000     -10.277388      -279.6620
  64   2.0000     -10.276301      -279.6324
  65   2.0000      -8.135873      -221.3884
  66   2.0000      -8.062240      -219.3847
  67   2.0000      -8.060832      -219.3464
  68   2.0000      -8.060018      -219.3242
  69   2.0000      -8.057546      -219.2570
  70   2.0000      -6.107085      -166.1822
  71   2.0000      -6.099148      -165.9663
  72   2.0000      -6.098402      -165.9460
  73   2.0000      -6.031678      -164.1303
  74   2.0000      -6.030393      -164.0953
  75   2.0000      -6.029597      -164.0737
  76   2.0000      -6.027711      -164.0224
  77   2.0000      -6.027071      -164.0049
  78   2.0000      -6.026374      -163.9860
  79   2.0000      -6.025576      -163.9643
  80   2.0000      -6.023875      -163.9180
  81   2.0000      -6.022990      -163.8939
  82   2.0000      -6.022332      -163.8760
  83   2.0000      -6.021444      -163.8518
  84   2.0000      -6.019171      -163.7900
  85   2.0000      -1.144540       -31.1445
  86   2.0000      -1.132245       -30.8100
  87   2.0000      -1.131202       -30.7816
  88   2.0000      -1.061480       -28.8844
  89   2.0000      -1.021140       -27.7866
  90   2.0000      -1.019295       -27.7364
  91   2.0000      -1.015479       -27.6326
  92   2.0000      -1.012747       -27.5582
  93   2.0000      -0.998729       -27.1768
  94   2.0000      -0.998279       -27.1645
  95   2.0000      -0.997005       -27.1299
  96   2.0000      -0.992375       -27.0039
  97   2.0000      -0.989838       -26.9349
  98   2.0000      -0.969852       -26.3910
  99   2.0000      -0.968522       -26.3548
 100   2.0000      -0.959791       -26.1172
 101   2.0000      -0.954424       -25.9712
 102   2.0000      -0.923079       -25.1183
 103   2.0000      -0.920569       -25.0499
 104   2.0000      -0.915382       -24.9088
 105   2.0000      -0.903339       -24.5811
 106   2.0000      -0.902394       -24.5554
 107   2.0000      -0.893863       -24.3233
 108   2.0000      -0.885492       -24.0955
 109   2.0000      -0.878252       -23.8985
 110   2.0000      -0.867468       -23.6050
 111   2.0000      -0.866870       -23.5887
 112   2.0000      -0.857293       -23.3281
 113   2.0000      -0.854125       -23.2419
 114   2.0000      -0.841177       -22.8896
 115   2.0000      -0.837979       -22.8026
 116   2.0000      -0.822375       -22.3779
 117   2.0000      -0.809812       -22.0361
 118   2.0000      -0.808534       -22.0013
 119   2.0000      -0.799478       -21.7549
 120   2.0000      -0.787694       -21.4342
 121   2.0000      -0.773848       -21.0575
 122   2.0000      -0.770869       -20.9764
 123   2.0000      -0.758231       -20.6325
 124   2.0000      -0.755557       -20.5597
 125   2.0000      -0.734363       -19.9830
 126   2.0000      -0.725983       -19.7550
 127   2.0000      -0.713720       -19.4213
 128   2.0000      -0.712812       -19.3966
 129   2.0000      -0.710857       -19.3434
 130   2.0000      -0.705904       -19.2086
 131   2.0000      -0.699475       -19.0337
 132   2.0000      -0.683566       -18.6008
 133   2.0000      -0.676136       -18.3986
 134   2.0000      -0.674572       -18.3560
 135   2.0000      -0.666040       -18.1239
 136   2.0000      -0.659112       -17.9354
 137   2.0000      -0.654650       -17.8139
 138   2.0000      -0.652258       -17.7488
 139   2.0000      -0.642341       -17.4790
 140   2.0000      -0.633355       -17.2345
 141   2.0000      -0.628994       -17.1158
 142   2.0000      -0.628021       -17.0893
 143   2.0000      -0.620677       -16.8895
 144   2.0000      -0.612796       -16.6750
 145   2.0000      -0.602012       -16.3816
 146   2.0000      -0.599799       -16.3214
 147   2.0000      -0.593111       -16.1394
 148   2.0000      -0.588929       -16.0256
 149   2.0000      -0.588214       -16.0061
 150   2.0000      -0.587261       -15.9802
 151   2.0000      -0.581272       -15.8172
 152   2.0000      -0.579598       -15.7717
 153   2.0000      -0.571704       -15.5569
 154   2.0000      -0.570873       -15.5343
 155   2.0000      -0.569906       -15.5079
 156   2.0000      -0.562521       -15.3070
 157   2.0000      -0.561001       -15.2656
 158   2.0000      -0.544882       -14.8270
 159   2.0000      -0.538495       -14.6532
 160   2.0000      -0.537054       -14.6140
 161   2.0000      -0.535740       -14.5782
 162   2.0000      -0.529030       -14.3956
 163   2.0000      -0.526436       -14.3251
 164   2.0000      -0.524818       -14.2810
 165   2.0000      -0.521477       -14.1901
 166   2.0000      -0.517798       -14.0900
 167   2.0000      -0.516519       -14.0552
 168   2.0000      -0.514103       -13.9894
 169   2.0000      -0.512096       -13.9348
 170   2.0000      -0.511159       -13.9093
 171   2.0000      -0.506032       -13.7698
 172   2.0000      -0.504875       -13.7383
 173   2.0000      -0.500489       -13.6190
 174   2.0000      -0.499750       -13.5989
 175   2.0000      -0.497899       -13.5485
 176   2.0000      -0.496181       -13.5018
 177   2.0000      -0.491787       -13.3822
 178   2.0000      -0.491627       -13.3779
 179   2.0000      -0.488046       -13.2804
 180   2.0000      -0.485034       -13.1984
 181   2.0000      -0.480222       -13.0675
 182   2.0000      -0.479106       -13.0371
 183   2.0000      -0.477491       -12.9932
 184   2.0000      -0.475816       -12.9476
 185   2.0000      -0.471487       -12.8298
 186   2.0000      -0.471204       -12.8221
 187   2.0000      -0.467329       -12.7167
 188   2.0000      -0.463616       -12.6156
 189   2.0000      -0.459594       -12.5062
 190   2.0000      -0.450199       -12.2505
 191   2.0000      -0.448282       -12.1984
 192   2.0000      -0.446983       -12.1630
 193   2.0000      -0.444450       -12.0941
 194   2.0000      -0.441975       -12.0267
 195   2.0000      -0.440185       -11.9780
 196   2.0000      -0.438716       -11.9381
 197   2.0000      -0.437870       -11.9151
 198   2.0000      -0.435770       -11.8579
 199   2.0000      -0.433485       -11.7957
 200   2.0000      -0.431269       -11.7354
 201   2.0000      -0.430051       -11.7023
 202   2.0000      -0.428815       -11.6687
 203   2.0000      -0.426824       -11.6145
 204   2.0000      -0.426071       -11.5940
 205   2.0000      -0.425021       -11.5654
 206   2.0000      -0.421273       -11.4634
 207   2.0000      -0.418003       -11.3744
 208   2.0000      -0.417196       -11.3525
 209   2.0000      -0.415826       -11.3152
 210   2.0000      -0.409308       -11.1378
 211   2.0000      -0.405721       -11.0402
 212   2.0000      -0.404887       -11.0175
 213   2.0000      -0.394844       -10.7442
 214   2.0000      -0.389893       -10.6095
 215   2.0000      -0.386457       -10.5160
 216   2.0000      -0.376175       -10.2362
 217   2.0000      -0.373614       -10.1666
 218   2.0000      -0.370873       -10.0920
 219   2.0000      -0.367626       -10.0036
 220   2.0000      -0.362617        -9.8673
 221   2.0000      -0.359000        -9.7689
 222   2.0000      -0.350744        -9.5442
 223   2.0000      -0.349440        -9.5087
 224   2.0000      -0.336307        -9.1514
 225   2.0000      -0.333692        -9.0802
 226   2.0000      -0.325213        -8.8495
 227   2.0000      -0.316555        -8.6139
 228   2.0000      -0.310944        -8.4612
 229   2.0000      -0.300901        -8.1879
 230   2.0000      -0.298719        -8.1286
 231   2.0000      -0.294052        -8.0016
 232   2.0000      -0.292564        -7.9611
 233   2.0000      -0.279229        -7.5982
 234   2.0000      -0.250566        -6.8182
 235   0.0000      -0.104873        -2.8537
 236   0.0000      -0.084845        -2.3087
 237   0.0000      -0.077652        -2.1130
 238   0.0000      -0.067483        -1.8363
 239   0.0000      -0.063121        -1.7176

MULLIKEN ATOMIC CHARGES
-----------------------
   0 C :   -0.122723
   1 C :    0.117463
   2 O :   -0.151691
   3 C :    0.012842
   4 C :   -0.012839
   5 C :    0.256291
   6 C :   -0.338299
   7 C :   -0.201219
   8 N :    0.177543
   9 C :   -0.179424
  10 N :    0.161818
  11 C :   -0.024194
  12 C :    0.006681
  13 C :    0.080043
  14 C :    0.034445
  15 C :   -0.025611
  16 C :    0.035519
  17 C :    0.040532
  18 C :   -0.020674
  19 C :    0.084008
  20 C :   -0.130796
  21 C :    0.016386
  22 C :   -0.017335
  23 C :    0.011468
  24 S :    0.166396
  25 C :   -0.039609
  26 C :   -0.099424
  27 S :    0.127908
  28 C :    0.083350
  29 C :   -0.054931
  30 N :   -0.047163
  31 C :    0.037703
  32 C :   -0.000053
  33 C :    0.048848
  34 N :   -0.289655
  35 S :    0.540710
  36 N :   -0.267514
  37 C :   -0.121782
  38 C :   -0.033229
  39 C :   -0.005660
  40 C :    0.004077
  41 S :    0.194666
  42 C :    0.000890
  43 C :   -0.088534
  44 S :    0.153356
  45 C :    0.044976
  46 C :   -0.123695
  47 C :    0.122649
  48 O :   -0.150690
  49 C :    0.007805
  50 C :   -0.005688
  51 C :    0.239055
  52 C :   -0.310819
  53 C :   -0.206370
  54 N :    0.175455
  55 C :   -0.179086
  56 N :    0.157591
  57 C :   -0.021549
  58 C :    0.008393
  59 C :    0.076104
  60 C :    0.034979
  61 C :   -0.022602
  62 C :    0.033407
  63 C :    0.038478
  64 C :   -0.018495
  65 H :    0.001507
  66 H :   -0.012438
  67 H :    0.000682
  68 H :   -0.006543
  69 H :   -0.006980
  70 H :   -0.020850
  71 H :    0.023627
  72 H :    0.001654
  73 H :    0.002037
  74 H :    0.016160
  75 H :    0.001516
  76 H :   -0.000195
  77 H :    0.024042
  78 H :    0.002743
  79 H :   -0.013513
  80 H :   -0.000196
  81 H :   -0.004944
  82 H :   -0.007004
  83 H :   -0.021781
Sum of atomic charges:   -0.0000000

LOEWDIN ATOMIC CHARGES
----------------------
   0 C :   -0.089326
   1 C :    0.087136
   2 O :   -0.142831
   3 C :   -0.033252
   4 C :   -0.004888
   5 C :    0.065605
   6 C :   -0.137137
   7 C :   -0.019788
   8 N :   -0.038778
   9 C :   -0.022082
  10 N :   -0.049882
  11 C :   -0.018145
  12 C :    0.018730
  13 C :   -0.009494
  14 C :   -0.003000
  15 C :   -0.002152
  16 C :   -0.012236
  17 C :   -0.012476
  18 C :   -0.012542
  19 C :    0.044105
  20 C :   -0.176819
  21 C :   -0.030316
  22 C :   -0.193643
  23 C :   -0.183162
  24 S :    0.446854
  25 C :   -0.054207
  26 C :   -0.144287
  27 S :    0.425705
  28 C :   -0.066164
  29 C :    0.015823
  30 N :   -0.073495
  31 C :    0.001018
  32 C :   -0.058932
  33 C :   -0.028555
  34 N :   -0.281067
  35 S :    0.667101
  36 N :   -0.267730
  37 C :   -0.163144
  38 C :   -0.045405
  39 C :   -0.183973
  40 C :   -0.197220
  41 S :    0.463914
  42 C :   -0.023503
  43 C :   -0.167795
  44 S :    0.450190
  45 C :    0.045342
  46 C :   -0.091604
  47 C :    0.088134
  48 O :   -0.142995
  49 C :   -0.033486
  50 C :   -0.002977
  51 C :    0.060382
  52 C :   -0.136248
  53 C :   -0.037218
  54 N :   -0.043793
  55 C :   -0.020499
  56 N :   -0.048785
  57 C :   -0.017841
  58 C :    0.019116
  59 C :   -0.009926
  60 C :   -0.002918
  61 C :   -0.002171
  62 C :   -0.012691
  63 C :   -0.013037
  64 C :   -0.012435
  65 H :    0.039450
  66 H :    0.035725
  67 H :    0.035663
  68 H :    0.032613
  69 H :    0.031934
  70 H :    0.030464
  71 H :    0.046240
  72 H :    0.036290
  73 H :    0.034507
  74 H :    0.021245
  75 H :    0.035983
  76 H :    0.039870
  77 H :    0.051622
  78 H :    0.039741
  79 H :    0.035364
  80 H :    0.035390
  81 H :    0.032862
  82 H :    0.031817
  83 H :    0.030117

  Mayer bond orders larger than 0.100000
B(  0-C ,  1-C ) :   0.9585 B(  0-C ,  5-C ) :   1.0268 B(  0-C , 19-C ) :   1.6932
B(  1-C ,  2-O ) :   2.1941 B(  1-C ,  3-C ) :   0.9384 B(  3-C ,  4-C ) :   1.4172
B(  3-C , 14-C ) :   1.2363 B(  4-C ,  5-C ) :   0.9996 B(  4-C , 11-C ) :   1.2591
B(  5-C ,  6-C ) :   1.6537 B(  6-C ,  7-C ) :   1.1609 B(  6-C ,  9-C ) :   1.1279
B(  7-C ,  8-N ) :   3.0136 B(  9-C , 10-N ) :   2.9990 B( 11-C , 12-C ) :   1.4675
B( 11-C , 65-H ) :   0.9874 B( 12-C , 13-C ) :   1.2237 B( 12-C , 66-H ) :   0.9941
B( 13-C , 14-C ) :   1.2416 B( 13-C , 18-C ) :   1.2395 B( 14-C , 15-C ) :   1.2733
B( 15-C , 16-C ) :   1.4754 B( 15-C , 67-H ) :   0.9870 B( 16-C , 17-C ) :   1.2557
B( 16-C , 68-H ) :   0.9876 B( 17-C , 18-C ) :   1.4949 B( 17-C , 69-H ) :   0.9886
B( 18-C , 70-H ) :   0.9976 B( 19-C , 20-C ) :   1.1194 B( 19-C , 71-H ) :   0.9284
B( 20-C , 21-C ) :   1.4626 B( 20-C , 24-S ) :   1.0914 B( 21-C , 22-C ) :   1.3122
B( 21-C , 72-H ) :   0.9927 B( 22-C , 23-C ) :   1.4042 B( 22-C , 27-S ) :   1.0600
B( 23-C , 24-S ) :   1.0901 B( 23-C , 25-C ) :   1.2172 B( 25-C , 26-C ) :   1.5394
B( 25-C , 73-H ) :   0.9896 B( 26-C , 27-S ) :   1.0952 B( 26-C , 28-C ) :   1.1268
B( 28-C , 29-C ) :   1.4107 B( 28-C , 31-C ) :   0.1089 B( 28-C , 33-C ) :   1.2082
B( 29-C , 30-N ) :   1.4582 B( 29-C , 74-H ) :   0.9747 B( 30-N , 31-C ) :   1.6667
B( 31-C , 32-C ) :   1.1660 B( 31-C , 37-C ) :   1.1353 B( 32-C , 33-C ) :   1.1868
B( 32-C , 36-N ) :   1.5386 B( 33-C , 34-N ) :   1.5123 B( 34-N , 35-S ) :   1.2643
B( 34-N , 36-N ) :   0.1470 B( 35-S , 36-N ) :   1.2792 B( 37-C , 38-C ) :   1.5236
B( 37-C , 41-S ) :   1.1023 B( 38-C , 39-C ) :   1.2455 B( 38-C , 75-H ) :   0.9880
B( 39-C , 40-C ) :   1.3894 B( 39-C , 44-S ) :   1.0860 B( 40-C , 41-S ) :   1.0573
B( 40-C , 42-C ) :   1.2672 B( 42-C , 43-C ) :   1.4592 B( 42-C , 76-H ) :   1.0066
B( 43-C , 44-S ) :   1.0905 B( 43-C , 45-C ) :   1.1434 B( 45-C , 46-C ) :   1.6627
B( 45-C , 77-H ) :   0.9454 B( 46-C , 47-C ) :   0.9561 B( 46-C , 51-C ) :   1.0187
B( 47-C , 48-O ) :   2.1943 B( 47-C , 49-C ) :   0.9406 B( 49-C , 50-C ) :   1.4168
B( 49-C , 60-C ) :   1.2382 B( 50-C , 51-C ) :   1.0065 B( 50-C , 57-C ) :   1.2620
B( 51-C , 52-C ) :   1.6650 B( 52-C , 53-C ) :   1.1439 B( 52-C , 55-C ) :   1.1340
B( 53-C , 54-N ) :   3.0339 B( 55-C , 56-N ) :   2.9990 B( 57-C , 58-C ) :   1.4660
B( 57-C , 78-H ) :   0.9872 B( 58-C , 59-C ) :   1.2251 B( 58-C , 79-H ) :   0.9945
B( 59-C , 60-C ) :   1.2421 B( 59-C , 64-C ) :   1.2388 B( 60-C , 61-C ) :   1.2752
B( 61-C , 62-C ) :   1.4748 B( 61-C , 80-H ) :   0.9873 B( 62-C , 63-C ) :   1.2543
B( 62-C , 81-H ) :   0.9878 B( 63-C , 64-C ) :   1.4961 B( 63-C , 82-H ) :   0.9897
B( 64-C , 83-H ) :   0.9982

-----------------------------------------------------------------------------
         ABSORPTION SPECTRUM VIA TRANSITION ELECTRIC DIPOLE MOMENTS
-----------------------------------------------------------------------------
State   Energy  Wavelength   fosc         T2         TX        TY        TZ
        (cm-1)    (nm)                  (au**2)     (au)      (au)      (au)
-----------------------------------------------------------------------------
   0   16344.8    611.8   1.911489669  38.50054  -3.72777  -2.66669   4.18247
   1   20686.0    483.4   0.065423032   1.04119   0.45224  -0.91404  -0.03461
   2   22327.4    447.9   0.058069428   0.85622  -0.49301   0.18623   0.76058
   3   24369.6    410.3   0.030573228   0.41302  -0.02616   0.62652  -0.14074
   4   25363.1    394.3   0.234646227   3.04570  -1.28184  -0.41913   1.10766
   5   25455.9    392.8   0.114041847   1.47486   0.50357  -0.13492  -1.09685
   6   26213.7    381.5   0.130771783   1.64233   0.70056   0.28988  -1.03320
   7   26958.6    370.9   0.028478473   0.34777  -0.11235  -0.40560  -0.41308
   8   27227.0    367.3   0.379023483   4.58292  -0.11373  -1.42304   1.59529
   9   27553.6    362.9   0.170233569   2.03396   0.51594   0.56844  -1.20193
  10   29613.4    337.7   0.008200875   0.09117   0.20120  -0.18304   0.13109
  11   29848.3    335.0   0.021128316   0.23303  -0.15602  -0.36428   0.27566
  12   30008.4    333.2   0.007017377   0.07699  -0.13537  -0.23792  -0.04529
  13   30098.4    332.2   0.004444604   0.04861   0.06705   0.12471   0.16902
  14   30173.7    331.4   0.006180497   0.06743  -0.00657  -0.20925   0.15364
  15   30660.0    326.2   0.056797458   0.60986   0.01805   0.59341  -0.50735
  16   30782.7    324.9   0.042832512   0.45808  -0.31362   0.59298  -0.09000
  17   31245.6    320.0   0.335742539   3.53747  -0.38872   1.74959   0.57034
  18   31835.3    314.1   0.311524391   3.22150  -0.04852  -1.61634   0.77884
  19   32033.9    312.2   0.033582663   0.34513  -0.26187   0.10316   0.51567
  20   32105.4    311.5   0.019324275   0.19815   0.02938  -0.22386  -0.38364
  21   32427.3    308.4   0.094412889   0.95851  -0.12850   0.37334  -0.89589
  22   32754.3    305.3   0.195076910   1.96071   0.47102   0.29324  -1.28563
  23   33199.1    301.2   0.473163198   4.69203  -0.54474  -1.00774   1.83841
  24   34258.5    291.9   0.107578137   1.03379   0.39889  -0.88670   0.29739
  25   34502.2    289.8   0.154038595   1.46980   0.04797  -0.88432   0.82794
  26   34744.8    287.8   0.089306762   0.84620  -0.14870   0.16917  -0.89189
  27   34842.5    287.0   0.048972162   0.46272  -0.16511  -0.49965   0.43106
  28   35050.5    285.3   0.255866568   2.40322   0.10010  -0.35087   1.50668
  29   35169.6    284.3   0.057976397   0.54270  -0.55019   0.07582   0.48399
  30   35506.0    281.6   0.351494040   3.25905  -0.32732  -1.36730   1.13243
  31   35817.8    279.2   0.030025335   0.27597  -0.37787  -0.36275   0.03993
  32   36724.3    272.3   0.146535708   1.31361   0.70430   0.78683  -0.44550
  33   37852.0    264.2   0.004815122   0.04188  -0.17110   0.02981  -0.10823
  34   38035.5    262.9   0.004474097   0.03873   0.04973  -0.05739   0.18154
  35   38494.9    259.8   0.033068129   0.28280   0.11891   0.14525   0.49756
  36   38715.1    258.3   0.017641962   0.15002  -0.07925   0.30105   0.23044
  37   39002.5    256.4   0.012989730   0.10964   0.16741  -0.19317  -0.21048
  38   39768.0    251.5   0.016793165   0.13902  -0.12106   0.24129   0.25718
  39   39894.5    250.7   0.081396770   0.67169  -0.25962   0.68910   0.35977
  40   40177.1    248.9   0.031548858   0.25851  -0.11538   0.41424  -0.27130

FINAL SINGLE POINT ENERGY     -4475.700405077302

DIPOLE MOMENT
-------------
                                X             Y             Z
Electronic contribution:      8.37805     -11.56280      -5.70373
Nuclear contribution   :     -9.22240      11.28835       5.95135
                        -----------------------------------------
Total Dipole Moment    :     -0.84435      -0.27446       0.24762
                        -----------------------------------------
Magnitude (a.u.)       :      0.92172
Magnitude (Debye)      :      2.34284

Rotational constants in cm-1:     0.003805     0.000219     0.000214
Rotational constants in MHz :   114.074874     6.577743     6.418233

                             ****ORCA TERMINATED NORMALLY****
TOTAL RUN TIME: 0 days 0 hours 7 minutes 49 seconds 231 msec
