                         Program Version 4.2.0 -  RELEASE  -
|  1> # ORCA input file
|  2> # SCF done       -170.364276889139          0.000540066333
|  3> ! CAM-B3LYP def2-SVP def2/J RIJCOSX Grid4 TightSCF
|  4> %maxcore 5000
|  5> %tddft
|  6>     Mode sTDDFT
|  7>     Ethresh 5.0
|  8>     maxcore 5000
|  9> end
| 10>
| 11> %pal
| 12>   nprocs 6
| 13>   end
| 14> * xyz 0 1
| 15>    C        2.95369        -0.72765        12.69431
| 16>    C        3.09270        -1.08038        14.03451
| 17>    C        2.21620        -0.42883        15.05670
| 18>    C        4.04543        -2.03240        14.42599
| 19>    C        4.19467        -2.40750        15.86610
| 20>    C        4.85696        -2.62759        13.46509
| 21>    C        4.71383        -2.27127        12.14037
| 22>    C        3.76199        -1.31938        11.73964
| 23>    C        3.84607        -1.14618        10.29048
| 24>    C        3.04437        -0.31555         9.54379
| 25>    C        2.02928         0.49738        10.08589
| 26>    N        1.18782         1.18447        10.45987
| 27>    C        3.10153        -0.15317         8.14526
| 28>    N        3.07662         0.03891         7.01244
| 29>    C        4.90250        -2.00381         9.81150
| 30>    C        5.46003        -2.75041        10.96270
| 31>    O        6.34898        -3.58056        10.95564
| 32>    C        5.36712        -2.09614         8.51800
| 33>    C        6.41440        -2.91820         8.10475
| 34>    C        6.91008        -2.91952         6.81743
| 35>    C        8.00819        -3.67374         6.34141
| 36>    C        8.33636        -3.42186         5.04253
| 37>    C        7.50534        -2.46216         4.42409
| 38>    S        6.27633        -1.90654         5.53764
| 39>    C        7.62111        -1.93846         3.14830
| 40>    C        8.64867        -2.18027         2.20693
| 41>    C        8.54847        -1.42636         1.08005
| 42>    C        7.42205        -0.55978         1.05141
| 43>    S        6.48123        -0.77359         2.52194
| 44>    C        7.17178         0.37101         0.08056
| 45>    C        6.05985         1.24802        -0.02690
| 46>    C        6.16421         2.45136        -0.75851
| 47>    N        5.17376         3.29044        -0.87032
| 48>    C        3.99296         2.97522        -0.30441
| 49>    N        3.77351         1.83418         0.36847
| 50>    C        4.77506         1.01190         0.51757
| 51>    C        2.94968         3.92164        -0.44847
| 52>    C        3.19334         5.14972        -1.00311
| 53>    C        2.27246         6.21542        -1.18281
| 54>    C        2.83558         7.35716        -1.66134
| 55>    C        4.23048         7.24524        -1.87479
| 56>    S        4.79428         5.62087        -1.51640
| 57>    C        5.10450         8.24766        -2.25111
| 58>    C        4.81564         9.59616        -2.56156
| 59>    C        5.92131        10.34999        -2.81715
| 60>    C        7.14108         9.63806        -2.71613
| 61>    S        6.82771         7.96239        -2.32709
| 62>    C        8.40927        10.15862        -2.87041
| 63>    C        9.56750         9.40419        -2.69032
| 64>    C       10.88011         9.79936        -2.78646
| 65>    C       11.92255         8.96070        -2.13935
| 66>    O       11.78729         7.82885        -1.72616
| 67>    C       13.11978         9.81723        -2.06939
| 68>    C       12.86008        11.03583        -2.72007
| 69>    C       13.83937        12.01217        -2.74797
| 70>    C       15.06930        11.77557        -2.13807
| 71>    C       15.32437        10.55348        -1.49861
| 72>    C       14.33698         9.57349        -1.46831
| 73>    C       16.64672        10.30020        -0.84724
| 74>    C       16.11919        12.84045        -2.16986
| 75>    C       11.51107        10.99228        -3.28710
| 76>    C       11.04163        11.83933        -4.26270
| 77>    C        9.86140        11.63335        -5.00338
| 78>    N        8.93628        11.50162        -5.67157
| 79>    C       11.74268        12.97165        -4.72170
| 80>    N       12.25508        13.91866        -5.12237
| 81>    H        2.21511         0.00855        12.42075
| 82>    H        1.51987         0.25890        14.58488
| 83>    H        2.81726         0.12510        15.77748
| 84>    H        1.64790        -1.17689        15.60827
| 85>    H        3.26230        -2.81625        16.25462
| 86>    H        4.44523        -1.53300        16.46590
| 87>    H        4.97774        -3.15044        15.99081
| 88>    H        5.59790        -3.36228        13.74356
| 89>    H        4.91071        -1.47211         7.75907
| 90>    H        6.88492        -3.56706         8.82948
| 91>    H        8.52702        -4.36661         6.97961
| 92>    H        9.14730        -3.89675         4.52018
| 93>    H        9.44300        -2.87855         2.39906
| 94>    H        9.24813        -1.45559         0.26349
| 95>    H        7.93737         0.48568        -0.67804
| 96>    H        7.09512         2.73688        -1.23341
| 97>    H        4.55585         0.09652         1.05157
| 98>    H        1.97110         3.66338        -0.07766
| 99>    H        1.23137         6.10056        -0.93759
|100>    H        2.29441         8.26894        -1.84192
|101>    H        3.80854         9.97203        -2.58204
|102>    H        5.90445        11.39497        -3.07075
|103>    H        8.47728        11.21224        -3.09648
|104>    H        9.43456         8.38615        -2.33366
|105>    H       13.66453        12.96268        -3.22665
|106>    H       14.51177         8.62616        -0.98031
|107>    H       16.84264        11.04407        -0.07555
|108>    H       17.45280        10.36402        -1.57759
|109>    H       16.66824         9.31369        -0.39221
|110>    H       15.77073        13.70919        -2.72146
|111>    H       17.02708        12.46876        -2.64350
|112>    H       16.37953        13.15105        -1.15823
|113> *
|114>
|115>                          ****END OF INPUT****

CARTESIAN COORDINATES (ANGSTROEM)
---------------------------------
  C      2.953690   -0.727650   12.694310
  C      3.092700   -1.080380   14.034510
  C      2.216200   -0.428830   15.056700
  C      4.045430   -2.032400   14.425990
  C      4.194670   -2.407500   15.866100
  C      4.856960   -2.627590   13.465090
  C      4.713830   -2.271270   12.140370
  C      3.761990   -1.319380   11.739640
  C      3.846070   -1.146180   10.290480
  C      3.044370   -0.315550    9.543790
  C      2.029280    0.497380   10.085890
  N      1.187820    1.184470   10.459870
  C      3.101530   -0.153170    8.145260
  N      3.076620    0.038910    7.012440
  C      4.902500   -2.003810    9.811500
  C      5.460030   -2.750410   10.962700
  O      6.348980   -3.580560   10.955640
  C      5.367120   -2.096140    8.518000
  C      6.414400   -2.918200    8.104750
  C      6.910080   -2.919520    6.817430
  C      8.008190   -3.673740    6.341410
  C      8.336360   -3.421860    5.042530
  C      7.505340   -2.462160    4.424090
  S      6.276330   -1.906540    5.537640
  C      7.621110   -1.938460    3.148300
  C      8.648670   -2.180270    2.206930
  C      8.548470   -1.426360    1.080050
  C      7.422050   -0.559780    1.051410
  S      6.481230   -0.773590    2.521940
  C      7.171780    0.371010    0.080560
  C      6.059850    1.248020   -0.026900
  C      6.164210    2.451360   -0.758510
  N      5.173760    3.290440   -0.870320
  C      3.992960    2.975220   -0.304410
  N      3.773510    1.834180    0.368470
  C      4.775060    1.011900    0.517570
  C      2.949680    3.921640   -0.448470
  C      3.193340    5.149720   -1.003110
  C      2.272460    6.215420   -1.182810
  C      2.835580    7.357160   -1.661340
  C      4.230480    7.245240   -1.874790
  S      4.794280    5.620870   -1.516400
  C      5.104500    8.247660   -2.251110
  C      4.815640    9.596160   -2.561560
  C      5.921310   10.349990   -2.817150
  C      7.141080    9.638060   -2.716130
  S      6.827710    7.962390   -2.327090
  C      8.409270   10.158620   -2.870410
  C      9.567500    9.404190   -2.690320
  C     10.880110    9.799360   -2.786460
  C     11.922550    8.960700   -2.139350
  O     11.787290    7.828850   -1.726160
  C     13.119780    9.817230   -2.069390
  C     12.860080   11.035830   -2.720070
  C     13.839370   12.012170   -2.747970
  C     15.069300   11.775570   -2.138070
  C     15.324370   10.553480   -1.498610
  C     14.336980    9.573490   -1.468310
  C     16.646720   10.300200   -0.847240
  C     16.119190   12.840450   -2.169860
  C     11.511070   10.992280   -3.287100
  C     11.041630   11.839330   -4.262700
  C      9.861400   11.633350   -5.003380
  N      8.936280   11.501620   -5.671570
  C     11.742680   12.971650   -4.721700
  N     12.255080   13.918660   -5.122370
  H      2.215110    0.008550   12.420750
  H      1.519870    0.258900   14.584880
  H      2.817260    0.125100   15.777480
  H      1.647900   -1.176890   15.608270
  H      3.262300   -2.816250   16.254620
  H      4.445230   -1.533000   16.465900
  H      4.977740   -3.150440   15.990810
  H      5.597900   -3.362280   13.743560
  H      4.910710   -1.472110    7.759070
  H      6.884920   -3.567060    8.829480
  H      8.527020   -4.366610    6.979610
  H      9.147300   -3.896750    4.520180
  H      9.443000   -2.878550    2.399060
  H      9.248130   -1.455590    0.263490
  H      7.937370    0.485680   -0.678040
  H      7.095120    2.736880   -1.233410
  H      4.555850    0.096520    1.051570
  H      1.971100    3.663380   -0.077660
  H      1.231370    6.100560   -0.937590
  H      2.294410    8.268940   -1.841920
  H      3.808540    9.972030   -2.582040
  H      5.904450   11.394970   -3.070750
  H      8.477280   11.212240   -3.096480
  H      9.434560    8.386150   -2.333660
  H     13.664530   12.962680   -3.226650
  H     14.511770    8.626160   -0.980310
  H     16.842640   11.044070   -0.075550
  H     17.452800   10.364020   -1.577590
  H     16.668240    9.313690   -0.392210
  H     15.770730   13.709190   -2.721460
  H     17.027080   12.468760   -2.643500
  H     16.379530   13.151050   -1.158230

 Total Charge           Charge          ....    0
 Multiplicity           Mult            ....    1
 Number of Electrons    NEL             ....  478
 Basis Dimension        Dim             .... 1100

ORBITAL ENERGIES
----------------

  NO   OCC          E(Eh)            E(eV)
   0   2.0000     -88.964890     -2420.8577
   1   2.0000     -88.958542     -2420.6850
   2   2.0000     -88.957465     -2420.6557
   3   2.0000     -88.952786     -2420.5284
   4   2.0000     -19.201586      -522.5017
   5   2.0000     -19.199546      -522.4462
   6   2.0000     -14.423688      -392.4885
   7   2.0000     -14.416334      -392.2884
   8   2.0000     -14.402248      -391.9051
   9   2.0000     -14.402009      -391.8986
  10   2.0000     -14.400967      -391.8702
  11   2.0000     -14.399168      -391.8213
  12   2.0000     -10.351322      -281.6738
  13   2.0000     -10.349646      -281.6282
  14   2.0000     -10.349174      -281.6153
  15   2.0000     -10.334617      -281.2192
  16   2.0000     -10.334532      -281.2169
  17   2.0000     -10.328517      -281.0532
  18   2.0000     -10.327941      -281.0376
  19   2.0000     -10.327330      -281.0209
  20   2.0000     -10.327229      -281.0182
  21   2.0000     -10.327051      -281.0134
  22   2.0000     -10.326540      -280.9994
  23   2.0000     -10.324356      -280.9400
  24   2.0000     -10.324351      -280.9399
  25   2.0000     -10.323804      -280.9250
  26   2.0000     -10.323089      -280.9055
  27   2.0000     -10.320562      -280.8368
  28   2.0000     -10.316255      -280.7196
  29   2.0000     -10.306231      -280.4468
  30   2.0000     -10.306206      -280.4461
  31   2.0000     -10.306019      -280.4410
  32   2.0000     -10.305804      -280.4352
  33   2.0000     -10.305509      -280.4271
  34   2.0000     -10.305220      -280.4193
  35   2.0000     -10.304167      -280.3906
  36   2.0000     -10.304034      -280.3870
  37   2.0000     -10.303321      -280.3676
  38   2.0000     -10.302733      -280.3516
  39   2.0000     -10.300076      -280.2793
  40   2.0000     -10.299546      -280.2649
  41   2.0000     -10.298807      -280.2448
  42   2.0000     -10.297693      -280.2145
  43   2.0000     -10.294840      -280.1368
  44   2.0000     -10.294798      -280.1357
  45   2.0000     -10.289290      -279.9858
  46   2.0000     -10.287188      -279.9286
  47   2.0000     -10.286331      -279.9053
  48   2.0000     -10.285889      -279.8933
  49   2.0000     -10.285269      -279.8764
  50   2.0000     -10.284661      -279.8599
  51   2.0000     -10.283798      -279.8364
  52   2.0000     -10.283335      -279.8238
  53   2.0000     -10.279430      -279.7175
  54   2.0000     -10.279024      -279.7065
  55   2.0000     -10.278299      -279.6867
  56   2.0000     -10.277595      -279.6676
  57   2.0000     -10.277063      -279.6531
  58   2.0000     -10.276003      -279.6243
  59   2.0000     -10.275621      -279.6139
  60   2.0000     -10.274726      -279.5895
  61   2.0000     -10.273127      -279.5460
  62   2.0000     -10.269761      -279.4544
  63   2.0000     -10.269064      -279.4354
  64   2.0000     -10.267587      -279.3952
  65   2.0000     -10.266435      -279.3639
  66   2.0000      -8.061014      -219.3513
  67   2.0000      -8.054689      -219.1792
  68   2.0000      -8.053836      -219.1560
  69   2.0000      -8.046532      -218.9573
  70   2.0000      -6.030744      -164.1049
  71   2.0000      -6.026622      -163.9927
  72   2.0000      -6.024316      -163.9300
  73   2.0000      -6.023474      -163.9070
  74   2.0000      -6.021950      -163.8656
  75   2.0000      -6.020293      -163.8205
  76   2.0000      -6.019385      -163.7958
  77   2.0000      -6.016626      -163.7207
  78   2.0000      -6.015744      -163.6967
  79   2.0000      -6.014912      -163.6741
  80   2.0000      -6.011840      -163.5905
  81   2.0000      -6.007638      -163.4761
  82   2.0000      -1.114421       -30.3249
  83   2.0000      -1.113510       -30.3002
  84   2.0000      -1.093345       -29.7514
  85   2.0000      -1.013060       -27.5668
  86   2.0000      -1.007414       -27.4131
  87   2.0000      -1.003899       -27.3175
  88   2.0000      -1.002890       -27.2900
  89   2.0000      -0.992456       -27.0061
  90   2.0000      -0.989950       -26.9379
  91   2.0000      -0.983264       -26.7560
  92   2.0000      -0.982448       -26.7338
  93   2.0000      -0.982221       -26.7276
  94   2.0000      -0.980144       -26.6711
  95   2.0000      -0.978816       -26.6349
  96   2.0000      -0.943961       -25.6865
  97   2.0000      -0.942874       -25.6569
  98   2.0000      -0.934334       -25.4245
  99   2.0000      -0.912060       -24.8184
 100   2.0000      -0.906750       -24.6739
 101   2.0000      -0.892319       -24.2812
 102   2.0000      -0.890794       -24.2397
 103   2.0000      -0.889356       -24.2006
 104   2.0000      -0.874950       -23.8086
 105   2.0000      -0.864482       -23.5238
 106   2.0000      -0.861348       -23.4385
 107   2.0000      -0.860396       -23.4126
 108   2.0000      -0.856021       -23.2935
 109   2.0000      -0.853329       -23.2203
 110   2.0000      -0.845755       -23.0142
 111   2.0000      -0.836525       -22.7630
 112   2.0000      -0.831096       -22.6153
 113   2.0000      -0.823944       -22.4207
 114   2.0000      -0.812317       -22.1043
 115   2.0000      -0.798822       -21.7370
 116   2.0000      -0.797442       -21.6995
 117   2.0000      -0.794533       -21.6203
 118   2.0000      -0.776958       -21.1421
 119   2.0000      -0.760662       -20.6987
 120   2.0000      -0.754463       -20.5300
 121   2.0000      -0.745698       -20.2915
 122   2.0000      -0.742020       -20.1914
 123   2.0000      -0.735953       -20.0263
 124   2.0000      -0.727785       -19.8040
 125   2.0000      -0.712738       -19.3946
 126   2.0000      -0.704876       -19.1807
 127   2.0000      -0.695771       -18.9329
 128   2.0000      -0.692883       -18.8543
 129   2.0000      -0.679898       -18.5010
 130   2.0000      -0.676500       -18.4085
 131   2.0000      -0.671193       -18.2641
 132   2.0000      -0.669515       -18.2184
 133   2.0000      -0.657084       -17.8802
 134   2.0000      -0.654877       -17.8201
 135   2.0000      -0.650269       -17.6947
 136   2.0000      -0.646335       -17.5877
 137   2.0000      -0.643102       -17.4997
 138   2.0000      -0.635295       -17.2873
 139   2.0000      -0.632353       -17.2072
 140   2.0000      -0.621049       -16.8996
 141   2.0000      -0.619448       -16.8560
 142   2.0000      -0.616695       -16.7811
 143   2.0000      -0.605787       -16.4843
 144   2.0000      -0.602578       -16.3970
 145   2.0000      -0.600029       -16.3276
 146   2.0000      -0.595708       -16.2100
 147   2.0000      -0.593485       -16.1496
 148   2.0000      -0.589585       -16.0434
 149   2.0000      -0.575667       -15.6647
 150   2.0000      -0.567431       -15.4406
 151   2.0000      -0.562965       -15.3190
 152   2.0000      -0.556763       -15.1503
 153   2.0000      -0.546070       -14.8593
 154   2.0000      -0.541245       -14.7280
 155   2.0000      -0.538967       -14.6660
 156   2.0000      -0.536206       -14.5909
 157   2.0000      -0.535222       -14.5641
 158   2.0000      -0.530741       -14.4422
 159   2.0000      -0.529710       -14.4141
 160   2.0000      -0.529640       -14.4122
 161   2.0000      -0.526088       -14.3156
 162   2.0000      -0.523148       -14.2356
 163   2.0000      -0.517106       -14.0712
 164   2.0000      -0.515053       -14.0153
 165   2.0000      -0.513786       -13.9808
 166   2.0000      -0.513352       -13.9690
 167   2.0000      -0.511851       -13.9282
 168   2.0000      -0.511256       -13.9120
 169   2.0000      -0.508281       -13.8310
 170   2.0000      -0.506843       -13.7919
 171   2.0000      -0.505442       -13.7538
 172   2.0000      -0.504716       -13.7340
 173   2.0000      -0.503379       -13.6976
 174   2.0000      -0.496878       -13.5207
 175   2.0000      -0.495668       -13.4878
 176   2.0000      -0.493108       -13.4182
 177   2.0000      -0.491707       -13.3800
 178   2.0000      -0.485338       -13.2067
 179   2.0000      -0.483083       -13.1454
 180   2.0000      -0.482118       -13.1191
 181   2.0000      -0.481007       -13.0889
 182   2.0000      -0.480659       -13.0794
 183   2.0000      -0.478428       -13.0187
 184   2.0000      -0.474233       -12.9045
 185   2.0000      -0.472917       -12.8687
 186   2.0000      -0.471981       -12.8432
 187   2.0000      -0.471144       -12.8205
 188   2.0000      -0.468696       -12.7539
 189   2.0000      -0.466705       -12.6997
 190   2.0000      -0.463664       -12.6169
 191   2.0000      -0.462403       -12.5826
 192   2.0000      -0.462150       -12.5757
 193   2.0000      -0.450425       -12.2567
 194   2.0000      -0.448223       -12.1968
 195   2.0000      -0.440165       -11.9775
 196   2.0000      -0.439021       -11.9464
 197   2.0000      -0.438318       -11.9273
 198   2.0000      -0.435294       -11.8449
 199   2.0000      -0.434702       -11.8289
 200   2.0000      -0.434114       -11.8128
 201   2.0000      -0.432482       -11.7684
 202   2.0000      -0.432289       -11.7632
 203   2.0000      -0.431526       -11.7424
 204   2.0000      -0.429479       -11.6867
 205   2.0000      -0.428553       -11.6615
 206   2.0000      -0.427588       -11.6353
 207   2.0000      -0.426947       -11.6178
 208   2.0000      -0.420942       -11.4544
 209   2.0000      -0.417403       -11.3581
 210   2.0000      -0.414038       -11.2665
 211   2.0000      -0.412870       -11.2348
 212   2.0000      -0.411555       -11.1990
 213   2.0000      -0.407231       -11.0813
 214   2.0000      -0.406711       -11.0672
 215   2.0000      -0.405550       -11.0356
 216   2.0000      -0.404051       -10.9948
 217   2.0000      -0.394311       -10.7297
 218   2.0000      -0.392331       -10.6759
 219   2.0000      -0.388935       -10.5835
 220   2.0000      -0.377007       -10.2589
 221   2.0000      -0.371536       -10.1100
 222   2.0000      -0.359231        -9.7752
 223   2.0000      -0.354041        -9.6339
 224   2.0000      -0.348243        -9.4762
 225   2.0000      -0.339472        -9.2375
 226   2.0000      -0.336984        -9.1698
 227   2.0000      -0.332069        -9.0361
 228   2.0000      -0.324422        -8.8280
 229   2.0000      -0.323401        -8.8002
 230   2.0000      -0.321599        -8.7512
 231   2.0000      -0.320605        -8.7241
 232   2.0000      -0.320061        -8.7093
 233   2.0000      -0.307921        -8.3790
 234   2.0000      -0.297996        -8.1089
 235   2.0000      -0.293457        -7.9854
 236   2.0000      -0.286388        -7.7930
 237   2.0000      -0.240129        -6.5342
 238   2.0000      -0.222983        -6.0677
 239   0.0000      -0.115608        -3.1459
 240   0.0000      -0.097484        -2.6527
 241   0.0000      -0.059853        -1.6287
 242   0.0000      -0.052719        -1.4346
 243   0.0000      -0.042698        -1.1619

MULLIKEN ATOMIC CHARGES
-----------------------
   0 C :   -0.083256
   1 C :   -0.081041
   2 C :    0.113268
   3 C :   -0.076587
   4 C :    0.116194
   5 C :   -0.082768
   6 C :   -0.005488
   7 C :    0.037230
   8 C :    0.330887
   9 C :   -0.361315
  10 C :   -0.183286
  11 N :    0.135115
  12 C :   -0.191713
  13 N :    0.137044
  14 C :   -0.089318
  15 C :    0.140290
  16 O :   -0.163982
  17 C :   -0.040500
  18 C :   -0.026321
  19 C :    0.004331
  20 C :    0.029170
  21 C :    0.041176
  22 C :   -0.051298
  23 S :    0.111337
  24 C :   -0.041363
  25 C :    0.031261
  26 C :    0.044210
  27 C :   -0.028181
  28 S :    0.109125
  29 C :   -0.008306
  30 C :   -0.021173
  31 C :    0.063927
  32 N :   -0.133835
  33 C :    0.001853
  34 N :   -0.044914
  35 C :    0.033023
  36 C :    0.001082
  37 C :    0.008475
  38 C :    0.047881
  39 C :    0.031548
  40 C :   -0.027148
  41 S :    0.136183
  42 C :   -0.059087
  43 C :    0.039371
  44 C :    0.042687
  45 C :   -0.022515
  46 S :    0.110495
  47 C :    0.000547
  48 C :    0.019989
  49 C :   -0.124943
  50 C :    0.135844
  51 O :   -0.154887
  52 C :   -0.000786
  53 C :    0.030164
  54 C :   -0.079416
  55 C :   -0.082145
  56 C :   -0.080649
  57 C :   -0.080758
  58 C :    0.119407
  59 C :    0.115052
  60 C :    0.293421
  61 C :   -0.347920
  62 C :   -0.219260
  63 N :    0.160391
  64 C :   -0.176080
  65 N :    0.138481
  66 H :   -0.016088
  67 H :    0.024198
  68 H :    0.025530
  69 H :    0.023566
  70 H :    0.025977
  71 H :    0.024803
  72 H :    0.014617
  73 H :   -0.023883
  74 H :    0.014210
  75 H :    0.017182
  76 H :    0.001389
  77 H :   -0.005053
  78 H :   -0.004754
  79 H :    0.000364
  80 H :    0.003465
  81 H :    0.006652
  82 H :    0.021643
  83 H :   -0.006241
  84 H :   -0.001645
  85 H :   -0.008542
  86 H :   -0.003561
  87 H :    0.004528
  88 H :    0.007714
  89 H :    0.014633
  90 H :   -0.015087
  91 H :   -0.023454
  92 H :    0.025059
  93 H :    0.026632
  94 H :    0.013150
  95 H :    0.023035
  96 H :    0.024657
  97 H :    0.025088
Sum of atomic charges:   -0.0000000

LOEWDIN ATOMIC CHARGES
----------------------
   0 C :   -0.007905
   1 C :   -0.007307
   2 C :   -0.042783
   3 C :   -0.010198
   4 C :   -0.043478
   5 C :    0.003551
   6 C :   -0.047051
   7 C :   -0.017242
   8 C :    0.075063
   9 C :   -0.151862
  10 C :   -0.017531
  11 N :   -0.067298
  12 C :   -0.021177
  13 N :   -0.063374
  14 C :   -0.100903
  15 C :    0.083376
  16 O :   -0.156407
  17 C :    0.047688
  18 C :   -0.068576
  19 C :   -0.106970
  20 C :   -0.036193
  21 C :   -0.011140
  22 C :   -0.187128
  23 S :    0.407854
  24 C :   -0.156213
  25 C :   -0.033126
  26 C :   -0.015210
  27 C :   -0.145831
  28 S :    0.402971
  29 C :   -0.035215
  30 C :   -0.088081
  31 C :    0.064863
  32 N :   -0.096743
  33 C :    0.026203
  34 N :   -0.072233
  35 C :    0.046902
  36 C :   -0.060774
  37 C :   -0.118521
  38 C :   -0.019825
  39 C :   -0.023328
  40 C :   -0.170770
  41 S :    0.431627
  42 C :   -0.175070
  43 C :   -0.009428
  44 C :   -0.028892
  45 C :   -0.104060
  46 S :    0.403524
  47 C :   -0.063891
  48 C :    0.048790
  49 C :   -0.099662
  50 C :    0.079966
  51 O :   -0.155066
  52 C :   -0.049102
  53 C :   -0.014833
  54 C :   -0.009854
  55 C :   -0.006194
  56 C :   -0.011333
  57 C :    0.004471
  58 C :   -0.043310
  59 C :   -0.042646
  60 C :    0.071557
  61 C :   -0.150062
  62 C :   -0.024283
  63 N :   -0.060020
  64 C :   -0.018711
  65 N :   -0.063412
  66 H :    0.035320
  67 H :    0.035327
  68 H :    0.036917
  69 H :    0.036155
  70 H :    0.037128
  71 H :    0.036945
  72 H :    0.031919
  73 H :    0.033590
  74 H :    0.031963
  75 H :    0.038720
  76 H :    0.039286
  77 H :    0.035065
  78 H :    0.035269
  79 H :    0.038042
  80 H :    0.040123
  81 H :    0.027782
  82 H :    0.017973
  83 H :    0.041688
  84 H :    0.037825
  85 H :    0.032209
  86 H :    0.036248
  87 H :    0.040901
  88 H :    0.037907
  89 H :    0.033940
  90 H :    0.034878
  91 H :    0.033970
  92 H :    0.036869
  93 H :    0.037371
  94 H :    0.031745
  95 H :    0.035142
  96 H :    0.036933
  97 H :    0.036665

  Mayer bond orders larger than 0.100000
B(  0-C ,  1-C ) :   1.3711 B(  0-C ,  7-C ) :   1.3539 B(  0-C , 66-H ) :   0.9834
B(  1-C ,  2-C ) :   1.0925 B(  1-C ,  3-C ) :   1.3850 B(  2-C , 67-H ) :   0.9512
B(  2-C , 68-H ) :   0.9410 B(  2-C , 69-H ) :   0.9407 B(  3-C ,  4-C ) :   1.0929
B(  3-C ,  5-C ) :   1.3435 B(  4-C , 70-H ) :   0.9412 B(  4-C , 71-H ) :   0.9405
B(  4-C , 72-H ) :   0.9516 B(  5-C ,  6-C ) :   1.3652 B(  5-C , 73-H ) :   1.0099
B(  6-C ,  7-C ) :   1.3394 B(  6-C , 15-C ) :   0.9405 B(  7-C ,  8-C ) :   0.9782
B(  8-C ,  9-C ) :   1.5958 B(  8-C , 14-C ) :   1.0954 B(  9-C , 10-C ) :   1.1492
B(  9-C , 12-C ) :   1.1503 B( 10-C , 11-N ) :   2.9599 B( 12-C , 13-N ) :   2.9596
B( 14-C , 15-C ) :   0.9541 B( 14-C , 17-C ) :   1.5148 B( 15-C , 16-O ) :   2.1861
B( 17-C , 18-C ) :   1.2289 B( 17-C , 74-H ) :   0.9449 B( 18-C , 19-C ) :   1.4447
B( 18-C , 75-H ) :   0.9778 B( 19-C , 20-C ) :   1.1650 B( 19-C , 23-S ) :   1.0762
B( 20-C , 21-C ) :   1.5574 B( 20-C , 76-H ) :   1.0025 B( 21-C , 22-C ) :   1.2011
B( 21-C , 77-H ) :   0.9954 B( 22-C , 23-S ) :   1.0470 B( 22-C , 24-C ) :   1.4881
B( 24-C , 25-C ) :   1.1800 B( 24-C , 28-S ) :   1.0704 B( 25-C , 26-C ) :   1.6013
B( 25-C , 78-H ) :   0.9940 B( 26-C , 27-C ) :   1.1316 B( 26-C , 79-H ) :   0.9985
B( 27-C , 28-S ) :   1.0279 B( 27-C , 29-C ) :   1.6199 B( 29-C , 30-C ) :   1.0985
B( 29-C , 80-H ) :   0.9672 B( 30-C , 31-C ) :   1.2891 B( 30-C , 35-C ) :   1.2665
B( 31-C , 32-N ) :   1.5780 B( 31-C , 81-H ) :   0.9870 B( 32-N , 33-C ) :   1.3837
B( 33-C , 34-N ) :   1.4692 B( 33-C , 36-C ) :   1.1356 B( 34-N , 35-C ) :   1.6231
B( 35-C , 82-H ) :   0.9757 B( 36-C , 37-C ) :   1.5380 B( 36-C , 83-H ) :   0.9818
B( 37-C , 38-C ) :   1.1308 B( 37-C , 41-S ) :   1.0662 B( 38-C , 39-C ) :   1.6024
B( 38-C , 84-H ) :   1.0014 B( 39-C , 40-C ) :   1.1739 B( 39-C , 85-H ) :   0.9954
B( 40-C , 41-S ) :   1.0027 B( 40-C , 42-C ) :   1.5114 B( 42-C , 43-C ) :   1.1925
B( 42-C , 46-S ) :   1.0470 B( 43-C , 44-C ) :   1.5686 B( 43-C , 86-H ) :   0.9953
B( 44-C , 45-C ) :   1.1588 B( 44-C , 87-H ) :   1.0008 B( 45-C , 46-S ) :   1.0759
B( 45-C , 47-C ) :   1.5296 B( 47-C , 48-C ) :   1.1929 B( 47-C , 88-H ) :   0.9628
B( 48-C , 49-C ) :   1.5718 B( 48-C , 89-H ) :   0.9360 B( 49-C , 50-C ) :   0.9530
B( 49-C , 60-C ) :   1.0627 B( 50-C , 51-O ) :   2.2422 B( 50-C , 52-C ) :   0.9237
B( 52-C , 53-C ) :   1.3361 B( 52-C , 57-C ) :   1.3697 B( 53-C , 54-C ) :   1.3582
B( 53-C , 60-C ) :   0.9934 B( 54-C , 55-C ) :   1.3692 B( 54-C , 90-H ) :   0.9844
B( 55-C , 56-C ) :   1.3862 B( 55-C , 59-C ) :   1.0938 B( 56-C , 57-C ) :   1.3488
B( 56-C , 58-C ) :   1.0932 B( 57-C , 91-H ) :   1.0085 B( 58-C , 92-H ) :   0.9404
B( 58-C , 93-H ) :   0.9407 B( 58-C , 94-H ) :   0.9513 B( 59-C , 95-H ) :   0.9509
B( 59-C , 96-H ) :   0.9397 B( 59-C , 97-H ) :   0.9410 B( 60-C , 61-C ) :   1.6111
B( 61-C , 62-C ) :   1.1670 B( 61-C , 64-C ) :   1.1344 B( 62-C , 63-N ) :   3.0083
B( 64-C , 65-N ) :   2.9749

-----------------------------------------------------------------------------
         ABSORPTION SPECTRUM VIA TRANSITION ELECTRIC DIPOLE MOMENTS
-----------------------------------------------------------------------------
State   Energy  Wavelength   fosc         T2         TX        TY        TZ
        (cm-1)    (nm)                  (au**2)     (au)      (au)      (au)
-----------------------------------------------------------------------------
   0   10553.9    947.5   1.731052904  53.99726   2.58273   4.64150  -5.07773
   1   14711.6    679.7   0.618703736  13.84520  -1.76855  -2.07896  -2.52890
   2   16158.6    618.9   0.004623945   0.09421   0.24729   0.13116   0.12590
   3   19963.2    500.9   0.581125723   9.58332  -2.84262   0.75028   0.96948
   4   22310.1    448.2   0.060898465   0.89863  -0.24567  -0.61175   0.68120
   5   23107.3    432.8   0.059349246   0.84555   0.56334  -0.32769   0.64871
   6   24021.4    416.3   0.121859683   1.67008   0.96596  -0.84309   0.16187
   7   25279.3    395.6   0.031628806   0.41190  -0.28451   0.25550   0.51543
   8   25359.7    394.3   0.223803530   2.90535  -1.27072   1.12973  -0.11972
   9   25892.3    386.2   0.208135956   2.64638  -1.00522   0.85998  -0.94676
  10   26608.4    375.8   0.212229421   2.62581   1.39340  -0.65375   0.50682
  11   27057.8    369.6   0.001432092   0.01742   0.08470  -0.06615   0.07665
  12   27194.1    367.7   0.307019141   3.71677  -1.66187   0.77105   0.60036
  13   28178.7    354.9   0.017220740   0.20119  -0.29129  -0.08326  -0.33077
  14   28381.9    352.3   0.148140284   1.71833  -1.01387   0.74966   0.35835
  15   29458.3    339.5   0.023861118   0.26666  -0.49547   0.11688   0.08667
  16   29928.0    334.1   0.009375498   0.10313   0.27241   0.02274  -0.16855
  17   30520.0    327.7   0.028367906   0.30600   0.43622   0.23690  -0.24411
  18   30625.5    326.5   0.078549455   0.84437  -0.86312   0.31137  -0.04946
  19   31118.7    321.4   0.047658085   0.50419  -0.01419  -0.40352  -0.58408
  20   31235.3    320.2   0.016007155   0.16871   0.14268   0.35884  -0.13997
  21   31704.5    315.4   0.044208618   0.45905   0.47210   0.16867  -0.45577
  22   32147.9    311.1   0.013318228   0.13639   0.03119  -0.36681   0.02934
  23   32263.1    310.0   0.001530012   0.01561  -0.07719  -0.09313  -0.03133
  24   32296.2    309.6   0.040212577   0.40991   0.60985   0.08430  -0.17572
  25   32618.8    306.6   0.036425722   0.36763   0.53288  -0.15595  -0.24362
  26   32775.2    305.1   0.069527763   0.69838  -0.08322   0.17540  -0.81283
  27   32923.2    303.7   0.024356925   0.24355   0.36772  -0.13419  -0.30054
  28   33245.0    300.8   0.010161167   0.10062   0.20647   0.15098   0.18762
  29   33337.8    300.0   0.035234899   0.34795   0.37458  -0.35144   0.29004
  30   34059.1    293.6   0.005545078   0.05360   0.21149  -0.05289   0.07792
  31   34145.0    292.9   0.008479919   0.08176   0.22115  -0.16519   0.07461
  32   34711.5    288.1   0.136876929   1.29817   0.58890  -0.37781   0.89924
  33   35369.1    282.7   0.014277917   0.13290   0.14553  -0.30811   0.12955
  34   35802.2    279.3   0.018752053   0.17243   0.23467  -0.05872   0.33751
  35   36023.3    277.6   0.125437284   1.14635  -0.71310   0.49830  -0.62413
  36   36242.7    275.9   0.424422299   3.85525  -0.51448   0.74063  -1.74414
  37   36871.0    271.2   0.739427370   6.60217   1.57622  -1.21863   1.62254
  38   37334.8    267.8   0.006643678   0.05858  -0.13860   0.14631  -0.13404
  39   37462.2    266.9   0.004902722   0.04308   0.12077   0.16694  -0.02510
  40   37561.8    266.2   0.033302143   0.29188  -0.03518   0.30075  -0.44743
  41   38122.8    262.3   0.054039258   0.46666  -0.51511   0.44771  -0.02970
  42   38153.0    262.1   0.066382418   0.57280  -0.55309  -0.25831   0.44740
  43   38489.8    259.8   0.081314115   0.69550  -0.58521   0.52699  -0.27442
  44   38602.1    259.1   0.007017981   0.05985  -0.05857  -0.22929   0.06201
  45   38696.8    258.4   0.176251566   1.49945  -0.61028   0.95516  -0.46333
  46   39004.7    256.4   0.007559747   0.06381  -0.17861   0.17800  -0.01491
  47   39210.0    255.0   0.005768062   0.04843   0.08483   0.11921   0.16439
  48   39301.6    254.4   0.006618578   0.05544  -0.07705  -0.14060  -0.17244
  49   40245.9    248.5   0.008092366   0.06620  -0.23361   0.10015   0.03992

FINAL SINGLE POINT ENERGY     -4144.855730931881

DIPOLE MOMENT
-------------
                                X             Y             Z
Electronic contribution:    -25.42086      -6.40160     -38.90306
Nuclear contribution   :     26.90984       4.30536      40.24887
                        -----------------------------------------
Total Dipole Moment    :      1.48898      -2.09624       1.34581
                        -----------------------------------------
Magnitude (a.u.)       :      2.90216
Magnitude (Debye)      :      7.37669

Rotational constants in cm-1:     0.001252     0.000250     0.000241
Rotational constants in MHz :    37.541877     7.509049     7.219278

                             ****ORCA TERMINATED NORMALLY****
TOTAL RUN TIME: 0 days 0 hours 20 minutes 40 seconds 854 msec
