                         Program Version 4.2.0 -  RELEASE  -
|  1> # ORCA input file
|  2> # SCF done       -152.673720251768          0.000203939490
|  3> ! CAM-B3LYP def2-SVP def2/J RIJCOSX Grid4 TightSCF
|  4> %maxcore 5000
|  5> %tddft
|  6>     Mode sTDDFT
|  7>     Ethresh 5.0
|  8>     maxcore 5000
|  9> end
| 10>
| 11> %pal
| 12>   nprocs 6
| 13>   end
| 14> * xyz 0 1
| 15>    C       -7.94274       -13.21693        -3.57228
| 16>    C       -7.71416       -14.46134        -3.13649
| 17>    C       -6.39671       -14.91986        -2.82972
| 18>    C       -5.32683       -14.07617        -2.75649
| 19>    C       -5.53799       -12.59567        -3.00332
| 20>    C       -6.80305       -12.27178        -3.83108
| 21>    N       -7.29006       -10.92444        -3.64434
| 22>    C       -7.00822       -10.31855        -2.57963
| 23>    C       -6.16708       -10.91205        -1.52378
| 24>    N       -5.50672       -11.96612        -1.70070
| 25>    F       -6.15983       -10.32498        -0.33075
| 26>    F       -7.48856        -9.09442        -2.38175
| 27>    C       -4.05448       -14.55529        -2.36836
| 28>    C       -2.89496       -13.87042        -2.10449
| 29>    C       -1.66107       -14.49000        -1.76484
| 30>    C       -0.63009       -13.62673        -1.55502
| 31>    C       -0.98787       -12.26879        -1.70364
| 32>    S       -2.68046       -12.12833        -2.11115
| 33>    C       -0.19650       -11.14026        -1.58623
| 34>    C        1.19120       -11.06478        -1.34529
| 35>    C        1.67135        -9.78741        -1.34223
| 36>    C        0.68298        -8.80301        -1.56851
| 37>    S       -0.88505        -9.53666        -1.77100
| 38>    C        0.85345        -7.43699        -1.65552
| 39>    C       -0.23884        -6.59836        -1.86231
| 40>    N       -1.47626        -7.03784        -1.92140
| 41>    C       -2.33208        -6.04989        -2.10999
| 42>    C       -1.78172        -4.74940        -2.22845
| 43>    S       -0.07253        -4.82558        -2.06701
| 44>    N       -2.63735        -3.76098        -2.41704
| 45>    C       -3.87603        -4.19985        -2.44192
| 46>    S       -4.04300        -5.97233        -2.23193
| 47>    C       -4.98131        -3.37138        -2.61934
| 48>    C       -4.83295        -2.02335        -2.86428
| 49>    C       -5.85785        -1.06882        -3.05587
| 50>    C       -5.40000         0.18536        -3.33115
| 51>    C       -3.99127         0.27221        -3.37708
| 52>    S       -3.26164        -1.28368        -3.02022
| 53>    C       -3.22883         1.38253        -3.68934
| 54>    C       -3.66963         2.69014        -3.99061
| 55>    C       -2.66433         3.55114        -4.30510
| 56>    C       -1.36282         2.98055        -4.27806
| 57>    S       -1.48596         1.29418        -3.80395
| 58>    C       -0.22319         3.67231        -4.60200
| 59>    C        1.12600         3.24257        -4.64804
| 60>    C        1.57101         1.98196        -4.39333
| 61>    C        2.95187         1.62287        -4.47252
| 62>    C        3.91418         2.53494        -4.64796
| 63>    C        3.59748         4.00231        -4.71586
| 64>    C        2.13304         4.29188        -5.11801
| 65>    N        1.67655         5.59509        -4.68869
| 66>    C        2.19960         6.11437        -3.67026
| 67>    C        3.32975         5.50115        -2.95136
| 68>    N        3.98823         4.54378        -3.42793
| 69>    F        3.65770         5.99956        -1.76185
| 70>    F        1.75447         7.29422        -3.24391
| 71>    H       -8.92928       -12.84408        -3.79420
| 72>    H       -8.53469       -15.15018        -3.00195
| 73>    H       -6.26286       -15.96728        -2.60381
| 74>    H       -4.66651       -12.20500        -3.54673
| 75>    H       -6.55457       -12.34466        -4.90049
| 76>    H       -3.98583       -15.63129        -2.25703
| 77>    H       -1.57867       -15.56052        -1.69495
| 78>    H        0.36918       -13.92661        -1.29470
| 79>    H        1.79853       -11.93967        -1.19522
| 80>    H        2.70229        -9.52188        -1.18696
| 81>    H        1.83765        -7.00571        -1.56702
| 82>    H       -5.96789        -3.80450        -2.57195
| 83>    H       -6.89652        -1.34079        -2.98947
| 84>    H       -6.03518         1.03369        -3.51345
| 85>    H       -4.71056         2.95796        -3.96842
| 86>    H       -2.80952         4.58497        -4.56453
| 87>    H       -0.38221         4.70847        -4.87245
| 88>    H        0.87465         1.21001        -4.11150
| 89>    H        3.20358         0.57845        -4.36620
| 90>    H        4.96034         2.27850        -4.63914
| 91>    H        4.26912         4.48148        -5.44319
| 92>    H        2.06973         4.30865        -6.21544
| 93> *
| 94>
| 95>                          ****END OF INPUT****

CARTESIAN COORDINATES (ANGSTROEM)
---------------------------------
  C     -7.942740  -13.216930   -3.572280
  C     -7.714160  -14.461340   -3.136490
  C     -6.396710  -14.919860   -2.829720
  C     -5.326830  -14.076170   -2.756490
  C     -5.537990  -12.595670   -3.003320
  C     -6.803050  -12.271780   -3.831080
  N     -7.290060  -10.924440   -3.644340
  C     -7.008220  -10.318550   -2.579630
  C     -6.167080  -10.912050   -1.523780
  N     -5.506720  -11.966120   -1.700700
  F     -6.159830  -10.324980   -0.330750
  F     -7.488560   -9.094420   -2.381750
  C     -4.054480  -14.555290   -2.368360
  C     -2.894960  -13.870420   -2.104490
  C     -1.661070  -14.490000   -1.764840
  C     -0.630090  -13.626730   -1.555020
  C     -0.987870  -12.268790   -1.703640
  S     -2.680460  -12.128330   -2.111150
  C     -0.196500  -11.140260   -1.586230
  C      1.191200  -11.064780   -1.345290
  C      1.671350   -9.787410   -1.342230
  C      0.682980   -8.803010   -1.568510
  S     -0.885050   -9.536660   -1.771000
  C      0.853450   -7.436990   -1.655520
  C     -0.238840   -6.598360   -1.862310
  N     -1.476260   -7.037840   -1.921400
  C     -2.332080   -6.049890   -2.109990
  C     -1.781720   -4.749400   -2.228450
  S     -0.072530   -4.825580   -2.067010
  N     -2.637350   -3.760980   -2.417040
  C     -3.876030   -4.199850   -2.441920
  S     -4.043000   -5.972330   -2.231930
  C     -4.981310   -3.371380   -2.619340
  C     -4.832950   -2.023350   -2.864280
  C     -5.857850   -1.068820   -3.055870
  C     -5.400000    0.185360   -3.331150
  C     -3.991270    0.272210   -3.377080
  S     -3.261640   -1.283680   -3.020220
  C     -3.228830    1.382530   -3.689340
  C     -3.669630    2.690140   -3.990610
  C     -2.664330    3.551140   -4.305100
  C     -1.362820    2.980550   -4.278060
  S     -1.485960    1.294180   -3.803950
  C     -0.223190    3.672310   -4.602000
  C      1.126000    3.242570   -4.648040
  C      1.571010    1.981960   -4.393330
  C      2.951870    1.622870   -4.472520
  C      3.914180    2.534940   -4.647960
  C      3.597480    4.002310   -4.715860
  C      2.133040    4.291880   -5.118010
  N      1.676550    5.595090   -4.688690
  C      2.199600    6.114370   -3.670260
  C      3.329750    5.501150   -2.951360
  N      3.988230    4.543780   -3.427930
  F      3.657700    5.999560   -1.761850
  F      1.754470    7.294220   -3.243910
  H     -8.929280  -12.844080   -3.794200
  H     -8.534690  -15.150180   -3.001950
  H     -6.262860  -15.967280   -2.603810
  H     -4.666510  -12.205000   -3.546730
  H     -6.554570  -12.344660   -4.900490
  H     -3.985830  -15.631290   -2.257030
  H     -1.578670  -15.560520   -1.694950
  H      0.369180  -13.926610   -1.294700
  H      1.798530  -11.939670   -1.195220
  H      2.702290   -9.521880   -1.186960
  H      1.837650   -7.005710   -1.567020
  H     -5.967890   -3.804500   -2.571950
  H     -6.896520   -1.340790   -2.989470
  H     -6.035180    1.033690   -3.513450
  H     -4.710560    2.957960   -3.968420
  H     -2.809520    4.584970   -4.564530
  H     -0.382210    4.708470   -4.872450
  H      0.874650    1.210010   -4.111500
  H      3.203580    0.578450   -4.366200
  H      4.960340    2.278500   -4.639140
  H      4.269120    4.481480   -5.443190
  H      2.069730    4.308650   -6.215440

 Total Charge           Charge          ....    0
 Multiplicity           Mult            ....    1
 Number of Electrons    NEL             ....  436
 Basis Dimension        Dim             ....  918

ORBITAL ENERGIES
----------------

  NO   OCC          E(Eh)            E(eV)
   0   2.0000     -88.952742     -2420.5272
   1   2.0000     -88.952620     -2420.5238
   2   2.0000     -88.942963     -2420.2611
   3   2.0000     -88.942328     -2420.2438
   4   2.0000     -88.935260     -2420.0514
   5   2.0000     -88.934299     -2420.0253
   6   2.0000     -24.798272      -674.7953
   7   2.0000     -24.796500      -674.7471
   8   2.0000     -24.794938      -674.7046
   9   2.0000     -24.794927      -674.7043
  10   2.0000     -14.425173      -392.5289
  11   2.0000     -14.424475      -392.5099
  12   2.0000     -14.423703      -392.4889
  13   2.0000     -14.423587      -392.4857
  14   2.0000     -14.406734      -392.0272
  15   2.0000     -14.405889      -392.0042
  16   2.0000     -10.412177      -283.3297
  17   2.0000     -10.410155      -283.2747
  18   2.0000     -10.408949      -283.2419
  19   2.0000     -10.408229      -283.2223
  20   2.0000     -10.329120      -281.0696
  21   2.0000     -10.328883      -281.0632
  22   2.0000     -10.320607      -280.8380
  23   2.0000     -10.320340      -280.8307
  24   2.0000     -10.320042      -280.8226
  25   2.0000     -10.318911      -280.7919
  26   2.0000     -10.317544      -280.7546
  27   2.0000     -10.316986      -280.7395
  28   2.0000     -10.307579      -280.4835
  29   2.0000     -10.307408      -280.4788
  30   2.0000     -10.306639      -280.4579
  31   2.0000     -10.303545      -280.3737
  32   2.0000     -10.303534      -280.3734
  33   2.0000     -10.303398      -280.3697
  34   2.0000     -10.297335      -280.2047
  35   2.0000     -10.294588      -280.1300
  36   2.0000     -10.286772      -279.9173
  37   2.0000     -10.285078      -279.8712
  38   2.0000     -10.284507      -279.8557
  39   2.0000     -10.282183      -279.7924
  40   2.0000     -10.282002      -279.7875
  41   2.0000     -10.281995      -279.7873
  42   2.0000     -10.281855      -279.7835
  43   2.0000     -10.281223      -279.7663
  44   2.0000     -10.281203      -279.7658
  45   2.0000     -10.278499      -279.6922
  46   2.0000     -10.277708      -279.6706
  47   2.0000     -10.275733      -279.6169
  48   2.0000     -10.275180      -279.6019
  49   2.0000     -10.274277      -279.5773
  50   2.0000     -10.273823      -279.5649
  51   2.0000     -10.273191      -279.5477
  52   2.0000     -10.271659      -279.5060
  53   2.0000     -10.270791      -279.4824
  54   2.0000     -10.269913      -279.4585
  55   2.0000     -10.268383      -279.4169
  56   2.0000      -8.048722      -219.0169
  57   2.0000      -8.048588      -219.0132
  58   2.0000      -8.038724      -218.7448
  59   2.0000      -8.037974      -218.7244
  60   2.0000      -8.030037      -218.5084
  61   2.0000      -8.028938      -218.4785
  62   2.0000      -6.017814      -163.7530
  63   2.0000      -6.017724      -163.7506
  64   2.0000      -6.014400      -163.6601
  65   2.0000      -6.014266      -163.6565
  66   2.0000      -6.010354      -163.5501
  67   2.0000      -6.010190      -163.5456
  68   2.0000      -6.008443      -163.4980
  69   2.0000      -6.007741      -163.4790
  70   2.0000      -6.004330      -163.3861
  71   2.0000      -6.003516      -163.3640
  72   2.0000      -5.999946      -163.2668
  73   2.0000      -5.999808      -163.2631
  74   2.0000      -5.998997      -163.2410
  75   2.0000      -5.998859      -163.2373
  76   2.0000      -5.995427      -163.1439
  77   2.0000      -5.994304      -163.1133
  78   2.0000      -5.991110      -163.0264
  79   2.0000      -5.990032      -162.9971
  80   2.0000      -1.325905       -36.0797
  81   2.0000      -1.325216       -36.0610
  82   2.0000      -1.310919       -35.6719
  83   2.0000      -1.310480       -35.6600
  84   2.0000      -1.079037       -29.3621
  85   2.0000      -1.075278       -29.2598
  86   2.0000      -1.074998       -29.2522
  87   2.0000      -1.038973       -28.2719
  88   2.0000      -1.008592       -27.4452
  89   2.0000      -1.007837       -27.4246
  90   2.0000      -0.989553       -26.9271
  91   2.0000      -0.988725       -26.9046
  92   2.0000      -0.968253       -26.3475
  93   2.0000      -0.966826       -26.3087
  94   2.0000      -0.942341       -25.6424
  95   2.0000      -0.937233       -25.5034
  96   2.0000      -0.905204       -24.6319
  97   2.0000      -0.896836       -24.4041
  98   2.0000      -0.887681       -24.1550
  99   2.0000      -0.879402       -23.9297
 100   2.0000      -0.866774       -23.5861
 101   2.0000      -0.859593       -23.3907
 102   2.0000      -0.852290       -23.1920
 103   2.0000      -0.848886       -23.0994
 104   2.0000      -0.847173       -23.0527
 105   2.0000      -0.843613       -22.9559
 106   2.0000      -0.831565       -22.6280
 107   2.0000      -0.828853       -22.5542
 108   2.0000      -0.815481       -22.1904
 109   2.0000      -0.813917       -22.1478
 110   2.0000      -0.802707       -21.8428
 111   2.0000      -0.787866       -21.4389
 112   2.0000      -0.767585       -20.8871
 113   2.0000      -0.767203       -20.8767
 114   2.0000      -0.763204       -20.7678
 115   2.0000      -0.752304       -20.4712
 116   2.0000      -0.746333       -20.3087
 117   2.0000      -0.737852       -20.0780
 118   2.0000      -0.719117       -19.5682
 119   2.0000      -0.701117       -19.0784
 120   2.0000      -0.685765       -18.6606
 121   2.0000      -0.678778       -18.4705
 122   2.0000      -0.672079       -18.2882
 123   2.0000      -0.666061       -18.1245
 124   2.0000      -0.660624       -17.9765
 125   2.0000      -0.659578       -17.9480
 126   2.0000      -0.654433       -17.8080
 127   2.0000      -0.654056       -17.7978
 128   2.0000      -0.649104       -17.6630
 129   2.0000      -0.648532       -17.6475
 130   2.0000      -0.638487       -17.3741
 131   2.0000      -0.633684       -17.2434
 132   2.0000      -0.625258       -17.0141
 133   2.0000      -0.618961       -16.8428
 134   2.0000      -0.617710       -16.8087
 135   2.0000      -0.612651       -16.6711
 136   2.0000      -0.611353       -16.6357
 137   2.0000      -0.606883       -16.5141
 138   2.0000      -0.605497       -16.4764
 139   2.0000      -0.598653       -16.2902
 140   2.0000      -0.592629       -16.1263
 141   2.0000      -0.587002       -15.9731
 142   2.0000      -0.580210       -15.7883
 143   2.0000      -0.577130       -15.7045
 144   2.0000      -0.574144       -15.6233
 145   2.0000      -0.564138       -15.3510
 146   2.0000      -0.555989       -15.1292
 147   2.0000      -0.554771       -15.0961
 148   2.0000      -0.552328       -15.0296
 149   2.0000      -0.543357       -14.7855
 150   2.0000      -0.542451       -14.7608
 151   2.0000      -0.539840       -14.6898
 152   2.0000      -0.536293       -14.5933
 153   2.0000      -0.534338       -14.5401
 154   2.0000      -0.530571       -14.4376
 155   2.0000      -0.528674       -14.3859
 156   2.0000      -0.523424       -14.2431
 157   2.0000      -0.521439       -14.1891
 158   2.0000      -0.517100       -14.0710
 159   2.0000      -0.515196       -14.0192
 160   2.0000      -0.505909       -13.7665
 161   2.0000      -0.504713       -13.7340
 162   2.0000      -0.502339       -13.6693
 163   2.0000      -0.499450       -13.5907
 164   2.0000      -0.497473       -13.5369
 165   2.0000      -0.493580       -13.4310
 166   2.0000      -0.492669       -13.4062
 167   2.0000      -0.491016       -13.3612
 168   2.0000      -0.490799       -13.3553
 169   2.0000      -0.488681       -13.2977
 170   2.0000      -0.488400       -13.2900
 171   2.0000      -0.482487       -13.1291
 172   2.0000      -0.480073       -13.0634
 173   2.0000      -0.475500       -12.9390
 174   2.0000      -0.474813       -12.9203
 175   2.0000      -0.469750       -12.7825
 176   2.0000      -0.459841       -12.5129
 177   2.0000      -0.458146       -12.4668
 178   2.0000      -0.456411       -12.4196
 179   2.0000      -0.445932       -12.1344
 180   2.0000      -0.444389       -12.0924
 181   2.0000      -0.442117       -12.0306
 182   2.0000      -0.440650       -11.9907
 183   2.0000      -0.439773       -11.9668
 184   2.0000      -0.429203       -11.6792
 185   2.0000      -0.426842       -11.6150
 186   2.0000      -0.423335       -11.5195
 187   2.0000      -0.419944       -11.4273
 188   2.0000      -0.416331       -11.3289
 189   2.0000      -0.411821       -11.2062
 190   2.0000      -0.411286       -11.1917
 191   2.0000      -0.410591       -11.1727
 192   2.0000      -0.409487       -11.1427
 193   2.0000      -0.400899       -10.9090
 194   2.0000      -0.396259       -10.7828
 195   2.0000      -0.389460       -10.5977
 196   2.0000      -0.386327       -10.5125
 197   2.0000      -0.384338       -10.4584
 198   2.0000      -0.383295       -10.4300
 199   2.0000      -0.375486       -10.2175
 200   2.0000      -0.355207        -9.6657
 201   2.0000      -0.354666        -9.6510
 202   2.0000      -0.348848        -9.4926
 203   2.0000      -0.344526        -9.3750
 204   2.0000      -0.340796        -9.2735
 205   2.0000      -0.338208        -9.2031
 206   2.0000      -0.333935        -9.0868
 207   2.0000      -0.331872        -9.0307
 208   2.0000      -0.326316        -8.8795
 209   2.0000      -0.319706        -8.6996
 210   2.0000      -0.317612        -8.6427
 211   2.0000      -0.313535        -8.5317
 212   2.0000      -0.309017        -8.4088
 213   2.0000      -0.303013        -8.2454
 214   2.0000      -0.283209        -7.7065
 215   2.0000      -0.258857        -7.0439
 216   2.0000      -0.220842        -6.0094
 217   2.0000      -0.195573        -5.3218
 218   0.0000      -0.090170        -2.4537
 219   0.0000      -0.070687        -1.9235
 220   0.0000      -0.029664        -0.8072
 221   0.0000      -0.028498        -0.7755
 222   0.0000      -0.022033        -0.5995

MULLIKEN ATOMIC CHARGES
-----------------------
   0 C :   -0.049482
   1 C :    0.063313
   2 C :   -0.058435
   3 C :    0.076181
   4 C :    0.032275
   5 C :    0.128345
   6 N :   -0.091220
   7 C :    0.096774
   8 C :    0.126809
   9 N :   -0.085133
  10 F :   -0.145168
  11 F :   -0.147605
  12 C :   -0.037315
  13 C :   -0.006913
  14 C :    0.034470
  15 C :    0.032731
  16 C :   -0.037615
  17 S :    0.083140
  18 C :   -0.045186
  19 C :    0.028930
  20 C :    0.032727
  21 C :   -0.013893
  22 S :    0.122975
  23 C :    0.005308
  24 C :   -0.064144
  25 N :   -0.090790
  26 C :   -0.065630
  27 C :   -0.069312
  28 S :    0.112616
  29 N :   -0.083683
  30 C :   -0.075081
  31 S :    0.115970
  32 C :    0.009490
  33 C :   -0.014390
  34 C :    0.032680
  35 C :    0.028199
  36 C :   -0.042213
  37 S :    0.129340
  38 C :   -0.038063
  39 C :    0.026367
  40 C :    0.038762
  41 C :   -0.006178
  42 S :    0.067434
  43 C :   -0.018029
  44 C :   -0.018438
  45 C :   -0.048631
  46 C :    0.031230
  47 C :   -0.000558
  48 C :    0.101697
  49 C :    0.099941
  50 N :   -0.103072
  51 C :    0.112800
  52 C :    0.112801
  53 N :   -0.087421
  54 F :   -0.147915
  55 F :   -0.147455
  56 H :    0.009955
  57 H :   -0.008273
  58 H :   -0.019104
  59 H :    0.046128
  60 H :    0.038891
  61 H :   -0.021283
  62 H :   -0.011477
  63 H :   -0.014707
  64 H :   -0.017559
  65 H :   -0.015557
  66 H :   -0.018420
  67 H :   -0.014562
  68 H :   -0.012982
  69 H :   -0.015632
  70 H :   -0.014234
  71 H :   -0.009316
  72 H :    0.002254
  73 H :   -0.004466
  74 H :   -0.009124
  75 H :    0.001232
  76 H :    0.025479
  77 H :    0.038418
Sum of atomic charges:   -0.0000000

LOEWDIN ATOMIC CHARGES
----------------------
   0 C :   -0.022289
   1 C :   -0.035321
   2 C :   -0.027365
   3 C :   -0.021456
   4 C :    0.005514
   5 C :    0.011935
   6 N :   -0.069329
   7 C :    0.046184
   8 C :    0.048270
   9 N :   -0.073808
  10 F :   -0.033400
  11 F :   -0.036137
  12 C :   -0.044260
  13 C :   -0.144717
  14 C :   -0.026046
  15 C :   -0.035911
  16 C :   -0.168627
  17 S :    0.410583
  18 C :   -0.193870
  19 C :   -0.028419
  20 C :   -0.041185
  21 C :   -0.124132
  22 S :    0.425047
  23 C :   -0.107122
  24 C :   -0.118644
  25 N :   -0.127959
  26 C :   -0.209208
  27 C :   -0.210110
  28 S :    0.391075
  29 N :   -0.124506
  30 C :   -0.120254
  31 S :    0.395230
  32 C :   -0.102437
  33 C :   -0.126047
  34 C :   -0.037438
  35 C :   -0.028758
  36 C :   -0.187744
  37 S :    0.423213
  38 C :   -0.168813
  39 C :   -0.039477
  40 C :   -0.023891
  41 C :   -0.139882
  42 S :    0.391431
  43 C :   -0.058025
  44 C :   -0.035466
  45 C :   -0.039675
  46 C :   -0.027389
  47 C :   -0.017716
  48 C :    0.011436
  49 C :    0.021137
  50 N :   -0.072052
  51 C :    0.052168
  52 C :    0.040805
  53 N :   -0.063674
  54 F :   -0.037179
  55 F :   -0.036429
  56 H :    0.030105
  57 H :    0.032505
  58 H :    0.027854
  59 H :    0.024701
  60 H :    0.046553
  61 H :    0.035403
  62 H :    0.033031
  63 H :    0.031856
  64 H :    0.028934
  65 H :    0.031831
  66 H :    0.032551
  67 H :    0.034053
  68 H :    0.032856
  69 H :    0.029621
  70 H :    0.031704
  71 H :    0.034705
  72 H :    0.035471
  73 H :    0.013572
  74 H :    0.032961
  75 H :    0.028277
  76 H :    0.038535
  77 H :    0.045058

  Mayer bond orders larger than 0.100000
B(  0-C ,  1-C ) :   1.7788 B(  0-C ,  5-C ) :   0.9731 B(  0-C , 56-H ) :   0.9820
B(  1-C ,  2-C ) :   1.0801 B(  1-C , 57-H ) :   0.9822 B(  2-C ,  3-C ) :   1.6456
B(  2-C , 58-H ) :   0.9882 B(  3-C ,  4-C ) :   0.9686 B(  3-C , 12-C ) :   1.1706
B(  4-C ,  5-C ) :   0.9797 B(  4-C ,  9-N ) :   1.0147 B(  4-C , 59-H ) :   0.8824
B(  5-C ,  6-N ) :   1.0035 B(  5-C , 60-H ) :   0.8839 B(  6-N ,  7-C ) :   1.9603
B(  7-C ,  8-C ) :   0.9332 B(  7-C , 11-F ) :   1.1575 B(  8-C ,  9-N ) :   1.9495
B(  8-C , 10-F ) :   1.1649 B( 12-C , 13-C ) :   1.5602 B( 12-C , 61-H ) :   0.9715
B( 13-C , 14-C ) :   1.1403 B( 13-C , 17-S ) :   1.0285 B( 14-C , 15-C ) :   1.5900
B( 14-C , 62-H ) :   1.0000 B( 15-C , 16-C ) :   1.1846 B( 15-C , 63-H ) :   0.9932
B( 16-C , 17-S ) :   1.0604 B( 16-C , 18-C ) :   1.4988 B( 18-C , 19-C ) :   1.1959
B( 18-C , 22-S ) :   1.0011 B( 19-C , 20-C ) :   1.5730 B( 19-C , 64-H ) :   0.9951
B( 20-C , 21-C ) :   1.1608 B( 20-C , 65-H ) :   0.9994 B( 21-C , 22-S ) :   1.0878
B( 21-C , 23-C ) :   1.5355 B( 23-C , 24-C ) :   1.2183 B( 23-C , 66-H ) :   0.9605
B( 24-C , 25-N ) :   1.5587 B( 24-C , 28-S ) :   1.0451 B( 25-N , 26-C ) :   1.4311
B( 26-C , 27-C ) :   1.2657 B( 26-C , 31-S ) :   1.0975 B( 27-C , 28-S ) :   1.0944
B( 27-C , 29-N ) :   1.4345 B( 29-N , 30-C ) :   1.5688 B( 30-C , 31-S ) :   1.0473
B( 30-C , 32-C ) :   1.2123 B( 32-C , 33-C ) :   1.5453 B( 32-C , 67-H ) :   0.9587
B( 33-C , 34-C ) :   1.1556 B( 33-C , 37-S ) :   1.0823 B( 34-C , 35-C ) :   1.5781
B( 34-C , 68-H ) :   1.0005 B( 35-C , 36-C ) :   1.1902 B( 35-C , 69-H ) :   0.9951
B( 36-C , 37-S ) :   1.0059 B( 36-C , 38-C ) :   1.5075 B( 38-C , 39-C ) :   1.1850
B( 38-C , 42-S ) :   1.0430 B( 39-C , 40-C ) :   1.5858 B( 39-C , 70-H ) :   0.9933
B( 40-C , 41-C ) :   1.1447 B( 40-C , 71-H ) :   0.9995 B( 41-C , 42-S ) :   1.0394
B( 41-C , 43-C ) :   1.5615 B( 43-C , 44-C ) :   1.1839 B( 43-C , 72-H ) :   0.9563
B( 44-C , 45-C ) :   1.6726 B( 44-C , 49-C ) :   0.9383 B( 45-C , 46-C ) :   1.1096
B( 45-C , 73-H ) :   0.9641 B( 46-C , 47-C ) :   1.7969 B( 46-C , 74-H ) :   0.9790
B( 47-C , 48-C ) :   0.9968 B( 47-C , 75-H ) :   0.9746 B( 48-C , 49-C ) :   0.9826
B( 48-C , 53-N ) :   1.0002 B( 48-C , 76-H ) :   0.9027 B( 49-C , 50-N ) :   1.0106
B( 49-C , 77-H ) :   0.8866 B( 50-N , 51-C ) :   1.9411 B( 51-C , 52-C ) :   0.9352
B( 51-C , 55-F ) :   1.1614 B( 52-C , 53-N ) :   1.9616 B( 52-C , 54-F ) :   1.1602

-----------------------------------------------------------------------------
         ABSORPTION SPECTRUM VIA TRANSITION ELECTRIC DIPOLE MOMENTS
-----------------------------------------------------------------------------
State   Energy  Wavelength   fosc         T2         TX        TY        TZ
        (cm-1)    (nm)                  (au**2)     (au)      (au)      (au)
-----------------------------------------------------------------------------
   0   10621.9    941.5   1.615237367  50.06218  -1.85822  -6.78691   0.73965
   1   15475.3    646.2   0.020039615   0.42631  -0.08013  -0.08515  -0.64237
   2   16616.6    601.8   0.045311833   0.89773   0.05298   0.07996   0.94262
   3   20410.6    489.9   0.005909962   0.09532   0.22226  -0.21202   0.03118
   4   21627.9    462.4   0.637859642   9.70928  -3.01590  -0.76907  -0.14887
   5   22064.6    453.2   0.071115758   1.06107   1.01509   0.02020   0.17393
   6   22843.2    437.8   0.022237605   0.32048   0.42730   0.34095  -0.14716
   7   25416.4    393.4   0.052221980   0.67642  -0.76839   0.26806  -0.11892
   8   26234.1    381.2   1.443854462  18.11895   4.09966  -1.05609   0.44323
   9   28842.9    346.7   0.002566058   0.02929   0.16209  -0.01326  -0.05328
  10   29241.9    342.0   0.020740469   0.23350   0.34195  -0.18839  -0.28475
  11   29447.0    339.6   0.000564199   0.00631   0.07898  -0.00442   0.00712
  12   29778.8    335.8   0.005695637   0.06297  -0.05705  -0.24406  -0.01216
  13   30463.9    328.3   0.058207902   0.62903   0.72739  -0.25987   0.18002
  14   30593.9    326.9   0.000516996   0.00556   0.00943   0.06923   0.02610
  15   31143.8    321.1   0.003891308   0.04113  -0.13224  -0.07551  -0.13396
  16   31286.9    319.6   0.010803681   0.11368   0.30286   0.10295   0.10658
  17   31792.4    314.5   0.005501931   0.05697  -0.05179  -0.00451  -0.23296
  18   32811.5    304.8   0.003770585   0.03783  -0.19064  -0.03647   0.01257
  19   34000.4    294.1   0.039009315   0.37771   0.60632  -0.06478   0.07671
  20   34183.5    292.5   0.001845451   0.01777   0.11743   0.02786   0.05664
  21   34246.2    292.0   0.001377991   0.01325  -0.05057   0.04295   0.09405
  22   34521.2    289.7   0.022245862   0.21215   0.25319  -0.38280   0.03887
  23   34747.6    287.8   0.005294232   0.05016   0.07732   0.19897  -0.06777
  24   34791.9    287.4   0.011604133   0.10980  -0.30978  -0.05009   0.10643
  25   35636.1    280.6   0.123468741   1.14062  -0.45005   0.94802  -0.19836
  26   35839.2    279.0   0.020934443   0.19230  -0.29637   0.31729   0.06160
  27   36224.2    276.1   0.004531539   0.04118   0.09604  -0.17744   0.02180
  28   37243.6    268.5   0.198994031   1.75899  -0.61770  -1.16607   0.13309
  29   37439.7    267.1   0.001985141   0.01746   0.01217   0.04227  -0.12458
  30   37705.9    265.2   0.003454748   0.03016   0.15228   0.07745   0.03126
  31   38091.2    262.5   0.014634948   0.12649  -0.24359   0.21533  -0.14416
  32   38119.9    262.3   0.015925583   0.13754  -0.23147   0.26872  -0.10839
  33   38297.5    261.1   0.031480148   0.27061  -0.18314   0.47609  -0.10202
  34   38774.3    257.9   0.008016408   0.06806  -0.00566  -0.23949   0.10333
  35   38926.0    256.9   0.012897723   0.10908  -0.14338   0.29752  -0.00254
  36   39258.7    254.7   0.004517271   0.03788  -0.04369  -0.18469   0.04315
  37   39443.1    253.5   0.003201892   0.02672   0.07041  -0.14754   0.00095
  38   40075.4    249.5   0.000330805   0.00272  -0.04102   0.03103  -0.00851
  39   40232.4    248.6   0.010105592   0.08269  -0.25805   0.11672  -0.04981

FINAL SINGLE POINT ENERGY     -4650.841400333300

DIPOLE MOMENT
-------------
                                X             Y             Z
Electronic contribution:      0.08157      25.66598      14.21803
Nuclear contribution   :     -0.14359     -27.44125     -15.30704
                        -----------------------------------------
Total Dipole Moment    :     -0.06201      -1.77527      -1.08901
                        -----------------------------------------
Magnitude (a.u.)       :      2.08360
Magnitude (Debye)      :      5.29608

Rotational constants in cm-1:     0.002627     0.000379     0.000339
Rotational constants in MHz :    78.769435    11.366801    10.154396

                             ****ORCA TERMINATED NORMALLY****
TOTAL RUN TIME: 0 days 0 hours 14 minutes 7 seconds 556 msec
