                         Program Version 4.2.0 -  RELEASE  -
|  1> # ORCA input file
|  2> # SCF done       -191.641108655979          0.000366156137
|  3> ! CAM-B3LYP def2-SVP def2/J RIJCOSX Grid4 TightSCF
|  4> %maxcore 5000
|  5> %tddft
|  6>     Mode sTDDFT
|  7>     Ethresh 5.0
|  8>     maxcore 5000
|  9> end
| 10>
| 11> %pal
| 12>   nprocs 6
| 13>   end
| 14> * xyz 0 1
| 15>    C       -3.76125         1.65411         6.80799
| 16>    C       -3.26669         1.81423         8.07189
| 17>    F       -3.44259         2.97178         8.72222
| 18>    C       -2.56852         0.76755         8.70724
| 19>    F       -2.09599         0.95215         9.94729
| 20>    C       -2.37477        -0.42546         8.06931
| 21>    C       -2.87421        -0.62207         6.76717
| 22>    C       -3.57942         0.43577         6.12292
| 23>    C       -4.09150         0.26079         4.81685
| 24>    C       -3.90933        -0.93812         4.17925
| 25>    C       -3.21284        -1.99067         4.83321
| 26>    C       -2.69842        -1.84881         6.08956
| 27>    C       -3.17677        -3.18074         3.95955
| 28>    O       -2.59859        -4.21812         4.20436
| 29>    C       -3.99863        -2.82808         2.77724
| 30>    C       -4.32479        -1.41314         2.86386
| 31>    C       -4.85145        -0.63295         1.86916
| 32>    C       -5.14467        -1.07033         0.55922
| 33>    N       -5.38543        -1.34423        -0.52941
| 34>    C       -5.12216         0.74445         2.01345
| 35>    N       -5.36696         1.86412         2.07494
| 36>    C       -4.55300        -3.67263         1.85429
| 37>    C       -4.37256        -5.05541         1.65039
| 38>    C       -3.40584        -5.94383         2.09566
| 39>    C       -3.66027        -7.23772         1.66313
| 40>    C       -4.81977        -7.37502         0.87961
| 41>    S       -5.58633        -5.85511         0.64185
| 42>    C       -5.10631        -8.68760         0.50996
| 43>    C       -4.16678        -9.57909         0.99281
| 44>    S       -2.89925        -8.76723         1.90967
| 45>    C       -4.17376       -11.00369         0.91537
| 46>    C       -3.25247       -11.76099         1.56852
| 47>    C       -3.35461       -13.16687         1.70628
| 48>    C       -4.30289       -13.89010         1.05537
| 49>    C       -5.11240       -13.20227        -0.02193
| 50>    C       -5.33748       -11.69224         0.21457
| 51>    N       -5.64569       -10.98814        -1.00994
| 52>    C       -5.19305       -11.42393        -2.09948
| 53>    C       -4.43931       -12.68730        -2.19575
| 54>    N       -4.40907       -13.51379        -1.25016
| 55>    F       -3.78618       -12.94722        -3.32046
| 56>    F       -5.44568       -10.75608        -3.21733
| 57>    C       -4.51339       -15.28271         1.27163
| 58>    C       -3.73451       -16.15314         2.01129
| 59>    C       -4.30692       -17.41898         2.10514
| 60>    C       -5.54049       -17.53732         1.44483
| 61>    S       -5.96213       -16.06439         0.65472
| 62>    C       -6.16442       -18.76518         1.62493
| 63>    C       -5.40837       -19.61596         2.41411
| 64>    S       -3.88390       -18.88610         2.89776
| 65>    C       -5.69421       -20.93471         2.83332
| 66>    C       -6.90504       -21.54413         2.97011
| 67>    C       -6.96145       -23.03123         3.03653
| 68>    O       -6.02523       -23.78363         3.17192
| 69>    C       -8.38539       -23.37563         2.85079
| 70>    C       -8.96220       -24.60736         2.73501
| 71>    C      -10.35945       -24.69636         2.54436
| 72>    C      -11.13181       -23.50115         2.46544
| 73>    C      -12.52421       -23.59599         2.26923
| 74>    C      -13.12261       -24.81994         2.16232
| 75>    C      -12.35835       -26.00160         2.24343
| 76>    C      -11.00559       -25.94262         2.42971
| 77>    F      -12.97174       -27.18729         2.13526
| 78>    F      -14.44606       -24.90832         1.97899
| 79>    C      -10.50702       -22.23962         2.59325
| 80>    C       -9.15400       -22.17815         2.79419
| 81>    C       -8.26115       -21.04178         3.01364
| 82>    C       -8.66712       -19.80474         3.44363
| 83>    C       -7.79919       -18.80308         3.92215
| 84>    N       -7.15029       -17.96587         4.36479
| 85>    C      -10.01807       -19.41304         3.54456
| 86>    N      -11.09862       -19.03418         3.62367
| 87>    H       -4.29208         2.46599         6.33585
| 88>    H       -1.83898        -1.21716         8.56919
| 89>    H       -4.62536         1.07746         4.35855
| 90>    H       -2.17132        -2.66393         6.56166
| 91>    H       -5.30546        -3.24179         1.20286
| 92>    H       -2.57715        -5.65291         2.71267
| 93>    H       -5.95408        -8.98347        -0.07709
| 94>    H       -2.44309       -11.26540         2.08486
| 95>    H       -2.68790       -13.64617         2.40476
| 96>    H       -6.09250       -13.69223        -0.10988
| 97>    H       -6.21809       -11.55780         0.85895
| 98>    H       -2.79661       -15.88579         2.45920
| 99>    H       -7.10392       -19.04197         1.18206
|100>    H       -4.83679       -21.56991         3.03508
|101>    H       -8.36120       -25.50205         2.79170
|102>    H      -13.12431       -22.70146         2.20967
|103>    H      -10.43499       -26.85611         2.48968
|104>    H      -11.11507       -21.35192         2.52278
|105> *
|106>
|107>                          ****END OF INPUT****

CARTESIAN COORDINATES (ANGSTROEM)
---------------------------------
  C     -3.761250    1.654110    6.807990
  C     -3.266690    1.814230    8.071890
  F     -3.442590    2.971780    8.722220
  C     -2.568520    0.767550    8.707240
  F     -2.095990    0.952150    9.947290
  C     -2.374770   -0.425460    8.069310
  C     -2.874210   -0.622070    6.767170
  C     -3.579420    0.435770    6.122920
  C     -4.091500    0.260790    4.816850
  C     -3.909330   -0.938120    4.179250
  C     -3.212840   -1.990670    4.833210
  C     -2.698420   -1.848810    6.089560
  C     -3.176770   -3.180740    3.959550
  O     -2.598590   -4.218120    4.204360
  C     -3.998630   -2.828080    2.777240
  C     -4.324790   -1.413140    2.863860
  C     -4.851450   -0.632950    1.869160
  C     -5.144670   -1.070330    0.559220
  N     -5.385430   -1.344230   -0.529410
  C     -5.122160    0.744450    2.013450
  N     -5.366960    1.864120    2.074940
  C     -4.553000   -3.672630    1.854290
  C     -4.372560   -5.055410    1.650390
  C     -3.405840   -5.943830    2.095660
  C     -3.660270   -7.237720    1.663130
  C     -4.819770   -7.375020    0.879610
  S     -5.586330   -5.855110    0.641850
  C     -5.106310   -8.687600    0.509960
  C     -4.166780   -9.579090    0.992810
  S     -2.899250   -8.767230    1.909670
  C     -4.173760  -11.003690    0.915370
  C     -3.252470  -11.760990    1.568520
  C     -3.354610  -13.166870    1.706280
  C     -4.302890  -13.890100    1.055370
  C     -5.112400  -13.202270   -0.021930
  C     -5.337480  -11.692240    0.214570
  N     -5.645690  -10.988140   -1.009940
  C     -5.193050  -11.423930   -2.099480
  C     -4.439310  -12.687300   -2.195750
  N     -4.409070  -13.513790   -1.250160
  F     -3.786180  -12.947220   -3.320460
  F     -5.445680  -10.756080   -3.217330
  C     -4.513390  -15.282710    1.271630
  C     -3.734510  -16.153140    2.011290
  C     -4.306920  -17.418980    2.105140
  C     -5.540490  -17.537320    1.444830
  S     -5.962130  -16.064390    0.654720
  C     -6.164420  -18.765180    1.624930
  C     -5.408370  -19.615960    2.414110
  S     -3.883900  -18.886100    2.897760
  C     -5.694210  -20.934710    2.833320
  C     -6.905040  -21.544130    2.970110
  C     -6.961450  -23.031230    3.036530
  O     -6.025230  -23.783630    3.171920
  C     -8.385390  -23.375630    2.850790
  C     -8.962200  -24.607360    2.735010
  C    -10.359450  -24.696360    2.544360
  C    -11.131810  -23.501150    2.465440
  C    -12.524210  -23.595990    2.269230
  C    -13.122610  -24.819940    2.162320
  C    -12.358350  -26.001600    2.243430
  C    -11.005590  -25.942620    2.429710
  F    -12.971740  -27.187290    2.135260
  F    -14.446060  -24.908320    1.978990
  C    -10.507020  -22.239620    2.593250
  C     -9.154000  -22.178150    2.794190
  C     -8.261150  -21.041780    3.013640
  C     -8.667120  -19.804740    3.443630
  C     -7.799190  -18.803080    3.922150
  N     -7.150290  -17.965870    4.364790
  C    -10.018070  -19.413040    3.544560
  N    -11.098620  -19.034180    3.623670
  H     -4.292080    2.465990    6.335850
  H     -1.838980   -1.217160    8.569190
  H     -4.625360    1.077460    4.358550
  H     -2.171320   -2.663930    6.561660
  H     -5.305460   -3.241790    1.202860
  H     -2.577150   -5.652910    2.712670
  H     -5.954080   -8.983470   -0.077090
  H     -2.443090  -11.265400    2.084860
  H     -2.687900  -13.646170    2.404760
  H     -6.092500  -13.692230   -0.109880
  H     -6.218090  -11.557800    0.858950
  H     -2.796610  -15.885790    2.459200
  H     -7.103920  -19.041970    1.182060
  H     -4.836790  -21.569910    3.035080
  H     -8.361200  -25.502050    2.791700
  H    -13.124310  -22.701460    2.209670
  H    -10.434990  -26.856110    2.489680
  H    -11.115070  -21.351920    2.522780

 Total Charge           Charge          ....    0
 Multiplicity           Mult            ....    1
 Number of Electrons    NEL             ....  518
 Basis Dimension        Dim             .... 1114

ORBITAL ENERGIES
----------------

  NO   OCC          E(Eh)            E(eV)
   0   2.0000     -88.976610     -2421.1766
   1   2.0000     -88.975263     -2421.1400
   2   2.0000     -88.970881     -2421.0208
   3   2.0000     -88.968914     -2420.9672
   4   2.0000     -24.817970      -675.3313
   5   2.0000     -24.815128      -675.2540
   6   2.0000     -24.800972      -674.8688
   7   2.0000     -24.800399      -674.8532
   8   2.0000     -24.798511      -674.8018
   9   2.0000     -24.797448      -674.7729
  10   2.0000     -19.221402      -523.0409
  11   2.0000     -19.219326      -522.9845
  12   2.0000     -14.445977      -393.0950
  13   2.0000     -14.444151      -393.0453
  14   2.0000     -14.421170      -392.4200
  15   2.0000     -14.419870      -392.3846
  16   2.0000     -14.415313      -392.2606
  17   2.0000     -14.414957      -392.2509
  18   2.0000     -10.433253      -283.9033
  19   2.0000     -10.429573      -283.8031
  20   2.0000     -10.384291      -282.5709
  21   2.0000     -10.383833      -282.5585
  22   2.0000     -10.381517      -282.4954
  23   2.0000     -10.380801      -282.4760
  24   2.0000     -10.372702      -282.2556
  25   2.0000     -10.370713      -282.2015
  26   2.0000     -10.348512      -281.5973
  27   2.0000     -10.348040      -281.5845
  28   2.0000     -10.347910      -281.5809
  29   2.0000     -10.346579      -281.5447
  30   2.0000     -10.342473      -281.4330
  31   2.0000     -10.341632      -281.4101
  32   2.0000     -10.329620      -281.0832
  33   2.0000     -10.327907      -281.0366
  34   2.0000     -10.327396      -281.0227
  35   2.0000     -10.326559      -281.0000
  36   2.0000     -10.325347      -280.9670
  37   2.0000     -10.323951      -280.9290
  38   2.0000     -10.321946      -280.8744
  39   2.0000     -10.321475      -280.8616
  40   2.0000     -10.321272      -280.8561
  41   2.0000     -10.318737      -280.7871
  42   2.0000     -10.318026      -280.7678
  43   2.0000     -10.317892      -280.7641
  44   2.0000     -10.317387      -280.7504
  45   2.0000     -10.314984      -280.6850
  46   2.0000     -10.313927      -280.6562
  47   2.0000     -10.313550      -280.6460
  48   2.0000     -10.313530      -280.6454
  49   2.0000     -10.313210      -280.6367
  50   2.0000     -10.311892      -280.6009
  51   2.0000     -10.310629      -280.5665
  52   2.0000     -10.310615      -280.5661
  53   2.0000     -10.310329      -280.5583
  54   2.0000     -10.307254      -280.4746
  55   2.0000     -10.306239      -280.4470
  56   2.0000     -10.306013      -280.4409
  57   2.0000     -10.304016      -280.3865
  58   2.0000     -10.303357      -280.3686
  59   2.0000     -10.303279      -280.3665
  60   2.0000     -10.302625      -280.3487
  61   2.0000     -10.302409      -280.3428
  62   2.0000     -10.301737      -280.3245
  63   2.0000     -10.301283      -280.3122
  64   2.0000     -10.300736      -280.2973
  65   2.0000     -10.300401      -280.2882
  66   2.0000     -10.299972      -280.2765
  67   2.0000     -10.299742      -280.2702
  68   2.0000     -10.298809      -280.2448
  69   2.0000     -10.297415      -280.2069
  70   2.0000     -10.293665      -280.1049
  71   2.0000     -10.293524      -280.1010
  72   2.0000      -8.071809      -219.6451
  73   2.0000      -8.070753      -219.6164
  74   2.0000      -8.066346      -219.4964
  75   2.0000      -8.064377      -219.4429
  76   2.0000      -6.041242      -164.3905
  77   2.0000      -6.040208      -164.3624
  78   2.0000      -6.037322      -164.2839
  79   2.0000      -6.036256      -164.2549
  80   2.0000      -6.035740      -164.2408
  81   2.0000      -6.033982      -164.1930
  82   2.0000      -6.033433      -164.1781
  83   2.0000      -6.032316      -164.1477
  84   2.0000      -6.031825      -164.1343
  85   2.0000      -6.029959      -164.0835
  86   2.0000      -6.027980      -164.0297
  87   2.0000      -6.025699      -163.9676
  88   2.0000      -1.346988       -36.6534
  89   2.0000      -1.332319       -36.2543
  90   2.0000      -1.323785       -36.0220
  91   2.0000      -1.320944       -35.9447
  92   2.0000      -1.308917       -35.6174
  93   2.0000      -1.306085       -35.5404
  94   2.0000      -1.136650       -30.9298
  95   2.0000      -1.135109       -30.8879
  96   2.0000      -1.098479       -29.8911
  97   2.0000      -1.032288       -28.0900
  98   2.0000      -1.028187       -27.9784
  99   2.0000      -1.022848       -27.8331
 100   2.0000      -1.021660       -27.8008
 101   2.0000      -1.019311       -27.7369
 102   2.0000      -1.008056       -27.4306
 103   2.0000      -1.004311       -27.3287
 104   2.0000      -0.999030       -27.1850
 105   2.0000      -0.993935       -27.0464
 106   2.0000      -0.986132       -26.8340
 107   2.0000      -0.982955       -26.7476
 108   2.0000      -0.979805       -26.6618
 109   2.0000      -0.967802       -26.3352
 110   2.0000      -0.950363       -25.8607
 111   2.0000      -0.934599       -25.4317
 112   2.0000      -0.931256       -25.3408
 113   2.0000      -0.910235       -24.7688
 114   2.0000      -0.904500       -24.6127
 115   2.0000      -0.897090       -24.4111
 116   2.0000      -0.894783       -24.3483
 117   2.0000      -0.891376       -24.2556
 118   2.0000      -0.884655       -24.0727
 119   2.0000      -0.881354       -23.9829
 120   2.0000      -0.875439       -23.8219
 121   2.0000      -0.873713       -23.7749
 122   2.0000      -0.864834       -23.5333
 123   2.0000      -0.844075       -22.9684
 124   2.0000      -0.840690       -22.8763
 125   2.0000      -0.832026       -22.6406
 126   2.0000      -0.821836       -22.3633
 127   2.0000      -0.819268       -22.2934
 128   2.0000      -0.811628       -22.0855
 129   2.0000      -0.798986       -21.7415
 130   2.0000      -0.787901       -21.4399
 131   2.0000      -0.782873       -21.3030
 132   2.0000      -0.771818       -21.0022
 133   2.0000      -0.767688       -20.8899
 134   2.0000      -0.767112       -20.8742
 135   2.0000      -0.752658       -20.4809
 136   2.0000      -0.739574       -20.1248
 137   2.0000      -0.729898       -19.8615
 138   2.0000      -0.721728       -19.6392
 139   2.0000      -0.717565       -19.5259
 140   2.0000      -0.710682       -19.3386
 141   2.0000      -0.704869       -19.1805
 142   2.0000      -0.689829       -18.7712
 143   2.0000      -0.688064       -18.7232
 144   2.0000      -0.686443       -18.6791
 145   2.0000      -0.681997       -18.5581
 146   2.0000      -0.673975       -18.3398
 147   2.0000      -0.670489       -18.2449
 148   2.0000      -0.667505       -18.1637
 149   2.0000      -0.664319       -18.0770
 150   2.0000      -0.658383       -17.9155
 151   2.0000      -0.657038       -17.8789
 152   2.0000      -0.652283       -17.7495
 153   2.0000      -0.647414       -17.6170
 154   2.0000      -0.645620       -17.5682
 155   2.0000      -0.642215       -17.4756
 156   2.0000      -0.637002       -17.3337
 157   2.0000      -0.635015       -17.2796
 158   2.0000      -0.626091       -17.0368
 159   2.0000      -0.618501       -16.8303
 160   2.0000      -0.616690       -16.7810
 161   2.0000      -0.609517       -16.5858
 162   2.0000      -0.604112       -16.4387
 163   2.0000      -0.600965       -16.3531
 164   2.0000      -0.593435       -16.1482
 165   2.0000      -0.591698       -16.1009
 166   2.0000      -0.588513       -16.0142
 167   2.0000      -0.588182       -16.0053
 168   2.0000      -0.585451       -15.9309
 169   2.0000      -0.585199       -15.9241
 170   2.0000      -0.584704       -15.9106
 171   2.0000      -0.579091       -15.7579
 172   2.0000      -0.575806       -15.6685
 173   2.0000      -0.573920       -15.6172
 174   2.0000      -0.562628       -15.3099
 175   2.0000      -0.558965       -15.2102
 176   2.0000      -0.557267       -15.1640
 177   2.0000      -0.555095       -15.1049
 178   2.0000      -0.553102       -15.0507
 179   2.0000      -0.551152       -14.9976
 180   2.0000      -0.549809       -14.9611
 181   2.0000      -0.547053       -14.8861
 182   2.0000      -0.543045       -14.7770
 183   2.0000      -0.540780       -14.7154
 184   2.0000      -0.539966       -14.6932
 185   2.0000      -0.538038       -14.6408
 186   2.0000      -0.533243       -14.5103
 187   2.0000      -0.532004       -14.4766
 188   2.0000      -0.530867       -14.4456
 189   2.0000      -0.528583       -14.3835
 190   2.0000      -0.527011       -14.3407
 191   2.0000      -0.523472       -14.2444
 192   2.0000      -0.521895       -14.2015
 193   2.0000      -0.518158       -14.0998
 194   2.0000      -0.516073       -14.0430
 195   2.0000      -0.514028       -13.9874
 196   2.0000      -0.511394       -13.9157
 197   2.0000      -0.509053       -13.8520
 198   2.0000      -0.507280       -13.8038
 199   2.0000      -0.503570       -13.7028
 200   2.0000      -0.500076       -13.6078
 201   2.0000      -0.499669       -13.5967
 202   2.0000      -0.494704       -13.4616
 203   2.0000      -0.491171       -13.3654
 204   2.0000      -0.488839       -13.3020
 205   2.0000      -0.488066       -13.2810
 206   2.0000      -0.487628       -13.2690
 207   2.0000      -0.485373       -13.2077
 208   2.0000      -0.477346       -12.9893
 209   2.0000      -0.473555       -12.8861
 210   2.0000      -0.470761       -12.8101
 211   2.0000      -0.468901       -12.7594
 212   2.0000      -0.465574       -12.6689
 213   2.0000      -0.464662       -12.6441
 214   2.0000      -0.464030       -12.6269
 215   2.0000      -0.459945       -12.5157
 216   2.0000      -0.456269       -12.4157
 217   2.0000      -0.454761       -12.3747
 218   2.0000      -0.451083       -12.2746
 219   2.0000      -0.449531       -12.2324
 220   2.0000      -0.448841       -12.2136
 221   2.0000      -0.446905       -12.1609
 222   2.0000      -0.446207       -12.1419
 223   2.0000      -0.444552       -12.0969
 224   2.0000      -0.442692       -12.0463
 225   2.0000      -0.433637       -11.7999
 226   2.0000      -0.433035       -11.7835
 227   2.0000      -0.432010       -11.7556
 228   2.0000      -0.431020       -11.7287
 229   2.0000      -0.429791       -11.6952
 230   2.0000      -0.426587       -11.6080
 231   2.0000      -0.425624       -11.5818
 232   2.0000      -0.423056       -11.5119
 233   2.0000      -0.422112       -11.4862
 234   2.0000      -0.419224       -11.4077
 235   2.0000      -0.412430       -11.2228
 236   2.0000      -0.409369       -11.1395
 237   2.0000      -0.407801       -11.0968
 238   2.0000      -0.401329       -10.9207
 239   2.0000      -0.396593       -10.7918
 240   2.0000      -0.388025       -10.5587
 241   2.0000      -0.386214       -10.5094
 242   2.0000      -0.379251       -10.3199
 243   2.0000      -0.374813       -10.1992
 244   2.0000      -0.369902       -10.0655
 245   2.0000      -0.366505        -9.9731
 246   2.0000      -0.359513        -9.7828
 247   2.0000      -0.351029        -9.5520
 248   2.0000      -0.342617        -9.3231
 249   2.0000      -0.339802        -9.2465
 250   2.0000      -0.322636        -8.7794
 251   2.0000      -0.319979        -8.7071
 252   2.0000      -0.317521        -8.6402
 253   2.0000      -0.311474        -8.4757
 254   2.0000      -0.306077        -8.3288
 255   2.0000      -0.304455        -8.2846
 256   2.0000      -0.300945        -8.1891
 257   2.0000      -0.282750        -7.6940
 258   2.0000      -0.250543        -6.8176
 259   0.0000      -0.109071        -2.9680
 260   0.0000      -0.095870        -2.6087
 261   0.0000      -0.069570        -1.8931
 262   0.0000      -0.061109        -1.6629
 263   0.0000      -0.055549        -1.5116

MULLIKEN ATOMIC CHARGES
-----------------------
   0 C :   -0.109516
   1 C :    0.241078
   2 F :   -0.170891
   3 C :    0.239193
   4 F :   -0.171530
   5 C :   -0.105366
   6 C :    0.118016
   7 C :    0.115704
   8 C :   -0.088033
   9 C :    0.057142
  10 C :    0.000506
  11 C :   -0.088091
  12 C :    0.158055
  13 O :   -0.157729
  14 C :   -0.098213
  15 C :    0.296336
  16 C :   -0.349734
  17 C :   -0.203547
  18 N :    0.165358
  19 C :   -0.180996
  20 N :    0.146227
  21 C :    0.047304
  22 C :   -0.123944
  23 C :    0.015613
  24 C :   -0.022412
  25 C :    0.008539
  26 S :    0.159936
  27 C :   -0.040790
  28 C :   -0.069203
  29 S :    0.124790
  30 C :    0.039439
  31 C :   -0.030443
  32 C :   -0.043537
  33 C :    0.083925
  34 C :    0.040590
  35 C :    0.110998
  36 N :   -0.105461
  37 C :    0.123833
  38 C :    0.116398
  39 N :   -0.067109
  40 F :   -0.137121
  41 F :   -0.136686
  42 C :   -0.054614
  43 C :   -0.024066
  44 C :    0.006418
  45 C :   -0.023326
  46 S :    0.130985
  47 C :    0.022602
  48 C :   -0.133156
  49 S :    0.168743
  50 C :    0.087484
  51 C :   -0.137744
  52 C :    0.135682
  53 O :   -0.140059
  54 C :    0.015707
  55 C :   -0.080490
  56 C :    0.111483
  57 C :    0.111026
  58 C :   -0.106044
  59 C :    0.241746
  60 C :    0.238501
  61 C :   -0.103134
  62 F :   -0.171033
  63 F :   -0.170526
  64 C :   -0.081045
  65 C :    0.030425
  66 C :    0.273639
  67 C :   -0.340319
  68 C :   -0.204923
  69 N :    0.176597
  70 C :   -0.172966
  71 N :    0.149645
  72 H :    0.008006
  73 H :   -0.001557
  74 H :   -0.004660
  75 H :   -0.011580
  76 H :    0.021616
  77 H :    0.019153
  78 H :    0.014352
  79 H :    0.000277
  80 H :   -0.013247
  81 H :    0.044526
  82 H :    0.041300
  83 H :   -0.011117
  84 H :    0.004384
  85 H :    0.027660
  86 H :   -0.008080
  87 H :    0.005843
  88 H :    0.001058
  89 H :   -0.003798
Sum of atomic charges:    0.0000000

LOEWDIN ATOMIC CHARGES
----------------------
   0 C :   -0.029407
   1 C :    0.066242
   2 F :   -0.048789
   3 C :    0.067224
   4 F :   -0.049571
   5 C :   -0.033685
   6 C :   -0.008807
   7 C :   -0.006611
   8 C :    0.017065
   9 C :   -0.022559
  10 C :   -0.051198
  11 C :    0.028229
  12 C :    0.086814
  13 O :   -0.143094
  14 C :   -0.097716
  15 C :    0.075502
  16 C :   -0.141446
  17 C :   -0.027258
  18 N :   -0.048913
  19 C :   -0.017397
  20 N :   -0.054555
  21 C :    0.049078
  22 C :   -0.172613
  23 C :   -0.013378
  24 C :   -0.200169
  25 C :   -0.182048
  26 S :    0.441626
  27 C :   -0.062810
  28 C :   -0.139878
  29 S :    0.423135
  30 C :   -0.040614
  31 C :   -0.027104
  32 C :   -0.013360
  33 C :   -0.030143
  34 C :    0.013843
  35 C :    0.026265
  36 N :   -0.068702
  37 C :    0.056920
  38 C :    0.045951
  39 N :   -0.064820
  40 F :   -0.026974
  41 F :   -0.025744
  42 C :   -0.133094
  43 C :   -0.059087
  44 C :   -0.175725
  45 C :   -0.197773
  46 S :    0.436659
  47 C :   -0.024260
  48 C :   -0.177642
  49 S :    0.447395
  50 C :    0.052428
  51 C :   -0.096421
  52 C :    0.081934
  53 O :   -0.141722
  54 C :   -0.054111
  55 C :    0.030989
  56 C :   -0.009355
  57 C :   -0.005881
  58 C :   -0.030133
  59 C :    0.067183
  60 C :    0.067247
  61 C :   -0.032664
  62 F :   -0.048627
  63 F :   -0.048151
  64 C :    0.013465
  65 C :   -0.020853
  66 C :    0.065507
  67 C :   -0.140888
  68 C :   -0.019407
  69 N :   -0.042073
  70 C :   -0.020105
  71 N :   -0.053155
  72 H :    0.047774
  73 H :    0.044408
  74 H :    0.040003
  75 H :    0.039441
  76 H :    0.044926
  77 H :    0.038742
  78 H :    0.035896
  79 H :    0.026367
  80 H :    0.033569
  81 H :    0.028018
  82 H :    0.047791
  83 H :    0.034424
  84 H :    0.037935
  85 H :    0.047624
  86 H :    0.041005
  87 H :    0.047252
  88 H :    0.045196
  89 H :    0.039416

  Mayer bond orders larger than 0.100000
B(  0-C ,  1-C ) :   1.4413 B(  0-C ,  5-C ) :   0.1087 B(  0-C ,  7-C ) :   1.1884
B(  0-C , 72-H ) :   1.0066 B(  1-C ,  2-F ) :   1.1348 B(  1-C ,  3-C ) :   1.1919
B(  3-C ,  4-F ) :   1.1332 B(  3-C ,  5-C ) :   1.4425 B(  5-C ,  6-C ) :   1.1932
B(  5-C , 73-H ) :   1.0069 B(  6-C ,  7-C ) :   1.2570 B(  6-C , 11-C ) :   1.1873
B(  7-C ,  8-C ) :   1.2163 B(  8-C ,  9-C ) :   1.4516 B(  8-C , 74-H ) :   0.9909
B(  9-C , 10-C ) :   1.2217 B(  9-C , 15-C ) :   0.9832 B( 10-C , 11-C ) :   1.4722
B( 10-C , 12-C ) :   0.9478 B( 11-C , 75-H ) :   1.0166 B( 12-C , 13-O ) :   2.1770
B( 12-C , 14-C ) :   0.9477 B( 14-C , 15-C ) :   1.0725 B( 14-C , 21-C ) :   1.5812
B( 15-C , 16-C ) :   1.6389 B( 16-C , 17-C ) :   1.1357 B( 16-C , 19-C ) :   1.1459
B( 17-C , 18-N ) :   3.0002 B( 19-C , 20-N ) :   2.9682 B( 21-C , 22-C ) :   1.2257
B( 21-C , 76-H ) :   0.9249 B( 22-C , 23-C ) :   1.4419 B( 22-C , 26-S ) :   1.0732
B( 23-C , 24-C ) :   1.2871 B( 23-C , 77-H ) :   0.9822 B( 24-C , 25-C ) :   1.3769
B( 24-C , 29-S ) :   1.0591 B( 25-C , 26-S ) :   1.1034 B( 25-C , 27-C ) :   1.2292
B( 27-C , 28-C ) :   1.5139 B( 27-C , 78-H ) :   0.9852 B( 28-C , 29-S ) :   1.0965
B( 28-C , 30-C ) :   1.1614 B( 30-C , 31-C ) :   1.6719 B( 30-C , 35-C ) :   0.9489
B( 31-C , 32-C ) :   1.1250 B( 31-C , 79-H ) :   0.9693 B( 32-C , 33-C ) :   1.6848
B( 32-C , 80-H ) :   0.9783 B( 33-C , 34-C ) :   0.9882 B( 33-C , 42-C ) :   1.1270
B( 34-C , 35-C ) :   0.9751 B( 34-C , 39-N ) :   1.0385 B( 34-C , 81-H ) :   0.8943
B( 35-C , 36-N ) :   1.0071 B( 35-C , 82-H ) :   0.8779 B( 36-N , 37-C ) :   1.9294
B( 37-C , 38-C ) :   0.9334 B( 37-C , 41-F ) :   1.1731 B( 38-C , 39-N ) :   1.9519
B( 38-C , 40-F ) :   1.1739 B( 42-C , 43-C ) :   1.5158 B( 42-C , 46-S ) :   1.0985
B( 43-C , 44-C ) :   1.2655 B( 43-C , 83-H ) :   0.9955 B( 44-C , 45-C ) :   1.3914
B( 44-C , 49-S ) :   1.0910 B( 45-C , 46-S ) :   1.0650 B( 45-C , 47-C ) :   1.3156
B( 47-C , 48-C ) :   1.4521 B( 47-C , 84-H ) :   0.9948 B( 48-C , 49-S ) :   1.0844
B( 48-C , 50-C ) :   1.1346 B( 50-C , 51-C ) :   1.6575 B( 50-C , 85-H ) :   0.9302
B( 51-C , 52-C ) :   0.9457 B( 51-C , 66-C ) :   1.0443 B( 52-C , 53-O ) :   2.2735
B( 52-C , 54-C ) :   0.9157 B( 54-C , 55-C ) :   1.4747 B( 54-C , 65-C ) :   1.2231
B( 55-C , 56-C ) :   1.1932 B( 55-C , 86-H ) :   1.0168 B( 56-C , 57-C ) :   1.2568
B( 56-C , 61-C ) :   1.1927 B( 57-C , 58-C ) :   1.1892 B( 57-C , 64-C ) :   1.2163
B( 58-C , 59-C ) :   1.4423 B( 58-C , 61-C ) :   0.1084 B( 58-C , 87-H ) :   1.0074
B( 59-C , 60-C ) :   1.1905 B( 59-C , 63-F ) :   1.1348 B( 60-C , 61-C ) :   1.4432
B( 60-C , 62-F ) :   1.1347 B( 61-C , 88-H ) :   1.0077 B( 64-C , 65-C ) :   1.4553
B( 64-C , 89-H ) :   0.9933 B( 65-C , 66-C ) :   0.9966 B( 66-C , 67-C ) :   1.6429
B( 67-C , 68-C ) :   1.1672 B( 67-C , 70-C ) :   1.1288 B( 68-C , 69-N ) :   3.0068
B( 70-C , 71-N ) :   2.9833

-----------------------------------------------------------------------------
         ABSORPTION SPECTRUM VIA TRANSITION ELECTRIC DIPOLE MOMENTS
-----------------------------------------------------------------------------
State   Energy  Wavelength   fosc         T2         TX        TY        TZ
        (cm-1)    (nm)                  (au**2)     (au)      (au)      (au)
-----------------------------------------------------------------------------
   0   16248.9    615.4   2.123460057  43.02248   1.63322   6.35086  -0.14716
   1   20035.8    499.1   0.574339238   9.43709   1.16364  -2.54532  -1.26664
   2   24691.3    405.0   0.008520660   0.11361  -0.27237   0.19617   0.03057
   3   25077.2    398.8   0.056490977   0.74161  -0.56884   0.42227   0.48961
   4   25727.9    388.7   0.143734940   1.83922   0.12512   1.32476  -0.26186
   5   26915.3    371.5   0.033811219   0.41356  -0.00028   0.57352   0.29091
   6   26960.0    370.9   0.041754317   0.50987  -0.02842   0.66574   0.25660
   7   27383.7    365.2   0.105751295   1.27136   0.98175  -0.06708   0.55048
   8   27642.2    361.8   0.037097716   0.44183   0.31439  -0.58455   0.03583
   9   28322.8    353.1   0.122632762   1.42543   0.44332   0.38032  -1.04128
  10   28783.4    347.4   0.058715632   0.67156   0.52940   0.14809   0.60776
  11   29064.8    344.1   0.133969190   1.51744   0.58305   1.07010  -0.17997
  12   29465.5    339.4   0.027147039   0.30331  -0.19408   0.34010  -0.38726
  13   29845.0    335.1   0.298836332   3.29638   0.81116   1.26401   1.02013
  14   29888.6    334.6   0.050318123   0.55424  -0.20123   0.17405  -0.69530
  15   30045.1    332.8   0.047382251   0.51918   0.50768   0.51128  -0.00493
  16   32953.7    303.5   0.017917676   0.17900  -0.27699   0.14290  -0.28611
  17   33439.6    299.0   0.067509807   0.66463   0.02371  -0.38552   0.71794
  18   33814.5    295.7   0.229797920   2.23727  -0.51872  -1.38983   0.19124
  19   33997.5    294.1   0.069162724   0.66973   0.08376  -0.79330  -0.18271
  20   34190.8    292.5   0.420638668   4.05020  -0.95747  -0.77536  -1.59131
  21   34478.8    290.0   0.057681323   0.55076   0.61025   0.42040  -0.04020
  22   34527.7    289.6   0.442605871   4.22013  -0.57019  -0.92929  -1.74110
  23   34804.4    287.3   0.430358380   4.07073   1.25114   1.36006   0.80971
  24   35241.5    283.8   0.083841488   0.78321   0.13831  -0.80109   0.34977
  25   35428.3    282.3   0.040442618   0.37581  -0.10644  -0.52341   0.30086
  26   36364.4    275.0   0.027397283   0.24803  -0.17479   0.06728   0.46147
  27   36769.5    272.0   0.006498233   0.05818  -0.11063   0.21002  -0.04281
  28   36977.5    270.4   0.025233415   0.22465  -0.06027   0.27194   0.38349
  29   37182.3    268.9   0.065774403   0.58237  -0.09467  -0.59284   0.47111
  30   37585.2    266.1   0.011141482   0.09759  -0.31027  -0.02613  -0.02531
  31   37682.1    265.4   0.001421901   0.01242   0.04869   0.00532  -0.10012
  32   38160.2    262.1   0.057709241   0.49786   0.19754  -0.33677   0.58773
  33   38324.4    260.9   0.034656821   0.29771  -0.42658   0.13541  -0.31209
  34   38377.1    260.6   0.010129129   0.08689   0.11214   0.26370   0.06914
  35   38678.5    258.5   0.049328142   0.41986   0.05697   0.46188   0.45086
  36   38965.9    256.6   0.154414648   1.30461  -0.35940   0.86037  -0.65970
  37   39198.9    255.1   0.183401567   1.54030  -0.89290   0.79183  -0.34066
  38   39412.6    253.7   0.005260203   0.04394  -0.13810   0.15467  -0.03076
  39   39652.7    252.2   0.004438977   0.03685   0.01531  -0.17392   0.07982

FINAL SINGLE POINT ENERGY     -4734.916753633388

DIPOLE MOMENT
-------------
                                X             Y             Z
Electronic contribution:     -8.29384       3.02490      -4.77313
Nuclear contribution   :      9.25784      -5.70474       5.22837
                        -----------------------------------------
Total Dipole Moment    :      0.96401      -2.67984       0.45525
                        -----------------------------------------
Magnitude (a.u.)       :      2.88411
Magnitude (Debye)      :      7.33082

Rotational constants in cm-1:     0.001648     0.000181     0.000175
Rotational constants in MHz :    49.394804     5.412325     5.247030

                             ****ORCA TERMINATED NORMALLY****
TOTAL RUN TIME: 0 days 0 hours 13 minutes 44 seconds 241 msec
