                         Program Version 4.2.0 -  RELEASE  -
|  1> # ORCA input file
|  2> # SCF done       -199.608483527236          0.000738185656
|  3> ! CAM-B3LYP def2-SVP def2/J RIJCOSX Grid4 TightSCF
|  4> %maxcore 5000
|  5> %tddft
|  6>     Mode sTDDFT
|  7>     Ethresh 5.0
|  8>     maxcore 5000
|  9> end
| 10>
| 11> %pal
| 12>   nprocs 6
| 13>   end
| 14> * xyz 0 1
| 15>    C      -14.27981         4.51656         1.25094
| 16>    C      -13.49550         4.57374         2.36899
| 17>    F      -12.69649         5.63401         2.57995
| 18>    C      -13.50003         3.52173         3.30350
| 19>    F      -12.71028         3.60149         4.38871
| 20>    C      -14.29217         2.42553         3.10922
| 21>    C      -15.11682         2.34011         1.97119
| 22>    C      -15.10898         3.40065         1.02050
| 23>    C      -15.91395         3.32695        -0.14279
| 24>    C      -16.70328         2.22711        -0.34474
| 25>    C      -16.72079         1.18712         0.62367
| 26>    C      -15.95544         1.22406         1.75093
| 27>    C      -17.63166         0.12158         0.16566
| 28>    O      -17.95549        -0.86629         0.80555
| 29>    C      -18.08744         0.51425        -1.16952
| 30>    C      -17.57996         1.83305        -1.45243
| 31>    C      -17.78970         2.58046        -2.58816
| 32>    C      -18.56332         2.18562        -3.69755
| 33>    N      -19.15780         1.93653        -4.64892
| 34>    C      -17.23702         3.85868        -2.79949
| 35>    N      -16.81801         4.90405        -3.02662
| 36>    C      -18.97443        -0.20785        -1.96535
| 37>    C      -19.26304        -1.56744        -1.96015
| 38>    C      -18.50434        -2.62702        -1.47360
| 39>    C      -18.88738        -3.99087        -1.47274
| 40>    C      -17.95010        -4.84058        -0.95223
| 41>    C      -16.77746        -4.17944        -0.54022
| 42>    S      -16.89448        -2.47441        -0.86198
| 43>    C      -15.66438        -4.63003         0.16205
| 44>    C      -15.32330        -5.90689         0.64163
| 45>    C      -14.18213        -5.91872         1.39861
| 46>    C      -13.57583        -4.65284         1.54962
| 47>    S      -14.48063        -3.45051         0.66459
| 48>    C      -12.46641        -4.33612         2.31080
| 49>    C      -11.92582        -3.06466         2.47448
| 50>    C      -10.83588        -2.72683         3.29428
| 51>    F      -10.18855        -3.65625         4.00474
| 52>    C      -10.49808        -1.38758         3.29804
| 53>    F       -9.45903        -0.91438         3.99334
| 54>    C      -11.29899        -0.59257         2.46102
| 55>    S      -12.50007        -1.61361         1.69222
| 56>    C      -11.28601         0.75574         2.11168
| 57>    C      -10.59809         1.82591         2.65523
| 58>    C      -10.62534         3.12958         2.10427
| 59>    C       -9.94639         4.06031         2.83496
| 60>    C       -9.36050         3.53215         4.00255
| 61>    S       -9.66825         1.82397         4.13005
| 62>    C       -8.61914         4.21209         4.96157
| 63>    C       -8.28109         5.58014         4.97947
| 64>    C       -7.51980         5.94014         6.05483
| 65>    C       -7.22775         4.87435         6.93378
| 66>    S       -7.96164         3.39829         6.35658
| 67>    C       -6.48601         4.95084         8.09945
| 68>    C       -6.23616         3.85741         8.91967
| 69>    C       -5.54442         3.81597        10.11205
| 70>    C       -5.04408         2.50676        10.59492
| 71>    O       -5.34017         1.41282        10.16660
| 72>    C       -4.07902         2.82607        11.66737
| 73>    C       -3.27531         1.98315        12.37730
| 74>    C       -2.39623         2.52370        13.34321
| 75>    C       -2.36561         3.93330        13.54642
| 76>    C       -1.48143         4.46769        14.50441
| 77>    C       -0.66903         3.64117        15.22918
| 78>    C       -0.70211         2.24736        15.02899
| 79>    C       -1.54726         1.69856        14.10548
| 80>    F        0.10611         1.46001        15.75388
| 81>    F        0.17053         4.15220        16.14098
| 82>    C       -3.21728         4.78085        12.79913
| 83>    C       -4.06848         4.23412        11.87774
| 84>    C       -5.07285         4.84176        11.00036
| 85>    C       -5.58650         6.10797        11.16490
| 86>    C       -6.74570         6.59301        10.52874
| 87>    N       -7.70893         7.03018        10.08073
| 88>    C       -5.07555         7.04836        12.08063
| 89>    N       -4.68614         7.86574        12.78780
| 90>    H      -14.26262         5.33190         0.54448
| 91>    H      -14.28707         1.62730         3.83463
| 92>    H      -15.87693         4.14480        -0.84393
| 93>    H      -15.98286         0.41123         2.46017
| 94>    H      -19.54018         0.36830        -2.68803
| 95>    H      -20.16808        -1.86116        -2.47908
| 96>    H      -19.85462        -4.30153        -1.82668
| 97>    H      -18.08440        -5.90137        -0.83969
| 98>    H      -15.92251        -6.77513         0.43441
| 99>    H      -13.77195        -6.79802         1.86294
|100>    H      -11.97965        -5.13718         2.85186
|101>    H      -11.94165         1.00563         1.28502
|102>    H      -11.13863         3.33511         1.18108
|103>    H       -9.87301         5.09907         2.57067
|104>    H       -8.60163         6.25891         4.21035
|105>    H       -7.16782         6.93773         6.24722
|106>    H       -6.07331         5.91835         8.34384
|107>    H       -6.54893         2.88319         8.55341
|108>    H       -3.30860         0.91816        12.20486
|109>    H       -1.44567         5.53270        14.67290
|110>    H       -1.56088         0.62927        13.96339
|111>    H       -3.16684         5.84369        12.97278
|112> *
|113>
|114>                          ****END OF INPUT****

CARTESIAN COORDINATES (ANGSTROEM)
---------------------------------
  C    -14.279810    4.516560    1.250940
  C    -13.495500    4.573740    2.368990
  F    -12.696490    5.634010    2.579950
  C    -13.500030    3.521730    3.303500
  F    -12.710280    3.601490    4.388710
  C    -14.292170    2.425530    3.109220
  C    -15.116820    2.340110    1.971190
  C    -15.108980    3.400650    1.020500
  C    -15.913950    3.326950   -0.142790
  C    -16.703280    2.227110   -0.344740
  C    -16.720790    1.187120    0.623670
  C    -15.955440    1.224060    1.750930
  C    -17.631660    0.121580    0.165660
  O    -17.955490   -0.866290    0.805550
  C    -18.087440    0.514250   -1.169520
  C    -17.579960    1.833050   -1.452430
  C    -17.789700    2.580460   -2.588160
  C    -18.563320    2.185620   -3.697550
  N    -19.157800    1.936530   -4.648920
  C    -17.237020    3.858680   -2.799490
  N    -16.818010    4.904050   -3.026620
  C    -18.974430   -0.207850   -1.965350
  C    -19.263040   -1.567440   -1.960150
  C    -18.504340   -2.627020   -1.473600
  C    -18.887380   -3.990870   -1.472740
  C    -17.950100   -4.840580   -0.952230
  C    -16.777460   -4.179440   -0.540220
  S    -16.894480   -2.474410   -0.861980
  C    -15.664380   -4.630030    0.162050
  C    -15.323300   -5.906890    0.641630
  C    -14.182130   -5.918720    1.398610
  C    -13.575830   -4.652840    1.549620
  S    -14.480630   -3.450510    0.664590
  C    -12.466410   -4.336120    2.310800
  C    -11.925820   -3.064660    2.474480
  C    -10.835880   -2.726830    3.294280
  F    -10.188550   -3.656250    4.004740
  C    -10.498080   -1.387580    3.298040
  F     -9.459030   -0.914380    3.993340
  C    -11.298990   -0.592570    2.461020
  S    -12.500070   -1.613610    1.692220
  C    -11.286010    0.755740    2.111680
  C    -10.598090    1.825910    2.655230
  C    -10.625340    3.129580    2.104270
  C     -9.946390    4.060310    2.834960
  C     -9.360500    3.532150    4.002550
  S     -9.668250    1.823970    4.130050
  C     -8.619140    4.212090    4.961570
  C     -8.281090    5.580140    4.979470
  C     -7.519800    5.940140    6.054830
  C     -7.227750    4.874350    6.933780
  S     -7.961640    3.398290    6.356580
  C     -6.486010    4.950840    8.099450
  C     -6.236160    3.857410    8.919670
  C     -5.544420    3.815970   10.112050
  C     -5.044080    2.506760   10.594920
  O     -5.340170    1.412820   10.166600
  C     -4.079020    2.826070   11.667370
  C     -3.275310    1.983150   12.377300
  C     -2.396230    2.523700   13.343210
  C     -2.365610    3.933300   13.546420
  C     -1.481430    4.467690   14.504410
  C     -0.669030    3.641170   15.229180
  C     -0.702110    2.247360   15.028990
  C     -1.547260    1.698560   14.105480
  F      0.106110    1.460010   15.753880
  F      0.170530    4.152200   16.140980
  C     -3.217280    4.780850   12.799130
  C     -4.068480    4.234120   11.877740
  C     -5.072850    4.841760   11.000360
  C     -5.586500    6.107970   11.164900
  C     -6.745700    6.593010   10.528740
  N     -7.708930    7.030180   10.080730
  C     -5.075550    7.048360   12.080630
  N     -4.686140    7.865740   12.787800
  H    -14.262620    5.331900    0.544480
  H    -14.287070    1.627300    3.834630
  H    -15.876930    4.144800   -0.843930
  H    -15.982860    0.411230    2.460170
  H    -19.540180    0.368300   -2.688030
  H    -20.168080   -1.861160   -2.479080
  H    -19.854620   -4.301530   -1.826680
  H    -18.084400   -5.901370   -0.839690
  H    -15.922510   -6.775130    0.434410
  H    -13.771950   -6.798020    1.862940
  H    -11.979650   -5.137180    2.851860
  H    -11.941650    1.005630    1.285020
  H    -11.138630    3.335110    1.181080
  H     -9.873010    5.099070    2.570670
  H     -8.601630    6.258910    4.210350
  H     -7.167820    6.937730    6.247220
  H     -6.073310    5.918350    8.343840
  H     -6.548930    2.883190    8.553410
  H     -3.308600    0.918160   12.204860
  H     -1.445670    5.532700   14.672900
  H     -1.560880    0.629270   13.963390
  H     -3.166840    5.843690   12.972780

 Total Charge           Charge          ....    0
 Multiplicity           Mult            ....    1
 Number of Electrons    NEL             ....  548
 Basis Dimension        Dim             .... 1180

ORBITAL ENERGIES
----------------

  NO   OCC          E(Eh)            E(eV)
   0   2.0000     -88.994820     -2421.6722
   1   2.0000     -88.978893     -2421.2388
   2   2.0000     -88.971671     -2421.0423
   3   2.0000     -88.968915     -2420.9673
   4   2.0000     -88.968680     -2420.9609
   5   2.0000     -24.821088      -675.4161
   6   2.0000     -24.819991      -675.3863
   7   2.0000     -24.804750      -674.9716
   8   2.0000     -24.802398      -674.9076
   9   2.0000     -24.791287      -674.6052
  10   2.0000     -24.790574      -674.5858
  11   2.0000     -19.204181      -522.5723
  12   2.0000     -19.203937      -522.5657
  13   2.0000     -14.406614      -392.0239
  14   2.0000     -14.405821      -392.0023
  15   2.0000     -14.405125      -391.9834
  16   2.0000     -14.405094      -391.9825
  17   2.0000     -10.397247      -282.9235
  18   2.0000     -10.394667      -282.8533
  19   2.0000     -10.382488      -282.5219
  20   2.0000     -10.382104      -282.5114
  21   2.0000     -10.373596      -282.2799
  22   2.0000     -10.373012      -282.2640
  23   2.0000     -10.354785      -281.7680
  24   2.0000     -10.350253      -281.6447
  25   2.0000     -10.348875      -281.6072
  26   2.0000     -10.347526      -281.5705
  27   2.0000     -10.343505      -281.4611
  28   2.0000     -10.339151      -281.3426
  29   2.0000     -10.339117      -281.3417
  30   2.0000     -10.338842      -281.3342
  31   2.0000     -10.335465      -281.2423
  32   2.0000     -10.333503      -281.1889
  33   2.0000     -10.332364      -281.1579
  34   2.0000     -10.331765      -281.1416
  35   2.0000     -10.331381      -281.1312
  36   2.0000     -10.331088      -281.1232
  37   2.0000     -10.329791      -281.0879
  38   2.0000     -10.329378      -281.0767
  39   2.0000     -10.329195      -281.0717
  40   2.0000     -10.321598      -280.8650
  41   2.0000     -10.320589      -280.8375
  42   2.0000     -10.314697      -280.6772
  43   2.0000     -10.311472      -280.5894
  44   2.0000     -10.310058      -280.5509
  45   2.0000     -10.309962      -280.5483
  46   2.0000     -10.309823      -280.5446
  47   2.0000     -10.309195      -280.5275
  48   2.0000     -10.308846      -280.5180
  49   2.0000     -10.308687      -280.5136
  50   2.0000     -10.308468      -280.5077
  51   2.0000     -10.308410      -280.5061
  52   2.0000     -10.308340      -280.5042
  53   2.0000     -10.306755      -280.4611
  54   2.0000     -10.302701      -280.3507
  55   2.0000     -10.302219      -280.3376
  56   2.0000     -10.301988      -280.3313
  57   2.0000     -10.301889      -280.3287
  58   2.0000     -10.301584      -280.3203
  59   2.0000     -10.301419      -280.3159
  60   2.0000     -10.301294      -280.3125
  61   2.0000     -10.299849      -280.2731
  62   2.0000     -10.298459      -280.2353
  63   2.0000     -10.297258      -280.2026
  64   2.0000     -10.295550      -280.1562
  65   2.0000     -10.293655      -280.1046
  66   2.0000     -10.293217      -280.0927
  67   2.0000     -10.292708      -280.0788
  68   2.0000     -10.292427      -280.0712
  69   2.0000     -10.291128      -280.0358
  70   2.0000     -10.289919      -280.0029
  71   2.0000     -10.286432      -279.9081
  72   2.0000     -10.285567      -279.8845
  73   2.0000     -10.284291      -279.8498
  74   2.0000     -10.283759      -279.8353
  75   2.0000      -8.089778      -220.1340
  76   2.0000      -8.075360      -219.7417
  77   2.0000      -8.067988      -219.5411
  78   2.0000      -8.065021      -219.4604
  79   2.0000      -8.064520      -219.4468
  80   2.0000      -6.059258      -164.8808
  81   2.0000      -6.055376      -164.7751
  82   2.0000      -6.051139      -164.6599
  83   2.0000      -6.045047      -164.4941
  84   2.0000      -6.040771      -164.3777
  85   2.0000      -6.037638      -164.2925
  86   2.0000      -6.036457      -164.2603
  87   2.0000      -6.034579      -164.2093
  88   2.0000      -6.033902      -164.1908
  89   2.0000      -6.033437      -164.1782
  90   2.0000      -6.030576      -164.1003
  91   2.0000      -6.029540      -164.0721
  92   2.0000      -6.029032      -164.0583
  93   2.0000      -6.026388      -163.9863
  94   2.0000      -6.026192      -163.9810
  95   2.0000      -1.340619       -36.4801
  96   2.0000      -1.328475       -36.1497
  97   2.0000      -1.324024       -36.0285
  98   2.0000      -1.313424       -35.7401
  99   2.0000      -1.309060       -35.6213
 100   2.0000      -1.298634       -35.3376
 101   2.0000      -1.118828       -30.4449
 102   2.0000      -1.118572       -30.4379
 103   2.0000      -1.032056       -28.0837
 104   2.0000      -1.023272       -27.8446
 105   2.0000      -1.019446       -27.7405
 106   2.0000      -1.010921       -27.5086
 107   2.0000      -1.009888       -27.4804
 108   2.0000      -0.999687       -27.2029
 109   2.0000      -0.999170       -27.1888
 110   2.0000      -0.997639       -27.1471
 111   2.0000      -0.995119       -27.0786
 112   2.0000      -0.984614       -26.7927
 113   2.0000      -0.984442       -26.7880
 114   2.0000      -0.975592       -26.5472
 115   2.0000      -0.972010       -26.4497
 116   2.0000      -0.937178       -25.5019
 117   2.0000      -0.928809       -25.2742
 118   2.0000      -0.926194       -25.2030
 119   2.0000      -0.916493       -24.9390
 120   2.0000      -0.908598       -24.7242
 121   2.0000      -0.900604       -24.5067
 122   2.0000      -0.893432       -24.3115
 123   2.0000      -0.888183       -24.1687
 124   2.0000      -0.885027       -24.0828
 125   2.0000      -0.882111       -24.0035
 126   2.0000      -0.878911       -23.9164
 127   2.0000      -0.874434       -23.7945
 128   2.0000      -0.864214       -23.5164
 129   2.0000      -0.858613       -23.3641
 130   2.0000      -0.851085       -23.1592
 131   2.0000      -0.847194       -23.0533
 132   2.0000      -0.845793       -23.0152
 133   2.0000      -0.837659       -22.7939
 134   2.0000      -0.835717       -22.7410
 135   2.0000      -0.831802       -22.6345
 136   2.0000      -0.820484       -22.3265
 137   2.0000      -0.807240       -21.9661
 138   2.0000      -0.791938       -21.5497
 139   2.0000      -0.775145       -21.0928
 140   2.0000      -0.759997       -20.6806
 141   2.0000      -0.758932       -20.6516
 142   2.0000      -0.755775       -20.5657
 143   2.0000      -0.747341       -20.3362
 144   2.0000      -0.733089       -19.9484
 145   2.0000      -0.728513       -19.8239
 146   2.0000      -0.718347       -19.5472
 147   2.0000      -0.715576       -19.4718
 148   2.0000      -0.709262       -19.3000
 149   2.0000      -0.708223       -19.2717
 150   2.0000      -0.704550       -19.1718
 151   2.0000      -0.693198       -18.8629
 152   2.0000      -0.691532       -18.8175
 153   2.0000      -0.682933       -18.5836
 154   2.0000      -0.678367       -18.4593
 155   2.0000      -0.673670       -18.3315
 156   2.0000      -0.671057       -18.2604
 157   2.0000      -0.658803       -17.9269
 158   2.0000      -0.656335       -17.8598
 159   2.0000      -0.655728       -17.8433
 160   2.0000      -0.650486       -17.7006
 161   2.0000      -0.648553       -17.6480
 162   2.0000      -0.647509       -17.6196
 163   2.0000      -0.643130       -17.5005
 164   2.0000      -0.640472       -17.4281
 165   2.0000      -0.638287       -17.3687
 166   2.0000      -0.634637       -17.2694
 167   2.0000      -0.630849       -17.1663
 168   2.0000      -0.624121       -16.9832
 169   2.0000      -0.620809       -16.8931
 170   2.0000      -0.616797       -16.7839
 171   2.0000      -0.609148       -16.5758
 172   2.0000      -0.606082       -16.4923
 173   2.0000      -0.604842       -16.4586
 174   2.0000      -0.603728       -16.4283
 175   2.0000      -0.593019       -16.1369
 176   2.0000      -0.590030       -16.0555
 177   2.0000      -0.583765       -15.8850
 178   2.0000      -0.581929       -15.8351
 179   2.0000      -0.579872       -15.7791
 180   2.0000      -0.578142       -15.7321
 181   2.0000      -0.572969       -15.5913
 182   2.0000      -0.570113       -15.5136
 183   2.0000      -0.568265       -15.4633
 184   2.0000      -0.566888       -15.4258
 185   2.0000      -0.555715       -15.1218
 186   2.0000      -0.553791       -15.0694
 187   2.0000      -0.553158       -15.0522
 188   2.0000      -0.550236       -14.9727
 189   2.0000      -0.547498       -14.8982
 190   2.0000      -0.545939       -14.8557
 191   2.0000      -0.541677       -14.7398
 192   2.0000      -0.539986       -14.6938
 193   2.0000      -0.538529       -14.6541
 194   2.0000      -0.536744       -14.6055
 195   2.0000      -0.530783       -14.4433
 196   2.0000      -0.529445       -14.4069
 197   2.0000      -0.528468       -14.3804
 198   2.0000      -0.527715       -14.3598
 199   2.0000      -0.526507       -14.3270
 200   2.0000      -0.524844       -14.2817
 201   2.0000      -0.522074       -14.2064
 202   2.0000      -0.520470       -14.1627
 203   2.0000      -0.517793       -14.0899
 204   2.0000      -0.517087       -14.0707
 205   2.0000      -0.516946       -14.0668
 206   2.0000      -0.514269       -13.9940
 207   2.0000      -0.512270       -13.9396
 208   2.0000      -0.507834       -13.8189
 209   2.0000      -0.506257       -13.7760
 210   2.0000      -0.502782       -13.6814
 211   2.0000      -0.499309       -13.5869
 212   2.0000      -0.496570       -13.5124
 213   2.0000      -0.496176       -13.5016
 214   2.0000      -0.492902       -13.4126
 215   2.0000      -0.492161       -13.3924
 216   2.0000      -0.489356       -13.3161
 217   2.0000      -0.488665       -13.2972
 218   2.0000      -0.485976       -13.2241
 219   2.0000      -0.483899       -13.1676
 220   2.0000      -0.483401       -13.1540
 221   2.0000      -0.477890       -13.0040
 222   2.0000      -0.476903       -12.9772
 223   2.0000      -0.474868       -12.9218
 224   2.0000      -0.470634       -12.8066
 225   2.0000      -0.468130       -12.7385
 226   2.0000      -0.463129       -12.6024
 227   2.0000      -0.462125       -12.5751
 228   2.0000      -0.459440       -12.5020
 229   2.0000      -0.458200       -12.4682
 230   2.0000      -0.455799       -12.4029
 231   2.0000      -0.452333       -12.3086
 232   2.0000      -0.444953       -12.1078
 233   2.0000      -0.443786       -12.0760
 234   2.0000      -0.441951       -12.0261
 235   2.0000      -0.440074       -11.9750
 236   2.0000      -0.439698       -11.9648
 237   2.0000      -0.437853       -11.9146
 238   2.0000      -0.436801       -11.8859
 239   2.0000      -0.434410       -11.8209
 240   2.0000      -0.434347       -11.8192
 241   2.0000      -0.426327       -11.6009
 242   2.0000      -0.424541       -11.5523
 243   2.0000      -0.421002       -11.4560
 244   2.0000      -0.418457       -11.3868
 245   2.0000      -0.418338       -11.3836
 246   2.0000      -0.415499       -11.3063
 247   2.0000      -0.414057       -11.2671
 248   2.0000      -0.411341       -11.1932
 249   2.0000      -0.407881       -11.0990
 250   2.0000      -0.404829       -11.0160
 251   2.0000      -0.400071       -10.8865
 252   2.0000      -0.397281       -10.8106
 253   2.0000      -0.391684       -10.6583
 254   2.0000      -0.385453       -10.4887
 255   2.0000      -0.379917       -10.3381
 256   2.0000      -0.372067       -10.1245
 257   2.0000      -0.365442        -9.9442
 258   2.0000      -0.359786        -9.7903
 259   2.0000      -0.357704        -9.7336
 260   2.0000      -0.348094        -9.4721
 261   2.0000      -0.344029        -9.3615
 262   2.0000      -0.341520        -9.2932
 263   2.0000      -0.340595        -9.2681
 264   2.0000      -0.328617        -8.9421
 265   2.0000      -0.323764        -8.8101
 266   2.0000      -0.317045        -8.6272
 267   2.0000      -0.308686        -8.3998
 268   2.0000      -0.305963        -8.3257
 269   2.0000      -0.298859        -8.1324
 270   2.0000      -0.293000        -7.9729
 271   2.0000      -0.286879        -7.8064
 272   2.0000      -0.253101        -6.8872
 273   2.0000      -0.224540        -6.1100
 274   0.0000      -0.137063        -3.7297
 275   0.0000      -0.106715        -2.9039
 276   0.0000      -0.073125        -1.9898
 277   0.0000      -0.060093        -1.6352
 278   0.0000      -0.049130        -1.3369

MULLIKEN ATOMIC CHARGES
-----------------------
   0 C :   -0.118052
   1 C :    0.226832
   2 F :   -0.181255
   3 C :    0.249045
   4 F :   -0.179113
   5 C :   -0.105858
   6 C :    0.117449
   7 C :    0.113707
   8 C :   -0.102161
   9 C :    0.056358
  10 C :    0.016590
  11 C :   -0.110943
  12 C :    0.112521
  13 O :   -0.167598
  14 C :   -0.128234
  15 C :    0.322334
  16 C :   -0.365645
  17 C :   -0.201879
  18 N :    0.149854
  19 C :   -0.181877
  20 N :    0.134529
  21 C :   -0.002863
  22 C :    0.008371
  23 C :   -0.003379
  24 C :    0.032567
  25 C :    0.041900
  26 C :   -0.061464
  27 S :    0.144486
  28 C :    0.002635
  29 C :    0.026452
  30 C :    0.053514
  31 C :   -0.041757
  32 S :    0.072104
  33 C :    0.038509
  34 C :   -0.154707
  35 C :    0.226229
  36 F :   -0.162722
  37 C :    0.234549
  38 F :   -0.161036
  39 C :   -0.171726
  40 S :    0.137016
  41 C :    0.037207
  42 C :   -0.041043
  43 C :    0.036946
  44 C :    0.031904
  45 C :   -0.029848
  46 S :    0.139273
  47 C :   -0.054394
  48 C :    0.040042
  49 C :    0.042723
  50 C :   -0.020463
  51 S :    0.118683
  52 C :    0.004892
  53 C :    0.019511
  54 C :   -0.125182
  55 C :    0.136063
  56 O :   -0.150311
  57 C :    0.006680
  58 C :   -0.086442
  59 C :    0.113938
  60 C :    0.111733
  61 C :   -0.108529
  62 C :    0.240034
  63 C :    0.234532
  64 C :   -0.105260
  65 F :   -0.175058
  66 F :   -0.174412
  67 C :   -0.086346
  68 C :    0.040596
  69 C :    0.294349
  70 C :   -0.346405
  71 C :   -0.219491
  72 N :    0.161665
  73 C :   -0.175681
  74 N :    0.135201
  75 H :    0.005970
  76 H :   -0.002605
  77 H :   -0.008113
  78 H :   -0.017192
  79 H :    0.028531
  80 H :   -0.003486
  81 H :   -0.003669
  82 H :   -0.006164
  83 H :   -0.000836
  84 H :    0.003023
  85 H :    0.013246
  86 H :    0.003937
  87 H :    0.003878
  88 H :   -0.000563
  89 H :    0.001628
  90 H :    0.006933
  91 H :    0.011142
  92 H :    0.017615
  93 H :   -0.012403
  94 H :    0.005662
  95 H :   -0.002624
  96 H :   -0.006296
Sum of atomic charges:   -0.0000000

LOEWDIN ATOMIC CHARGES
----------------------
   0 C :   -0.033177
   1 C :    0.056707
   2 F :   -0.055655
   3 C :    0.060903
   4 F :   -0.052018
   5 C :   -0.035299
   6 C :   -0.013580
   7 C :   -0.012058
   8 C :    0.009726
   9 C :   -0.017048
  10 C :   -0.041370
  11 C :    0.011756
  12 C :    0.042353
  13 O :   -0.175345
  14 C :   -0.123870
  15 C :    0.073841
  16 C :   -0.152620
  17 C :   -0.023822
  18 N :   -0.060275
  19 C :   -0.017281
  20 N :   -0.068542
  21 C :    0.040400
  22 C :   -0.070057
  23 C :   -0.109244
  24 C :   -0.034117
  25 C :   -0.021746
  26 C :   -0.191500
  27 S :    0.490118
  28 C :   -0.138771
  29 C :   -0.040323
  30 C :   -0.005724
  31 C :   -0.162953
  32 S :    0.398470
  33 C :   -0.035146
  34 C :   -0.205770
  35 C :    0.041853
  36 F :   -0.040751
  37 C :    0.017674
  38 F :   -0.040502
  39 C :   -0.185447
  40 S :    0.451443
  41 C :   -0.071191
  42 C :   -0.143916
  43 C :   -0.023020
  44 C :   -0.023133
  45 C :   -0.156405
  46 S :    0.423160
  47 C :   -0.177935
  48 C :   -0.006959
  49 C :   -0.027535
  50 C :   -0.102969
  51 S :    0.412897
  52 C :   -0.058676
  53 C :    0.049914
  54 C :   -0.100354
  55 C :    0.077243
  56 O :   -0.153069
  57 C :   -0.051410
  58 C :    0.025451
  59 C :   -0.010636
  60 C :   -0.006920
  61 C :   -0.031004
  62 C :    0.064630
  63 C :    0.064676
  64 C :   -0.034506
  65 F :   -0.052686
  66 F :   -0.051946
  67 C :    0.009971
  68 C :   -0.017694
  69 C :    0.067379
  70 C :   -0.149543
  71 C :   -0.024928
  72 N :   -0.059471
  73 C :   -0.018829
  74 N :   -0.062039
  75 H :    0.046841
  76 H :    0.043602
  77 H :    0.038706
  78 H :    0.036419
  79 H :    0.046447
  80 H :    0.039993
  81 H :    0.036796
  82 H :    0.035246
  83 H :    0.037953
  84 H :    0.040061
  85 H :    0.049671
  86 H :    0.041329
  87 H :    0.037283
  88 H :    0.036377
  89 H :    0.038429
  90 H :    0.042334
  91 H :    0.039285
  92 H :    0.035133
  93 H :    0.039041
  94 H :    0.046751
  95 H :    0.043702
  96 H :    0.038821

  Mayer bond orders larger than 0.100000
B(  0-C ,  1-C ) :   1.4353 B(  0-C ,  5-C ) :   0.1093 B(  0-C ,  7-C ) :   1.1928
B(  0-C , 75-H ) :   1.0080 B(  1-C ,  2-F ) :   1.1078 B(  1-C ,  3-C ) :   1.1944
B(  3-C ,  4-F ) :   1.1066 B(  3-C ,  5-C ) :   1.4451 B(  5-C ,  6-C ) :   1.1965
B(  5-C , 76-H ) :   1.0064 B(  6-C ,  7-C ) :   1.2640 B(  6-C , 11-C ) :   1.1703
B(  7-C ,  8-C ) :   1.2006 B(  8-C ,  9-C ) :   1.4638 B(  8-C , 77-H ) :   0.9905
B(  9-C , 10-C ) :   1.2221 B(  9-C , 15-C ) :   0.9653 B( 10-C , 11-C ) :   1.4790
B( 10-C , 12-C ) :   0.9177 B( 11-C , 78-H ) :   1.0194 B( 12-C , 13-O ) :   2.1765
B( 12-C , 14-C ) :   1.0154 B( 14-C , 15-C ) :   1.1382 B( 14-C , 21-C ) :   1.3671
B( 15-C , 16-C ) :   1.5894 B( 16-C , 17-C ) :   1.1465 B( 16-C , 19-C ) :   1.1565
B( 17-C , 18-N ) :   2.9819 B( 19-C , 20-N ) :   2.9529 B( 21-C , 22-C ) :   1.4068
B( 21-C , 79-H ) :   0.9375 B( 22-C , 23-C ) :   1.3998 B( 22-C , 80-H ) :   0.9518
B( 23-C , 24-C ) :   1.2011 B( 23-C , 27-S ) :   1.1403 B( 24-C , 25-C ) :   1.5394
B( 24-C , 81-H ) :   0.9964 B( 25-C , 26-C ) :   1.2204 B( 25-C , 82-H ) :   0.9948
B( 26-C , 27-S ) :   1.0853 B( 26-C , 28-C ) :   1.4192 B( 28-C , 29-C ) :   1.2258
B( 28-C , 32-S ) :   1.0846 B( 29-C , 30-C ) :   1.5412 B( 29-C , 83-H ) :   0.9956
B( 30-C , 31-C ) :   1.1854 B( 30-C , 84-H ) :   1.0002 B( 31-C , 32-S ) :   1.0436
B( 31-C , 33-C ) :   1.4835 B( 33-C , 34-C ) :   1.2526 B( 33-C , 85-H ) :   0.9738
B( 34-C , 35-C ) :   1.3440 B( 34-C , 39-C ) :   0.1080 B( 34-C , 40-S ) :   1.0651
B( 35-C , 36-F ) :   1.1704 B( 35-C , 37-C ) :   1.3146 B( 37-C , 38-F ) :   1.1555
B( 37-C , 39-C ) :   1.3075 B( 39-C , 40-S ) :   1.1054 B( 39-C , 41-C ) :   1.2300
B( 41-C , 42-C ) :   1.5469 B( 41-C , 86-H ) :   0.9374 B( 42-C , 43-C ) :   1.1589
B( 42-C , 46-S ) :   1.0666 B( 43-C , 44-C ) :   1.5604 B( 43-C , 87-H ) :   0.9963
B( 44-C , 45-C ) :   1.2063 B( 44-C , 88-H ) :   0.9943 B( 45-C , 46-S ) :   1.0644
B( 45-C , 47-C ) :   1.4504 B( 47-C , 48-C ) :   1.2214 B( 47-C , 51-S ) :   1.0567
B( 48-C , 49-C ) :   1.5415 B( 48-C , 89-H ) :   0.9950 B( 49-C , 50-C ) :   1.1810
B( 49-C , 90-H ) :   1.0011 B( 50-C , 51-S ) :   1.0817 B( 50-C , 52-C ) :   1.4970
B( 52-C , 53-C ) :   1.2186 B( 52-C , 91-H ) :   0.9627 B( 53-C , 54-C ) :   1.5319
B( 53-C , 92-H ) :   0.9374 B( 54-C , 55-C ) :   0.9617 B( 54-C , 69-C ) :   1.0829
B( 55-C , 56-O ) :   2.2501 B( 55-C , 57-C ) :   0.9180 B( 57-C , 58-C ) :   1.4844
B( 57-C , 68-C ) :   1.2207 B( 58-C , 59-C ) :   1.1872 B( 58-C , 93-H ) :   1.0153
B( 59-C , 60-C ) :   1.2604 B( 59-C , 64-C ) :   1.1953 B( 60-C , 61-C ) :   1.1946
B( 60-C , 67-C ) :   1.2090 B( 61-C , 62-C ) :   1.4388 B( 61-C , 64-C ) :   0.1088
B( 61-C , 94-H ) :   1.0059 B( 62-C , 63-C ) :   1.1947 B( 62-C , 66-F ) :   1.1323
B( 63-C , 64-C ) :   1.4421 B( 63-C , 65-F ) :   1.1307 B( 64-C , 95-H ) :   1.0060
B( 67-C , 68-C ) :   1.4657 B( 67-C , 96-H ) :   0.9902 B( 68-C , 69-C ) :   0.9899
B( 69-C , 70-C ) :   1.5984 B( 70-C , 71-C ) :   1.1679 B( 70-C , 73-C ) :   1.1368
B( 71-C , 72-N ) :   3.0086 B( 73-C , 74-N ) :   2.9678

-----------------------------------------------------------------------------
         ABSORPTION SPECTRUM VIA TRANSITION ELECTRIC DIPOLE MOMENTS
-----------------------------------------------------------------------------
State   Energy  Wavelength   fosc         T2         TX        TY        TZ
        (cm-1)    (nm)                  (au**2)     (au)      (au)      (au)
-----------------------------------------------------------------------------
   0    6878.3   1453.8   1.073636811  51.38673  -5.21172  -1.86906  -4.55316
   1   12872.7    776.8   0.163265753   4.17542   0.82567   1.15532   1.46932
   2   13302.2    751.8   0.691953387  17.12493  -0.61783  -3.48800  -2.13940
   3   18915.1    528.7   0.084616210   1.47272   0.19899  -1.05455   0.56661
   4   20184.5    495.4   0.256268973   4.17979  -0.25000  -1.82115   0.89483
   5   20701.6    483.1   0.146740692   2.33358   0.00952   1.40577  -0.59775
   6   20909.7    478.2   0.051514707   0.81107   0.41218  -0.70107   0.38687
   7   21263.4    470.3   0.233842647   3.62049   0.31846   1.66866  -0.85712
   8   22485.2    444.7   0.077768253   1.13863  -0.02152  -1.04831   0.19802
   9   23020.7    434.4   0.023003018   0.32896   0.35665   0.37196   0.25181
  10   24032.8    416.1   0.023617589   0.32352  -0.27229  -0.05904  -0.49588
  11   24841.1    402.6   0.155634045   2.06257  -0.01968   1.41753  -0.22975
  12   25096.5    398.5   0.057222725   0.75064   0.07796   0.85702   0.10039
  13   25679.6    389.4   0.010480012   0.13435   0.04910   0.36309  -0.01031
  14   26458.7    377.9   0.138026120   1.71739  -0.11107   1.22918  -0.44063
  15   26819.2    372.9   0.183166000   2.24840   0.99186  -0.79165   0.79870
  16   26877.9    372.1   0.032390089   0.39673  -0.51330  -0.02233  -0.36435
  17   27117.8    368.8   0.084847183   1.03005   0.74471   0.03602   0.68859
  18   27552.2    362.9   0.092238818   1.10213  -0.83455  -0.08724  -0.63091
  19   27809.5    359.6   0.058253409   0.68961   0.25859  -0.74464   0.26125
  20   28544.9    350.3   0.111500437   1.28595  -0.36409  -0.92391  -0.54752
  21   28817.0    347.0   0.090419472   1.03297  -0.64086   0.49796  -0.61181
  22   29441.9    339.7   0.035297111   0.39468  -0.32022   0.10243  -0.53071
  23   29518.9    338.8   0.008793778   0.09807   0.24928   0.18313  -0.04895
  24   29751.3    336.1   0.080947490   0.89572   0.39284   0.12193   0.85237
  25   30597.6    326.8   0.144823682   1.55822   0.85017   0.12498   0.90544
  26   30769.8    325.0   0.012122572   0.12970  -0.28667  -0.19437  -0.09870
  27   30916.7    323.5   0.121341917   1.29209   0.88001  -0.47628   0.53930
  28   31434.1    318.1   0.181613624   1.90206   0.77704  -0.49428   1.02662
  29   31619.8    316.3   0.006801165   0.07081   0.08780  -0.25016  -0.02288
  30   31808.0    314.4   0.107559006   1.11323  -0.69693  -0.11833  -0.78328
  31   32045.9    312.1   0.025032318   0.25716   0.30527   0.30095   0.27092
  32   32353.8    309.1   0.040436588   0.41146   0.14737  -0.61793   0.08886
  33   32691.4    305.9   0.080368475   0.80933   0.68901  -0.27344   0.50974
  34   33056.0    302.5   0.397260264   3.95640  -1.34692  -0.31094  -1.43022
  35   33449.3    299.0   0.145319007   1.43025  -0.82212   0.72634  -0.47624
  36   33618.4    297.5   0.053422304   0.52314   0.45243  -0.39221   0.40574
  37   33661.9    297.1   0.224388512   2.19451  -0.94148   0.29687  -1.10453
  38   33812.0    295.8   0.006765046   0.06587  -0.02708  -0.25521  -0.00151
  39   34610.2    288.9   0.034669877   0.32978  -0.26613   0.09383  -0.50015
  40   35184.1    284.2   0.245914702   2.30098  -0.92247   1.05134  -0.58713
  41   35370.5    282.7   0.005942554   0.05531  -0.11806   0.05516  -0.19578
  42   35507.1    281.6   0.125026032   1.15921   0.58319   0.15835   0.89108
  43   35717.2    280.0   0.015771443   0.14537   0.24473  -0.02635   0.29117
  44   36023.3    277.6   0.056267869   0.51422   0.46864  -0.49961   0.21212
  45   36082.1    277.1   0.083955085   0.76600   0.48065  -0.34030   0.64744
  46   36243.4    275.9   0.015463346   0.14046  -0.06952   0.34060  -0.14005
  47   36518.6    273.8   0.080242558   0.72338  -0.22328  -0.69135   0.44223
  48   36564.5    273.5   0.016730843   0.15064   0.37760  -0.07696  -0.04620
  49   36956.3    270.6   0.044866498   0.39968  -0.44991   0.22568  -0.38253
  50   37255.0    268.4   0.034115290   0.30147  -0.37108  -0.29543   0.27656
  51   37541.0    266.4   0.007178543   0.06295  -0.15418  -0.18329  -0.07474
  52   37611.9    265.9   0.017403918   0.15233  -0.18296   0.33038  -0.09852
  53   38158.6    262.1   0.054276303   0.46827   0.17526  -0.43665   0.49688
  54   38472.4    259.9   0.048676077   0.41653  -0.33747   0.22455  -0.50221
  55   38587.3    259.2   0.111174670   0.94850  -0.48038   0.58753  -0.61037
  56   38914.2    257.0   0.071882336   0.60812  -0.46605   0.62065  -0.07557
  57   39177.0    255.3   0.134886778   1.13348  -0.47788   0.75182  -0.58300
  58   39381.4    253.9   0.117089186   0.97882   0.09163   0.91778   0.35791
  59   39719.6    251.8   0.010411080   0.08629   0.17794   0.07298  -0.22204
  60   39905.1    250.6   0.042744358   0.35264   0.12018  -0.56602  -0.13345
  61   40237.0    248.5   0.204518286   1.67333  -0.73666  -0.90986  -0.55028
  62   40267.5    248.3   0.121962916   0.99712   0.24073   0.96592   0.07851

FINAL SINGLE POINT ENERGY     -5178.181905460775

DIPOLE MOMENT
-------------
                                X             Y             Z
Electronic contribution:     29.05886       2.95746      26.50896
Nuclear contribution   :    -29.12905      -7.65355     -28.16539
                        -----------------------------------------
Total Dipole Moment    :     -0.07019      -4.69609      -1.65643
                        -----------------------------------------
Magnitude (a.u.)       :      4.98016
Magnitude (Debye)      :     12.65856

Rotational constants in cm-1:     0.001672     0.000241     0.000217
Rotational constants in MHz :    50.131294     7.239645     6.492083

                             ****ORCA TERMINATED NORMALLY****
TOTAL RUN TIME: 0 days 0 hours 12 minutes 35 seconds 844 msec
