                         Program Version 4.2.0 -  RELEASE  -
|  1> # ORCA input file
|  2> # SCF done       -132.229552687190          0.000156972727
|  3> ! CAM-B3LYP def2-SVP def2/J RIJCOSX Grid4 TightSCF
|  4> %maxcore 5000
|  5> %tddft
|  6>     Mode sTDDFT
|  7>     Ethresh 5.0
|  8>     maxcore 5000
|  9> end
| 10>
| 11> %pal
| 12>   nprocs 6
| 13>   end
| 14> * xyz 0 1
| 15>    C        0.44634         6.71641         3.07561
| 16>    S        0.12375         5.19437         2.36426
| 17>    C        1.17370         5.56125         1.03479
| 18>    C        1.74897         6.80723         1.15497
| 19>    C        1.31392         7.45453         2.33161
| 20>    S        1.84301         9.10047         2.77426
| 21>    O        2.92576         9.00523         3.71642
| 22>    O        0.69249         9.86993         3.16327
| 23>    C        2.50377         9.69696         1.19011
| 24>    C        3.44948         8.61768         0.70434
| 25>    C        2.69618         7.40349         0.16541
| 26>    C        1.30939         4.57406        -0.01114
| 27>    N        0.64343         3.43304         0.18697
| 28>    C        0.73097         2.52028        -0.76473
| 29>    C        1.46800         2.71981        -1.91678
| 30>    C        2.14472         3.94496        -2.03780
| 31>    N        2.05190         4.86528        -1.06878
| 32>    C        2.94169         4.24864        -3.19578
| 33>    C        3.69252         5.37421        -3.28480
| 34>    C        4.51323         5.77119        -4.36393
| 35>    C        5.62510         6.60803        -4.26617
| 36>    C        6.16901         7.30235        -3.16303
| 37>    C        7.31518         8.01967        -3.33177
| 38>    C        7.96143         8.09237        -4.59334
| 39>    C        7.46571         7.44453        -5.68287
| 40>    C        6.29577         6.66281        -5.54929
| 41>    C        5.59413         5.88237        -6.46477
| 42>    C        4.41535         5.35661        -5.77125
| 43>    C        3.36106         4.77057        -6.35387
| 44>    C        5.94023         5.66949        -7.84171
| 45>    N        5.02871         5.13284        -8.67136
| 46>    C        5.38306         4.95223        -9.92741
| 47>    C        6.63751         5.28543       -10.41126
| 48>    C        7.53668         5.82073        -9.47797
| 49>    N        7.17587         6.00897        -8.21495
| 50>    C        8.89139         6.17243        -9.85788
| 51>    C        9.81563         6.57165        -8.96936
| 52>    C       11.16321         6.90820        -9.28834
| 53>    S       11.82195         6.81777       -10.89854
| 54>    C       13.36641         7.31435       -10.33765
| 55>    C       13.39402         7.54883        -8.99284
| 56>    C       12.13028         7.32254        -8.40645
| 57>    S       11.82264         7.50849        -6.65802
| 58>    O       11.69928         6.19867        -6.07971
| 59>    O       10.73325         8.42728        -6.45743
| 60>    C       13.36268         8.27334        -6.06197
| 61>    C       14.51929         7.58228        -6.75334
| 62>    C       14.60311         7.98426        -8.22535
| 63>    H       -0.01454         7.00746         3.99760
| 64>    H        3.00966        10.63697         1.39317
| 65>    H        1.65744         9.85965         0.52882
| 66>    H        4.07395         8.32192         1.55085
| 67>    H        4.10147         9.00888        -0.08041
| 68>    H        3.40111         6.62779        -0.13988
| 69>    H        2.13245         7.68205        -0.73094
| 70>    H        0.18561         1.60186        -0.58688
| 71>    H        1.52837         1.97062        -2.68951
| 72>    H        2.95562         3.50079        -3.97448
| 73>    H        3.70779         6.01009        -2.40906
| 74>    H        5.67462         7.25955        -2.20343
| 75>    H        7.74559         8.55611        -2.49829
| 76>    H        8.86719         8.67098        -4.69236
| 77>    H        7.95363         7.51244        -6.63959
| 78>    H        3.38359         4.55314        -7.40834
| 79>    H        2.46345         4.54356        -5.80383
| 80>    H        4.62396         4.52270       -10.57127
| 81>    H        6.91236         5.13310       -11.44201
| 82>    H        9.13846         6.08290       -10.90842
| 83>    H        9.55789         6.64100        -7.92170
| 84>    H       14.17600         7.40365       -11.03479
| 85>    H       13.37317         8.12322        -4.98559
| 86>    H       13.30067         9.33358        -6.29191
| 87>    H       14.37007         6.50295        -6.67110
| 88>    H       15.45922         7.83464        -6.25719
| 89>    H       15.49263         7.54530        -8.68203
| 90>    H       14.70367         9.07249        -8.29740
| 91> *
| 92>
| 93>                          ****END OF INPUT****

CARTESIAN COORDINATES (ANGSTROEM)
---------------------------------
  C      0.446340    6.716410    3.075610
  S      0.123750    5.194370    2.364260
  C      1.173700    5.561250    1.034790
  C      1.748970    6.807230    1.154970
  C      1.313920    7.454530    2.331610
  S      1.843010    9.100470    2.774260
  O      2.925760    9.005230    3.716420
  O      0.692490    9.869930    3.163270
  C      2.503770    9.696960    1.190110
  C      3.449480    8.617680    0.704340
  C      2.696180    7.403490    0.165410
  C      1.309390    4.574060   -0.011140
  N      0.643430    3.433040    0.186970
  C      0.730970    2.520280   -0.764730
  C      1.468000    2.719810   -1.916780
  C      2.144720    3.944960   -2.037800
  N      2.051900    4.865280   -1.068780
  C      2.941690    4.248640   -3.195780
  C      3.692520    5.374210   -3.284800
  C      4.513230    5.771190   -4.363930
  C      5.625100    6.608030   -4.266170
  C      6.169010    7.302350   -3.163030
  C      7.315180    8.019670   -3.331770
  C      7.961430    8.092370   -4.593340
  C      7.465710    7.444530   -5.682870
  C      6.295770    6.662810   -5.549290
  C      5.594130    5.882370   -6.464770
  C      4.415350    5.356610   -5.771250
  C      3.361060    4.770570   -6.353870
  C      5.940230    5.669490   -7.841710
  N      5.028710    5.132840   -8.671360
  C      5.383060    4.952230   -9.927410
  C      6.637510    5.285430  -10.411260
  C      7.536680    5.820730   -9.477970
  N      7.175870    6.008970   -8.214950
  C      8.891390    6.172430   -9.857880
  C      9.815630    6.571650   -8.969360
  C     11.163210    6.908200   -9.288340
  S     11.821950    6.817770  -10.898540
  C     13.366410    7.314350  -10.337650
  C     13.394020    7.548830   -8.992840
  C     12.130280    7.322540   -8.406450
  S     11.822640    7.508490   -6.658020
  O     11.699280    6.198670   -6.079710
  O     10.733250    8.427280   -6.457430
  C     13.362680    8.273340   -6.061970
  C     14.519290    7.582280   -6.753340
  C     14.603110    7.984260   -8.225350
  H     -0.014540    7.007460    3.997600
  H      3.009660   10.636970    1.393170
  H      1.657440    9.859650    0.528820
  H      4.073950    8.321920    1.550850
  H      4.101470    9.008880   -0.080410
  H      3.401110    6.627790   -0.139880
  H      2.132450    7.682050   -0.730940
  H      0.185610    1.601860   -0.586880
  H      1.528370    1.970620   -2.689510
  H      2.955620    3.500790   -3.974480
  H      3.707790    6.010090   -2.409060
  H      5.674620    7.259550   -2.203430
  H      7.745590    8.556110   -2.498290
  H      8.867190    8.670980   -4.692360
  H      7.953630    7.512440   -6.639590
  H      3.383590    4.553140   -7.408340
  H      2.463450    4.543560   -5.803830
  H      4.623960    4.522700  -10.571270
  H      6.912360    5.133100  -11.442010
  H      9.138460    6.082900  -10.908420
  H      9.557890    6.641000   -7.921700
  H     14.176000    7.403650  -11.034790
  H     13.373170    8.123220   -4.985590
  H     13.300670    9.333580   -6.291910
  H     14.370070    6.502950   -6.671100
  H     15.459220    7.834640   -6.257190
  H     15.492630    7.545300   -8.682030
  H     14.703670    9.072490   -8.297400

 Total Charge           Charge          ....    0
 Multiplicity           Mult            ....    1
 Number of Electrons    NEL             ....  368
 Basis Dimension        Dim             ....  828

ORBITAL ENERGIES
----------------

  NO   OCC          E(Eh)            E(eV)
   0   2.0000     -89.143850     -2425.7275
   1   2.0000     -89.120739     -2425.0986
   2   2.0000     -88.974293     -2421.1136
   3   2.0000     -88.954563     -2420.5767
   4   2.0000     -19.195195      -522.3278
   5   2.0000     -19.192651      -522.2586
   6   2.0000     -19.170421      -521.6537
   7   2.0000     -19.170351      -521.6518
   8   2.0000     -14.400569      -391.8594
   9   2.0000     -14.400255      -391.8508
  10   2.0000     -14.400235      -391.8503
  11   2.0000     -14.396935      -391.7605
  12   2.0000     -10.342266      -281.4274
  13   2.0000     -10.337263      -281.2912
  14   2.0000     -10.323570      -280.9186
  15   2.0000     -10.323250      -280.9099
  16   2.0000     -10.321378      -280.8590
  17   2.0000     -10.315498      -280.6990
  18   2.0000     -10.314431      -280.6699
  19   2.0000     -10.310520      -280.5635
  20   2.0000     -10.309174      -280.5269
  21   2.0000     -10.303589      -280.3749
  22   2.0000     -10.301887      -280.3286
  23   2.0000     -10.297858      -280.2189
  24   2.0000     -10.296247      -280.1751
  25   2.0000     -10.295598      -280.1575
  26   2.0000     -10.290804      -280.0270
  27   2.0000     -10.289262      -279.9851
  28   2.0000     -10.288008      -279.9509
  29   2.0000     -10.285036      -279.8701
  30   2.0000     -10.282791      -279.8090
  31   2.0000     -10.282331      -279.7965
  32   2.0000     -10.281636      -279.7776
  33   2.0000     -10.278638      -279.6960
  34   2.0000     -10.277936      -279.6769
  35   2.0000     -10.276504      -279.6379
  36   2.0000     -10.275395      -279.6077
  37   2.0000     -10.272382      -279.5257
  38   2.0000     -10.271512      -279.5020
  39   2.0000     -10.268430      -279.4182
  40   2.0000     -10.268094      -279.4090
  41   2.0000     -10.267466      -279.3920
  42   2.0000     -10.267042      -279.3804
  43   2.0000     -10.264659      -279.3156
  44   2.0000     -10.264063      -279.2994
  45   2.0000     -10.261111      -279.2190
  46   2.0000     -10.255869      -279.0764
  47   2.0000     -10.249148      -278.8935
  48   2.0000      -8.209022      -223.3789
  49   2.0000      -8.186044      -222.7536
  50   2.0000      -8.069891      -219.5929
  51   2.0000      -8.049538      -219.0391
  52   2.0000      -6.177954      -168.1107
  53   2.0000      -6.177820      -168.1070
  54   2.0000      -6.177133      -168.0883
  55   2.0000      -6.154976      -167.4854
  56   2.0000      -6.154792      -167.4804
  57   2.0000      -6.154212      -167.4646
  58   2.0000      -6.039047      -164.3308
  59   2.0000      -6.034895      -164.2178
  60   2.0000      -6.032293      -164.1470
  61   2.0000      -6.018673      -163.7764
  62   2.0000      -6.014421      -163.6607
  63   2.0000      -6.012096      -163.5974
  64   2.0000      -1.201104       -32.6837
  65   2.0000      -1.177841       -32.0507
  66   2.0000      -1.078820       -29.3562
  67   2.0000      -1.076765       -29.3003
  68   2.0000      -1.073778       -29.2190
  69   2.0000      -1.055637       -28.7253
  70   2.0000      -1.007382       -27.4123
  71   2.0000      -0.986035       -26.8314
  72   2.0000      -0.976458       -26.5708
  73   2.0000      -0.974236       -26.5103
  74   2.0000      -0.972190       -26.4546
  75   2.0000      -0.937420       -25.5085
  76   2.0000      -0.913373       -24.8541
  77   2.0000      -0.912116       -24.8199
  78   2.0000      -0.907730       -24.7006
  79   2.0000      -0.898670       -24.4541
  80   2.0000      -0.884536       -24.0694
  81   2.0000      -0.863917       -23.5084
  82   2.0000      -0.857697       -23.3391
  83   2.0000      -0.848435       -23.0871
  84   2.0000      -0.840506       -22.8713
  85   2.0000      -0.836448       -22.7609
  86   2.0000      -0.835395       -22.7323
  87   2.0000      -0.827216       -22.5097
  88   2.0000      -0.803359       -21.8605
  89   2.0000      -0.791743       -21.5444
  90   2.0000      -0.787074       -21.4174
  91   2.0000      -0.760756       -20.7012
  92   2.0000      -0.749592       -20.3974
  93   2.0000      -0.740524       -20.1507
  94   2.0000      -0.735536       -20.0149
  95   2.0000      -0.732114       -19.9218
  96   2.0000      -0.718549       -19.5527
  97   2.0000      -0.709055       -19.2944
  98   2.0000      -0.705306       -19.1924
  99   2.0000      -0.696265       -18.9463
 100   2.0000      -0.685133       -18.6434
 101   2.0000      -0.675276       -18.3752
 102   2.0000      -0.657140       -17.8817
 103   2.0000      -0.647525       -17.6200
 104   2.0000      -0.643164       -17.5014
 105   2.0000      -0.639599       -17.4044
 106   2.0000      -0.625216       -17.0130
 107   2.0000      -0.618916       -16.8415
 108   2.0000      -0.608520       -16.5587
 109   2.0000      -0.606281       -16.4977
 110   2.0000      -0.594059       -16.1652
 111   2.0000      -0.588379       -16.0106
 112   2.0000      -0.585714       -15.9381
 113   2.0000      -0.580772       -15.8036
 114   2.0000      -0.575741       -15.6667
 115   2.0000      -0.572526       -15.5792
 116   2.0000      -0.566990       -15.4286
 117   2.0000      -0.563667       -15.3382
 118   2.0000      -0.547972       -14.9111
 119   2.0000      -0.544182       -14.8079
 120   2.0000      -0.541661       -14.7393
 121   2.0000      -0.541374       -14.7315
 122   2.0000      -0.540371       -14.7042
 123   2.0000      -0.534768       -14.5518
 124   2.0000      -0.532651       -14.4942
 125   2.0000      -0.526483       -14.3263
 126   2.0000      -0.525563       -14.3013
 127   2.0000      -0.523927       -14.2568
 128   2.0000      -0.519330       -14.1317
 129   2.0000      -0.517665       -14.0864
 130   2.0000      -0.515976       -14.0404
 131   2.0000      -0.511818       -13.9273
 132   2.0000      -0.507386       -13.8067
 133   2.0000      -0.501509       -13.6468
 134   2.0000      -0.500895       -13.6301
 135   2.0000      -0.494893       -13.4667
 136   2.0000      -0.490627       -13.3506
 137   2.0000      -0.488492       -13.2926
 138   2.0000      -0.485758       -13.2182
 139   2.0000      -0.483990       -13.1700
 140   2.0000      -0.478506       -13.0208
 141   2.0000      -0.477502       -12.9935
 142   2.0000      -0.473107       -12.8739
 143   2.0000      -0.468841       -12.7578
 144   2.0000      -0.465661       -12.6713
 145   2.0000      -0.458552       -12.4778
 146   2.0000      -0.458066       -12.4646
 147   2.0000      -0.452638       -12.3169
 148   2.0000      -0.450439       -12.2571
 149   2.0000      -0.446083       -12.1385
 150   2.0000      -0.444449       -12.0941
 151   2.0000      -0.439033       -11.9467
 152   2.0000      -0.429889       -11.6979
 153   2.0000      -0.427921       -11.6443
 154   2.0000      -0.423381       -11.5208
 155   2.0000      -0.419372       -11.4117
 156   2.0000      -0.415871       -11.3164
 157   2.0000      -0.411181       -11.1888
 158   2.0000      -0.408721       -11.1219
 159   2.0000      -0.400639       -10.9019
 160   2.0000      -0.399780       -10.8786
 161   2.0000      -0.399218       -10.8633
 162   2.0000      -0.397478       -10.8159
 163   2.0000      -0.382125       -10.3981
 164   2.0000      -0.381122       -10.3709
 165   2.0000      -0.378272       -10.2933
 166   2.0000      -0.374050       -10.1784
 167   2.0000      -0.367872       -10.0103
 168   2.0000      -0.367369        -9.9966
 169   2.0000      -0.362132        -9.8541
 170   2.0000      -0.360979        -9.8227
 171   2.0000      -0.355547        -9.6749
 172   2.0000      -0.349396        -9.5075
 173   2.0000      -0.335942        -9.1415
 174   2.0000      -0.334844        -9.1116
 175   2.0000      -0.331236        -9.0134
 176   2.0000      -0.318470        -8.6660
 177   2.0000      -0.317234        -8.6324
 178   2.0000      -0.312789        -8.5114
 179   2.0000      -0.309461        -8.4209
 180   2.0000      -0.304803        -8.2941
 181   2.0000      -0.284345        -7.7374
 182   2.0000      -0.282947        -7.6994
 183   2.0000      -0.225683        -6.1411
 184   0.0000      -0.082411        -2.2425
 185   0.0000      -0.054249        -1.4762
 186   0.0000      -0.021226        -0.5776
 187   0.0000      -0.011669        -0.3175
 188   0.0000       0.013014         0.3541

MULLIKEN ATOMIC CHARGES
-----------------------
   0 C :   -0.087987
   1 S :    0.196883
   2 C :   -0.120381
   3 C :   -0.050890
   4 C :   -0.058103
   5 S :    0.736232
   6 O :   -0.463654
   7 O :   -0.464148
   8 C :   -0.022397
   9 C :   -0.012482
  10 C :    0.127981
  11 C :   -0.062818
  12 N :   -0.101121
  13 C :    0.088037
  14 C :   -0.054806
  15 C :    0.067907
  16 N :   -0.082708
  17 C :   -0.037887
  18 C :    0.002207
  19 C :    0.088834
  20 C :    0.041764
  21 C :   -0.016373
  22 C :    0.039099
  23 C :    0.041001
  24 C :    0.006868
  25 C :    0.014930
  26 C :    0.127822
  27 C :   -0.038021
  28 C :    0.016905
  29 C :   -0.116707
  30 N :   -0.092889
  31 C :    0.092508
  32 C :   -0.063248
  33 C :    0.069781
  34 N :   -0.074688
  35 C :   -0.022403
  36 C :    0.044536
  37 C :   -0.112115
  38 S :    0.141948
  39 C :   -0.127472
  40 C :   -0.028237
  41 C :   -0.022224
  42 S :    0.740065
  43 O :   -0.455909
  44 O :   -0.457607
  45 C :   -0.010904
  46 C :   -0.040196
  47 C :    0.123072
  48 H :    0.035141
  49 H :    0.062379
  50 H :    0.049872
  51 H :    0.043510
  52 H :    0.018272
  53 H :    0.044830
  54 H :    0.025643
  55 H :    0.003668
  56 H :   -0.009658
  57 H :   -0.024759
  58 H :   -0.012317
  59 H :   -0.039760
  60 H :   -0.017359
  61 H :   -0.007030
  62 H :   -0.017827
  63 H :    0.041855
  64 H :    0.022227
  65 H :   -0.001680
  66 H :   -0.012844
  67 H :   -0.017255
  68 H :    0.034730
  69 H :    0.022137
  70 H :    0.070296
  71 H :    0.053481
  72 H :    0.049164
  73 H :    0.028314
  74 H :    0.016427
  75 H :    0.028537
Sum of atomic charges:    0.0000000

LOEWDIN ATOMIC CHARGES
----------------------
   0 C :   -0.161218
   1 S :    0.500739
   2 C :   -0.199885
   3 C :   -0.043083
   4 C :   -0.232567
   5 S :    1.169468
   6 O :   -0.516909
   7 O :   -0.518357
   8 C :   -0.137452
   9 C :   -0.052176
  10 C :   -0.029536
  11 C :    0.017497
  12 N :   -0.115993
  13 C :    0.052157
  14 C :   -0.074542
  15 C :    0.041620
  16 N :   -0.094949
  17 C :   -0.060434
  18 C :    0.026055
  19 C :   -0.024869
  20 C :   -0.004564
  21 C :   -0.025887
  22 C :   -0.014782
  23 C :   -0.007175
  24 C :   -0.007276
  25 C :    0.015059
  26 C :   -0.054297
  27 C :   -0.011368
  28 C :    0.063433
  29 C :    0.044755
  30 N :   -0.095886
  31 C :    0.049190
  32 C :   -0.080247
  33 C :    0.035457
  34 N :   -0.083151
  35 C :   -0.035914
  36 C :    0.000768
  37 C :   -0.158388
  38 S :    0.461834
  39 C :   -0.183743
  40 C :   -0.071212
  41 C :   -0.217008
  42 S :    1.171304
  43 O :   -0.506539
  44 O :   -0.507376
  45 C :   -0.133338
  46 C :   -0.046561
  47 C :   -0.025096
  48 H :    0.032584
  49 H :    0.040346
  50 H :    0.030847
  51 H :    0.029920
  52 H :    0.031759
  53 H :    0.037641
  54 H :    0.037453
  55 H :    0.026308
  56 H :    0.031642
  57 H :    0.023985
  58 H :    0.035518
  59 H :    0.024491
  60 H :    0.027335
  61 H :    0.029120
  62 H :    0.027741
  63 H :    0.028454
  64 H :    0.025413
  65 H :    0.023679
  66 H :    0.029992
  67 H :    0.021665
  68 H :    0.040477
  69 H :    0.025762
  70 H :    0.044374
  71 H :    0.032775
  72 H :    0.033279
  73 H :    0.035937
  74 H :    0.037727
  75 H :    0.036218

  Mayer bond orders larger than 0.100000
B(  0-C ,  1-S ) :   1.2149 B(  0-C ,  4-C ) :   1.5643 B(  0-C , 48-H ) :   0.9669
B(  1-S ,  2-C ) :   1.1490 B(  2-C ,  3-C ) :   1.5781 B(  2-C , 11-C ) :   1.0168
B(  3-C ,  4-C ) :   1.2828 B(  3-C , 10-C ) :   1.0618 B(  4-C ,  5-S ) :   0.7955
B(  5-S ,  6-O ) :   1.7047 B(  5-S ,  7-O ) :   1.7389 B(  5-S ,  8-C ) :   0.8911
B(  8-C ,  9-C ) :   1.0128 B(  8-C , 49-H ) :   0.9339 B(  8-C , 50-H ) :   0.9392
B(  9-C , 10-C ) :   1.0630 B(  9-C , 51-H ) :   0.9432 B(  9-C , 52-H ) :   0.9304
B( 10-C , 53-H ) :   0.8985 B( 10-C , 54-H ) :   0.9148 B( 11-C , 12-N ) :   1.5824
B( 11-C , 16-N ) :   1.5712 B( 12-N , 13-C ) :   1.5379 B( 13-C , 14-C ) :   1.3819
B( 13-C , 55-H ) :   0.9790 B( 14-C , 15-C ) :   1.3185 B( 14-C , 56-H ) :   0.9756
B( 15-C , 16-N ) :   1.4840 B( 15-C , 17-C ) :   1.0946 B( 17-C , 18-C ) :   1.6385
B( 17-C , 57-H ) :   0.9733 B( 18-C , 19-C ) :   1.1429 B( 18-C , 58-H ) :   0.9609
B( 19-C , 20-C ) :   1.3983 B( 19-C , 27-C ) :   1.0155 B( 20-C , 21-C ) :   1.1755
B( 20-C , 25-C ) :   1.1215 B( 21-C , 22-C ) :   1.5801 B( 21-C , 59-H ) :   0.9899
B( 22-C , 23-C ) :   1.1455 B( 22-C , 60-H ) :   0.9847 B( 23-C , 24-C ) :   1.5752
B( 23-C , 61-H ) :   0.9787 B( 24-C , 25-C ) :   1.1761 B( 24-C , 62-H ) :   0.9918
B( 25-C , 26-C ) :   1.4308 B( 26-C , 27-C ) :   1.0560 B( 26-C , 29-C ) :   1.0015
B( 27-C , 28-C ) :   1.8751 B( 28-C , 63-H ) :   0.8930 B( 28-C , 64-H ) :   0.9291
B( 29-C , 30-N ) :   1.5171 B( 29-C , 34-N ) :   1.5509 B( 30-N , 31-C ) :   1.5457
B( 31-C , 32-C ) :   1.3665 B( 31-C , 65-H ) :   0.9767 B( 32-C , 33-C ) :   1.3200
B( 32-C , 66-H ) :   0.9763 B( 33-C , 34-N ) :   1.5284 B( 33-C , 35-C ) :   1.0646
B( 35-C , 36-C ) :   1.7174 B( 35-C , 67-H ) :   0.9756 B( 36-C , 37-C ) :   1.1226
B( 36-C , 68-H ) :   0.9500 B( 37-C , 38-S ) :   1.1575 B( 37-C , 41-C ) :   1.5729
B( 38-S , 39-C ) :   1.1557 B( 39-C , 40-C ) :   1.5923 B( 39-C , 69-H ) :   0.9696
B( 40-C , 41-C ) :   1.2822 B( 40-C , 47-C ) :   1.0297 B( 41-C , 42-S ) :   0.8118
B( 42-S , 43-O ) :   1.7001 B( 42-S , 44-O ) :   1.6816 B( 42-S , 45-C ) :   0.8709
B( 45-C , 46-C ) :   1.0304 B( 45-C , 70-H ) :   0.9318 B( 45-C , 71-H ) :   0.9360
B( 46-C , 47-C ) :   1.0815 B( 46-C , 72-H ) :   0.9491 B( 46-C , 73-H ) :   0.9347
B( 47-C , 74-H ) :   0.9222 B( 47-C , 75-H ) :   0.9224

-----------------------------------------------------------------------------
         ABSORPTION SPECTRUM VIA TRANSITION ELECTRIC DIPOLE MOMENTS
-----------------------------------------------------------------------------
State   Energy  Wavelength   fosc         T2         TX        TY        TZ
        (cm-1)    (nm)                  (au**2)     (au)      (au)      (au)
-----------------------------------------------------------------------------
   0   13440.5    744.0   0.311007495   7.61784   1.53343   0.49339  -2.24120
   1   21211.9    471.4   0.008283764   0.12857  -0.29424  -0.11705  -0.16818
   2   26559.8    376.5   0.198487112   2.46027   0.88170   0.29003  -1.26442
   3   27823.4    359.4   0.037270419   0.44099  -0.44792  -0.23088   0.43250
   4   28797.2    347.3   0.220296845   2.51845   1.17691   0.63377  -0.85538
   5   29008.4    344.7   0.028884874   0.32781   0.20798   0.16035  -0.50876
   6   30237.4    330.7   0.295729371   3.21978   1.34467   0.93529  -0.73273
   7   30965.2    322.9   0.348332985   3.70336   1.64447   0.38543  -0.92224
   8   31395.0    318.5   0.103910838   1.08962   0.88427   0.20951  -0.51361
   9   31833.8    314.1   0.026762885   0.27677   0.27366   0.06909  -0.44397
  10   31889.4    313.6   0.025041319   0.25852  -0.08116  -0.33170   0.37670
  11   32702.8    305.8   0.291138458   2.93083   1.59703  -0.10714  -0.60733
  12   35542.7    281.4   0.585015672   5.41867   1.74307   1.09124   1.09068
  13   36172.1    276.5   0.003099476   0.02821  -0.10969  -0.03831  -0.12128
  14   36976.1    270.4   0.008142996   0.07250   0.16894   0.01468  -0.20915
  15   37948.3    263.5   0.252825959   2.19334   0.92424   0.69906   0.92219
  16   38079.5    262.6   0.106265618   0.91871  -0.57988  -0.49413  -0.58162
  17   38215.4    261.7   0.046280693   0.39869   0.32021   0.20585   0.50377
  18   38865.4    257.3   0.024772269   0.20983   0.37237   0.22249   0.14721

FINAL SINGLE POINT ENERGY     -3498.303318559629

DIPOLE MOMENT
-------------
                                X             Y             Z
Electronic contribution:    -19.41997      -7.33486       7.42088
Nuclear contribution   :     22.63125       6.66610     -11.91256
                        -----------------------------------------
Total Dipole Moment    :      3.21128      -0.66875      -4.49168
                        -----------------------------------------
Magnitude (a.u.)       :      5.56190
Magnitude (Debye)      :     14.13724

Rotational constants in cm-1:     0.003361     0.000620     0.000549
Rotational constants in MHz :   100.747788    18.598528    16.473491

                             ****ORCA TERMINATED NORMALLY****
TOTAL RUN TIME: 0 days 0 hours 4 minutes 28 seconds 75 msec
