                         Program Version 4.2.0 -  RELEASE  -
|  1> # ORCA input file
|  2> # SCF done       -195.943817133056          0.000924291493
|  3> ! CAM-B3LYP def2-SVP def2/J RIJCOSX Grid4 TightSCF
|  4> %maxcore 5000
|  5> %tddft
|  6>     Mode sTDDFT
|  7>     Ethresh 5.0
|  8>     maxcore 5000
|  9> end
| 10>
| 11> %pal
| 12>   nprocs 6
| 13>   end
| 14> * xyz 0 1
| 15>    C       -7.62326        -1.34745         1.54936
| 16>    C       -7.08816        -2.49280         1.01018
| 17>    C       -7.09989        -3.74823         1.65068
| 18>    N       -7.07659        -4.79795         2.11591
| 19>    C       -6.45785        -2.58690        -0.24614
| 20>    N       -5.93511        -2.73934        -1.25859
| 21>    C       -8.28151        -1.25825         2.85200
| 22>    C       -8.69730         0.08110         3.05807
| 23>    C       -9.35509         0.49130         4.19096
| 24>    C       -9.61928        -0.47054         5.17267
| 25>    C       -9.20069        -1.80477         4.96091
| 26>    C       -8.53239        -2.21754         3.81299
| 27>    S       -9.62991        -2.82841         6.29706
| 28>    C      -10.35783        -1.46873         7.11034
| 29>    C      -10.28315        -0.30668         6.41911
| 30>   Br      -11.14864        -1.71291         8.79336
| 31>    C       -8.31082         0.88067         1.88519
| 32>    O       -8.51434         2.07812         1.72506
| 33>    C       -7.65156        -0.02883         0.96175
| 34>    C       -7.15626         0.32604        -0.27980
| 35>    C       -7.14944         1.55475        -0.91978
| 36>    S       -7.78496         3.06001        -0.27345
| 37>    C       -6.61585         1.75312        -2.22520
| 38>    C       -6.05417         0.80773        -3.08429
| 39>    C       -5.59316         1.15860        -4.34215
| 40>    O       -5.09993         0.12391        -5.04802
| 41>    C       -4.57623         0.25446        -6.35260
| 42>    C       -5.66907         2.52491        -4.77450
| 43>    O       -5.17223         2.82396        -6.00264
| 44>    C       -5.10826         4.17260        -6.41178
| 45>    C       -6.22783         3.46205        -3.93711
| 46>    C       -6.71426         3.09380        -2.67109
| 47>    C       -7.34239         3.90449        -1.71137
| 48>    N       -7.63768         5.20642        -1.94339
| 49>    C       -8.29423         6.11352        -1.18161
| 50>    S       -8.50683         5.95301         0.52536
| 51>    C       -9.13688         7.57716         0.56706
| 52>    N       -9.54684         8.08010         1.80810
| 53>    O       -9.98657         9.21390         1.84289
| 54>    O       -9.42657         7.33513         2.76477
| 55>    C       -9.17881         8.19188        -0.65518
| 56>    C       -8.73339         7.35277        -1.69306
| 57>    C       -8.74298         7.69072        -3.08710
| 58>    C       -8.89965         6.75495        -4.06765
| 59>    C       -8.75455         6.87282        -5.46191
| 60>    C       -8.65268         5.75343        -6.31336
| 61>    C       -8.83874         4.38062        -6.05744
| 62>    C       -8.68075         3.48796        -7.08128
| 63>    C       -8.38085         3.92488        -8.38840
| 64>    C       -8.18420         5.24959        -8.67011
| 65>    C       -8.25875         6.18624        -7.62599
| 66>    C       -8.09250         7.58672        -7.61944
| 67>    C       -8.56980         8.05669        -6.30433
| 68>    C       -8.95802         9.30664        -6.02560
| 69>    C       -7.62511         8.43151        -8.61712
| 70>    C       -6.77341         8.11294        -9.66274
| 71>    C       -6.51474         8.94342       -10.80948
| 72>    C       -7.20204        10.07883       -11.17456
| 73>    C       -6.91852        10.83824       -12.32616
| 74>    N       -6.73193        11.50035       -13.24637
| 75>    C       -8.27888        10.63440       -10.45726
| 76>    N       -9.16511        11.13830        -9.92564
| 77>    C       -5.42894         8.33079       -11.57122
| 78>    C       -5.01038         7.16135       -10.89160
| 79>    C       -5.81727         6.99449        -9.66386
| 80>    O       -5.63852         6.15263        -8.79969
| 81>    C       -3.99957         6.35783       -11.35670
| 82>    C       -3.37537         6.72124       -12.55580
| 83>    C       -3.79989         7.89129       -13.22635
| 84>    C       -4.82085         8.70784       -12.75197
| 85>    S       -2.89246         8.15798       -14.68396
| 86>    C       -1.96910         6.71160       -14.37782
| 87>    C       -2.32019         6.06125       -13.24311
| 88>   Br       -0.62853         6.19481       -15.58465
| 89>    H       -9.65787         1.51892         4.31688
| 90>    H       -8.23542        -3.24672         3.70106
| 91>    H      -10.67928         0.62817         6.77121
| 92>    H       -6.70408        -0.46631        -0.85928
| 93>    H       -5.95880        -0.22971        -2.80684
| 94>    H       -5.32082         0.63819        -7.05230
| 95>    H       -4.29271        -0.75794        -6.63915
| 96>    H       -3.69554         0.89865        -6.37238
| 97>    H       -6.09848         4.62310        -6.50069
| 98>    H       -4.65053         4.16368        -7.39765
| 99>    H       -4.49134         4.76578        -5.73047
|100>    H       -6.28720         4.49074        -4.25645
|101>    H       -7.35877         5.55799        -2.85663
|102>    H       -9.55415         9.18986        -0.79195
|103>    H       -8.62519         8.73653        -3.32256
|104>    H       -9.14505         5.74869        -3.74950
|105>    H       -9.12386         4.03433        -5.07459
|106>    H       -8.81617         2.43209        -6.90033
|107>    H       -8.31773         3.19121        -9.17783
|108>    H       -7.99836         5.57681        -9.68021
|109>    H       -8.88517        10.09761        -6.75292
|110>    H       -9.42117         9.56665        -5.09042
|111>    H       -7.91175         9.47181        -8.53075
|112>    H       -3.69987         5.47305       -10.81712
|113>    H       -5.10510         9.59204       -13.29730
|114>    H       -1.85468         5.15406       -12.90358
|115> *
|116>
|117>                          ****END OF INPUT****

CARTESIAN COORDINATES (ANGSTROEM)
---------------------------------
  C     -7.623260   -1.347450    1.549360
  C     -7.088160   -2.492800    1.010180
  C     -7.099890   -3.748230    1.650680
  N     -7.076590   -4.797950    2.115910
  C     -6.457850   -2.586900   -0.246140
  N     -5.935110   -2.739340   -1.258590
  C     -8.281510   -1.258250    2.852000
  C     -8.697300    0.081100    3.058070
  C     -9.355090    0.491300    4.190960
  C     -9.619280   -0.470540    5.172670
  C     -9.200690   -1.804770    4.960910
  C     -8.532390   -2.217540    3.812990
  S     -9.629910   -2.828410    6.297060
  C    -10.357830   -1.468730    7.110340
  C    -10.283150   -0.306680    6.419110
  Br   -11.148640   -1.712910    8.793360
  C     -8.310820    0.880670    1.885190
  O     -8.514340    2.078120    1.725060
  C     -7.651560   -0.028830    0.961750
  C     -7.156260    0.326040   -0.279800
  C     -7.149440    1.554750   -0.919780
  S     -7.784960    3.060010   -0.273450
  C     -6.615850    1.753120   -2.225200
  C     -6.054170    0.807730   -3.084290
  C     -5.593160    1.158600   -4.342150
  O     -5.099930    0.123910   -5.048020
  C     -4.576230    0.254460   -6.352600
  C     -5.669070    2.524910   -4.774500
  O     -5.172230    2.823960   -6.002640
  C     -5.108260    4.172600   -6.411780
  C     -6.227830    3.462050   -3.937110
  C     -6.714260    3.093800   -2.671090
  C     -7.342390    3.904490   -1.711370
  N     -7.637680    5.206420   -1.943390
  C     -8.294230    6.113520   -1.181610
  S     -8.506830    5.953010    0.525360
  C     -9.136880    7.577160    0.567060
  N     -9.546840    8.080100    1.808100
  O     -9.986570    9.213900    1.842890
  O     -9.426570    7.335130    2.764770
  C     -9.178810    8.191880   -0.655180
  C     -8.733390    7.352770   -1.693060
  C     -8.742980    7.690720   -3.087100
  C     -8.899650    6.754950   -4.067650
  C     -8.754550    6.872820   -5.461910
  C     -8.652680    5.753430   -6.313360
  C     -8.838740    4.380620   -6.057440
  C     -8.680750    3.487960   -7.081280
  C     -8.380850    3.924880   -8.388400
  C     -8.184200    5.249590   -8.670110
  C     -8.258750    6.186240   -7.625990
  C     -8.092500    7.586720   -7.619440
  C     -8.569800    8.056690   -6.304330
  C     -8.958020    9.306640   -6.025600
  C     -7.625110    8.431510   -8.617120
  C     -6.773410    8.112940   -9.662740
  C     -6.514740    8.943420  -10.809480
  C     -7.202040   10.078830  -11.174560
  C     -6.918520   10.838240  -12.326160
  N     -6.731930   11.500350  -13.246370
  C     -8.278880   10.634400  -10.457260
  N     -9.165110   11.138300   -9.925640
  C     -5.428940    8.330790  -11.571220
  C     -5.010380    7.161350  -10.891600
  C     -5.817270    6.994490   -9.663860
  O     -5.638520    6.152630   -8.799690
  C     -3.999570    6.357830  -11.356700
  C     -3.375370    6.721240  -12.555800
  C     -3.799890    7.891290  -13.226350
  C     -4.820850    8.707840  -12.751970
  S     -2.892460    8.157980  -14.683960
  C     -1.969100    6.711600  -14.377820
  C     -2.320190    6.061250  -13.243110
  Br    -0.628530    6.194810  -15.584650
  H     -9.657870    1.518920    4.316880
  H     -8.235420   -3.246720    3.701060
  H    -10.679280    0.628170    6.771210
  H     -6.704080   -0.466310   -0.859280
  H     -5.958800   -0.229710   -2.806840
  H     -5.320820    0.638190   -7.052300
  H     -4.292710   -0.757940   -6.639150
  H     -3.695540    0.898650   -6.372380
  H     -6.098480    4.623100   -6.500690
  H     -4.650530    4.163680   -7.397650
  H     -4.491340    4.765780   -5.730470
  H     -6.287200    4.490740   -4.256450
  H     -7.358770    5.557990   -2.856630
  H     -9.554150    9.189860   -0.791950
  H     -8.625190    8.736530   -3.322560
  H     -9.145050    5.748690   -3.749500
  H     -9.123860    4.034330   -5.074590
  H     -8.816170    2.432090   -6.900330
  H     -8.317730    3.191210   -9.177830
  H     -7.998360    5.576810   -9.680210
  H     -8.885170   10.097610   -6.752920
  H     -9.421170    9.566650   -5.090420
  H     -7.911750    9.471810   -8.530750
  H     -3.699870    5.473050  -10.817120
  H     -5.105100    9.592040  -13.297300
  H     -1.854680    5.154060  -12.903580

 Total Charge           Charge          ....    0
 Multiplicity           Mult            ....    1
 Number of Electrons    NEL             ....  586
 Basis Dimension        Dim             .... 1218

ORBITAL ENERGIES
----------------

  NO   OCC          E(Eh)            E(eV)
   0   2.0000    -482.886361    -13140.0059
   1   2.0000    -482.880107    -13139.8357
   2   2.0000     -89.005334     -2421.9583
   3   2.0000     -88.985787     -2421.4264
   4   2.0000     -88.975760     -2421.1535
   5   2.0000     -88.969030     -2420.9704
   6   2.0000     -62.564073     -1702.4550
   7   2.0000     -62.557819     -1702.2848
   8   2.0000     -56.398025     -1534.6683
   9   2.0000     -56.395309     -1534.5944
  10   2.0000     -56.395274     -1534.5934
  11   2.0000     -56.391762     -1534.4979
  12   2.0000     -56.389061     -1534.4244
  13   2.0000     -56.389022     -1534.4233
  14   2.0000     -19.266736      -524.2745
  15   2.0000     -19.259169      -524.0686
  16   2.0000     -19.247857      -523.7608
  17   2.0000     -19.247084      -523.7398
  18   2.0000     -19.215321      -522.8755
  19   2.0000     -19.214440      -522.8515
  20   2.0000     -14.659586      -398.9076
  21   2.0000     -14.515298      -394.9813
  22   2.0000     -14.413898      -392.2221
  23   2.0000     -14.410020      -392.1166
  24   2.0000     -14.408824      -392.0840
  25   2.0000     -14.402878      -391.9222
  26   2.0000     -10.392770      -282.8016
  27   2.0000     -10.373659      -282.2816
  28   2.0000     -10.365082      -282.0482
  29   2.0000     -10.361500      -281.9507
  30   2.0000     -10.361243      -281.9438
  31   2.0000     -10.360435      -281.9218
  32   2.0000     -10.359022      -281.8833
  33   2.0000     -10.357301      -281.8365
  34   2.0000     -10.352141      -281.6961
  35   2.0000     -10.336750      -281.2773
  36   2.0000     -10.334722      -281.2221
  37   2.0000     -10.333737      -281.1953
  38   2.0000     -10.332795      -281.1697
  39   2.0000     -10.330684      -281.1122
  40   2.0000     -10.328725      -281.0589
  41   2.0000     -10.328614      -281.0559
  42   2.0000     -10.327213      -281.0178
  43   2.0000     -10.327131      -281.0155
  44   2.0000     -10.324507      -280.9441
  45   2.0000     -10.324327      -280.9392
  46   2.0000     -10.323224      -280.9092
  47   2.0000     -10.322619      -280.8927
  48   2.0000     -10.320829      -280.8440
  49   2.0000     -10.318301      -280.7753
  50   2.0000     -10.317671      -280.7581
  51   2.0000     -10.315330      -280.6944
  52   2.0000     -10.314281      -280.6658
  53   2.0000     -10.313951      -280.6569
  54   2.0000     -10.313219      -280.6370
  55   2.0000     -10.313046      -280.6323
  56   2.0000     -10.312824      -280.6262
  57   2.0000     -10.311240      -280.5831
  58   2.0000     -10.307566      -280.4831
  59   2.0000     -10.307240      -280.4742
  60   2.0000     -10.307027      -280.4685
  61   2.0000     -10.307000      -280.4677
  62   2.0000     -10.305720      -280.4329
  63   2.0000     -10.305064      -280.4151
  64   2.0000     -10.304135      -280.3898
  65   2.0000     -10.303215      -280.3647
  66   2.0000     -10.302192      -280.3369
  67   2.0000     -10.301844      -280.3274
  68   2.0000     -10.301060      -280.3061
  69   2.0000     -10.299666      -280.2682
  70   2.0000     -10.299182      -280.2550
  71   2.0000     -10.299006      -280.2502
  72   2.0000     -10.298386      -280.2333
  73   2.0000     -10.297442      -280.2076
  74   2.0000     -10.297153      -280.1998
  75   2.0000     -10.294021      -280.1146
  76   2.0000     -10.291391      -280.0430
  77   2.0000     -10.290494      -280.0186
  78   2.0000     -10.290241      -280.0117
  79   2.0000     -10.284352      -279.8514
  80   2.0000     -10.282489      -279.8008
  81   2.0000     -10.280336      -279.7422
  82   2.0000      -8.793496      -239.2832
  83   2.0000      -8.787243      -239.1130
  84   2.0000      -8.100143      -220.4161
  85   2.0000      -8.077883      -219.8104
  86   2.0000      -8.071712      -219.6424
  87   2.0000      -8.065031      -219.4607
  88   2.0000      -6.629806      -180.4062
  89   2.0000      -6.623521      -180.2352
  90   2.0000      -6.615225      -180.0094
  91   2.0000      -6.615031      -180.0041
  92   2.0000      -6.608987      -179.8397
  93   2.0000      -6.608802      -179.8347
  94   2.0000      -6.069798      -165.1676
  95   2.0000      -6.065281      -165.0447
  96   2.0000      -6.061689      -164.9470
  97   2.0000      -6.047915      -164.5721
  98   2.0000      -6.042579      -164.4269
  99   2.0000      -6.041394      -164.3947
 100   2.0000      -6.039845      -164.3525
 101   2.0000      -6.037118      -164.2783
 102   2.0000      -6.034695      -164.2124
 103   2.0000      -6.032960      -164.1652
 104   2.0000      -6.030449      -164.0969
 105   2.0000      -6.026276      -163.9833
 106   2.0000      -2.745626       -74.7123
 107   2.0000      -2.741584       -74.6023
 108   2.0000      -2.741476       -74.5993
 109   2.0000      -2.739396       -74.5428
 110   2.0000      -2.735308       -74.4315
 111   2.0000      -2.735182       -74.4281
 112   2.0000      -2.729868       -74.2835
 113   2.0000      -2.729836       -74.2826
 114   2.0000      -2.723634       -74.1139
 115   2.0000      -2.723618       -74.1134
 116   2.0000      -1.329192       -36.1691
 117   2.0000      -1.177981       -32.0545
 118   2.0000      -1.156235       -31.4628
 119   2.0000      -1.148350       -31.2482
 120   2.0000      -1.129161       -30.7260
 121   2.0000      -1.128032       -30.6953
 122   2.0000      -1.124115       -30.5887
 123   2.0000      -1.028600       -27.9896
 124   2.0000      -1.021826       -27.8053
 125   2.0000      -1.019998       -27.7556
 126   2.0000      -1.014789       -27.6138
 127   2.0000      -1.011112       -27.5137
 128   2.0000      -1.005570       -27.3630
 129   2.0000      -1.002744       -27.2861
 130   2.0000      -0.991194       -26.9718
 131   2.0000      -0.987021       -26.8582
 132   2.0000      -0.985521       -26.8174
 133   2.0000      -0.980735       -26.6872
 134   2.0000      -0.958441       -26.0805
 135   2.0000      -0.948916       -25.8213
 136   2.0000      -0.945042       -25.7159
 137   2.0000      -0.939403       -25.5625
 138   2.0000      -0.933564       -25.4036
 139   2.0000      -0.916832       -24.9483
 140   2.0000      -0.906968       -24.6798
 141   2.0000      -0.904336       -24.6082
 142   2.0000      -0.900561       -24.5055
 143   2.0000      -0.893572       -24.3153
 144   2.0000      -0.885527       -24.0964
 145   2.0000      -0.883837       -24.0504
 146   2.0000      -0.879532       -23.9333
 147   2.0000      -0.878272       -23.8990
 148   2.0000      -0.876153       -23.8413
 149   2.0000      -0.866226       -23.5712
 150   2.0000      -0.861484       -23.4422
 151   2.0000      -0.855593       -23.2819
 152   2.0000      -0.854624       -23.2555
 153   2.0000      -0.831010       -22.6129
 154   2.0000      -0.828682       -22.5496
 155   2.0000      -0.822022       -22.3683
 156   2.0000      -0.815682       -22.1958
 157   2.0000      -0.806418       -21.9438
 158   2.0000      -0.793527       -21.5930
 159   2.0000      -0.786397       -21.3989
 160   2.0000      -0.785125       -21.3643
 161   2.0000      -0.773269       -21.0417
 162   2.0000      -0.757184       -20.6040
 163   2.0000      -0.753282       -20.4978
 164   2.0000      -0.747170       -20.3315
 165   2.0000      -0.734073       -19.9751
 166   2.0000      -0.727125       -19.7861
 167   2.0000      -0.718792       -19.5593
 168   2.0000      -0.715366       -19.4661
 169   2.0000      -0.707194       -19.2437
 170   2.0000      -0.695806       -18.9339
 171   2.0000      -0.693426       -18.8691
 172   2.0000      -0.688940       -18.7470
 173   2.0000      -0.688830       -18.7440
 174   2.0000      -0.683609       -18.6019
 175   2.0000      -0.673888       -18.3374
 176   2.0000      -0.667441       -18.1620
 177   2.0000      -0.661317       -17.9954
 178   2.0000      -0.655694       -17.8423
 179   2.0000      -0.652766       -17.7627
 180   2.0000      -0.651107       -17.7175
 181   2.0000      -0.648141       -17.6368
 182   2.0000      -0.641460       -17.4550
 183   2.0000      -0.641084       -17.4448
 184   2.0000      -0.637119       -17.3369
 185   2.0000      -0.626606       -17.0508
 186   2.0000      -0.623235       -16.9591
 187   2.0000      -0.619797       -16.8655
 188   2.0000      -0.615899       -16.7595
 189   2.0000      -0.612015       -16.6538
 190   2.0000      -0.606937       -16.5156
 191   2.0000      -0.602704       -16.4004
 192   2.0000      -0.599219       -16.3056
 193   2.0000      -0.595480       -16.2038
 194   2.0000      -0.591175       -16.0867
 195   2.0000      -0.589147       -16.0315
 196   2.0000      -0.582705       -15.8562
 197   2.0000      -0.580149       -15.7866
 198   2.0000      -0.577779       -15.7222
 199   2.0000      -0.577043       -15.7021
 200   2.0000      -0.574054       -15.6208
 201   2.0000      -0.564140       -15.3510
 202   2.0000      -0.559927       -15.2364
 203   2.0000      -0.557422       -15.1682
 204   2.0000      -0.552743       -15.0409
 205   2.0000      -0.551307       -15.0018
 206   2.0000      -0.549660       -14.9570
 207   2.0000      -0.546035       -14.8584
 208   2.0000      -0.545360       -14.8400
 209   2.0000      -0.541370       -14.7314
 210   2.0000      -0.536336       -14.5944
 211   2.0000      -0.534850       -14.5540
 212   2.0000      -0.534477       -14.5439
 213   2.0000      -0.532886       -14.5006
 214   2.0000      -0.531172       -14.4539
 215   2.0000      -0.530710       -14.4414
 216   2.0000      -0.523814       -14.2537
 217   2.0000      -0.522348       -14.2138
 218   2.0000      -0.521257       -14.1841
 219   2.0000      -0.519650       -14.1404
 220   2.0000      -0.517048       -14.0696
 221   2.0000      -0.514686       -14.0053
 222   2.0000      -0.512293       -13.9402
 223   2.0000      -0.509104       -13.8534
 224   2.0000      -0.507966       -13.8224
 225   2.0000      -0.506835       -13.7917
 226   2.0000      -0.503265       -13.6945
 227   2.0000      -0.501156       -13.6372
 228   2.0000      -0.495210       -13.4754
 229   2.0000      -0.493721       -13.4348
 230   2.0000      -0.488221       -13.2852
 231   2.0000      -0.487745       -13.2722
 232   2.0000      -0.487441       -13.2640
 233   2.0000      -0.485832       -13.2202
 234   2.0000      -0.482409       -13.1270
 235   2.0000      -0.476912       -12.9774
 236   2.0000      -0.472772       -12.8648
 237   2.0000      -0.469537       -12.7768
 238   2.0000      -0.466673       -12.6988
 239   2.0000      -0.459153       -12.4942
 240   2.0000      -0.457848       -12.4587
 241   2.0000      -0.456281       -12.4160
 242   2.0000      -0.454053       -12.3554
 243   2.0000      -0.452433       -12.3113
 244   2.0000      -0.448477       -12.2037
 245   2.0000      -0.448033       -12.1916
 246   2.0000      -0.444687       -12.1005
 247   2.0000      -0.442137       -12.0312
 248   2.0000      -0.441169       -12.0048
 249   2.0000      -0.440362       -11.9829
 250   2.0000      -0.439905       -11.9704
 251   2.0000      -0.438928       -11.9438
 252   2.0000      -0.436114       -11.8673
 253   2.0000      -0.434164       -11.8142
 254   2.0000      -0.432752       -11.7758
 255   2.0000      -0.431812       -11.7502
 256   2.0000      -0.428404       -11.6575
 257   2.0000      -0.425785       -11.5862
 258   2.0000      -0.424425       -11.5492
 259   2.0000      -0.420875       -11.4526
 260   2.0000      -0.418689       -11.3931
 261   2.0000      -0.411411       -11.1951
 262   2.0000      -0.411159       -11.1882
 263   2.0000      -0.409454       -11.1418
 264   2.0000      -0.405347       -11.0301
 265   2.0000      -0.401540       -10.9265
 266   2.0000      -0.398652       -10.8479
 267   2.0000      -0.395525       -10.7628
 268   2.0000      -0.393902       -10.7186
 269   2.0000      -0.390941       -10.6381
 270   2.0000      -0.387922       -10.5559
 271   2.0000      -0.385448       -10.4886
 272   2.0000      -0.379807       -10.3351
 273   2.0000      -0.376596       -10.2477
 274   2.0000      -0.376205       -10.2371
 275   2.0000      -0.375904       -10.2289
 276   2.0000      -0.369675       -10.0594
 277   2.0000      -0.366641        -9.9768
 278   2.0000      -0.359406        -9.7799
 279   2.0000      -0.357961        -9.7406
 280   2.0000      -0.350705        -9.5432
 281   2.0000      -0.341174        -9.2838
 282   2.0000      -0.331196        -9.0123
 283   2.0000      -0.327826        -8.9206
 284   2.0000      -0.324294        -8.8245
 285   2.0000      -0.316584        -8.6147
 286   2.0000      -0.314910        -8.5691
 287   2.0000      -0.309134        -8.4120
 288   2.0000      -0.293811        -7.9950
 289   2.0000      -0.291348        -7.9280
 290   2.0000      -0.286930        -7.8078
 291   2.0000      -0.259657        -7.0656
 292   2.0000      -0.242694        -6.6040
 293   0.0000      -0.132126        -3.5953
 294   0.0000      -0.090199        -2.4544
 295   0.0000      -0.074568        -2.0291
 296   0.0000      -0.062840        -1.7100
 297   0.0000      -0.050875        -1.3844

MULLIKEN ATOMIC CHARGES
-----------------------
   0 C :    0.334929
   1 C :   -0.369198
   2 C :   -0.186383
   3 N :    0.136948
   4 C :   -0.191388
   5 N :    0.138877
   6 C :    0.009308
   7 C :   -0.006302
   8 C :   -0.079903
   9 C :    0.120353
  10 C :   -0.092882
  11 C :   -0.025258
  12 S :    0.182819
  13 C :   -0.124320
  14 C :    0.036778
  15 Br:    0.018099
  16 C :    0.167882
  17 O :   -0.217584
  18 C :   -0.119643
  19 C :   -0.034278
  20 C :   -0.077327
  21 S :    0.172431
  22 C :    0.168749
  23 C :   -0.129864
  24 C :    0.170271
  25 O :   -0.281467
  26 C :    0.201749
  27 C :    0.170079
  28 O :   -0.325995
  29 C :    0.194592
  30 C :   -0.184282
  31 C :    0.157131
  32 C :   -0.095377
  33 N :   -0.012235
  34 C :   -0.096045
  35 S :    0.218931
  36 C :   -0.011040
  37 N :    0.274315
  38 O :   -0.247402
  39 O :   -0.256607
  40 C :    0.028573
  41 C :    0.080503
  42 C :    0.008379
  43 C :   -0.110855
  44 C :    0.119267
  45 C :    0.017627
  46 C :   -0.029695
  47 C :    0.028502
  48 C :    0.024638
  49 C :    0.030499
  50 C :    0.060801
  51 C :    0.081476
  52 C :   -0.016948
  53 C :   -0.006610
  54 C :   -0.050325
  55 C :   -0.127271
  56 C :    0.309678
  57 C :   -0.360274
  58 C :   -0.187646
  59 N :    0.141530
  60 C :   -0.202111
  61 N :    0.142940
  62 C :    0.018652
  63 C :   -0.010829
  64 C :    0.117664
  65 O :   -0.175830
  66 C :   -0.080662
  67 C :    0.119254
  68 C :   -0.093471
  69 C :   -0.024774
  70 S :    0.186042
  71 C :   -0.125077
  72 C :    0.038104
  73 Br:    0.020426
  74 H :   -0.012131
  75 H :   -0.009051
  76 H :   -0.004989
  77 H :   -0.013121
  78 H :    0.002866
  79 H :    0.020649
  80 H :    0.036222
  81 H :    0.024726
  82 H :    0.032544
  83 H :    0.042835
  84 H :    0.016991
  85 H :   -0.047094
  86 H :    0.153088
  87 H :    0.012576
  88 H :    0.004143
  89 H :    0.009630
  90 H :   -0.014816
  91 H :    0.002156
  92 H :    0.002835
  93 H :   -0.012010
  94 H :    0.062998
  95 H :    0.039844
  96 H :    0.005476
  97 H :   -0.022687
  98 H :   -0.007703
  99 H :   -0.007617
Sum of atomic charges:   -0.0000000

LOEWDIN ATOMIC CHARGES
----------------------
   0 C :    0.078764
   1 C :   -0.160695
   2 C :   -0.019598
   3 N :   -0.066828
   4 C :   -0.017361
   5 N :   -0.069566
   6 C :   -0.018198
   7 C :   -0.049414
   8 C :    0.019161
   9 C :   -0.035931
  10 C :   -0.146339
  11 C :   -0.011375
  12 S :    0.430629
  13 C :   -0.274555
  14 C :   -0.070078
  15 Br:    0.132416
  16 C :    0.085715
  17 O :   -0.195345
  18 C :   -0.136922
  19 C :    0.047860
  20 C :   -0.203231
  21 S :    0.506015
  22 C :   -0.008123
  23 C :   -0.043296
  24 C :    0.065216
  25 O :   -0.081386
  26 C :    0.079865
  27 C :    0.033433
  28 O :   -0.092409
  29 C :    0.079635
  30 C :   -0.075388
  31 C :   -0.088728
  32 C :   -0.121427
  33 N :    0.052484
  34 C :   -0.104154
  35 S :    0.493417
  36 C :   -0.207729
  37 N :    0.272978
  38 O :   -0.213483
  39 O :   -0.223525
  40 C :    0.003453
  41 C :   -0.105528
  42 C :    0.012503
  43 C :   -0.051603
  44 C :    0.023972
  45 C :   -0.025698
  46 C :   -0.015627
  47 C :   -0.015288
  48 C :    0.007525
  49 C :    0.001377
  50 C :    0.031748
  51 C :   -0.052213
  52 C :   -0.008050
  53 C :    0.062461
  54 C :    0.057820
  55 C :   -0.125745
  56 C :    0.075580
  57 C :   -0.157329
  58 C :   -0.020220
  59 N :   -0.063266
  60 C :   -0.020793
  61 N :   -0.071040
  62 C :   -0.020462
  63 C :   -0.049877
  64 C :    0.075189
  65 O :   -0.168372
  66 C :    0.013437
  67 C :   -0.035628
  68 C :   -0.146584
  69 C :   -0.010657
  70 S :    0.432384
  71 C :   -0.273413
  72 C :   -0.072019
  73 Br:    0.134147
  74 H :    0.040182
  75 H :    0.040552
  76 H :    0.038136
  77 H :    0.048449
  78 H :    0.043103
  79 H :    0.014606
  80 H :    0.026335
  81 H :    0.016663
  82 H :    0.017700
  83 H :    0.031269
  84 H :    0.015452
  85 H :    0.023956
  86 H :    0.097148
  87 H :    0.047851
  88 H :    0.034263
  89 H :    0.032587
  90 H :    0.029967
  91 H :    0.035682
  92 H :    0.036413
  93 H :    0.034702
  94 H :    0.043372
  95 H :    0.033377
  96 H :    0.039753
  97 H :    0.035835
  98 H :    0.040847
  99 H :    0.037112

  Mayer bond orders larger than 0.100000
B(  0-C ,  1-C ) :   1.5852 B(  0-C ,  6-C ) :   0.9863 B(  0-C , 18-C ) :   1.1204
B(  1-C ,  2-C ) :   1.1490 B(  1-C ,  4-C ) :   1.1542 B(  2-C ,  3-N ) :   2.9626
B(  4-C ,  5-N ) :   2.9746 B(  6-C ,  7-C ) :   1.2774 B(  6-C , 11-C ) :   1.4251
B(  7-C ,  8-C ) :   1.4277 B(  7-C , 16-C ) :   0.9622 B(  8-C ,  9-C ) :   1.2332
B(  8-C , 74-H ) :   1.0182 B(  9-C , 10-C ) :   1.3170 B(  9-C , 14-C ) :   1.1616
B( 10-C , 11-C ) :   1.3152 B( 10-C , 12-S ) :   1.0858 B( 11-C , 75-H ) :   0.9801
B( 12-S , 13-C ) :   1.0870 B( 13-C , 14-C ) :   1.6188 B( 13-C , 15-Br) :   1.0153
B( 14-C , 76-H ) :   1.0008 B( 16-C , 17-O ) :   2.0498 B( 16-C , 18-C ) :   1.0214
B( 17-O , 21-S ) :   0.1183 B( 18-C , 19-C ) :   1.3849 B( 19-C , 20-C ) :   1.4223
B( 19-C , 77-H ) :   0.9346 B( 20-C , 21-S ) :   1.0294 B( 20-C , 22-C ) :   1.1891
B( 21-S , 32-C ) :   1.1452 B( 22-C , 23-C ) :   1.2285 B( 22-C , 31-C ) :   1.2827
B( 23-C , 24-C ) :   1.4574 B( 23-C , 78-H ) :   0.9961 B( 24-C , 25-O ) :   1.2431
B( 24-C , 27-C ) :   1.1782 B( 25-O , 26-C ) :   0.9280 B( 26-C , 79-H ) :   0.9753
B( 26-C , 80-H ) :   0.9772 B( 26-C , 81-H ) :   0.9760 B( 27-C , 28-O ) :   1.1551
B( 27-C , 30-C ) :   1.4698 B( 28-O , 29-C ) :   0.9342 B( 29-C , 82-H ) :   0.9692
B( 29-C , 83-H ) :   0.9681 B( 29-C , 84-H ) :   0.9634 B( 30-C , 31-C ) :   1.1183
B( 30-C , 85-H ) :   0.9766 B( 31-C , 32-C ) :   1.2240 B( 32-C , 33-N ) :   1.2209
B( 33-N , 34-C ) :   1.1962 B( 33-N , 86-H ) :   0.8813 B( 34-C , 35-S ) :   1.1629
B( 34-C , 41-C ) :   1.3400 B( 35-S , 36-C ) :   1.0738 B( 36-C , 37-N ) :   0.9694
B( 36-C , 40-C ) :   1.4966 B( 37-N , 38-O ) :   1.5362 B( 37-N , 39-O ) :   1.5154
B( 38-O , 39-O ) :   0.2612 B( 40-C , 41-C ) :   1.2288 B( 40-C , 87-H ) :   1.0038
B( 41-C , 42-C ) :   1.1053 B( 42-C , 43-C ) :   1.5901 B( 42-C , 88-H ) :   0.9668
B( 43-C , 44-C ) :   1.2205 B( 43-C , 89-H ) :   0.9548 B( 44-C , 45-C ) :   1.3218
B( 44-C , 52-C ) :   1.0218 B( 45-C , 46-C ) :   1.1826 B( 45-C , 50-C ) :   1.1786
B( 46-C , 47-C ) :   1.5600 B( 46-C , 90-H ) :   0.9848 B( 47-C , 48-C ) :   1.1995
B( 47-C , 91-H ) :   0.9852 B( 48-C , 49-C ) :   1.5316 B( 48-C , 92-H ) :   0.9876
B( 49-C , 50-C ) :   1.2244 B( 49-C , 93-H ) :   0.9848 B( 50-C , 51-C ) :   1.2856
B( 51-C , 52-C ) :   1.0028 B( 51-C , 54-C ) :   1.3453 B( 52-C , 53-C ) :   1.8771
B( 53-C , 94-H ) :   0.9300 B( 53-C , 95-H ) :   0.9414 B( 54-C , 55-C ) :   1.4110
B( 54-C , 96-H ) :   0.9337 B( 55-C , 56-C ) :   1.1192 B( 55-C , 64-C ) :   0.9957
B( 56-C , 57-C ) :   1.5968 B( 56-C , 62-C ) :   0.9909 B( 57-C , 58-C ) :   1.1466
B( 57-C , 60-C ) :   1.1498 B( 58-C , 59-N ) :   2.9650 B( 60-C , 61-N ) :   2.9906
B( 62-C , 63-C ) :   1.2764 B( 62-C , 69-C ) :   1.4198 B( 63-C , 64-C ) :   0.9320
B( 63-C , 66-C ) :   1.4306 B( 64-C , 65-O ) :   2.1490 B( 66-C , 67-C ) :   1.2367
B( 66-C , 97-H ) :   1.0173 B( 67-C , 68-C ) :   1.3172 B( 67-C , 72-C ) :   1.1620
B( 68-C , 69-C ) :   1.3175 B( 68-C , 70-S ) :   1.0851 B( 69-C , 98-H ) :   0.9806
B( 70-S , 71-C ) :   1.0889 B( 71-C , 72-C ) :   1.6173 B( 71-C , 73-Br) :   1.0162
B( 72-C , 99-H ) :   1.0005

-----------------------------------------------------------------------------
         ABSORPTION SPECTRUM VIA TRANSITION ELECTRIC DIPOLE MOMENTS
-----------------------------------------------------------------------------
State   Energy  Wavelength   fosc         T2         TX        TY        TZ
        (cm-1)    (nm)                  (au**2)     (au)      (au)      (au)
-----------------------------------------------------------------------------
   0    8837.8   1131.5   0.539315975  20.08965  -0.59047  -2.09324   3.91910
   1   12926.6    773.6   0.047816195   1.21777   0.68254  -0.82932  -0.25325
   2   17515.3    570.9   0.703765250  13.22777  -0.02212  -3.26540   1.60139
   3   19464.7    513.8   0.006675153   0.11290  -0.29913   0.12950  -0.08153
   4   20888.9    478.7   0.207592330   3.27168  -0.79350  -0.26342   1.60395
   5   21968.8    455.2   0.155559066   2.33112  -0.14751  -1.14931   0.99421
   6   22730.5    439.9   0.007279486   0.10543   0.11611  -0.19529  -0.23197
   7   22834.5    437.9   0.030903895   0.44555  -0.25736  -0.14980   0.59739
   8   23126.6    432.4   0.037367740   0.53194   0.31917   0.28683   0.58975
   9   23683.3    422.2   0.020185803   0.28059   0.46631   0.24243  -0.06617
  10   24918.4    401.3   0.233046422   3.07892  -1.11107  -0.18672   1.34521
  11   25029.7    399.5   0.001579250   0.02077   0.04393   0.12841  -0.04849
  12   25782.8    387.9   0.349385787   4.46119   0.78715   0.10166  -1.95736
  13   26090.4    383.3   0.049577497   0.62558  -0.47699  -0.19741   0.59924
  14   27729.1    360.6   0.096544257   1.14622   0.11164  -0.70440  -0.79848
  15   27860.4    358.9   0.302298725   3.57211   1.03931  -0.28918  -1.55188
  16   28308.8    353.2   0.054035479   0.62840  -0.39686  -0.34526   0.59304
  17   28755.8    347.8   0.005152583   0.05899   0.16349  -0.11971   0.13390
  18   28960.1    345.3   0.060904531   0.69235  -0.36031  -0.17453   0.72943
  19   29160.3    342.9   0.156421993   1.76596  -0.72217   0.17256   1.10211
  20   29547.1    338.4   0.161038284   1.79428   0.64225  -0.28414  -1.14064
  21   29773.8    335.9   0.065387813   0.72300  -0.02440  -0.59726  -0.60472
  22   30394.9    329.0   0.045589841   0.49379  -0.46112  -0.17575   0.50027
  23   30802.1    324.7   0.608561269   6.50429   1.92551  -1.05065  -1.30109
  24   30850.0    324.1   0.018831959   0.20096  -0.36406   0.14944   0.21468
  25   31391.0    318.6   0.041926026   0.43970  -0.53602  -0.38333   0.07374
  26   31450.6    318.0   0.169179935   1.77090  -0.11813   0.19370   1.31127
  27   32092.3    311.6   0.081976218   0.84094   0.28938  -0.56391  -0.66272
  28   32311.9    309.5   0.102077151   1.04002   0.08310   0.91577  -0.44101
  29   32606.3    306.7   0.027646755   0.27914   0.17688   0.31479   0.38569
  30   32838.7    304.5   0.009769720   0.09794  -0.11043   0.06269   0.28604
  31   32983.1    303.2   0.342208269   3.41566   0.85186  -1.16994  -1.14945
  32   33283.1    300.5   0.006941535   0.06866  -0.04640   0.25501   0.03840
  33   33672.2    297.0   0.203072567   1.98543   0.78473  -0.96063  -0.66844
  34   33717.2    296.6   0.065112337   0.63575  -0.22259  -0.10241  -0.75876
  35   33832.5    295.6   0.195868788   1.90593   0.85203  -0.37116  -1.02089
  36   34988.5    285.8   0.433733748   4.08106   0.00431  -0.70525  -1.89305
  37   35036.4    285.4   0.044344652   0.41668   0.18731   0.24206  -0.56833
  38   35346.7    282.9   0.004814862   0.04484   0.08949  -0.11288  -0.15523
  39   35489.9    281.8   0.014384270   0.13343  -0.27351  -0.12778   0.20567
  40   35708.8    280.0   0.014219026   0.13109  -0.14867  -0.03205   0.32857
  41   36012.6    277.7   0.002735528   0.02501   0.05782   0.04504  -0.14013
  42   36275.9    275.7   0.024882396   0.22581   0.22103  -0.15072   0.39274
  43   36460.1    274.3   0.050415804   0.45522  -0.02763  -0.13573   0.66033
  44   36594.7    273.3   0.238630163   2.14676   0.36990  -1.41377   0.10575
  45   37081.7    269.7   0.017383349   0.15433   0.02875  -0.39112  -0.02290
  46   37205.6    268.8   0.092655957   0.81986  -0.00355  -0.84428   0.32717
  47   37381.6    267.5   0.020388418   0.17956   0.15205  -0.34408   0.19506
  48   37445.6    267.1   0.010307610   0.09062  -0.21782   0.15779   0.13520
  49   38071.6    262.7   0.000719222   0.00622   0.03657   0.06435  -0.02721
  50   38192.7    261.8   0.239789479   2.06693  -0.26698  -0.73708   1.20514
  51   38254.0    261.4   0.331052610   2.84902   0.58398  -1.57981  -0.11046
  52   38648.4    258.7   0.064094349   0.54596  -0.04125  -0.73680  -0.03728
  53   38742.6    258.1   0.091246492   0.77536  -0.10361   0.87441   0.00496
  54   39087.0    255.8   0.042741192   0.35999   0.23067  -0.11577   0.54164
  55   39185.3    255.2   0.026651545   0.22391  -0.08861  -0.31442   0.34234
  56   39391.2    253.9   0.004739338   0.03961  -0.11997  -0.14811   0.05725
  57   39557.2    252.8   0.006438222   0.05358  -0.14429  -0.18084  -0.00770
  58   40025.5    249.8   0.125389492   1.03133   0.42005  -0.02450  -0.92428
  59   40109.1    249.3   0.226595369   1.85987  -0.67351   0.04113   1.18515
  60   40218.5    248.6   0.001746790   0.01430  -0.01345  -0.01610   0.11772

FINAL SINGLE POINT ENERGY     -9665.755040675982

DIPOLE MOMENT
-------------
                                X             Y             Z
Electronic contribution:     20.62476     -39.06319      37.40483
Nuclear contribution   :    -20.10659      39.69692     -38.64973
                        -----------------------------------------
Total Dipole Moment    :      0.51817       0.63373      -1.24490
                        -----------------------------------------
Magnitude (a.u.)       :      1.48994
Magnitude (Debye)      :      3.78712

Rotational constants in cm-1:     0.001395     0.000215     0.000191
Rotational constants in MHz :    41.815555     6.457757     5.736463

                             ****ORCA TERMINATED NORMALLY****
TOTAL RUN TIME: 0 days 0 hours 13 minutes 25 seconds 569 msec
