                         Program Version 4.2.0 -  RELEASE  -
|  1> # ORCA input file
|  2> # SCF done       -214.314365119408          0.000715761071
|  3> ! CAM-B3LYP def2-SVP def2/J RIJCOSX Grid4 TightSCF
|  4> %maxcore 5000
|  5> %tddft
|  6>     Mode sTDDFT
|  7>     Ethresh 5.0
|  8>     maxcore 5000
|  9> end
| 10>
| 11> %pal
| 12>   nprocs 6
| 13>   end
| 14> * xyz 0 1
| 15>    C        3.33336        -2.56776         5.27602
| 16>    C        3.10803        -1.43202         6.00197
| 17>    F        4.13486        -0.76000         6.53734
| 18>    C        1.79649        -0.95319         6.19684
| 19>    F        1.60569         0.16296         6.91239
| 20>    C        0.72804        -1.61801         5.66377
| 21>    C        0.92769        -2.79170         4.91094
| 22>    C        2.25347        -3.27561         4.71092
| 23>    C        2.47985        -4.44840         3.95486
| 24>    C        1.41332        -5.11725         3.41456
| 25>    C        0.09203        -4.63455         3.63300
| 26>    C       -0.15838        -3.50266         4.35514
| 27>    C       -0.86469        -5.54414         2.98591
| 28>    O       -2.07560        -5.41272         2.94073
| 29>    C       -0.06952        -6.64015         2.41540
| 30>    C        1.33993        -6.33075         2.60499
| 31>    C        2.41226        -6.99018         2.07307
| 32>    C        2.35416        -8.14557         1.26405
| 33>    N        2.40560        -9.08920         0.61254
| 34>    C        3.75176        -6.57135         2.23822
| 35>    N        4.85301        -6.26065         2.31869
| 36>    C       -0.57945        -7.78569         1.87409
| 37>    C       -1.92152        -8.16001         1.65536
| 38>    C       -2.25142        -9.43257         1.15868
| 39>    C       -1.27617       -10.43692         1.02572
| 40>    N       -0.45609       -11.23789         1.01155
| 41>    C       -3.63397        -9.60164         0.96186
| 42>    C       -4.33509        -8.45390         1.34509
| 43>    S       -3.34479        -7.17021         1.91899
| 44>    S       -6.05971        -8.60010         1.23093
| 45>    C       -5.85032       -10.22564         0.64998
| 46>    C       -4.52318       -10.62729         0.52535
| 47>    C       -4.43109       -11.94276         0.00809
| 48>    C       -3.24007       -12.53673        -0.45263
| 49>    N       -2.27350       -12.91609        -0.93762
| 50>    C       -5.68061       -12.50746        -0.19073
| 51>    S       -6.98857       -11.43359         0.18923
| 52>    C       -5.85976       -13.86559        -0.59694
| 53>    N       -6.92426       -14.43315        -1.06088
| 54>    N       -4.74051       -14.67715        -0.47229
| 55>    C       -5.08984       -15.82850        -0.94622
| 56>    C       -6.55603       -15.79106        -1.35467
| 57>    C       -6.84865       -16.19629        -2.75391
| 58>    S       -8.22946       -17.11072        -3.01768
| 59>    C       -8.42426       -17.69497        -1.47755
| 60>    S       -7.47944       -16.96061        -0.23477
| 61>    C       -4.17486       -16.89715        -1.03761
| 62>    C       -2.86954       -16.79311        -0.57539
| 63>    C       -2.41542       -15.80602         0.31824
| 64>    N       -2.00678       -15.14427         1.16044
| 65>    C       -2.11236       -17.93493        -0.90539
| 66>    C       -2.87402       -18.92558        -1.51921
| 67>    S       -4.50112       -18.42800        -1.81418
| 68>    S       -2.01550       -20.42262        -1.75039
| 69>    C       -0.60273       -19.69655        -1.02929
| 70>    C       -0.78261       -18.36477        -0.68087
| 71>    C        0.39513       -17.77753        -0.17398
| 72>    C        0.59465       -16.38995        -0.06030
| 73>    N        0.81434       -15.26439        -0.07408
| 74>    C        1.42032       -18.70194        -0.02516
| 75>    S        0.97904       -20.27282        -0.65206
| 76>    C        2.67399       -18.37594         0.58181
| 77>    C        2.76866       -17.42021         1.53727
| 78>    C        4.03607       -16.64776         1.76810
| 79>    O        5.15808       -17.01283         1.52667
| 80>    C        3.56872       -15.33162         2.25342
| 81>    C        4.25257       -14.15246         2.36239
| 82>    C        3.54984       -12.98385         2.73793
| 83>    C        2.14468       -13.04940         2.97480
| 84>    C        1.44082       -11.87367         3.30301
| 85>    C        2.10818       -10.68955         3.40935
| 86>    C        3.49869       -10.62397         3.19725
| 87>    C        4.20701       -11.74294         2.86274
| 88>    F        4.12048        -9.44206         3.33742
| 89>    F        1.44509        -9.55974         3.72836
| 90>    C        1.46389       -14.28042         2.87519
| 91>    C        2.17410       -15.40030         2.53770
| 92>    C        1.71486       -16.75634         2.29782
| 93>    C        0.60931       -17.33197         2.85555
| 94>    C        0.22636       -18.66672         2.61746
| 95>    N       -0.11716       -19.74574         2.42808
| 96>    C       -0.24163       -16.65961         3.76039
| 97>    N       -0.94251       -16.17946         4.53023
| 98>    H        4.34327        -2.92000         5.13521
| 99>    H       -0.26943        -1.23925         5.82283
|100>    H        3.49339        -4.79223         3.82843
|101>    H       -1.17045        -3.15771         4.50298
|102>    H        0.12775        -8.55111         1.57495
|103>    H       -6.52117       -15.55167        -3.54810
|104>    H       -9.18502       -18.40006        -1.21825
|105>    H        3.58015       -18.83624         0.21033
|106>    H        5.30898       -14.10422         2.14572
|107>    H        0.37490       -11.91299         3.45620
|108>    H        5.26939       -11.66839         2.69153
|109>    H        0.39501       -14.30790         3.01424
|110> *
|111>
|112>                          ****END OF INPUT****

CARTESIAN COORDINATES (ANGSTROEM)
---------------------------------
  C      3.333360   -2.567760    5.276020
  C      3.108030   -1.432020    6.001970
  F      4.134860   -0.760000    6.537340
  C      1.796490   -0.953190    6.196840
  F      1.605690    0.162960    6.912390
  C      0.728040   -1.618010    5.663770
  C      0.927690   -2.791700    4.910940
  C      2.253470   -3.275610    4.710920
  C      2.479850   -4.448400    3.954860
  C      1.413320   -5.117250    3.414560
  C      0.092030   -4.634550    3.633000
  C     -0.158380   -3.502660    4.355140
  C     -0.864690   -5.544140    2.985910
  O     -2.075600   -5.412720    2.940730
  C     -0.069520   -6.640150    2.415400
  C      1.339930   -6.330750    2.604990
  C      2.412260   -6.990180    2.073070
  C      2.354160   -8.145570    1.264050
  N      2.405600   -9.089200    0.612540
  C      3.751760   -6.571350    2.238220
  N      4.853010   -6.260650    2.318690
  C     -0.579450   -7.785690    1.874090
  C     -1.921520   -8.160010    1.655360
  C     -2.251420   -9.432570    1.158680
  C     -1.276170  -10.436920    1.025720
  N     -0.456090  -11.237890    1.011550
  C     -3.633970   -9.601640    0.961860
  C     -4.335090   -8.453900    1.345090
  S     -3.344790   -7.170210    1.918990
  S     -6.059710   -8.600100    1.230930
  C     -5.850320  -10.225640    0.649980
  C     -4.523180  -10.627290    0.525350
  C     -4.431090  -11.942760    0.008090
  C     -3.240070  -12.536730   -0.452630
  N     -2.273500  -12.916090   -0.937620
  C     -5.680610  -12.507460   -0.190730
  S     -6.988570  -11.433590    0.189230
  C     -5.859760  -13.865590   -0.596940
  N     -6.924260  -14.433150   -1.060880
  N     -4.740510  -14.677150   -0.472290
  C     -5.089840  -15.828500   -0.946220
  C     -6.556030  -15.791060   -1.354670
  C     -6.848650  -16.196290   -2.753910
  S     -8.229460  -17.110720   -3.017680
  C     -8.424260  -17.694970   -1.477550
  S     -7.479440  -16.960610   -0.234770
  C     -4.174860  -16.897150   -1.037610
  C     -2.869540  -16.793110   -0.575390
  C     -2.415420  -15.806020    0.318240
  N     -2.006780  -15.144270    1.160440
  C     -2.112360  -17.934930   -0.905390
  C     -2.874020  -18.925580   -1.519210
  S     -4.501120  -18.428000   -1.814180
  S     -2.015500  -20.422620   -1.750390
  C     -0.602730  -19.696550   -1.029290
  C     -0.782610  -18.364770   -0.680870
  C      0.395130  -17.777530   -0.173980
  C      0.594650  -16.389950   -0.060300
  N      0.814340  -15.264390   -0.074080
  C      1.420320  -18.701940   -0.025160
  S      0.979040  -20.272820   -0.652060
  C      2.673990  -18.375940    0.581810
  C      2.768660  -17.420210    1.537270
  C      4.036070  -16.647760    1.768100
  O      5.158080  -17.012830    1.526670
  C      3.568720  -15.331620    2.253420
  C      4.252570  -14.152460    2.362390
  C      3.549840  -12.983850    2.737930
  C      2.144680  -13.049400    2.974800
  C      1.440820  -11.873670    3.303010
  C      2.108180  -10.689550    3.409350
  C      3.498690  -10.623970    3.197250
  C      4.207010  -11.742940    2.862740
  F      4.120480   -9.442060    3.337420
  F      1.445090   -9.559740    3.728360
  C      1.463890  -14.280420    2.875190
  C      2.174100  -15.400300    2.537700
  C      1.714860  -16.756340    2.297820
  C      0.609310  -17.331970    2.855550
  C      0.226360  -18.666720    2.617460
  N     -0.117160  -19.745740    2.428080
  C     -0.241630  -16.659610    3.760390
  N     -0.942510  -16.179460    4.530230
  H      4.343270   -2.920000    5.135210
  H     -0.269430   -1.239250    5.822830
  H      3.493390   -4.792230    3.828430
  H     -1.170450   -3.157710    4.502980
  H      0.127750   -8.551110    1.574950
  H     -6.521170  -15.551670   -3.548100
  H     -9.185020  -18.400060   -1.218250
  H      3.580150  -18.836240    0.210330
  H      5.308980  -14.104220    2.145720
  H      0.374900  -11.912990    3.456200
  H      5.269390  -11.668390    2.691530
  H      0.395010  -14.307900    3.014240

 Total Charge           Charge          ....    0
 Multiplicity           Mult            ....    1
 Number of Electrons    NEL             ....  616
 Basis Dimension        Dim             .... 1254

ORBITAL ENERGIES
----------------

  NO   OCC          E(Eh)            E(eV)
   0   2.0000     -89.008067     -2422.0326
   1   2.0000     -88.997295     -2421.7395
   2   2.0000     -88.996260     -2421.7114
   3   2.0000     -88.995418     -2421.6884
   4   2.0000     -88.994973     -2421.6763
   5   2.0000     -88.994153     -2421.6540
   6   2.0000     -88.991827     -2421.5907
   7   2.0000     -88.970361     -2421.0066
   8   2.0000     -24.801107      -674.8724
   9   2.0000     -24.800138      -674.8461
  10   2.0000     -24.793734      -674.6718
  11   2.0000     -24.790333      -674.5793
  12   2.0000     -19.234098      -523.3864
  13   2.0000     -19.213956      -522.8383
  14   2.0000     -14.419710      -392.3803
  15   2.0000     -14.417628      -392.3236
  16   2.0000     -14.416462      -392.2919
  17   2.0000     -14.413545      -392.2125
  18   2.0000     -14.411219      -392.1492
  19   2.0000     -14.406926      -392.0324
  20   2.0000     -14.406606      -392.0237
  21   2.0000     -14.402675      -391.9167
  22   2.0000     -14.401206      -391.8767
  23   2.0000     -14.394579      -391.6964
  24   2.0000     -10.384613      -282.5797
  25   2.0000     -10.384049      -282.5643
  26   2.0000     -10.380945      -282.4799
  27   2.0000     -10.367371      -282.1105
  28   2.0000     -10.367012      -282.1007
  29   2.0000     -10.364399      -282.0296
  30   2.0000     -10.363543      -282.0063
  31   2.0000     -10.357571      -281.8438
  32   2.0000     -10.349164      -281.6151
  33   2.0000     -10.348648      -281.6010
  34   2.0000     -10.348591      -281.5995
  35   2.0000     -10.347413      -281.5674
  36   2.0000     -10.347172      -281.5609
  37   2.0000     -10.344645      -281.4921
  38   2.0000     -10.343654      -281.4651
  39   2.0000     -10.341872      -281.4166
  40   2.0000     -10.339243      -281.3451
  41   2.0000     -10.339167      -281.3430
  42   2.0000     -10.336383      -281.2673
  43   2.0000     -10.335669      -281.2479
  44   2.0000     -10.335459      -281.2421
  45   2.0000     -10.333621      -281.1921
  46   2.0000     -10.332856      -281.1713
  47   2.0000     -10.332575      -281.1637
  48   2.0000     -10.332296      -281.1561
  49   2.0000     -10.330890      -281.1178
  50   2.0000     -10.328687      -281.0579
  51   2.0000     -10.322709      -280.8952
  52   2.0000     -10.318947      -280.7928
  53   2.0000     -10.318898      -280.7915
  54   2.0000     -10.318128      -280.7705
  55   2.0000     -10.316363      -280.7225
  56   2.0000     -10.314288      -280.6661
  57   2.0000     -10.313999      -280.6582
  58   2.0000     -10.313797      -280.6527
  59   2.0000     -10.313407      -280.6421
  60   2.0000     -10.312190      -280.6090
  61   2.0000     -10.311456      -280.5890
  62   2.0000     -10.310835      -280.5721
  63   2.0000     -10.309957      -280.5482
  64   2.0000     -10.308373      -280.5051
  65   2.0000     -10.307971      -280.4941
  66   2.0000     -10.306191      -280.4457
  67   2.0000     -10.305254      -280.4202
  68   2.0000     -10.305049      -280.4146
  69   2.0000     -10.304576      -280.4018
  70   2.0000     -10.303171      -280.3635
  71   2.0000     -10.302388      -280.3422
  72   2.0000     -10.299093      -280.2526
  73   2.0000     -10.296559      -280.1836
  74   2.0000     -10.295432      -280.1530
  75   2.0000     -10.292270      -280.0669
  76   2.0000     -10.291896      -280.0567
  77   2.0000     -10.289263      -279.9851
  78   2.0000     -10.287791      -279.9450
  79   2.0000     -10.285071      -279.8710
  80   2.0000     -10.284610      -279.8585
  81   2.0000     -10.283488      -279.8279
  82   2.0000     -10.282950      -279.8133
  83   2.0000      -8.100958      -220.4383
  84   2.0000      -8.091039      -220.1684
  85   2.0000      -8.090809      -220.1621
  86   2.0000      -8.090502      -220.1537
  87   2.0000      -8.089728      -220.1327
  88   2.0000      -8.088638      -220.1030
  89   2.0000      -8.084539      -219.9915
  90   2.0000      -8.065309      -219.4682
  91   2.0000      -6.069242      -165.1525
  92   2.0000      -6.066401      -165.0752
  93   2.0000      -6.064543      -165.0246
  94   2.0000      -6.060950      -164.9268
  95   2.0000      -6.060705      -164.9202
  96   2.0000      -6.060465      -164.9136
  97   2.0000      -6.059275      -164.8813
  98   2.0000      -6.058315      -164.8551
  99   2.0000      -6.056530      -164.8066
 100   2.0000      -6.056282      -164.7998
 101   2.0000      -6.056168      -164.7967
 102   2.0000      -6.054976      -164.7643
 103   2.0000      -6.054303      -164.7460
 104   2.0000      -6.053970      -164.7369
 105   2.0000      -6.052840      -164.7061
 106   2.0000      -6.051531      -164.6705
 107   2.0000      -6.051473      -164.6690
 108   2.0000      -6.051378      -164.6664
 109   2.0000      -6.050277      -164.6364
 110   2.0000      -6.049468      -164.6144
 111   2.0000      -6.046344      -164.5294
 112   2.0000      -6.035420      -164.2321
 113   2.0000      -6.031205      -164.1174
 114   2.0000      -6.025734      -163.9686
 115   2.0000      -1.323736       -36.0207
 116   2.0000      -1.311630       -35.6913
 117   2.0000      -1.308846       -35.6155
 118   2.0000      -1.296609       -35.2825
 119   2.0000      -1.149518       -31.2800
 120   2.0000      -1.130510       -30.7627
 121   2.0000      -1.119045       -30.4508
 122   2.0000      -1.049660       -28.5627
 123   2.0000      -1.048458       -28.5300
 124   2.0000      -1.023632       -27.8544
 125   2.0000      -1.021545       -27.7976
 126   2.0000      -1.015799       -27.6413
 127   2.0000      -1.008565       -27.4445
 128   2.0000      -1.007621       -27.4188
 129   2.0000      -1.001173       -27.2433
 130   2.0000      -0.995888       -27.0995
 131   2.0000      -0.995684       -27.0939
 132   2.0000      -0.994335       -27.0572
 133   2.0000      -0.990703       -26.9584
 134   2.0000      -0.986191       -26.8356
 135   2.0000      -0.983818       -26.7711
 136   2.0000      -0.980865       -26.6907
 137   2.0000      -0.976701       -26.5774
 138   2.0000      -0.971794       -26.4439
 139   2.0000      -0.967443       -26.3255
 140   2.0000      -0.956259       -26.0211
 141   2.0000      -0.948610       -25.8130
 142   2.0000      -0.934915       -25.4403
 143   2.0000      -0.920716       -25.0540
 144   2.0000      -0.910785       -24.7837
 145   2.0000      -0.904790       -24.6206
 146   2.0000      -0.903372       -24.5820
 147   2.0000      -0.900893       -24.5145
 148   2.0000      -0.896405       -24.3924
 149   2.0000      -0.892799       -24.2943
 150   2.0000      -0.883290       -24.0355
 151   2.0000      -0.877855       -23.8876
 152   2.0000      -0.877067       -23.8662
 153   2.0000      -0.873379       -23.7658
 154   2.0000      -0.865054       -23.5393
 155   2.0000      -0.861530       -23.4434
 156   2.0000      -0.844612       -22.9831
 157   2.0000      -0.835341       -22.7308
 158   2.0000      -0.832223       -22.6459
 159   2.0000      -0.826583       -22.4925
 160   2.0000      -0.823759       -22.4156
 161   2.0000      -0.817017       -22.2322
 162   2.0000      -0.794463       -21.6184
 163   2.0000      -0.788542       -21.4573
 164   2.0000      -0.773460       -21.0469
 165   2.0000      -0.764506       -20.8033
 166   2.0000      -0.757937       -20.6245
 167   2.0000      -0.751994       -20.4628
 168   2.0000      -0.740005       -20.1366
 169   2.0000      -0.729312       -19.8456
 170   2.0000      -0.724159       -19.7054
 171   2.0000      -0.717641       -19.5280
 172   2.0000      -0.711495       -19.3608
 173   2.0000      -0.709327       -19.3018
 174   2.0000      -0.705519       -19.1982
 175   2.0000      -0.702407       -19.1135
 176   2.0000      -0.695731       -18.9318
 177   2.0000      -0.694261       -18.8918
 178   2.0000      -0.688228       -18.7276
 179   2.0000      -0.684079       -18.6147
 180   2.0000      -0.676135       -18.3986
 181   2.0000      -0.674404       -18.3515
 182   2.0000      -0.669852       -18.2276
 183   2.0000      -0.666583       -18.1386
 184   2.0000      -0.661840       -18.0096
 185   2.0000      -0.656429       -17.8624
 186   2.0000      -0.650320       -17.6961
 187   2.0000      -0.646549       -17.5935
 188   2.0000      -0.644610       -17.5407
 189   2.0000      -0.642525       -17.4840
 190   2.0000      -0.634509       -17.2659
 191   2.0000      -0.633036       -17.2258
 192   2.0000      -0.625834       -17.0298
 193   2.0000      -0.621041       -16.8994
 194   2.0000      -0.617410       -16.8006
 195   2.0000      -0.608236       -16.5510
 196   2.0000      -0.604995       -16.4628
 197   2.0000      -0.595025       -16.1915
 198   2.0000      -0.588635       -16.0176
 199   2.0000      -0.588197       -16.0056
 200   2.0000      -0.584672       -15.9097
 201   2.0000      -0.581479       -15.8229
 202   2.0000      -0.577965       -15.7272
 203   2.0000      -0.577532       -15.7154
 204   2.0000      -0.573081       -15.5943
 205   2.0000      -0.570425       -15.5220
 206   2.0000      -0.560531       -15.2528
 207   2.0000      -0.556893       -15.1538
 208   2.0000      -0.553971       -15.0743
 209   2.0000      -0.551092       -14.9960
 210   2.0000      -0.549687       -14.9578
 211   2.0000      -0.548347       -14.9213
 212   2.0000      -0.547246       -14.8913
 213   2.0000      -0.544655       -14.8208
 214   2.0000      -0.541277       -14.7289
 215   2.0000      -0.538944       -14.6654
 216   2.0000      -0.538508       -14.6535
 217   2.0000      -0.535268       -14.5654
 218   2.0000      -0.534597       -14.5471
 219   2.0000      -0.533709       -14.5230
 220   2.0000      -0.531081       -14.4514
 221   2.0000      -0.527367       -14.3504
 222   2.0000      -0.525398       -14.2968
 223   2.0000      -0.524029       -14.2595
 224   2.0000      -0.521810       -14.1992
 225   2.0000      -0.518873       -14.1193
 226   2.0000      -0.516742       -14.0613
 227   2.0000      -0.514103       -13.9894
 228   2.0000      -0.513012       -13.9598
 229   2.0000      -0.509547       -13.8655
 230   2.0000      -0.508714       -13.8428
 231   2.0000      -0.507246       -13.8029
 232   2.0000      -0.503230       -13.6936
 233   2.0000      -0.502402       -13.6710
 234   2.0000      -0.499026       -13.5792
 235   2.0000      -0.497409       -13.5352
 236   2.0000      -0.496633       -13.5141
 237   2.0000      -0.490843       -13.3565
 238   2.0000      -0.488685       -13.2978
 239   2.0000      -0.487130       -13.2555
 240   2.0000      -0.484226       -13.1765
 241   2.0000      -0.475280       -12.9330
 242   2.0000      -0.474339       -12.9074
 243   2.0000      -0.472711       -12.8631
 244   2.0000      -0.471703       -12.8357
 245   2.0000      -0.469454       -12.7745
 246   2.0000      -0.467965       -12.7340
 247   2.0000      -0.465475       -12.6662
 248   2.0000      -0.462209       -12.5773
 249   2.0000      -0.457318       -12.4443
 250   2.0000      -0.457135       -12.4393
 251   2.0000      -0.456449       -12.4206
 252   2.0000      -0.453534       -12.3413
 253   2.0000      -0.452218       -12.3055
 254   2.0000      -0.450701       -12.2642
 255   2.0000      -0.448519       -12.2048
 256   2.0000      -0.446669       -12.1545
 257   2.0000      -0.445546       -12.1239
 258   2.0000      -0.443904       -12.0792
 259   2.0000      -0.442795       -12.0491
 260   2.0000      -0.441718       -12.0198
 261   2.0000      -0.439748       -11.9662
 262   2.0000      -0.437748       -11.9117
 263   2.0000      -0.436472       -11.8770
 264   2.0000      -0.434933       -11.8351
 265   2.0000      -0.433953       -11.8085
 266   2.0000      -0.433119       -11.7858
 267   2.0000      -0.431686       -11.7468
 268   2.0000      -0.430927       -11.7261
 269   2.0000      -0.428392       -11.6571
 270   2.0000      -0.427705       -11.6385
 271   2.0000      -0.424996       -11.5647
 272   2.0000      -0.422021       -11.4838
 273   2.0000      -0.421415       -11.4673
 274   2.0000      -0.419587       -11.4175
 275   2.0000      -0.417892       -11.3714
 276   2.0000      -0.415098       -11.2954
 277   2.0000      -0.412400       -11.2220
 278   2.0000      -0.408982       -11.1290
 279   2.0000      -0.405414       -11.0319
 280   2.0000      -0.404363       -11.0033
 281   2.0000      -0.398627       -10.8472
 282   2.0000      -0.395361       -10.7583
 283   2.0000      -0.391653       -10.6574
 284   2.0000      -0.388510       -10.5719
 285   2.0000      -0.386428       -10.5152
 286   2.0000      -0.379922       -10.3382
 287   2.0000      -0.375279       -10.2119
 288   2.0000      -0.373662       -10.1679
 289   2.0000      -0.372681       -10.1412
 290   2.0000      -0.364704        -9.9241
 291   2.0000      -0.362094        -9.8531
 292   2.0000      -0.354403        -9.6438
 293   2.0000      -0.349232        -9.5031
 294   2.0000      -0.347764        -9.4631
 295   2.0000      -0.347063        -9.4441
 296   2.0000      -0.329546        -8.9674
 297   2.0000      -0.326910        -8.8957
 298   2.0000      -0.323478        -8.8023
 299   2.0000      -0.321259        -8.7419
 300   2.0000      -0.307278        -8.3615
 301   2.0000      -0.303649        -8.2627
 302   2.0000      -0.299408        -8.1473
 303   2.0000      -0.294624        -8.0171
 304   2.0000      -0.290826        -7.9138
 305   2.0000      -0.285927        -7.7805
 306   2.0000      -0.280039        -7.6202
 307   2.0000      -0.247831        -6.7438
 308   0.0000      -0.104199        -2.8354
 309   0.0000      -0.090472        -2.4619
 310   0.0000      -0.083576        -2.2742
 311   0.0000      -0.067425        -1.8347
 312   0.0000      -0.053052        -1.4436

MULLIKEN ATOMIC CHARGES
-----------------------
   0 C :   -0.109828
   1 C :    0.244749
   2 F :   -0.169164
   3 C :    0.240189
   4 F :   -0.170756
   5 C :   -0.105115
   6 C :    0.117683
   7 C :    0.114914
   8 C :   -0.084460
   9 C :    0.048231
  10 C :    0.000051
  11 C :   -0.081970
  12 C :    0.175039
  13 O :   -0.185379
  14 C :   -0.083725
  15 C :    0.328035
  16 C :   -0.346167
  17 C :   -0.200203
  18 N :    0.168806
  19 C :   -0.184089
  20 N :    0.159510
  21 C :   -0.062148
  22 C :   -0.074734
  23 C :   -0.034898
  24 C :   -0.270782
  25 N :    0.219893
  26 C :    0.160391
  27 C :   -0.211660
  28 S :    0.236457
  29 S :    0.196371
  30 C :   -0.222244
  31 C :    0.120940
  32 C :   -0.011442
  33 C :   -0.249230
  34 N :    0.207027
  35 C :   -0.106742
  36 S :    0.239955
  37 C :   -0.055782
  38 N :   -0.031472
  39 N :   -0.109449
  40 C :    0.044181
  41 C :   -0.248785
  42 C :   -0.140416
  43 S :    0.287374
  44 C :   -0.193920
  45 S :    0.159846
  46 C :   -0.109738
  47 C :    0.012463
  48 C :   -0.211119
  49 N :    0.195857
  50 C :    0.110851
  51 C :   -0.210872
  52 S :    0.225679
  53 S :    0.194726
  54 C :   -0.211962
  55 C :    0.134008
  56 C :   -0.043837
  57 C :   -0.264772
  58 N :    0.224943
  59 C :   -0.136430
  60 S :    0.216973
  61 C :    0.076486
  62 C :   -0.094231
  63 C :    0.147051
  64 O :   -0.128875
  65 C :    0.019530
  66 C :   -0.087932
  67 C :    0.123418
  68 C :    0.095138
  69 C :   -0.041090
  70 C :    0.226424
  71 C :    0.257705
  72 C :   -0.105659
  73 F :   -0.175694
  74 F :   -0.191920
  75 C :   -0.027475
  76 C :    0.047200
  77 C :    0.140588
  78 C :   -0.282877
  79 C :   -0.187513
  80 N :    0.162076
  81 C :   -0.189293
  82 N :    0.173583
  83 H :    0.009307
  84 H :   -0.000553
  85 H :   -0.002247
  86 H :   -0.009739
  87 H :    0.037328
  88 H :    0.038563
  89 H :    0.089812
  90 H :    0.025278
  91 H :   -0.010995
  92 H :    0.000584
  93 H :   -0.002583
  94 H :    0.016753
Sum of atomic charges:   -0.0000000

LOEWDIN ATOMIC CHARGES
----------------------
   0 C :   -0.028557
   1 C :    0.068256
   2 F :   -0.047204
   3 C :    0.067930
   4 F :   -0.048452
   5 C :   -0.032628
   6 C :   -0.009422
   7 C :   -0.004526
   8 C :    0.019314
   9 C :   -0.019543
  10 C :   -0.054123
  11 C :    0.032385
  12 C :    0.088710
  13 O :   -0.167419
  14 C :   -0.089422
  15 C :    0.072025
  16 C :   -0.123400
  17 C :   -0.029395
  18 N :   -0.034155
  19 C :   -0.016307
  20 N :   -0.047920
  21 C :    0.059475
  22 C :   -0.155129
  23 C :   -0.062484
  24 C :   -0.037410
  25 N :   -0.002633
  26 C :   -0.064511
  27 C :   -0.324414
  28 S :    0.525593
  29 S :    0.431894
  30 C :   -0.321623
  31 C :   -0.065140
  32 C :   -0.057450
  33 C :   -0.038469
  34 N :   -0.021021
  35 C :   -0.170124
  36 S :    0.493802
  37 C :    0.002790
  38 N :   -0.146379
  39 N :   -0.067478
  40 C :    0.009985
  41 C :   -0.132512
  42 C :   -0.372809
  43 S :    0.611689
  44 C :   -0.411478
  45 S :    0.377341
  46 C :   -0.170953
  47 C :   -0.045130
  48 C :   -0.019503
  49 N :   -0.026022
  50 C :   -0.062302
  51 C :   -0.319641
  52 S :    0.485095
  53 S :    0.434389
  54 C :   -0.314691
  55 C :   -0.060615
  56 C :   -0.082451
  57 C :   -0.038675
  58 N :   -0.014475
  59 C :   -0.147973
  60 S :    0.485674
  61 C :    0.030110
  62 C :   -0.046261
  63 C :    0.088749
  64 O :   -0.131241
  65 C :   -0.052456
  66 C :    0.029138
  67 C :   -0.000502
  68 C :    0.004095
  69 C :   -0.006329
  70 C :    0.063092
  71 C :    0.071320
  72 C :   -0.031710
  73 F :   -0.048551
  74 F :   -0.060511
  75 C :    0.046521
  76 C :   -0.018030
  77 C :    0.068184
  78 C :   -0.128475
  79 C :   -0.017505
  80 N :   -0.059396
  81 C :   -0.019478
  82 N :   -0.043042
  83 H :    0.048562
  84 H :    0.044823
  85 H :    0.041144
  86 H :    0.040443
  87 H :    0.055143
  88 H :    0.022322
  89 H :    0.025092
  90 H :    0.047804
  91 H :    0.039364
  92 H :    0.045348
  93 H :    0.044220
  94 H :    0.047640

  Mayer bond orders larger than 0.100000
B(  0-C ,  1-C ) :   1.4401 B(  0-C ,  5-C ) :   0.1084 B(  0-C ,  7-C ) :   1.1877
B(  0-C , 83-H ) :   1.0078 B(  1-C ,  2-F ) :   1.1371 B(  1-C ,  3-C ) :   1.1897
B(  3-C ,  4-F ) :   1.1346 B(  3-C ,  5-C ) :   1.4429 B(  5-C ,  6-C ) :   1.1905
B(  5-C , 84-H ) :   1.0076 B(  6-C ,  7-C ) :   1.2561 B(  6-C , 11-C ) :   1.1902
B(  7-C ,  8-C ) :   1.2158 B(  8-C ,  9-C ) :   1.4526 B(  8-C , 85-H ) :   0.9903
B(  9-C , 10-C ) :   1.2227 B(  9-C , 15-C ) :   0.9828 B( 10-C , 11-C ) :   1.4609
B( 10-C , 12-C ) :   0.9607 B( 11-C , 86-H ) :   1.0178 B( 12-C , 13-O ) :   2.1119
B( 12-C , 14-C ) :   0.9756 B( 14-C , 15-C ) :   1.0517 B( 14-C , 21-C ) :   1.5599
B( 15-C , 16-C ) :   1.6615 B( 16-C , 17-C ) :   1.1542 B( 16-C , 19-C ) :   1.1484
B( 17-C , 18-N ) :   2.9235 B( 19-C , 20-N ) :   2.9680 B( 21-C , 22-C ) :   1.2458
B( 21-C , 87-H ) :   0.9334 B( 22-C , 23-C ) :   1.3975 B( 22-C , 28-S ) :   1.1135
B( 23-C , 24-C ) :   1.1705 B( 23-C , 26-C ) :   1.3108 B( 24-C , 25-N ) :   2.9408
B( 26-C , 27-C ) :   1.3462 B( 26-C , 31-C ) :   1.0537 B( 27-C , 28-S ) :   1.0939
B( 27-C , 29-S ) :   1.0970 B( 29-S , 30-C ) :   1.0766 B( 30-C , 31-C ) :   1.4089
B( 30-C , 36-S ) :   1.1089 B( 31-C , 32-C ) :   1.2707 B( 32-C , 33-C ) :   1.1619
B( 32-C , 35-C ) :   1.5247 B( 33-C , 34-N ) :   2.9533 B( 35-C , 36-S ) :   1.1395
B( 35-C , 37-C ) :   1.0582 B( 37-C , 38-N ) :   1.8942 B( 37-C , 39-N ) :   1.2133
B( 38-N , 41-C ) :   1.0634 B( 39-N , 40-C ) :   1.8606 B( 40-C , 41-C ) :   0.8600
B( 40-C , 46-C ) :   1.1081 B( 41-C , 42-C ) :   1.0324 B( 41-C , 45-S ) :   1.0269
B( 42-C , 43-S ) :   1.2717 B( 42-C , 44-C ) :   0.2591 B( 42-C , 88-H ) :   0.9565
B( 43-S , 44-C ) :   1.4315 B( 43-S , 45-S ) :   0.1305 B( 44-C , 45-S ) :   1.0837
B( 44-C , 89-H ) :   0.9667 B( 46-C , 47-C ) :   1.4709 B( 46-C , 52-S ) :   1.1412
B( 47-C , 48-C ) :   1.1642 B( 47-C , 50-C ) :   1.2855 B( 48-C , 49-N ) :   2.9228
B( 50-C , 51-C ) :   1.3776 B( 50-C , 55-C ) :   1.0996 B( 51-C , 52-S ) :   1.1037
B( 51-C , 53-S ) :   1.0937 B( 53-S , 54-C ) :   1.0797 B( 54-C , 55-C ) :   1.4027
B( 54-C , 60-S ) :   1.1138 B( 55-C , 56-C ) :   1.2821 B( 56-C , 57-C ) :   1.1338
B( 56-C , 59-C ) :   1.4714 B( 57-C , 58-N ) :   2.9759 B( 59-C , 60-S ) :   1.1371
B( 59-C , 61-C ) :   1.0836 B( 61-C , 62-C ) :   1.7437 B( 61-C , 90-H ) :   0.9498
B( 62-C , 63-C ) :   0.9161 B( 62-C , 77-C ) :   1.0013 B( 63-C , 64-O ) :   2.2967
B( 63-C , 65-C ) :   0.9185 B( 65-C , 66-C ) :   1.4635 B( 65-C , 76-C ) :   1.2130
B( 66-C , 67-C ) :   1.2088 B( 66-C , 91-H ) :   1.0135 B( 67-C , 68-C ) :   1.2489
B( 67-C , 72-C ) :   1.1918 B( 68-C , 69-C ) :   1.2026 B( 68-C , 75-C ) :   1.2330
B( 69-C , 70-C ) :   1.4572 B( 69-C , 72-C ) :   0.1078 B( 69-C , 92-H ) :   0.9952
B( 70-C , 71-C ) :   1.1970 B( 70-C , 74-F ) :   1.0748 B( 71-C , 72-C ) :   1.4546
B( 71-C , 73-F ) :   1.1031 B( 72-C , 93-H ) :   1.0046 B( 75-C , 76-C ) :   1.4494
B( 75-C , 94-H ) :   0.9924 B( 76-C , 77-C ) :   1.0056 B( 77-C , 78-C ) :   1.7010
B( 78-C , 79-C ) :   1.1481 B( 78-C , 81-C ) :   1.1343 B( 79-C , 80-N ) :   3.0091
B( 81-C , 82-N ) :   3.0139

-----------------------------------------------------------------------------
         ABSORPTION SPECTRUM VIA TRANSITION ELECTRIC DIPOLE MOMENTS
-----------------------------------------------------------------------------
State   Energy  Wavelength   fosc         T2         TX        TY        TZ
        (cm-1)    (nm)                  (au**2)     (au)      (au)      (au)
-----------------------------------------------------------------------------
   0   13072.6    765.0   0.008990531   0.22641   0.40938   0.16306   0.17954
   1   22051.1    453.5   0.029629229   0.44235  -0.38825  -0.53881   0.03606
   2   22760.5    439.4   0.379701514   5.49207  -1.58074  -1.72856  -0.07352
   3   22920.8    436.3   0.511405392   7.34534   2.18698   0.94459   1.29237
   4   23225.1    430.6   0.008500604   0.12049   0.32588   0.11941   0.00603
   5   23625.6    423.3   0.026473918   0.36890   0.10780  -0.33281   0.49650
   6   24619.8    406.2   0.003153580   0.04217   0.06213  -0.12339  -0.15193
   7   25310.7    395.1   0.365027685   4.74786   1.47066   1.17764   1.09462
   8   26394.9    378.9   0.047686282   0.59477   0.19445  -0.69526  -0.27123
   9   27173.6    368.0   0.257944694   3.12504  -0.35424  -1.56631  -0.73907
  10   27247.0    367.0   0.178101980   2.15192   1.39015   0.41825   0.21088
  11   27348.4    365.7   0.082557820   0.99381  -0.84025   0.48677  -0.22549
  12   28021.1    356.9   0.084307403   0.99050   0.76612   0.45678   0.44150
  13   28497.1    350.9   0.029231757   0.33770   0.39379  -0.42594   0.03472
  14   28629.6    349.3   0.091146691   1.04810   0.75805  -0.68559   0.05853
  15   28653.4    349.0   0.043128559   0.49552  -0.09286  -0.64457  -0.26727
  16   28882.0    346.2   0.002525554   0.02879  -0.11416  -0.04659  -0.11655
  17   28933.9    345.6   0.253452274   2.88380   0.08380   1.58974   0.59118
  18   29057.6    344.1   0.010529353   0.11929   0.32201  -0.07865   0.09704
  19   30081.4    332.4   0.173625891   1.90017  -1.03613  -0.40584   0.81357
  20   30281.7    330.2   0.002000990   0.02175   0.08955  -0.11719  -0.00108
  21   30417.8    328.8   0.301774590   3.26611   0.03255  -1.46770  -1.05400
  22   30639.7    326.4   0.067308851   0.72321   0.68296  -0.42354  -0.27817
  23   30907.0    323.6   0.092742785   0.98787  -0.03199   0.92043   0.37369
  24   31120.7    321.3   0.043052394   0.45543  -0.66207   0.03400  -0.12628
  25   31829.9    314.2   0.003648063   0.03773  -0.03262  -0.17100  -0.08619
  26   31895.7    313.5   0.020113157   0.20760  -0.07262  -0.44202  -0.08334
  27   32106.6    311.5   0.097190054   0.99656  -0.47030  -0.86359  -0.17202
  28   32229.3    310.3   0.556181799   5.68123   1.09168   2.08419   0.38155
  29   32596.0    306.8   0.069055522   0.69744   0.12026  -0.74948  -0.34824
  30   33049.2    302.6   0.287432604   2.86319  -0.46224  -1.58729  -0.36059
  31   33455.2    298.9   0.369589994   3.63690   0.00111  -1.83573  -0.51672
  32   33581.8    297.8   0.266428311   2.61187  -0.14676   1.30928   0.93601
  33   33676.6    296.9   0.022924396   0.22410  -0.15798   0.30565   0.32515
  34   33813.4    295.7   0.231869682   2.25751   0.43257  -0.90687  -1.11713
  35   34237.2    292.1   0.011824261   0.11370   0.29572  -0.03149   0.15892
  36   34264.3    291.8   0.008019442   0.07705  -0.07511  -0.09015  -0.25156
  37   34460.1    290.2   0.060031906   0.57351  -0.16905  -0.55919  -0.48191
  38   35018.0    285.6   0.024446592   0.22983   0.03384  -0.46742   0.10102
  39   35121.3    284.7   0.019638418   0.18408  -0.15436  -0.39818  -0.04135
  40   35320.0    283.1   0.009517967   0.08872   0.29034  -0.02905   0.05980
  41   35570.6    281.1   0.031240251   0.28913   0.53415  -0.00209   0.06172
  42   35901.2    278.5   0.028895754   0.26497  -0.33813  -0.38187  -0.06942
  43   36361.7    275.0   0.034909843   0.31607   0.53490  -0.14835   0.08909
  44   36407.0    274.7   0.051241629   0.46335   0.36519   0.57400   0.02267
  45   36963.7    270.5   0.024558901   0.21873  -0.29581  -0.28152  -0.22797
  46   37054.3    269.9   0.001408535   0.01251  -0.04247  -0.08379   0.06075
  47   37252.6    268.4   0.110144824   0.97338  -0.26419  -0.82373  -0.47440
  48   37579.3    266.1   0.017550481   0.15375  -0.37246  -0.12143  -0.01663
  49   37645.9    265.6   0.124546768   1.08916   0.92670   0.47724   0.05131
  50   37736.4    265.0   0.068598394   0.59845   0.67974   0.26574   0.25649
  51   37769.3    264.8   0.000713148   0.00622  -0.03310  -0.07155   0.00059
  52   37942.4    263.6   0.024964855   0.21661   0.45460   0.09239   0.03766
  53   38151.1    262.1   0.081253127   0.70115   0.80961   0.14770   0.15447
  54   38304.6    261.1   0.121953982   1.04814  -0.14979   0.97817   0.26247
  55   38510.4    259.7   0.057693043   0.49320   0.66282   0.22948  -0.03471
  56   38710.9    258.3   0.004219228   0.03588   0.11467   0.14191  -0.05093
  57   38848.8    257.4   0.055974494   0.47434   0.65698  -0.08699  -0.18748
  58   38926.7    256.9   0.038110209   0.32231  -0.42222   0.33671  -0.17512
  59   38944.2    256.8   0.025863396   0.21863  -0.00067  -0.41159  -0.22188
  60   39235.0    254.9   0.018950043   0.15901   0.34558   0.06613  -0.18763
  61   39423.9    253.7   0.041308268   0.34495  -0.54766   0.16944   0.12770
  62   39555.0    252.8   0.019761392   0.16447  -0.29466   0.06496  -0.27098
  63   39644.6    252.2   0.120075552   0.99712   0.91834  -0.27301  -0.28149
  64   39753.7    251.5   0.095328758   0.78945  -0.41724   0.28718   0.72999
  65   39810.7    251.2   0.009113366   0.07536  -0.21993   0.12125   0.11087
  66   40045.0    249.7   0.031342289   0.25767   0.41006   0.23223   0.18864
  67   40157.1    249.0   0.121621398   0.99707  -0.98913  -0.13259  -0.03314
  68   40314.3    248.1   0.110104144   0.89912   0.94753  -0.02964   0.02061

FINAL SINGLE POINT ENERGY     -6532.987023144697

DIPOLE MOMENT
-------------
                                X             Y             Z
Electronic contribution:     -7.46799       7.10195       1.98871
Nuclear contribution   :      3.82267      -7.02935      -3.18125
                        -----------------------------------------
Total Dipole Moment    :     -3.64532       0.07260      -1.19254
                        -----------------------------------------
Magnitude (a.u.)       :      3.83612
Magnitude (Debye)      :      9.75064

Rotational constants in cm-1:     0.001012     0.000362     0.000278
Rotational constants in MHz :    30.345811    10.856449     8.339522

                             ****ORCA TERMINATED NORMALLY****
TOTAL RUN TIME: 0 days 0 hours 16 minutes 13 seconds 58 msec
