                         Program Version 4.2.0 -  RELEASE  -
|  1> # ORCA input file
|  2> # SCF done       -170.588086791338          0.000222131027
|  3> ! CAM-B3LYP def2-SVP def2/J RIJCOSX Grid4 TightSCF
|  4> %maxcore 5000
|  5> %tddft
|  6>     Mode sTDDFT
|  7>     Ethresh 5.0
|  8>     maxcore 5000
|  9> end
| 10>
| 11> %pal
| 12>   nprocs 6
| 13>   end
| 14> * xyz 0 1
| 15>    C        5.03815         0.34337        -8.42982
| 16>    C        5.52235        -0.82962        -7.99880
| 17>    C        6.80200        -1.41186        -8.28471
| 18>    C        7.01072        -2.61250        -7.69964
| 19>    C        5.91996        -3.07539        -6.91175
| 20>    S        4.61080        -1.91888        -6.94039
| 21>    C        5.84723        -4.25597        -6.20359
| 22>    C        6.82629        -5.26694        -6.08603
| 23>    C        6.44361        -6.31115        -5.30065
| 24>    C        5.13759        -6.20111        -4.76005
| 25>    S        4.41894        -4.69399        -5.28636
| 26>    C        4.61587        -7.11597        -3.86698
| 27>    C        3.38248        -7.21816        -3.22097
| 28>    S        3.36832        -8.19284        -1.77354
| 29>    C        1.69697        -7.85996        -1.42459
| 30>    C        1.14887        -7.05136        -2.44739
| 31>    C        2.08211        -6.70718        -3.46865
| 32>    C        1.62909        -6.02240        -4.60529
| 33>    C        0.31856        -5.63271        -4.67556
| 34>    F       -0.11957        -4.98051        -5.76389
| 35>    C       -0.58479        -5.91621        -3.63376
| 36>    F       -1.85590        -5.50309        -3.73931
| 37>    C       -0.18593        -6.62697        -2.53453
| 38>    C        1.06082        -8.36411        -0.29143
| 39>    C        1.66649        -9.15434         0.65212
| 40>    C        0.98031        -9.64073         1.77502
| 41>    N       -0.31354        -9.37402         1.99450
| 42>    C       -0.62886        -9.99538         3.13633
| 43>    C        0.51914       -10.70831         3.70450
| 44>    C        0.14309       -11.38176         4.95378
| 45>    O        0.84380       -12.05789         5.68660
| 46>    C       -1.27804       -11.03853         5.09355
| 47>    C       -1.71593       -10.19440         3.97236
| 48>    N       -3.02289        -9.87794         4.08943
| 49>    C       -3.41939       -10.46688         5.20087
| 50>    C       -2.38405       -11.20538         5.87439
| 51>    C        1.56826       -10.49163         2.83668
| 52>    C        2.90353       -10.94885         2.88267
| 53>    C        3.37992       -11.74318         3.88395
| 54>    C        4.69175       -12.23195         3.94919
| 55>    S        5.88500       -11.87119         2.74413
| 56>    C        7.11396       -12.85123         3.50057
| 57>    C        6.61122       -13.41400         4.69925
| 58>    C        5.24685       -13.06927         4.94030
| 59>    C        4.57855       -13.54354         6.08228
| 60>    C        5.26552       -14.32626         6.96768
| 61>    F        4.65750       -14.79346         8.06873
| 62>    C        6.62168       -14.64248         6.75178
| 63>    F        7.27148       -15.39025         7.66010
| 64>    C        7.29203       -14.19879         5.64439
| 65>    C        8.33721       -12.93888         2.82984
| 66>    C        9.40079       -13.77646         3.07054
| 67>    C       10.56154       -13.74896         2.30022
| 68>    C       11.63597       -14.59643         2.47266
| 69>    C       12.83052       -14.61271         1.71840
| 70>    C       13.72451       -15.56704         2.10204
| 71>    C       13.28354       -16.36133         3.18465
| 72>    S       11.69064       -15.84744         3.70108
| 73>    C       13.94680       -17.40520         3.79406
| 74>    C       15.23282       -17.91497         3.46664
| 75>    C       15.63155       -18.95445         4.23449
| 76>    C       14.68286       -19.34817         5.23513
| 77>    S       13.25750       -18.30287         5.12782
| 78>    C       14.79691       -20.33737         6.13274
| 79>    H        5.62487         0.97717        -9.07118
| 80>    H        4.05824         0.68682        -8.15295
| 81>    H        7.50766        -0.90349        -8.91726
| 82>    H        7.91122        -3.19087        -7.80534
| 83>    H        7.78099        -5.19704        -6.57482
| 84>    H        7.05972        -7.16830        -5.09335
| 85>    H        5.33837        -7.85742        -3.54109
| 86>    H        2.27793        -5.81592        -5.43737
| 87>    H       -0.89920        -6.86249        -1.76228
| 88>    H        0.02032        -8.12009        -0.13291
| 89>    H        2.70904        -9.41611         0.53142
| 90>    H       -4.44003       -10.37090         5.52863
| 91>    H       -2.49812       -11.75379         6.78876
| 92>    H        3.57108       -10.65795         2.08122
| 93>    H        2.70917       -12.03026         4.68247
| 94>    H        3.54625       -13.29673         6.27105
| 95>    H        8.33311       -14.44762         5.53837
| 96>    H        8.42923       -12.27533         1.97689
| 97>    H        9.35461       -14.51666         3.85395
| 98>    H       10.63761       -13.01718         1.50607
| 99>    H       12.99251       -13.91787         0.91308
|100>    H       14.68164       -15.71974         1.63688
|101>    H       15.81793       -17.49073         2.67009
|102>    H       16.57063       -19.46906         4.13518
|103>    H       15.67996       -20.95081         6.16398
|104>    H       14.01865       -20.54927         6.84254
|105> *
|106>
|107>                          ****END OF INPUT****

CARTESIAN COORDINATES (ANGSTROEM)
---------------------------------
  C      5.038150    0.343370   -8.429820
  C      5.522350   -0.829620   -7.998800
  C      6.802000   -1.411860   -8.284710
  C      7.010720   -2.612500   -7.699640
  C      5.919960   -3.075390   -6.911750
  S      4.610800   -1.918880   -6.940390
  C      5.847230   -4.255970   -6.203590
  C      6.826290   -5.266940   -6.086030
  C      6.443610   -6.311150   -5.300650
  C      5.137590   -6.201110   -4.760050
  S      4.418940   -4.693990   -5.286360
  C      4.615870   -7.115970   -3.866980
  C      3.382480   -7.218160   -3.220970
  S      3.368320   -8.192840   -1.773540
  C      1.696970   -7.859960   -1.424590
  C      1.148870   -7.051360   -2.447390
  C      2.082110   -6.707180   -3.468650
  C      1.629090   -6.022400   -4.605290
  C      0.318560   -5.632710   -4.675560
  F     -0.119570   -4.980510   -5.763890
  C     -0.584790   -5.916210   -3.633760
  F     -1.855900   -5.503090   -3.739310
  C     -0.185930   -6.626970   -2.534530
  C      1.060820   -8.364110   -0.291430
  C      1.666490   -9.154340    0.652120
  C      0.980310   -9.640730    1.775020
  N     -0.313540   -9.374020    1.994500
  C     -0.628860   -9.995380    3.136330
  C      0.519140  -10.708310    3.704500
  C      0.143090  -11.381760    4.953780
  O      0.843800  -12.057890    5.686600
  C     -1.278040  -11.038530    5.093550
  C     -1.715930  -10.194400    3.972360
  N     -3.022890   -9.877940    4.089430
  C     -3.419390  -10.466880    5.200870
  C     -2.384050  -11.205380    5.874390
  C      1.568260  -10.491630    2.836680
  C      2.903530  -10.948850    2.882670
  C      3.379920  -11.743180    3.883950
  C      4.691750  -12.231950    3.949190
  S      5.885000  -11.871190    2.744130
  C      7.113960  -12.851230    3.500570
  C      6.611220  -13.414000    4.699250
  C      5.246850  -13.069270    4.940300
  C      4.578550  -13.543540    6.082280
  C      5.265520  -14.326260    6.967680
  F      4.657500  -14.793460    8.068730
  C      6.621680  -14.642480    6.751780
  F      7.271480  -15.390250    7.660100
  C      7.292030  -14.198790    5.644390
  C      8.337210  -12.938880    2.829840
  C      9.400790  -13.776460    3.070540
  C     10.561540  -13.748960    2.300220
  C     11.635970  -14.596430    2.472660
  C     12.830520  -14.612710    1.718400
  C     13.724510  -15.567040    2.102040
  C     13.283540  -16.361330    3.184650
  S     11.690640  -15.847440    3.701080
  C     13.946800  -17.405200    3.794060
  C     15.232820  -17.914970    3.466640
  C     15.631550  -18.954450    4.234490
  C     14.682860  -19.348170    5.235130
  S     13.257500  -18.302870    5.127820
  C     14.796910  -20.337370    6.132740
  H      5.624870    0.977170   -9.071180
  H      4.058240    0.686820   -8.152950
  H      7.507660   -0.903490   -8.917260
  H      7.911220   -3.190870   -7.805340
  H      7.780990   -5.197040   -6.574820
  H      7.059720   -7.168300   -5.093350
  H      5.338370   -7.857420   -3.541090
  H      2.277930   -5.815920   -5.437370
  H     -0.899200   -6.862490   -1.762280
  H      0.020320   -8.120090   -0.132910
  H      2.709040   -9.416110    0.531420
  H     -4.440030  -10.370900    5.528630
  H     -2.498120  -11.753790    6.788760
  H      3.571080  -10.657950    2.081220
  H      2.709170  -12.030260    4.682470
  H      3.546250  -13.296730    6.271050
  H      8.333110  -14.447620    5.538370
  H      8.429230  -12.275330    1.976890
  H      9.354610  -14.516660    3.853950
  H     10.637610  -13.017180    1.506070
  H     12.992510  -13.917870    0.913080
  H     14.681640  -15.719740    1.636880
  H     15.817930  -17.490730    2.670090
  H     16.570630  -19.469060    4.135180
  H     15.679960  -20.950810    6.163980
  H     14.018650  -20.549270    6.842540

 Total Charge           Charge          ....    0
 Multiplicity           Mult            ....    1
 Number of Electrons    NEL             ....  486
 Basis Dimension        Dim             .... 1050

ORBITAL ENERGIES
----------------

  NO   OCC          E(Eh)            E(eV)
   0   2.0000     -88.976324     -2421.1689
   1   2.0000     -88.966033     -2420.8888
   2   2.0000     -88.960274     -2420.7321
   3   2.0000     -88.959031     -2420.6983
   4   2.0000     -88.941851     -2420.2308
   5   2.0000     -88.937243     -2420.1054
   6   2.0000     -24.792549      -674.6395
   7   2.0000     -24.789985      -674.5698
   8   2.0000     -24.776995      -674.2163
   9   2.0000     -24.775263      -674.1692
  10   2.0000     -19.187264      -522.1120
  11   2.0000     -14.381556      -391.3420
  12   2.0000     -14.373802      -391.1310
  13   2.0000     -10.376553      -282.3604
  14   2.0000     -10.372281      -282.2441
  15   2.0000     -10.358304      -281.8638
  16   2.0000     -10.357505      -281.8420
  17   2.0000     -10.346290      -281.5369
  18   2.0000     -10.334899      -281.2269
  19   2.0000     -10.334230      -281.2087
  20   2.0000     -10.333436      -281.1871
  21   2.0000     -10.325582      -280.9734
  22   2.0000     -10.324792      -280.9519
  23   2.0000     -10.319610      -280.8109
  24   2.0000     -10.313628      -280.6481
  25   2.0000     -10.308957      -280.5210
  26   2.0000     -10.307765      -280.4885
  27   2.0000     -10.307531      -280.4822
  28   2.0000     -10.307481      -280.4808
  29   2.0000     -10.307043      -280.4689
  30   2.0000     -10.306682      -280.4591
  31   2.0000     -10.306321      -280.4493
  32   2.0000     -10.305476      -280.4263
  33   2.0000     -10.305398      -280.4241
  34   2.0000     -10.304993      -280.4131
  35   2.0000     -10.304592      -280.4022
  36   2.0000     -10.303249      -280.3657
  37   2.0000     -10.301146      -280.3084
  38   2.0000     -10.300297      -280.2853
  39   2.0000     -10.298924      -280.2480
  40   2.0000     -10.295548      -280.1561
  41   2.0000     -10.295071      -280.1431
  42   2.0000     -10.291433      -280.0441
  43   2.0000     -10.288626      -279.9678
  44   2.0000     -10.288202      -279.9562
  45   2.0000     -10.287347      -279.9329
  46   2.0000     -10.286719      -279.9159
  47   2.0000     -10.286371      -279.9064
  48   2.0000     -10.286066      -279.8981
  49   2.0000     -10.283517      -279.8287
  50   2.0000     -10.283223      -279.8207
  51   2.0000     -10.283026      -279.8154
  52   2.0000     -10.282400      -279.7983
  53   2.0000     -10.280949      -279.7588
  54   2.0000     -10.278186      -279.6837
  55   2.0000     -10.277679      -279.6699
  56   2.0000     -10.276751      -279.6446
  57   2.0000     -10.276278      -279.6317
  58   2.0000     -10.273982      -279.5693
  59   2.0000     -10.270974      -279.4874
  60   2.0000     -10.269015      -279.4341
  61   2.0000     -10.260766      -279.2096
  62   2.0000     -10.257735      -279.1271
  63   2.0000     -10.255793      -279.0743
  64   2.0000      -8.071531      -219.6375
  65   2.0000      -8.062049      -219.3795
  66   2.0000      -8.055673      -219.2060
  67   2.0000      -8.055402      -219.1986
  68   2.0000      -8.038001      -218.7251
  69   2.0000      -8.034024      -218.6169
  70   2.0000      -6.040540      -164.3715
  71   2.0000      -6.036627      -164.2650
  72   2.0000      -6.034027      -164.1942
  73   2.0000      -6.031774      -164.1329
  74   2.0000      -6.027626      -164.0200
  75   2.0000      -6.025450      -163.9608
  76   2.0000      -6.024314      -163.9299
  77   2.0000      -6.023051      -163.8955
  78   2.0000      -6.021487      -163.8530
  79   2.0000      -6.020462      -163.8251
  80   2.0000      -6.018124      -163.7615
  81   2.0000      -6.016334      -163.7128
  82   2.0000      -6.007699      -163.4778
  83   2.0000      -6.003830      -163.3725
  84   2.0000      -6.003803      -163.3718
  85   2.0000      -5.999910      -163.2658
  86   2.0000      -5.998922      -163.2390
  87   2.0000      -5.994565      -163.1204
  88   2.0000      -1.313796       -35.7502
  89   2.0000      -1.298676       -35.3388
  90   2.0000      -1.298204       -35.3259
  91   2.0000      -1.283180       -34.9171
  92   2.0000      -1.099555       -29.9204
  93   2.0000      -1.049758       -28.5654
  94   2.0000      -1.026943       -27.9445
  95   2.0000      -1.016379       -27.6571
  96   2.0000      -1.010604       -27.4999
  97   2.0000      -0.995803       -27.0972
  98   2.0000      -0.991149       -26.9705
  99   2.0000      -0.989062       -26.9137
 100   2.0000      -0.968351       -26.3502
 101   2.0000      -0.952957       -25.9313
 102   2.0000      -0.936212       -25.4756
 103   2.0000      -0.925230       -25.1768
 104   2.0000      -0.915315       -24.9070
 105   2.0000      -0.908324       -24.7167
 106   2.0000      -0.898548       -24.4507
 107   2.0000      -0.894895       -24.3513
 108   2.0000      -0.879144       -23.9227
 109   2.0000      -0.872326       -23.7372
 110   2.0000      -0.866485       -23.5783
 111   2.0000      -0.863006       -23.4836
 112   2.0000      -0.861527       -23.4434
 113   2.0000      -0.847182       -23.0530
 114   2.0000      -0.843130       -22.9427
 115   2.0000      -0.839370       -22.8404
 116   2.0000      -0.838236       -22.8096
 117   2.0000      -0.832290       -22.6478
 118   2.0000      -0.829181       -22.5632
 119   2.0000      -0.824248       -22.4289
 120   2.0000      -0.818161       -22.2633
 121   2.0000      -0.815462       -22.1899
 122   2.0000      -0.794173       -21.6105
 123   2.0000      -0.790125       -21.5004
 124   2.0000      -0.764795       -20.8111
 125   2.0000      -0.760273       -20.6881
 126   2.0000      -0.743629       -20.2352
 127   2.0000      -0.740213       -20.1422
 128   2.0000      -0.733550       -19.9609
 129   2.0000      -0.726714       -19.7749
 130   2.0000      -0.722889       -19.6708
 131   2.0000      -0.709204       -19.2984
 132   2.0000      -0.702250       -19.1092
 133   2.0000      -0.695160       -18.9163
 134   2.0000      -0.692296       -18.8383
 135   2.0000      -0.684845       -18.6356
 136   2.0000      -0.674832       -18.3631
 137   2.0000      -0.672321       -18.2948
 138   2.0000      -0.657628       -17.8950
 139   2.0000      -0.654063       -17.7979
 140   2.0000      -0.646114       -17.5817
 141   2.0000      -0.641782       -17.4638
 142   2.0000      -0.639243       -17.3947
 143   2.0000      -0.634388       -17.2626
 144   2.0000      -0.631048       -17.1717
 145   2.0000      -0.628679       -17.1072
 146   2.0000      -0.618685       -16.8353
 147   2.0000      -0.617667       -16.8076
 148   2.0000      -0.617465       -16.8021
 149   2.0000      -0.615690       -16.7538
 150   2.0000      -0.611490       -16.6395
 151   2.0000      -0.603698       -16.4275
 152   2.0000      -0.600876       -16.3507
 153   2.0000      -0.599948       -16.3254
 154   2.0000      -0.597607       -16.2617
 155   2.0000      -0.596405       -16.2290
 156   2.0000      -0.586699       -15.9649
 157   2.0000      -0.580380       -15.7929
 158   2.0000      -0.578764       -15.7490
 159   2.0000      -0.576049       -15.6751
 160   2.0000      -0.563401       -15.3309
 161   2.0000      -0.561004       -15.2657
 162   2.0000      -0.558079       -15.1861
 163   2.0000      -0.556855       -15.1528
 164   2.0000      -0.548786       -14.9332
 165   2.0000      -0.545565       -14.8456
 166   2.0000      -0.544895       -14.8274
 167   2.0000      -0.540273       -14.7016
 168   2.0000      -0.535465       -14.5707
 169   2.0000      -0.533287       -14.5115
 170   2.0000      -0.530810       -14.4441
 171   2.0000      -0.527436       -14.3523
 172   2.0000      -0.525187       -14.2911
 173   2.0000      -0.525033       -14.2869
 174   2.0000      -0.519858       -14.1460
 175   2.0000      -0.516974       -14.0676
 176   2.0000      -0.516144       -14.0450
 177   2.0000      -0.514555       -14.0018
 178   2.0000      -0.512114       -13.9353
 179   2.0000      -0.509349       -13.8601
 180   2.0000      -0.507070       -13.7981
 181   2.0000      -0.503285       -13.6951
 182   2.0000      -0.500110       -13.6087
 183   2.0000      -0.498390       -13.5619
 184   2.0000      -0.494747       -13.4627
 185   2.0000      -0.494634       -13.4597
 186   2.0000      -0.492332       -13.3970
 187   2.0000      -0.491531       -13.3752
 188   2.0000      -0.487460       -13.2645
 189   2.0000      -0.485637       -13.2149
 190   2.0000      -0.480950       -13.0873
 191   2.0000      -0.480065       -13.0632
 192   2.0000      -0.478308       -13.0154
 193   2.0000      -0.474111       -12.9012
 194   2.0000      -0.471013       -12.8169
 195   2.0000      -0.468443       -12.7470
 196   2.0000      -0.467097       -12.7104
 197   2.0000      -0.466834       -12.7032
 198   2.0000      -0.461686       -12.5631
 199   2.0000      -0.461470       -12.5572
 200   2.0000      -0.455209       -12.3869
 201   2.0000      -0.451717       -12.2919
 202   2.0000      -0.450529       -12.2595
 203   2.0000      -0.446158       -12.1406
 204   2.0000      -0.443202       -12.0601
 205   2.0000      -0.441062       -12.0019
 206   2.0000      -0.439470       -11.9586
 207   2.0000      -0.438453       -11.9309
 208   2.0000      -0.432486       -11.7686
 209   2.0000      -0.427610       -11.6358
 210   2.0000      -0.426978       -11.6187
 211   2.0000      -0.425227       -11.5710
 212   2.0000      -0.423605       -11.5269
 213   2.0000      -0.422574       -11.4988
 214   2.0000      -0.420879       -11.4527
 215   2.0000      -0.416190       -11.3251
 216   2.0000      -0.415184       -11.2977
 217   2.0000      -0.410769       -11.1776
 218   2.0000      -0.408899       -11.1267
 219   2.0000      -0.395310       -10.7569
 220   2.0000      -0.392518       -10.6809
 221   2.0000      -0.391334       -10.6488
 222   2.0000      -0.365719        -9.9517
 223   2.0000      -0.359839        -9.7917
 224   2.0000      -0.355661        -9.6780
 225   2.0000      -0.349672        -9.5150
 226   2.0000      -0.348808        -9.4916
 227   2.0000      -0.335832        -9.1385
 228   2.0000      -0.335644        -9.1333
 229   2.0000      -0.334344        -9.0980
 230   2.0000      -0.324604        -8.8329
 231   2.0000      -0.324121        -8.8198
 232   2.0000      -0.322548        -8.7770
 233   2.0000      -0.309999        -8.4355
 234   2.0000      -0.306319        -8.3354
 235   2.0000      -0.305782        -8.3207
 236   2.0000      -0.304842        -8.2952
 237   2.0000      -0.301504        -8.2043
 238   2.0000      -0.289915        -7.8890
 239   2.0000      -0.268183        -7.2976
 240   2.0000      -0.243912        -6.6372
 241   2.0000      -0.220998        -6.0137
 242   2.0000      -0.198889        -5.4120
 243   0.0000      -0.114907        -3.1268
 244   0.0000      -0.089118        -2.4250
 245   0.0000      -0.070267        -1.9121
 246   0.0000      -0.044808        -1.2193
 247   0.0000      -0.035186        -0.9575

MULLIKEN ATOMIC CHARGES
-----------------------
   0 C :   -0.013723
   1 C :   -0.071851
   2 C :    0.062422
   3 C :    0.028768
   4 C :   -0.058978
   5 S :    0.101675
   6 C :   -0.061836
   7 C :    0.043893
   8 C :    0.025045
   9 C :   -0.021223
  10 S :    0.099186
  11 C :   -0.018171
  12 C :   -0.098203
  13 S :    0.145007
  14 C :   -0.086114
  15 C :    0.138957
  16 C :    0.127802
  17 C :   -0.117922
  18 C :    0.214307
  19 F :   -0.177038
  20 C :    0.234988
  21 F :   -0.171023
  22 C :   -0.120007
  23 C :    0.048043
  24 C :   -0.087383
  25 C :    0.060241
  26 N :   -0.062755
  27 C :    0.069109
  28 C :   -0.180162
  29 C :    0.212467
  30 O :   -0.171576
  31 C :   -0.013755
  32 C :   -0.059228
  33 N :   -0.065190
  34 C :    0.075071
  35 C :   -0.103002
  36 C :    0.070478
  37 C :   -0.069452
  38 C :    0.017525
  39 C :   -0.087589
  40 S :    0.129932
  41 C :   -0.098741
  42 C :    0.139854
  43 C :    0.117039
  44 C :   -0.116978
  45 C :    0.226040
  46 F :   -0.176277
  47 C :    0.221123
  48 F :   -0.179654
  49 C :   -0.126238
  50 C :    0.030192
  51 C :   -0.011723
  52 C :   -0.015673
  53 C :   -0.020086
  54 C :    0.032606
  55 C :    0.026278
  56 C :   -0.044027
  57 S :    0.067111
  58 C :   -0.064344
  59 C :    0.026993
  60 C :    0.053129
  61 C :   -0.066022
  62 S :    0.085740
  63 C :   -0.029533
  64 H :    0.029994
  65 H :    0.032140
  66 H :   -0.002238
  67 H :   -0.005827
  68 H :   -0.008446
  69 H :   -0.006528
  70 H :   -0.004909
  71 H :   -0.003990
  72 H :    0.004061
  73 H :    0.021585
  74 H :   -0.017066
  75 H :   -0.007769
  76 H :   -0.020185
  77 H :   -0.035257
  78 H :    0.008114
  79 H :    0.015774
  80 H :   -0.017057
  81 H :   -0.021536
  82 H :    0.004389
  83 H :   -0.019730
  84 H :   -0.016041
  85 H :   -0.016297
  86 H :   -0.012395
  87 H :   -0.012481
  88 H :    0.021054
  89 H :    0.025094
Sum of atomic charges:   -0.0000000

LOEWDIN ATOMIC CHARGES
----------------------
   0 C :   -0.052315
   1 C :   -0.142062
   2 C :   -0.016644
   3 C :   -0.028008
   4 C :   -0.160610
   5 S :    0.370278
   6 C :   -0.190465
   7 C :   -0.021822
   8 C :   -0.037923
   9 C :   -0.134261
  10 S :    0.407973
  11 C :   -0.097887
  12 C :   -0.137512
  13 S :    0.475141
  14 C :   -0.191127
  15 C :   -0.020776
  16 C :   -0.056558
  17 C :   -0.041363
  18 C :    0.058610
  19 F :   -0.055171
  20 C :    0.072069
  21 F :   -0.049214
  22 C :   -0.037034
  23 C :    0.036921
  24 C :   -0.076047
  25 C :    0.067266
  26 N :   -0.128516
  27 C :    0.050432
  28 C :   -0.064526
  29 C :    0.069833
  30 O :   -0.169586
  31 C :   -0.051952
  32 C :   -0.005887
  33 N :   -0.105310
  34 C :    0.046471
  35 C :   -0.049896
  36 C :   -0.023956
  37 C :   -0.052998
  38 C :   -0.003771
  39 C :   -0.179022
  40 S :    0.466090
  41 C :   -0.160778
  42 C :   -0.046905
  43 C :   -0.033861
  44 C :   -0.030303
  45 C :    0.061676
  46 F :   -0.054483
  47 C :    0.062813
  48 F :   -0.058184
  49 C :   -0.041714
  50 C :   -0.051842
  51 C :   -0.030996
  52 C :   -0.060351
  53 C :   -0.145216
  54 C :   -0.038185
  55 C :   -0.031836
  56 C :   -0.181939
  57 S :    0.368648
  58 C :   -0.176569
  59 C :   -0.027713
  60 C :   -0.031019
  61 C :   -0.140006
  62 S :    0.357042
  63 C :   -0.073862
  64 H :    0.033168
  65 H :    0.031177
  66 H :    0.037356
  67 H :    0.034656
  68 H :    0.034434
  69 H :    0.035225
  70 H :    0.036598
  71 H :    0.023835
  72 H :    0.046885
  73 H :    0.046153
  74 H :    0.018944
  75 H :    0.016357
  76 H :    0.028276
  77 H :    0.014257
  78 H :    0.037366
  79 H :    0.050910
  80 H :    0.038328
  81 H :    0.026588
  82 H :    0.020858
  83 H :    0.031048
  84 H :    0.032161
  85 H :    0.030613
  86 H :    0.031994
  87 H :    0.033167
  88 H :    0.028939
  89 H :    0.027424

  Mayer bond orders larger than 0.100000
B(  0-C ,  1-C ) :   1.8609 B(  0-C , 64-H ) :   0.9518 B(  0-C , 65-H ) :   0.9420
B(  1-C ,  2-C ) :   1.0805 B(  1-C ,  5-S ) :   1.0047 B(  2-C ,  3-C ) :   1.6581
B(  2-C , 66-H ) :   0.9935 B(  3-C ,  4-C ) :   1.1559 B(  3-C , 67-H ) :   0.9926
B(  4-C ,  5-S ) :   1.0671 B(  4-C ,  6-C ) :   1.5282 B(  6-C ,  7-C ) :   1.1863
B(  6-C , 10-S ) :   1.0338 B(  7-C ,  8-C ) :   1.5812 B(  7-C , 68-H ) :   0.9917
B(  8-C ,  9-C ) :   1.1593 B(  8-C , 69-H ) :   0.9985 B(  9-C , 10-S ) :   1.0530
B(  9-C , 11-C ) :   1.5540 B( 11-C , 12-C ) :   1.2235 B( 11-C , 70-H ) :   0.9371
B( 12-C , 13-S ) :   1.1742 B( 12-C , 16-C ) :   1.2736 B( 13-S , 14-C ) :   1.0923
B( 14-C , 15-C ) :   1.2598 B( 14-C , 23-C ) :   1.2516 B( 15-C , 16-C ) :   1.2332
B( 15-C , 22-C ) :   1.2012 B( 16-C , 17-C ) :   1.1813 B( 17-C , 18-C ) :   1.4973
B( 17-C , 22-C ) :   0.1089 B( 17-C , 71-H ) :   0.9745 B( 18-C , 19-F ) :   1.1275
B( 18-C , 20-C ) :   1.1759 B( 20-C , 21-F ) :   1.1364 B( 20-C , 22-C ) :   1.4697
B( 22-C , 72-H ) :   1.0011 B( 23-C , 24-C ) :   1.4986 B( 23-C , 73-H ) :   0.9726
B( 24-C , 25-C ) :   1.2424 B( 24-C , 74-H ) :   0.9553 B( 25-C , 26-N ) :   1.5142
B( 25-C , 27-C ) :   0.1081 B( 25-C , 36-C ) :   0.9832 B( 26-N , 27-C ) :   1.4141
B( 27-C , 28-C ) :   1.0599 B( 27-C , 32-C ) :   1.3412 B( 28-C , 29-C ) :   0.9117
B( 28-C , 36-C ) :   1.5109 B( 29-C , 30-O ) :   2.1402 B( 29-C , 31-C ) :   0.9483
B( 30-O , 78-H ) :   0.1125 B( 31-C , 32-C ) :   1.1007 B( 31-C , 35-C ) :   1.5488
B( 32-C , 33-N ) :   1.3519 B( 33-N , 34-C ) :   1.6147 B( 34-C , 35-C ) :   1.1136
B( 34-C , 75-H ) :   0.9900 B( 35-C , 76-H ) :   1.0110 B( 36-C , 37-C ) :   1.1668
B( 37-C , 38-C ) :   1.5798 B( 37-C , 77-H ) :   0.9616 B( 38-C , 39-C ) :   1.2158
B( 38-C , 78-H ) :   0.9444 B( 39-C , 40-S ) :   1.1201 B( 39-C , 43-C ) :   1.2898
B( 40-S , 41-C ) :   1.1452 B( 41-C , 42-C ) :   1.2983 B( 41-C , 50-C ) :   1.2055
B( 42-C , 43-C ) :   1.2229 B( 42-C , 49-C ) :   1.1684 B( 43-C , 44-C ) :   1.1871
B( 44-C , 45-C ) :   1.4803 B( 44-C , 49-C ) :   0.1129 B( 44-C , 79-H ) :   1.0008
B( 45-C , 46-F ) :   1.1342 B( 45-C , 47-C ) :   1.1662 B( 47-C , 48-F ) :   1.1309
B( 47-C , 49-C ) :   1.4937 B( 49-C , 80-H ) :   0.9982 B( 50-C , 51-C ) :   1.5647
B( 50-C , 81-H ) :   0.9524 B( 51-C , 52-C ) :   1.2099 B( 51-C , 82-H ) :   0.9712
B( 52-C , 53-C ) :   1.5146 B( 52-C , 83-H ) :   0.9843 B( 53-C , 54-C ) :   1.1574
B( 53-C , 57-S ) :   1.0390 B( 54-C , 55-C ) :   1.5807 B( 54-C , 84-H ) :   0.9998
B( 55-C , 56-C ) :   1.1877 B( 55-C , 85-H ) :   0.9930 B( 56-C , 57-S ) :   1.0406
B( 56-C , 58-C ) :   1.5314 B( 58-C , 59-C ) :   1.1593 B( 58-C , 62-S ) :   1.0502
B( 59-C , 60-C ) :   1.6528 B( 59-C , 86-H ) :   0.9925 B( 60-C , 61-C ) :   1.0847
B( 60-C , 87-H ) :   0.9927 B( 61-C , 62-S ) :   1.0083 B( 61-C , 63-C ) :   1.8579
B( 63-C , 88-H ) :   0.9513 B( 63-C , 89-H ) :   0.9417

-----------------------------------------------------------------------------
         ABSORPTION SPECTRUM VIA TRANSITION ELECTRIC DIPOLE MOMENTS
-----------------------------------------------------------------------------
State   Energy  Wavelength   fosc         T2         TX        TY        TZ
        (cm-1)    (nm)                  (au**2)     (au)      (au)      (au)
-----------------------------------------------------------------------------
   0    7861.5   1272.0   0.286805872  12.01038   2.52832  -2.13714   1.02500
   1   10254.6    975.2   1.404725870  45.09710  -0.81906  -4.56026   4.86110
   2   12494.1    800.4   1.561879986  41.15447   6.03830  -1.41699  -1.63876
   3   16556.8    604.0   0.064191919   1.27638  -0.40154   0.99824  -0.34447
   4   17834.7    560.7   0.046649667   0.86111   0.88896  -0.20532  -0.16944
   5   17937.3    557.5   0.030255308   0.55529  -0.02470   0.73419  -0.12506
   6   19736.9    506.7   0.019030827   0.31743   0.20438  -0.28069  -0.44371
   7   20438.0    489.3   0.045263029   0.72909   0.84181   0.05956  -0.13002
   8   21056.4    474.9   0.103974111   1.62561   0.08803  -1.18663  -0.45802
   9   21695.5    460.9   0.000327994   0.00498  -0.01968  -0.05472  -0.03994
  10   22553.0    443.4   0.164905926   2.40718  -0.83427  -0.71554   1.09507
  11   23279.0    429.6   0.016956226   0.23979   0.08204  -0.09364  -0.47360
  12   24515.8    407.9   0.032594398   0.43770   0.17231  -0.55490   0.31637
  13   24827.6    402.8   0.023631039   0.31335   0.22014   0.47721  -0.19276
  14   25207.5    396.7   0.000030398   0.00040   0.01921   0.00365  -0.00383
  15   25292.1    395.4   0.123772845   1.61108   0.41078  -1.03216   0.61400
  16   26221.3    381.4   0.048467087   0.60851  -0.34667   0.66405  -0.21764
  17   27366.1    365.4   0.001469189   0.01767  -0.03315  -0.11010  -0.06673
  18   27482.8    363.9   0.021720362   0.26018   0.31330   0.39570   0.07382
  19   27575.7    362.6   0.121558046   1.45122   0.29484   0.63784  -0.97849
  20   27994.1    357.2   0.027206988   0.31996  -0.06501  -0.33436   0.45159
  21   28720.4    348.2   0.035795819   0.41031  -0.36778   0.40591  -0.33209
  22   29375.7    340.4   0.122224050   1.36976  -0.53055  -0.62723   0.83358
  23   29921.0    334.2   0.214903898   2.36453  -0.60324   0.96456  -1.03453
  24   30024.1    333.1   0.018472808   0.20255  -0.41625   0.16683   0.03821
  25   30060.0    332.7   0.000949779   0.01040  -0.07203   0.05563  -0.04603
  26   30615.4    326.6   0.122958290   1.32219  -0.59827   0.76099  -0.62060
  27   30948.0    323.1   0.008047484   0.08561  -0.25986   0.09063   0.09931
  28   31704.9    315.4   0.052568831   0.54586  -0.64677   0.34037   0.10813
  29   31924.8    313.2   0.176795964   1.82314   0.17426   0.88464  -1.00508
  30   31982.7    312.7   0.014739210   0.15172  -0.33148   0.03020   0.20230
  31   32018.8    312.3   0.046899540   0.48221  -0.10466   0.44778  -0.52034
  32   32345.3    309.2   0.105524308   1.07403  -0.79436   0.52176  -0.41326
  33   33060.5    302.5   0.141111699   1.40517  -0.28770   0.68675  -0.92238
  34   33358.3    299.8   0.001675344   0.01653  -0.01685  -0.08567   0.09440
  35   33464.5    298.8   0.080378388   0.79073  -0.33446   0.56401  -0.60063
  36   33751.7    296.3   0.112676198   1.09904   0.48060  -0.61563   0.69933
  37   33908.3    294.9   0.009243158   0.08974  -0.00308  -0.14660   0.26123
  38   34187.1    292.5   0.011072075   0.10662  -0.30965   0.05796   0.08591
  39   34736.9    287.9   0.031040246   0.29418  -0.34709   0.29444  -0.29497
  40   34906.2    286.5   0.053357845   0.50324   0.66499  -0.23986  -0.05911
  41   35157.3    284.4   0.000769898   0.00721  -0.08027  -0.00030   0.02768
  42   35280.2    283.4   0.130342336   1.21627  -1.02385   0.15079   0.38114
  43   35484.7    281.8   0.005808563   0.05389   0.10922   0.03636  -0.20159
  44   35895.3    278.6   0.022296622   0.20449   0.02960  -0.18288   0.41252
  45   36008.1    277.7   0.061661850   0.56376   0.59642   0.08263  -0.44856
  46   36118.9    276.9   0.007720225   0.07037   0.10992  -0.13788   0.19817
  47   36286.9    275.6   0.005385826   0.04886  -0.20030   0.06359  -0.06855
  48   36944.3    270.7   0.057602277   0.51330  -0.33680  -0.32869   0.54021
  49   37061.3    269.8   0.079722263   0.70817  -0.27985   0.76675  -0.20478
  50   37368.0    267.6   0.025330687   0.22316  -0.38248  -0.07957   0.26560
  51   37381.0    267.5   0.004467031   0.03934  -0.14058  -0.04208   0.13344
  52   37578.9    266.1   0.017134760   0.15011  -0.00278   0.21475  -0.32247
  53   37878.5    264.0   0.232347456   2.01939  -0.46990   1.00215  -0.89123
  54   38053.4    262.8   0.032286424   0.27932   0.14096  -0.29890   0.41244
  55   38196.6    261.8   0.000034360   0.00030  -0.00256   0.01031  -0.01354
  56   38344.8    260.8   0.001340004   0.01150   0.03557  -0.00475   0.10108
  57   38405.9    260.4   0.085672284   0.73438   0.16603  -0.52725   0.65484
  58   38466.2    260.0   0.011153752   0.09546   0.06252   0.14622  -0.26490
  59   38634.9    258.8   0.032739077   0.27897  -0.14570   0.34569  -0.37181
  60   38787.8    257.8   0.010010413   0.08496   0.16227  -0.12662   0.20640
  61   38806.6    257.7   0.049846326   0.42287   0.46323  -0.40928   0.20191
  62   39374.2    254.0   0.070344806   0.58816   0.71064  -0.28612   0.03584
  63   39767.1    251.5   0.016048376   0.13286   0.29773   0.03911  -0.20660
  64   39876.8    250.8   0.025897797   0.21381  -0.08765  -0.20301   0.40609
  65   40304.8    248.1   0.007536687   0.06156   0.13539   0.04969  -0.20189

FINAL SINGLE POINT ENERGY     -4928.233887872576

DIPOLE MOMENT
-------------
                                X             Y             Z
Electronic contribution:    -44.17929       7.42004      10.23581
Nuclear contribution   :     49.28528      -5.35656     -15.14320
                        -----------------------------------------
Total Dipole Moment    :      5.10599       2.06348      -4.90739
                        -----------------------------------------
Magnitude (a.u.)       :      7.37642
Magnitude (Debye)      :     18.74937

Rotational constants in cm-1:     0.000887     0.000332     0.000246
Rotational constants in MHz :    26.587993     9.964568     7.374055

                             ****ORCA TERMINATED NORMALLY****
TOTAL RUN TIME: 0 days 0 hours 7 minutes 47 seconds 173 msec
