                         Program Version 4.2.0 -  RELEASE  -
|  1> # ORCA input file
|  2> # SCF done       -196.886533795427          0.000982048037
|  3> ! CAM-B3LYP def2-SVP def2/J RIJCOSX Grid4 TightSCF
|  4> %maxcore 5000
|  5> %tddft
|  6>     Mode sTDDFT
|  7>     Ethresh 5.0
|  8>     maxcore 5000
|  9> end
| 10>
| 11> %pal
| 12>   nprocs 6
| 13>   end
| 14> * xyz 0 1
| 15>    C       -5.67168        -2.69855        -0.39551
| 16>    C       -6.09248        -3.43644         0.67966
| 17>    C       -5.41003        -4.56142         1.19002
| 18>    N       -4.91767        -5.48717         1.65734
| 19>    C       -7.23762        -3.19986         1.46414
| 20>    N       -8.15168        -3.10507         2.15552
| 21>    C       -4.49363        -2.99163        -1.20646
| 22>    C       -4.39616        -2.02721        -2.23968
| 23>    C       -3.38963        -2.03856        -3.17422
| 24>    C       -2.42779        -3.04993        -3.08348
| 25>    C       -2.53053        -4.00709        -2.04679
| 26>    C       -3.55094        -3.99696        -1.10374
| 27>    S       -1.23811        -5.16703        -2.11851
| 28>    C       -0.58706        -4.36015        -3.52063
| 29>    C       -1.29836        -3.27877        -3.91700
| 30>   Br        0.96992        -5.02267        -4.33018
| 31>    C       -5.51701        -1.07652        -2.12056
| 32>    O       -5.75949        -0.14535        -2.86679
| 33>    C       -6.27884        -1.49690        -0.93770
| 34>    C       -7.32157        -0.81485        -0.36953
| 35>    C       -7.94781         0.38490        -0.74911
| 36>    S       -7.87670         1.10452        -2.33196
| 37>    C       -9.13580         2.19254        -1.91734
| 38>    C       -9.58481         2.07268        -0.63528
| 39>    C      -10.64161         2.92798        -0.02006
| 40>    C       -8.88679         1.05636         0.06713
| 41>    C       -9.07952         0.74163         1.44573
| 42>    C       -8.07577         0.27623         2.23857
| 43>    C       -8.24049        -0.36849         3.48059
| 44>    C       -7.18685        -1.03082         4.04499
| 45>    C       -7.27188        -1.93603         5.11239
| 46>    S       -8.78103        -2.14185         5.93734
| 47>    C       -8.15886        -3.38976         6.98289
| 48>    C       -6.76392        -3.53178         6.77691
| 49>    C       -6.27853        -2.78811         5.65488
| 50>    C       -4.92244        -2.94595         5.26510
| 51>    C       -4.31630        -2.39775         4.02309
| 52>    O       -4.84378        -2.38063         2.94094
| 53>    O       -3.06099        -1.93075         4.15273
| 54>    C       -4.10143        -3.74166         6.04985
| 55>    C       -4.53595        -4.31459         7.23739
| 56>    C       -5.85197        -4.18438         7.63686
| 57>    O       -6.19218        -4.63581         8.85783
| 58>    C       -9.09526        -4.10004         7.73887
| 59>    C       -9.08377        -5.41572         8.17468
| 60>    C      -10.13902        -6.02095         8.89361
| 61>    C       -9.96707        -7.35515         9.12718
| 62>    C       -8.76746        -7.87176         8.60141
| 63>    S       -7.86581        -6.62257         7.79065
| 64>    C       -8.28400        -9.17129         8.69810
| 65>    C       -8.89892       -10.27508         9.31697
| 66>    C       -8.14862       -11.41697         9.27000
| 67>    C       -6.90872       -11.26338         8.61681
| 68>    S       -6.73098        -9.62572         8.03844
| 69>    C       -5.94723       -12.24421         8.43919
| 70>    C       -4.72135       -12.01837         7.83077
| 71>    C       -3.70282       -12.92255         7.60002
| 72>    C       -3.65631       -14.35569         7.65103
| 73>    C       -4.70294       -15.23422         7.47642
| 74>    C       -4.57172       -16.63461         7.52900
| 75>    N       -4.53561       -17.78180         7.58514
| 76>    C       -6.01203       -14.85951         7.11801
| 77>    N       -7.08493       -14.62788         6.77763
| 78>    C       -2.24619       -14.74578         7.71269
| 79>    C       -1.44888       -13.59268         7.50808
| 80>    C       -2.33289       -12.41416         7.37569
| 81>    O       -2.00283       -11.26459         7.17319
| 82>    C       -0.07771       -13.63893         7.47393
| 83>    C        0.53862       -14.88151         7.66256
| 84>    C       -0.26533       -16.02361         7.87952
| 85>    C       -1.65509       -15.97836         7.90481
| 86>    S        0.69974       -17.45206         8.10207
| 87>    C        2.15088       -16.50680         7.89867
| 88>    C        1.92702       -15.19040         7.67770
| 89>   Br        3.82513       -17.34749         8.00309
| 90>    H       -3.34426        -1.29031        -3.94998
| 91>    H       -3.58511        -4.74711        -0.33188
| 92>    H       -1.03965        -2.66647        -4.76149
| 93>    H       -7.73557        -1.25425         0.52992
| 94>    H       -9.47729         2.90106        -2.64780
| 95>    H      -11.00948         3.65324        -0.74048
| 96>    H      -10.24472         3.45992         0.84350
| 97>    H      -11.47721         2.31489         0.31605
| 98>    H      -10.07459         0.86394         1.85242
| 99>    H       -7.06119         0.32083         1.86214
|100>    H       -9.23395        -0.45644         3.89917
|101>    H       -6.22435        -0.91393         3.57603
|102>    H       -2.73395        -1.98690         5.06117
|103>    H       -3.08325        -3.93224         5.74004
|104>    H       -3.85478        -4.85632         7.87195
|105>    H       -7.11130        -4.41830         9.06220
|106>    H      -10.04159        -3.58970         7.88080
|107>    H      -10.99328        -5.45400         9.21898
|108>    H      -10.66886        -7.96930         9.66097
|109>    H       -9.86681       -10.20741         9.77985
|110>    H       -8.45069       -12.36248         9.68327
|111>    H       -6.18059       -13.21905         8.84123
|112>    H       -4.47293       -10.99088         7.57972
|113>    H        0.50373       -12.74565         7.30778
|114>    H       -2.22413       -16.87678         8.07694
|115>    H        2.70634       -14.46481         7.53177
|116> *
|117>
|118>                          ****END OF INPUT****

CARTESIAN COORDINATES (ANGSTROEM)
---------------------------------
  C     -5.671680   -2.698550   -0.395510
  C     -6.092480   -3.436440    0.679660
  C     -5.410030   -4.561420    1.190020
  N     -4.917670   -5.487170    1.657340
  C     -7.237620   -3.199860    1.464140
  N     -8.151680   -3.105070    2.155520
  C     -4.493630   -2.991630   -1.206460
  C     -4.396160   -2.027210   -2.239680
  C     -3.389630   -2.038560   -3.174220
  C     -2.427790   -3.049930   -3.083480
  C     -2.530530   -4.007090   -2.046790
  C     -3.550940   -3.996960   -1.103740
  S     -1.238110   -5.167030   -2.118510
  C     -0.587060   -4.360150   -3.520630
  C     -1.298360   -3.278770   -3.917000
  Br     0.969920   -5.022670   -4.330180
  C     -5.517010   -1.076520   -2.120560
  O     -5.759490   -0.145350   -2.866790
  C     -6.278840   -1.496900   -0.937700
  C     -7.321570   -0.814850   -0.369530
  C     -7.947810    0.384900   -0.749110
  S     -7.876700    1.104520   -2.331960
  C     -9.135800    2.192540   -1.917340
  C     -9.584810    2.072680   -0.635280
  C    -10.641610    2.927980   -0.020060
  C     -8.886790    1.056360    0.067130
  C     -9.079520    0.741630    1.445730
  C     -8.075770    0.276230    2.238570
  C     -8.240490   -0.368490    3.480590
  C     -7.186850   -1.030820    4.044990
  C     -7.271880   -1.936030    5.112390
  S     -8.781030   -2.141850    5.937340
  C     -8.158860   -3.389760    6.982890
  C     -6.763920   -3.531780    6.776910
  C     -6.278530   -2.788110    5.654880
  C     -4.922440   -2.945950    5.265100
  C     -4.316300   -2.397750    4.023090
  O     -4.843780   -2.380630    2.940940
  O     -3.060990   -1.930750    4.152730
  C     -4.101430   -3.741660    6.049850
  C     -4.535950   -4.314590    7.237390
  C     -5.851970   -4.184380    7.636860
  O     -6.192180   -4.635810    8.857830
  C     -9.095260   -4.100040    7.738870
  C     -9.083770   -5.415720    8.174680
  C    -10.139020   -6.020950    8.893610
  C     -9.967070   -7.355150    9.127180
  C     -8.767460   -7.871760    8.601410
  S     -7.865810   -6.622570    7.790650
  C     -8.284000   -9.171290    8.698100
  C     -8.898920  -10.275080    9.316970
  C     -8.148620  -11.416970    9.270000
  C     -6.908720  -11.263380    8.616810
  S     -6.730980   -9.625720    8.038440
  C     -5.947230  -12.244210    8.439190
  C     -4.721350  -12.018370    7.830770
  C     -3.702820  -12.922550    7.600020
  C     -3.656310  -14.355690    7.651030
  C     -4.702940  -15.234220    7.476420
  C     -4.571720  -16.634610    7.529000
  N     -4.535610  -17.781800    7.585140
  C     -6.012030  -14.859510    7.118010
  N     -7.084930  -14.627880    6.777630
  C     -2.246190  -14.745780    7.712690
  C     -1.448880  -13.592680    7.508080
  C     -2.332890  -12.414160    7.375690
  O     -2.002830  -11.264590    7.173190
  C     -0.077710  -13.638930    7.473930
  C      0.538620  -14.881510    7.662560
  C     -0.265330  -16.023610    7.879520
  C     -1.655090  -15.978360    7.904810
  S      0.699740  -17.452060    8.102070
  C      2.150880  -16.506800    7.898670
  C      1.927020  -15.190400    7.677700
  Br     3.825130  -17.347490    8.003090
  H     -3.344260   -1.290310   -3.949980
  H     -3.585110   -4.747110   -0.331880
  H     -1.039650   -2.666470   -4.761490
  H     -7.735570   -1.254250    0.529920
  H     -9.477290    2.901060   -2.647800
  H    -11.009480    3.653240   -0.740480
  H    -10.244720    3.459920    0.843500
  H    -11.477210    2.314890    0.316050
  H    -10.074590    0.863940    1.852420
  H     -7.061190    0.320830    1.862140
  H     -9.233950   -0.456440    3.899170
  H     -6.224350   -0.913930    3.576030
  H     -2.733950   -1.986900    5.061170
  H     -3.083250   -3.932240    5.740040
  H     -3.854780   -4.856320    7.871950
  H     -7.111300   -4.418300    9.062200
  H    -10.041590   -3.589700    7.880800
  H    -10.993280   -5.454000    9.218980
  H    -10.668860   -7.969300    9.660970
  H     -9.866810  -10.207410    9.779850
  H     -8.450690  -12.362480    9.683270
  H     -6.180590  -13.219050    8.841230
  H     -4.472930  -10.990880    7.579720
  H      0.503730  -12.745650    7.307780
  H     -2.224130  -16.876780    8.076940
  H      2.706340  -14.464810    7.531770

 Total Charge           Charge          ....    0
 Multiplicity           Mult            ....    1
 Number of Electrons    NEL             ....  608
 Basis Dimension        Dim             .... 1240

ORBITAL ENERGIES
----------------

  NO   OCC          E(Eh)            E(eV)
   0   2.0000    -482.878296    -13139.7865
   1   2.0000    -482.874951    -13139.6954
   2   2.0000     -88.979688     -2421.2604
   3   2.0000     -88.967107     -2420.9181
   4   2.0000     -88.966410     -2420.8991
   5   2.0000     -88.962505     -2420.7928
   6   2.0000     -88.959490     -2420.7108
   7   2.0000     -88.952605     -2420.5234
   8   2.0000     -62.556011     -1702.2356
   9   2.0000     -62.552686     -1702.1451
  10   2.0000     -56.389951     -1534.4486
  11   2.0000     -56.387259     -1534.3753
  12   2.0000     -56.387216     -1534.3742
  13   2.0000     -56.386622     -1534.3580
  14   2.0000     -56.383933     -1534.2848
  15   2.0000     -56.383892     -1534.2837
  16   2.0000     -19.267353      -524.2913
  17   2.0000     -19.267011      -524.2820
  18   2.0000     -19.208255      -522.6832
  19   2.0000     -19.207851      -522.6722
  20   2.0000     -19.194175      -522.3001
  21   2.0000     -14.404621      -391.9697
  22   2.0000     -14.398600      -391.8058
  23   2.0000     -14.397449      -391.7745
  24   2.0000     -14.394931      -391.7060
  25   2.0000     -10.412650      -283.3426
  26   2.0000     -10.361735      -281.9571
  27   2.0000     -10.356792      -281.8226
  28   2.0000     -10.349923      -281.6357
  29   2.0000     -10.345838      -281.5246
  30   2.0000     -10.344844      -281.4975
  31   2.0000     -10.334724      -281.2221
  32   2.0000     -10.331766      -281.1416
  33   2.0000     -10.330331      -281.1026
  34   2.0000     -10.325997      -280.9847
  35   2.0000     -10.325450      -280.9698
  36   2.0000     -10.325359      -280.9673
  37   2.0000     -10.324303      -280.9386
  38   2.0000     -10.322786      -280.8973
  39   2.0000     -10.322095      -280.8785
  40   2.0000     -10.321190      -280.8539
  41   2.0000     -10.319655      -280.8121
  42   2.0000     -10.315312      -280.6939
  43   2.0000     -10.311540      -280.5913
  44   2.0000     -10.310887      -280.5735
  45   2.0000     -10.308950      -280.5208
  46   2.0000     -10.308413      -280.5062
  47   2.0000     -10.307886      -280.4918
  48   2.0000     -10.306854      -280.4638
  49   2.0000     -10.305460      -280.4258
  50   2.0000     -10.303308      -280.3673
  51   2.0000     -10.302943      -280.3573
  52   2.0000     -10.302935      -280.3571
  53   2.0000     -10.302239      -280.3382
  54   2.0000     -10.301374      -280.3146
  55   2.0000     -10.299255      -280.2570
  56   2.0000     -10.298530      -280.2372
  57   2.0000     -10.297029      -280.1964
  58   2.0000     -10.295828      -280.1637
  59   2.0000     -10.295806      -280.1631
  60   2.0000     -10.293167      -280.0913
  61   2.0000     -10.292342      -280.0689
  62   2.0000     -10.291891      -280.0566
  63   2.0000     -10.291275      -280.0398
  64   2.0000     -10.290970      -280.0315
  65   2.0000     -10.290953      -280.0311
  66   2.0000     -10.290890      -280.0294
  67   2.0000     -10.289250      -279.9847
  68   2.0000     -10.288230      -279.9570
  69   2.0000     -10.287310      -279.9319
  70   2.0000     -10.287107      -279.9264
  71   2.0000     -10.286549      -279.9112
  72   2.0000     -10.286252      -279.9032
  73   2.0000     -10.285533      -279.8836
  74   2.0000     -10.284450      -279.8541
  75   2.0000     -10.283005      -279.8148
  76   2.0000     -10.282026      -279.7882
  77   2.0000     -10.280788      -279.7545
  78   2.0000     -10.280203      -279.7385
  79   2.0000     -10.279074      -279.7078
  80   2.0000     -10.275386      -279.6075
  81   2.0000     -10.273086      -279.5449
  82   2.0000     -10.272443      -279.5274
  83   2.0000      -8.785434      -239.0638
  84   2.0000      -8.782120      -238.9736
  85   2.0000      -8.075270      -219.7393
  86   2.0000      -8.063114      -219.4085
  87   2.0000      -8.062352      -219.3877
  88   2.0000      -8.058496      -219.2828
  89   2.0000      -8.055746      -219.2080
  90   2.0000      -8.046939      -218.9683
  91   2.0000      -6.621684      -180.1852
  92   2.0000      -6.618376      -180.0952
  93   2.0000      -6.607175      -179.7904
  94   2.0000      -6.607021      -179.7862
  95   2.0000      -6.603859      -179.7001
  96   2.0000      -6.603709      -179.6961
  97   2.0000      -6.044223      -164.4717
  98   2.0000      -6.040269      -164.3641
  99   2.0000      -6.037801      -164.2969
 100   2.0000      -6.032825      -164.1615
 101   2.0000      -6.032038      -164.1401
 102   2.0000      -6.028550      -164.0452
 103   2.0000      -6.028195      -164.0355
 104   2.0000      -6.027780      -164.0242
 105   2.0000      -6.025320      -163.9573
 106   2.0000      -6.024194      -163.9266
 107   2.0000      -6.023924      -163.9193
 108   2.0000      -6.023590      -163.9102
 109   2.0000      -6.021292      -163.8477
 110   2.0000      -6.019709      -163.8046
 111   2.0000      -6.016940      -163.7293
 112   2.0000      -6.016302      -163.7119
 113   2.0000      -6.011644      -163.5852
 114   2.0000      -6.009299      -163.5213
 115   2.0000      -2.737578       -74.4933
 116   2.0000      -2.734214       -74.4017
 117   2.0000      -2.733501       -74.3823
 118   2.0000      -2.733348       -74.3782
 119   2.0000      -2.730193       -74.2923
 120   2.0000      -2.730076       -74.2891
 121   2.0000      -2.721840       -74.0650
 122   2.0000      -2.721816       -74.0644
 123   2.0000      -2.718536       -73.9751
 124   2.0000      -2.718518       -73.9746
 125   2.0000      -1.191014       -32.4091
 126   2.0000      -1.168395       -31.7937
 127   2.0000      -1.123205       -30.5640
 128   2.0000      -1.108307       -30.1586
 129   2.0000      -1.104687       -30.0600
 130   2.0000      -1.016830       -27.6693
 131   2.0000      -1.011611       -27.5273
 132   2.0000      -1.011091       -27.5132
 133   2.0000      -1.007021       -27.4024
 134   2.0000      -1.001547       -27.2535
 135   2.0000      -0.996043       -27.1037
 136   2.0000      -0.990294       -26.9473
 137   2.0000      -0.988797       -26.9065
 138   2.0000      -0.981040       -26.6955
 139   2.0000      -0.976459       -26.5708
 140   2.0000      -0.975069       -26.5330
 141   2.0000      -0.971863       -26.4457
 142   2.0000      -0.952546       -25.9201
 143   2.0000      -0.931915       -25.3587
 144   2.0000      -0.930709       -25.3259
 145   2.0000      -0.927824       -25.2474
 146   2.0000      -0.912687       -24.8355
 147   2.0000      -0.901692       -24.5363
 148   2.0000      -0.897978       -24.4352
 149   2.0000      -0.893296       -24.3078
 150   2.0000      -0.892461       -24.2851
 151   2.0000      -0.883737       -24.0477
 152   2.0000      -0.875100       -23.8127
 153   2.0000      -0.870679       -23.6924
 154   2.0000      -0.869000       -23.6467
 155   2.0000      -0.866238       -23.5715
 156   2.0000      -0.864321       -23.5194
 157   2.0000      -0.862160       -23.4606
 158   2.0000      -0.853023       -23.2119
 159   2.0000      -0.842926       -22.9372
 160   2.0000      -0.837925       -22.8011
 161   2.0000      -0.833921       -22.6921
 162   2.0000      -0.820808       -22.3353
 163   2.0000      -0.818213       -22.2647
 164   2.0000      -0.814204       -22.1556
 165   2.0000      -0.800607       -21.7856
 166   2.0000      -0.783655       -21.3243
 167   2.0000      -0.773396       -21.0452
 168   2.0000      -0.760846       -20.7037
 169   2.0000      -0.750934       -20.4339
 170   2.0000      -0.749687       -20.4000
 171   2.0000      -0.745360       -20.2823
 172   2.0000      -0.743799       -20.2398
 173   2.0000      -0.731697       -19.9105
 174   2.0000      -0.724598       -19.7173
 175   2.0000      -0.708889       -19.2899
 176   2.0000      -0.705437       -19.1959
 177   2.0000      -0.701484       -19.0883
 178   2.0000      -0.693178       -18.8623
 179   2.0000      -0.684815       -18.6348
 180   2.0000      -0.681551       -18.5460
 181   2.0000      -0.679319       -18.4852
 182   2.0000      -0.677316       -18.4307
 183   2.0000      -0.671376       -18.2691
 184   2.0000      -0.657948       -17.9037
 185   2.0000      -0.656056       -17.8522
 186   2.0000      -0.649774       -17.6813
 187   2.0000      -0.647361       -17.6156
 188   2.0000      -0.646044       -17.5797
 189   2.0000      -0.641411       -17.4537
 190   2.0000      -0.633480       -17.2379
 191   2.0000      -0.631865       -17.1939
 192   2.0000      -0.630253       -17.1501
 193   2.0000      -0.618690       -16.8354
 194   2.0000      -0.613329       -16.6895
 195   2.0000      -0.612019       -16.6539
 196   2.0000      -0.606890       -16.5143
 197   2.0000      -0.605335       -16.4720
 198   2.0000      -0.591258       -16.0889
 199   2.0000      -0.587909       -15.9978
 200   2.0000      -0.585615       -15.9354
 201   2.0000      -0.581337       -15.8190
 202   2.0000      -0.578906       -15.7528
 203   2.0000      -0.577522       -15.7152
 204   2.0000      -0.575605       -15.6630
 205   2.0000      -0.565916       -15.3994
 206   2.0000      -0.554831       -15.0977
 207   2.0000      -0.550632       -14.9835
 208   2.0000      -0.547692       -14.9035
 209   2.0000      -0.544897       -14.8274
 210   2.0000      -0.542045       -14.7498
 211   2.0000      -0.534717       -14.5504
 212   2.0000      -0.534178       -14.5357
 213   2.0000      -0.532662       -14.4945
 214   2.0000      -0.529568       -14.4103
 215   2.0000      -0.527776       -14.3615
 216   2.0000      -0.527493       -14.3538
 217   2.0000      -0.525359       -14.2957
 218   2.0000      -0.522555       -14.2195
 219   2.0000      -0.520930       -14.1752
 220   2.0000      -0.519032       -14.1236
 221   2.0000      -0.517871       -14.0920
 222   2.0000      -0.516472       -14.0539
 223   2.0000      -0.514117       -13.9898
 224   2.0000      -0.508962       -13.8496
 225   2.0000      -0.507546       -13.8110
 226   2.0000      -0.506121       -13.7723
 227   2.0000      -0.504433       -13.7263
 228   2.0000      -0.501042       -13.6340
 229   2.0000      -0.498160       -13.5556
 230   2.0000      -0.497740       -13.5442
 231   2.0000      -0.494449       -13.4546
 232   2.0000      -0.493318       -13.4239
 233   2.0000      -0.491157       -13.3651
 234   2.0000      -0.487352       -13.2615
 235   2.0000      -0.485960       -13.2236
 236   2.0000      -0.484387       -13.1809
 237   2.0000      -0.481457       -13.1011
 238   2.0000      -0.480498       -13.0750
 239   2.0000      -0.479930       -13.0596
 240   2.0000      -0.477630       -12.9970
 241   2.0000      -0.474745       -12.9185
 242   2.0000      -0.472763       -12.8645
 243   2.0000      -0.468771       -12.7559
 244   2.0000      -0.466891       -12.7047
 245   2.0000      -0.464365       -12.6360
 246   2.0000      -0.459821       -12.5124
 247   2.0000      -0.458166       -12.4673
 248   2.0000      -0.455270       -12.3885
 249   2.0000      -0.451834       -12.2950
 250   2.0000      -0.449133       -12.2215
 251   2.0000      -0.448370       -12.2008
 252   2.0000      -0.447721       -12.1831
 253   2.0000      -0.445920       -12.1341
 254   2.0000      -0.444622       -12.0988
 255   2.0000      -0.443175       -12.0594
 256   2.0000      -0.437366       -11.9013
 257   2.0000      -0.437065       -11.8931
 258   2.0000      -0.433712       -11.8019
 259   2.0000      -0.431555       -11.7432
 260   2.0000      -0.431417       -11.7395
 261   2.0000      -0.430850       -11.7240
 262   2.0000      -0.429540       -11.6884
 263   2.0000      -0.426765       -11.6129
 264   2.0000      -0.426466       -11.6047
 265   2.0000      -0.424487       -11.5509
 266   2.0000      -0.423058       -11.5120
 267   2.0000      -0.418132       -11.3780
 268   2.0000      -0.416801       -11.3417
 269   2.0000      -0.412984       -11.2379
 270   2.0000      -0.408157       -11.1065
 271   2.0000      -0.407453       -11.0874
 272   2.0000      -0.404813       -11.0155
 273   2.0000      -0.403141       -10.9700
 274   2.0000      -0.399078       -10.8595
 275   2.0000      -0.395320       -10.7572
 276   2.0000      -0.392907       -10.6915
 277   2.0000      -0.391501       -10.6533
 278   2.0000      -0.390753       -10.6329
 279   2.0000      -0.381163       -10.3720
 280   2.0000      -0.379003       -10.3132
 281   2.0000      -0.373070       -10.1517
 282   2.0000      -0.370549       -10.0832
 283   2.0000      -0.367776       -10.0077
 284   2.0000      -0.364706        -9.9241
 285   2.0000      -0.363993        -9.9048
 286   2.0000      -0.358014        -9.7421
 287   2.0000      -0.349348        -9.5062
 288   2.0000      -0.344015        -9.3611
 289   2.0000      -0.337883        -9.1943
 290   2.0000      -0.337341        -9.1795
 291   2.0000      -0.334565        -9.1040
 292   2.0000      -0.327185        -8.9032
 293   2.0000      -0.322339        -8.7713
 294   2.0000      -0.319558        -8.6956
 295   2.0000      -0.307947        -8.3797
 296   2.0000      -0.305501        -8.3131
 297   2.0000      -0.300593        -8.1796
 298   2.0000      -0.292401        -7.9566
 299   2.0000      -0.284191        -7.7332
 300   2.0000      -0.279616        -7.6087
 301   2.0000      -0.273594        -7.4449
 302   2.0000      -0.255133        -6.9425
 303   2.0000      -0.214952        -5.8492
 304   0.0000      -0.119043        -3.2393
 305   0.0000      -0.079918        -2.1747
 306   0.0000      -0.066346        -1.8054
 307   0.0000      -0.050968        -1.3869
 308   0.0000      -0.046153        -1.2559

MULLIKEN ATOMIC CHARGES
-----------------------
   0 C :    0.326874
   1 C :   -0.337256
   2 C :   -0.188757
   3 N :    0.145371
   4 C :   -0.170882
   5 N :    0.120651
   6 C :    0.018875
   7 C :   -0.021510
   8 C :   -0.073285
   9 C :    0.116574
  10 C :   -0.092187
  11 C :   -0.022143
  12 S :    0.181269
  13 C :   -0.122538
  14 C :    0.036712
  15 Br:    0.016043
  16 C :    0.149312
  17 O :   -0.172216
  18 C :   -0.086729
  19 C :   -0.076020
  20 C :   -0.116804
  21 S :    0.195455
  22 C :   -0.107940
  23 C :   -0.073960
  24 C :    0.121479
  25 C :    0.105963
  26 C :   -0.029312
  27 C :   -0.011120
  28 C :    0.017746
  29 C :    0.010100
  30 C :   -0.098288
  31 S :    0.169460
  32 C :   -0.179025
  33 C :    0.091093
  34 C :    0.156141
  35 C :   -0.098544
  36 C :    0.179874
  37 O :   -0.196240
  38 O :   -0.151836
  39 C :   -0.012060
  40 C :   -0.032046
  41 C :    0.076593
  42 O :   -0.154613
  43 C :   -0.010033
  44 C :   -0.098177
  45 C :    0.048559
  46 C :    0.025731
  47 C :   -0.038265
  48 S :    0.140696
  49 C :   -0.055147
  50 C :    0.037859
  51 C :    0.035840
  52 C :   -0.018640
  53 S :    0.117584
  54 C :    0.000836
  55 C :    0.019508
  56 C :   -0.125961
  57 C :    0.290949
  58 C :   -0.350543
  59 C :   -0.179641
  60 N :    0.131501
  61 C :   -0.219221
  62 N :    0.157686
  63 C :    0.009176
  64 C :   -0.007180
  65 C :    0.134838
  66 O :   -0.157251
  67 C :   -0.074560
  68 C :    0.114936
  69 C :   -0.092509
  70 C :   -0.025212
  71 S :    0.177706
  72 C :   -0.124571
  73 C :    0.037396
  74 Br:    0.012577
  75 H :   -0.012739
  76 H :   -0.006666
  77 H :   -0.006617
  78 H :    0.034532
  79 H :    0.017862
  80 H :    0.010166
  81 H :    0.028666
  82 H :    0.027244
  83 H :   -0.003476
  84 H :    0.029940
  85 H :   -0.002878
  86 H :    0.009168
  87 H :    0.182752
  88 H :   -0.001084
  89 H :   -0.004296
  90 H :    0.188379
  91 H :    0.003474
  92 H :   -0.003484
  93 H :   -0.006020
  94 H :   -0.006044
  95 H :    0.002054
  96 H :    0.007789
  97 H :    0.014739
  98 H :   -0.015247
  99 H :   -0.008331
 100 H :   -0.006623
Sum of atomic charges:   -0.0000000

LOEWDIN ATOMIC CHARGES
----------------------
   0 C :    0.073030
   1 C :   -0.132437
   2 C :   -0.013014
   3 N :   -0.067815
   4 C :   -0.010429
   5 N :   -0.067723
   6 C :   -0.014751
   7 C :   -0.051754
   8 C :    0.019243
   9 C :   -0.036096
  10 C :   -0.143784
  11 C :   -0.010607
  12 S :    0.428880
  13 C :   -0.274293
  14 C :   -0.070920
  15 Br:    0.131087
  16 C :    0.081091
  17 O :   -0.166735
  18 C :   -0.109784
  19 C :    0.048981
  20 C :   -0.183075
  21 S :    0.504076
  22 C :   -0.175815
  23 C :   -0.067635
  24 C :   -0.044815
  25 C :   -0.029088
  26 C :   -0.020938
  27 C :   -0.005734
  28 C :   -0.009425
  29 C :   -0.027746
  30 C :   -0.142699
  31 S :    0.497285
  32 C :   -0.186370
  33 C :   -0.072386
  34 C :   -0.017535
  35 C :   -0.095995
  36 C :    0.096207
  37 O :   -0.156603
  38 O :   -0.024671
  39 C :   -0.000659
  40 C :   -0.058446
  41 C :    0.065206
  42 O :   -0.024466
  43 C :   -0.076161
  44 C :   -0.177365
  45 C :   -0.020519
  46 C :   -0.038999
  47 C :   -0.155745
  48 S :    0.430367
  49 C :   -0.188998
  50 C :   -0.010919
  51 C :   -0.035690
  52 C :   -0.103241
  53 S :    0.410543
  54 C :   -0.065516
  55 C :    0.049309
  56 C :   -0.106832
  57 C :    0.067998
  58 C :   -0.155785
  59 C :   -0.019710
  60 N :   -0.067416
  61 C :   -0.024771
  62 N :   -0.063487
  63 C :   -0.015084
  64 C :   -0.050571
  65 C :    0.077665
  66 O :   -0.158125
  67 C :    0.017738
  68 C :   -0.037379
  69 C :   -0.145205
  70 C :   -0.016872
  71 S :    0.425865
  72 C :   -0.275844
  73 C :   -0.070726
  74 Br:    0.128157
  75 H :    0.039480
  76 H :    0.041036
  77 H :    0.037532
  78 H :    0.049684
  79 H :    0.023036
  80 H :    0.033474
  81 H :    0.036184
  82 H :    0.034897
  83 H :    0.030840
  84 H :    0.037483
  85 H :    0.020738
  86 H :    0.034370
  87 H :    0.092749
  88 H :    0.033869
  89 H :    0.040414
  90 H :    0.081790
  91 H :    0.039280
  92 H :    0.036660
  93 H :    0.035101
  94 H :    0.035233
  95 H :    0.040131
  96 H :    0.038120
  97 H :    0.034500
  98 H :    0.038964
  99 H :    0.039565
 100 H :    0.037347

  Mayer bond orders larger than 0.100000
B(  0-C ,  1-C ) :   1.6332 B(  0-C ,  6-C ) :   0.9991 B(  0-C , 18-C ) :   1.0807
B(  1-C ,  2-C ) :   1.1419 B(  1-C ,  4-C ) :   1.1623 B(  2-C ,  3-N ) :   2.9632
B(  4-C ,  5-N ) :   2.8973 B(  6-C ,  7-C ) :   1.2754 B(  6-C , 11-C ) :   1.4178
B(  7-C ,  8-C ) :   1.4230 B(  7-C , 16-C ) :   0.9519 B(  8-C ,  9-C ) :   1.2470
B(  8-C , 75-H ) :   1.0163 B(  9-C , 10-C ) :   1.3097 B(  9-C , 14-C ) :   1.1611
B( 10-C , 11-C ) :   1.3269 B( 10-C , 12-S ) :   1.0847 B( 11-C , 76-H ) :   0.9786
B( 12-S , 13-C ) :   1.0844 B( 13-C , 14-C ) :   1.6205 B( 13-C , 15-Br) :   1.0138
B( 14-C , 77-H ) :   1.0003 B( 16-C , 17-O ) :   2.1648 B( 16-C , 18-C ) :   0.9664
B( 18-C , 19-C ) :   1.5460 B( 19-C , 20-C ) :   1.2406 B( 19-C , 78-H ) :   0.9289
B( 20-C , 21-S ) :   1.1280 B( 20-C , 25-C ) :   1.3334 B( 21-S , 22-C ) :   1.1600
B( 22-C , 23-C ) :   1.5409 B( 22-C , 79-H ) :   0.9636 B( 23-C , 24-C ) :   1.0941
B( 23-C , 25-C ) :   1.2711 B( 24-C , 80-H ) :   0.9507 B( 24-C , 81-H ) :   0.9455
B( 24-C , 82-H ) :   0.9430 B( 25-C , 26-C ) :   1.1294 B( 26-C , 27-C ) :   1.6042
B( 26-C , 83-H ) :   0.9572 B( 27-C , 28-C ) :   1.1811 B( 27-C , 84-H ) :   0.9863
B( 28-C , 29-C ) :   1.5777 B( 28-C , 85-H ) :   0.9795 B( 29-C , 30-C ) :   1.2051
B( 29-C , 86-H ) :   0.9599 B( 30-C , 31-S ) :   1.1513 B( 30-C , 34-C ) :   1.3138
B( 31-S , 32-C ) :   1.1357 B( 32-C , 33-C ) :   1.2435 B( 32-C , 43-C ) :   1.2301
B( 33-C , 34-C ) :   1.2418 B( 33-C , 41-C ) :   1.1546 B( 34-C , 35-C ) :   1.2317
B( 35-C , 36-C ) :   0.9053 B( 35-C , 39-C ) :   1.4548 B( 36-C , 37-O ) :   2.0484
B( 36-C , 38-O ) :   1.2474 B( 38-O , 87-H ) :   0.9476 B( 39-C , 40-C ) :   1.2662
B( 39-C , 88-H ) :   0.9827 B( 40-C , 41-C ) :   1.4536 B( 40-C , 89-H ) :   0.9918
B( 41-C , 42-O ) :   1.2870 B( 42-O , 90-H ) :   0.9427 B( 43-C , 44-C ) :   1.5084
B( 43-C , 91-H ) :   0.9422 B( 44-C , 45-C ) :   1.1698 B( 44-C , 48-S ) :   1.0584
B( 45-C , 46-C ) :   1.5578 B( 45-C , 92-H ) :   1.0009 B( 46-C , 47-C ) :   1.2140
B( 46-C , 93-H ) :   0.9946 B( 47-C , 48-S ) :   1.0949 B( 47-C , 49-C ) :   1.4319
B( 49-C , 50-C ) :   1.2345 B( 49-C , 53-S ) :   1.0535 B( 50-C , 51-C ) :   1.5274
B( 50-C , 94-H ) :   0.9941 B( 51-C , 52-C ) :   1.1953 B( 51-C , 95-H ) :   1.0011
B( 52-C , 53-S ) :   1.0865 B( 52-C , 54-C ) :   1.4797 B( 54-C , 55-C ) :   1.2375
B( 54-C , 96-H ) :   0.9624 B( 55-C , 56-C ) :   1.5124 B( 55-C , 97-H ) :   0.9398
B( 56-C , 57-C ) :   1.0965 B( 56-C , 65-C ) :   0.9684 B( 57-C , 58-C ) :   1.5888
B( 57-C , 63-C ) :   1.0036 B( 58-C , 59-C ) :   1.1350 B( 58-C , 61-C ) :   1.1679
B( 59-C , 60-N ) :   2.9713 B( 61-C , 62-N ) :   3.0097 B( 63-C , 64-C ) :   1.2749
B( 63-C , 70-C ) :   1.4239 B( 64-C , 65-C ) :   0.9187 B( 64-C , 67-C ) :   1.4369
B( 65-C , 66-O ) :   2.2431 B( 67-C , 68-C ) :   1.2429 B( 67-C , 98-H ) :   1.0159
B( 68-C , 69-C ) :   1.3176 B( 68-C , 73-C ) :   1.1608 B( 69-C , 70-C ) :   1.3193
B( 69-C , 71-S ) :   1.0820 B( 70-C , 99-H ) :   0.9809 B( 71-S , 72-C ) :   1.0846
B( 72-C , 73-C ) :   1.6221 B( 72-C , 74-Br) :   1.0116 B( 73-C ,100-H ) :   1.0000

-----------------------------------------------------------------------------
         ABSORPTION SPECTRUM VIA TRANSITION ELECTRIC DIPOLE MOMENTS
-----------------------------------------------------------------------------
State   Energy  Wavelength   fosc         T2         TX        TY        TZ
        (cm-1)    (nm)                  (au**2)     (au)      (au)      (au)
-----------------------------------------------------------------------------
   0    8022.4   1246.5   1.058088704  43.42011   1.22054  -5.97810   2.48852
   1   15792.0    633.2   0.057932567   1.20771   0.30773  -0.41388  -0.97042
   2   16818.5    594.6   0.748824990  14.65779  -2.18140   1.77568   2.59735
   3   18957.0    527.5   0.098442184   1.70957   0.95089  -0.07517  -0.89428
   4   20866.4    479.2   0.038965749   0.61477   0.66626   0.36452  -0.19491
   5   22144.3    451.6   0.043843182   0.65180  -0.14628  -0.36268   0.70631
   6   23247.6    430.2   0.020405319   0.28896   0.08837   0.22281  -0.48115
   7   23522.9    425.1   0.039761202   0.55647   0.55493  -0.20698  -0.45353
   8   23941.7    417.7   0.106940331   1.47049   1.14991   0.09251   0.37369
   9   25046.5    399.3   0.036126429   0.47485  -0.63445   0.26041  -0.06708
  10   25158.3    397.5   0.185087220   2.42198   0.56549  -1.41608   0.31131
  11   26060.4    383.7   0.098746746   1.24743   0.79730  -0.75902   0.18877
  12   26315.3    380.0   0.028721024   0.35931  -0.55180   0.22336  -0.07025
  13   27191.0    367.8   0.182379742   2.20815  -0.76874   1.03903  -0.73320
  14   27583.7    362.5   0.008713151   0.10399  -0.32156  -0.01877  -0.01539
  15   27616.1    362.1   0.014173062   0.16896   0.39899   0.01778  -0.09720
  16   28144.4    355.3   0.237390077   2.77681  -1.60291   0.43072  -0.14824
  17   28474.9    351.2   0.167441986   1.93588   0.46400  -1.07613   0.75002
  18   28788.2    347.4   0.065406001   0.74796  -0.76538  -0.17495   0.36268
  19   29374.8    340.4   0.035567784   0.39862  -0.55365   0.21499  -0.21417
  20   29521.0    338.7   0.052240154   0.58257  -0.43139   0.45861  -0.43145
  21   29751.7    336.1   0.182263181   2.01680  -1.19577   0.75655   0.12066
  22   30455.7    328.3   0.037056359   0.40056   0.22076   0.32745  -0.49457
  23   30878.5    323.8   0.407152037   4.34086   1.45291  -0.57901  -1.37646
  24   31370.1    318.8   0.047522315   0.49872  -0.29972   0.50546  -0.39166
  25   31649.2    316.0   0.372613164   3.87588   1.86042  -0.62484  -0.15582
  26   31757.3    314.9   0.155345094   1.61039  -1.10944   0.13063  -0.60204
  27   32189.2    310.7   0.218688464   2.23662   1.40783  -0.46519   0.19554
  28   32447.2    308.2   0.265434842   2.69312  -1.61026   0.31643   0.00727
  29   32640.9    306.4   0.056658943   0.57146   0.72764   0.05457  -0.19751
  30   32778.6    305.1   0.027081543   0.27199  -0.16004   0.47680  -0.13799
  31   32993.6    303.1   0.079515584   0.79341  -0.88535   0.09597   0.01908
  32   33197.6    301.2   0.037981181   0.37665  -0.53162  -0.17080   0.25466
  33   33574.1    297.8   0.057512153   0.56394   0.72583   0.11616  -0.15369
  34   34136.6    292.9   0.013904462   0.13409   0.28882   0.17850  -0.13716
  35   34214.3    292.3   0.007243323   0.06970  -0.03790  -0.04769  -0.25688
  36   34394.5    290.7   0.229864062   2.20018   0.89719   0.23139  -1.15832
  37   34528.8    289.6   0.185812597   1.77162   1.01871  -0.22443  -0.82673
  38   35114.2    284.8   0.066079864   0.61953   0.02683  -0.58693   0.52376
  39   35403.1    282.5   0.019132657   0.17791   0.38210  -0.07149  -0.16372
  40   35659.1    280.4   0.018851414   0.17404  -0.07407  -0.30566   0.27409
  41   35826.4    279.1   0.001427013   0.01311  -0.04942   0.09874   0.03035
  42   36032.9    277.5   0.010831249   0.09896  -0.09041   0.28722  -0.09106
  43   36081.8    277.1   0.016744689   0.15278  -0.18125   0.34572  -0.02012
  44   36544.4    273.6   0.071889090   0.64762   0.02251  -0.51632   0.61687
  45   36674.9    272.7   0.074428054   0.66810   0.55978   0.59440  -0.03782
  46   36983.2    270.4   0.029495340   0.26256   0.38946  -0.27692   0.18491
  47   37226.0    268.6   0.015755037   0.13933   0.30187   0.21093   0.06092
  48   37344.1    267.8   0.188113024   1.65834  -1.23257  -0.30894  -0.20897
  49   37534.0    266.4   0.038528577   0.33794  -0.51228   0.13466  -0.23952
  50   37671.3    265.5   0.079153511   0.69173   0.81227   0.03705   0.17487
  51   37950.2    263.5   0.050961238   0.44208   0.32208   0.16451  -0.55793
  52   38298.1    261.1   0.021796145   0.18736  -0.23522  -0.34010  -0.12792
  53   38618.2    258.9   0.019355862   0.16500  -0.39321   0.03416   0.09606
  54   38916.2    257.0   0.056713138   0.47977   0.39214  -0.55552   0.13188
  55   39183.4    255.2   0.019469040   0.16358  -0.13748   0.34206  -0.16634
  56   39489.0    253.2   0.035530309   0.29621  -0.50291  -0.13684   0.15674
  57   39614.8    252.4   0.033039555   0.27457  -0.51135  -0.07084  -0.08984
  58   39728.4    251.7   0.183336198   1.51923  -0.26738   1.05692  -0.57503
  59   40033.6    249.8   0.006862378   0.05643  -0.16051  -0.17322  -0.02573

FINAL SINGLE POINT ENERGY    -10353.614856804199

DIPOLE MOMENT
-------------
                                X             Y             Z
Electronic contribution:    174.41246    -130.02496     -48.07112
Nuclear contribution   :   -175.75589     135.29196      49.87552
                        -----------------------------------------
Total Dipole Moment    :     -1.34343       5.26700       1.80440
                        -----------------------------------------
Magnitude (a.u.)       :      5.72730
Magnitude (Debye)      :     14.55765

Rotational constants in cm-1:     0.000653     0.000252     0.000194
Rotational constants in MHz :    19.574241     7.553595     5.808118

                             ****ORCA TERMINATED NORMALLY****
TOTAL RUN TIME: 0 days 0 hours 11 minutes 19 seconds 581 msec
