                         Program Version 4.2.0 -  RELEASE  -
|  1> # ORCA input file
|  2> # SCF done       -200.908986609152          0.000815295043
|  3> ! CAM-B3LYP def2-SVP def2/J RIJCOSX Grid4 TightSCF
|  4> %maxcore 5000
|  5> %tddft
|  6>     Mode sTDDFT
|  7>     Ethresh 5.0
|  8>     maxcore 5000
|  9> end
| 10>
| 11> %pal
| 12>   nprocs 6
| 13>   end
| 14> * xyz 0 1
| 15>    C       -3.67885         3.20463         2.07322
| 16>    C       -2.68727         3.82473         2.78033
| 17>    F       -2.66185         5.16519         2.87698
| 18>    C       -1.67961         3.07307         3.41339
| 19>    F       -0.70808         3.71019         4.09144
| 20>    C       -1.68365         1.70894         3.34067
| 21>    C       -2.69770         1.04000         2.62964
| 22>    C       -3.71178         1.79850         1.97869
| 23>    C       -4.74382         1.14398         1.26451
| 24>    C       -4.76956        -0.22446         1.22857
| 25>    C       -3.76065        -0.96940         1.89970
| 26>    C       -2.73663        -0.37099         2.57426
| 27>    C       -4.04660        -2.40748         1.76100
| 28>    O       -3.48290        -3.30697         2.36007
| 29>    C       -5.24766        -2.50221         0.90851
| 30>    C       -5.69567        -1.16697         0.59980
| 31>    C       -6.75920        -0.82810        -0.20055
| 32>    C       -7.59337        -1.75552        -0.85637
| 33>    N       -8.30072        -2.45784        -1.42721
| 34>    C       -7.14379         0.49811        -0.48046
| 35>    N       -7.50976         1.55692        -0.73249
| 36>    C       -5.90838        -3.68718         0.64819
| 37>    C       -5.28827        -4.93404         0.75103
| 38>    S       -6.16013        -6.42482         1.12900
| 39>    C       -4.70916        -7.38931         1.32335
| 40>    C       -3.60995        -6.59037         0.96814
| 41>    C       -3.93724        -5.26183         0.65358
| 42>    O       -2.80308        -4.63125         0.29713
| 43>    C       -1.84727        -5.57392         0.43440
| 44>    N       -2.25186        -6.73455         0.82423
| 45>    C       -4.66653        -8.66076         1.90697
| 46>    C       -3.44118        -9.09917         2.35899
| 47>    C       -3.09586       -10.18529         3.15560
| 48>    C       -1.87575       -10.14494         3.82239
| 49>    C       -1.24333       -11.08036         4.66278
| 50>    C       -0.07563       -10.62995         5.23030
| 51>    C        0.24140        -9.30614         4.88540
| 52>    S       -0.93481        -8.66899         3.77219
| 53>    C        1.24494        -8.43890         5.31623
| 54>    C        2.37114        -8.63943         6.12942
| 55>    C        3.10940        -7.50156         6.32623
| 56>    C        2.58046        -6.35102         5.70128
| 57>    S        1.12971        -6.76803         4.82713
| 58>    C        3.11218        -5.07337         5.73599
| 59>    C        2.54199        -3.91443         5.21474
| 60>    S        3.47190        -2.41021         5.21207
| 61>    C        2.19069        -1.44591         4.50776
| 62>    C        1.08512        -2.27778         4.31638
| 63>    C        1.28587        -3.62350         4.67092
| 64>    O        0.13912        -4.28357         4.38387
| 65>    C       -0.67849        -3.33645         3.87647
| 66>    N       -0.18300        -2.14581         3.81598
| 67>    C        2.28904        -0.12606         4.07135
| 68>    C        3.42014         0.64525         4.05548
| 69>    C        3.50006         1.93893         3.51690
| 70>    C        2.66122         2.62234         2.66676
| 71>    C        2.78518         4.10568         2.64421
| 72>    O        3.67780         4.76328         3.12936
| 73>    C        1.58318         4.59235         1.94013
| 74>    C        1.15379         5.87417         1.75754
| 75>    C       -0.04656         6.10188         1.04749
| 76>    C       -0.76315         4.99166         0.51666
| 77>    C       -1.95822         5.22193        -0.19341
| 78>    C       -2.42654         6.49506        -0.35650
| 79>    C       -1.72009         7.59230         0.17393
| 80>    C       -0.55212         7.40183         0.85737
| 81>    F       -2.20279         8.82986        -0.00315
| 82>    F       -3.56741         6.71075        -1.02528
| 83>    C       -0.29282         3.67445         0.72400
| 84>    C        0.85751         3.47570         1.43984
| 85>    C        1.57075         2.25035         1.80268
| 86>    C        1.31708         1.01908         1.23761
| 87>    C        2.19014        -0.08067         1.32126
| 88>    N        2.89332        -0.98921         1.31742
| 89>    C        0.16843         0.71566         0.48482
| 90>    N       -0.77916         0.38725        -0.07684
| 91>    H       -4.44304         3.79775         1.59517
| 92>    H       -0.91965         1.13726         3.84415
| 93>    H       -5.49513         1.74470         0.77754
| 94>    H       -1.96745        -0.95707         3.05637
| 95>    H       -6.96072        -3.67622         0.39842
| 96>    H       -0.83276        -5.30757         0.21346
| 97>    H       -5.58500        -9.19540         2.09610
| 98>    H       -2.62151        -8.42532         2.13747
| 99>    H       -3.76543       -11.01748         3.31771
|100>    H       -1.65516       -12.05967         4.83305
|101>    H        0.53431       -11.21181         5.89850
|102>    H        2.62083        -9.60204         6.53851
|103>    H        4.00966        -7.45802         6.91334
|104>    H        4.07453        -4.95618         6.21603
|105>    H       -1.66480        -3.61404         3.55285
|106>    H        1.35724         0.28412         3.70556
|107>    H        4.31082         0.25028         4.52719
|108>    H        4.33362         2.54428         3.86322
|109>    H        1.71830         6.70371         2.15457
|110>    H       -2.51044         4.39124        -0.60510
|111>    H       -0.02345         8.25210         1.25843
|112>    H       -0.86960         2.85457         0.32621
|113> *
|114>
|115>                          ****END OF INPUT****

CARTESIAN COORDINATES (ANGSTROEM)
---------------------------------
  C     -3.678850    3.204630    2.073220
  C     -2.687270    3.824730    2.780330
  F     -2.661850    5.165190    2.876980
  C     -1.679610    3.073070    3.413390
  F     -0.708080    3.710190    4.091440
  C     -1.683650    1.708940    3.340670
  C     -2.697700    1.040000    2.629640
  C     -3.711780    1.798500    1.978690
  C     -4.743820    1.143980    1.264510
  C     -4.769560   -0.224460    1.228570
  C     -3.760650   -0.969400    1.899700
  C     -2.736630   -0.370990    2.574260
  C     -4.046600   -2.407480    1.761000
  O     -3.482900   -3.306970    2.360070
  C     -5.247660   -2.502210    0.908510
  C     -5.695670   -1.166970    0.599800
  C     -6.759200   -0.828100   -0.200550
  C     -7.593370   -1.755520   -0.856370
  N     -8.300720   -2.457840   -1.427210
  C     -7.143790    0.498110   -0.480460
  N     -7.509760    1.556920   -0.732490
  C     -5.908380   -3.687180    0.648190
  C     -5.288270   -4.934040    0.751030
  S     -6.160130   -6.424820    1.129000
  C     -4.709160   -7.389310    1.323350
  C     -3.609950   -6.590370    0.968140
  C     -3.937240   -5.261830    0.653580
  O     -2.803080   -4.631250    0.297130
  C     -1.847270   -5.573920    0.434400
  N     -2.251860   -6.734550    0.824230
  C     -4.666530   -8.660760    1.906970
  C     -3.441180   -9.099170    2.358990
  C     -3.095860  -10.185290    3.155600
  C     -1.875750  -10.144940    3.822390
  C     -1.243330  -11.080360    4.662780
  C     -0.075630  -10.629950    5.230300
  C      0.241400   -9.306140    4.885400
  S     -0.934810   -8.668990    3.772190
  C      1.244940   -8.438900    5.316230
  C      2.371140   -8.639430    6.129420
  C      3.109400   -7.501560    6.326230
  C      2.580460   -6.351020    5.701280
  S      1.129710   -6.768030    4.827130
  C      3.112180   -5.073370    5.735990
  C      2.541990   -3.914430    5.214740
  S      3.471900   -2.410210    5.212070
  C      2.190690   -1.445910    4.507760
  C      1.085120   -2.277780    4.316380
  C      1.285870   -3.623500    4.670920
  O      0.139120   -4.283570    4.383870
  C     -0.678490   -3.336450    3.876470
  N     -0.183000   -2.145810    3.815980
  C      2.289040   -0.126060    4.071350
  C      3.420140    0.645250    4.055480
  C      3.500060    1.938930    3.516900
  C      2.661220    2.622340    2.666760
  C      2.785180    4.105680    2.644210
  O      3.677800    4.763280    3.129360
  C      1.583180    4.592350    1.940130
  C      1.153790    5.874170    1.757540
  C     -0.046560    6.101880    1.047490
  C     -0.763150    4.991660    0.516660
  C     -1.958220    5.221930   -0.193410
  C     -2.426540    6.495060   -0.356500
  C     -1.720090    7.592300    0.173930
  C     -0.552120    7.401830    0.857370
  F     -2.202790    8.829860   -0.003150
  F     -3.567410    6.710750   -1.025280
  C     -0.292820    3.674450    0.724000
  C      0.857510    3.475700    1.439840
  C      1.570750    2.250350    1.802680
  C      1.317080    1.019080    1.237610
  C      2.190140   -0.080670    1.321260
  N      2.893320   -0.989210    1.317420
  C      0.168430    0.715660    0.484820
  N     -0.779160    0.387250   -0.076840
  H     -4.443040    3.797750    1.595170
  H     -0.919650    1.137260    3.844150
  H     -5.495130    1.744700    0.777540
  H     -1.967450   -0.957070    3.056370
  H     -6.960720   -3.676220    0.398420
  H     -0.832760   -5.307570    0.213460
  H     -5.585000   -9.195400    2.096100
  H     -2.621510   -8.425320    2.137470
  H     -3.765430  -11.017480    3.317710
  H     -1.655160  -12.059670    4.833050
  H      0.534310  -11.211810    5.898500
  H      2.620830   -9.602040    6.538510
  H      4.009660   -7.458020    6.913340
  H      4.074530   -4.956180    6.216030
  H     -1.664800   -3.614040    3.552850
  H      1.357240    0.284120    3.705560
  H      4.310820    0.250280    4.527190
  H      4.333620    2.544280    3.863220
  H      1.718300    6.703710    2.154570
  H     -2.510440    4.391240   -0.605100
  H     -0.023450    8.252100    1.258430
  H     -0.869600    2.854570    0.326210

 Total Charge           Charge          ....    0
 Multiplicity           Mult            ....    1
 Number of Electrons    NEL             ....  544
 Basis Dimension        Dim             .... 1190

ORBITAL ENERGIES
----------------

  NO   OCC          E(Eh)            E(eV)
   0   2.0000     -88.980573     -2421.2845
   1   2.0000     -88.977048     -2421.1886
   2   2.0000     -88.963355     -2420.8160
   3   2.0000     -88.960885     -2420.7488
   4   2.0000     -24.795117      -674.7094
   5   2.0000     -24.794313      -674.6876
   6   2.0000     -24.789578      -674.5587
   7   2.0000     -24.789093      -674.5455
   8   2.0000     -19.321142      -525.7550
   9   2.0000     -19.315210      -525.5936
  10   2.0000     -19.210540      -522.7454
  11   2.0000     -19.205396      -522.6054
  12   2.0000     -14.433329      -392.7509
  13   2.0000     -14.428058      -392.6074
  14   2.0000     -14.411586      -392.1592
  15   2.0000     -14.411004      -392.1434
  16   2.0000     -14.404301      -391.9610
  17   2.0000     -14.402972      -391.9248
  18   2.0000     -10.384151      -282.5671
  19   2.0000     -10.380283      -282.4619
  20   2.0000     -10.373396      -282.2745
  21   2.0000     -10.372763      -282.2572
  22   2.0000     -10.372003      -282.2366
  23   2.0000     -10.371500      -282.2229
  24   2.0000     -10.359672      -281.9010
  25   2.0000     -10.356638      -281.8184
  26   2.0000     -10.356019      -281.8016
  27   2.0000     -10.354544      -281.7615
  28   2.0000     -10.343458      -281.4598
  29   2.0000     -10.337687      -281.3028
  30   2.0000     -10.336518      -281.2710
  31   2.0000     -10.334095      -281.2050
  32   2.0000     -10.332210      -281.1537
  33   2.0000     -10.331454      -281.1332
  34   2.0000     -10.329519      -281.0805
  35   2.0000     -10.329270      -281.0737
  36   2.0000     -10.328987      -281.0660
  37   2.0000     -10.328013      -281.0395
  38   2.0000     -10.327943      -281.0376
  39   2.0000     -10.324893      -280.9546
  40   2.0000     -10.321137      -280.8524
  41   2.0000     -10.317662      -280.7578
  42   2.0000     -10.314752      -280.6787
  43   2.0000     -10.314691      -280.6770
  44   2.0000     -10.313413      -280.6422
  45   2.0000     -10.313241      -280.6375
  46   2.0000     -10.312861      -280.6272
  47   2.0000     -10.310127      -280.5528
  48   2.0000     -10.309576      -280.5378
  49   2.0000     -10.308057      -280.4965
  50   2.0000     -10.307720      -280.4873
  51   2.0000     -10.306565      -280.4559
  52   2.0000     -10.306192      -280.4457
  53   2.0000     -10.303713      -280.3783
  54   2.0000     -10.300442      -280.2893
  55   2.0000     -10.300152      -280.2814
  56   2.0000     -10.299912      -280.2749
  57   2.0000     -10.299417      -280.2614
  58   2.0000     -10.298151      -280.2269
  59   2.0000     -10.297581      -280.2114
  60   2.0000     -10.297403      -280.2066
  61   2.0000     -10.295126      -280.1446
  62   2.0000     -10.294407      -280.1251
  63   2.0000     -10.292892      -280.0838
  64   2.0000     -10.292813      -280.0817
  65   2.0000     -10.292445      -280.0717
  66   2.0000     -10.292177      -280.0644
  67   2.0000     -10.291681      -280.0509
  68   2.0000     -10.290939      -280.0307
  69   2.0000     -10.289965      -280.0042
  70   2.0000     -10.289285      -279.9857
  71   2.0000     -10.288580      -279.9665
  72   2.0000     -10.287319      -279.9322
  73   2.0000     -10.283174      -279.8194
  74   2.0000     -10.283058      -279.8162
  75   2.0000     -10.278470      -279.6914
  76   2.0000      -8.075365      -219.7419
  77   2.0000      -8.071945      -219.6488
  78   2.0000      -8.059870      -219.3202
  79   2.0000      -8.057324      -219.2509
  80   2.0000      -6.044907      -164.4903
  81   2.0000      -6.041501      -164.3976
  82   2.0000      -6.040880      -164.3807
  83   2.0000      -6.037443      -164.2872
  84   2.0000      -6.036905      -164.2725
  85   2.0000      -6.033489      -164.1796
  86   2.0000      -6.029522      -164.0716
  87   2.0000      -6.026969      -164.0022
  88   2.0000      -6.025269      -163.9559
  89   2.0000      -6.022808      -163.8889
  90   2.0000      -6.020882      -163.8365
  91   2.0000      -6.018410      -163.7693
  92   2.0000      -1.314669       -35.7740
  93   2.0000      -1.312101       -35.7041
  94   2.0000      -1.300008       -35.3750
  95   2.0000      -1.297281       -35.3008
  96   2.0000      -1.251885       -34.0655
  97   2.0000      -1.247072       -33.9345
  98   2.0000      -1.124179       -30.5905
  99   2.0000      -1.120822       -30.4991
 100   2.0000      -1.044705       -28.4279
 101   2.0000      -1.038559       -28.2606
 102   2.0000      -1.018479       -27.7142
 103   2.0000      -1.013675       -27.5835
 104   2.0000      -1.007644       -27.4194
 105   2.0000      -1.002317       -27.2744
 106   2.0000      -0.996405       -27.1136
 107   2.0000      -0.994538       -27.0628
 108   2.0000      -0.992855       -27.0169
 109   2.0000      -0.991523       -26.9807
 110   2.0000      -0.989545       -26.9269
 111   2.0000      -0.982608       -26.7381
 112   2.0000      -0.972634       -26.4667
 113   2.0000      -0.970542       -26.4098
 114   2.0000      -0.934868       -25.4391
 115   2.0000      -0.931681       -25.3523
 116   2.0000      -0.921073       -25.0637
 117   2.0000      -0.918786       -25.0015
 118   2.0000      -0.907302       -24.6889
 119   2.0000      -0.898078       -24.4379
 120   2.0000      -0.889635       -24.2082
 121   2.0000      -0.885161       -24.0865
 122   2.0000      -0.883307       -24.0360
 123   2.0000      -0.879107       -23.9217
 124   2.0000      -0.872861       -23.7517
 125   2.0000      -0.862899       -23.4807
 126   2.0000      -0.862399       -23.4671
 127   2.0000      -0.856631       -23.3101
 128   2.0000      -0.851973       -23.1834
 129   2.0000      -0.836762       -22.7695
 130   2.0000      -0.832023       -22.6405
 131   2.0000      -0.829537       -22.5728
 132   2.0000      -0.828505       -22.5448
 133   2.0000      -0.816946       -22.2302
 134   2.0000      -0.803991       -21.8777
 135   2.0000      -0.787290       -21.4233
 136   2.0000      -0.772070       -21.0091
 137   2.0000      -0.759229       -20.6597
 138   2.0000      -0.756398       -20.5826
 139   2.0000      -0.755420       -20.5560
 140   2.0000      -0.744299       -20.2534
 141   2.0000      -0.742486       -20.2041
 142   2.0000      -0.739423       -20.1207
 143   2.0000      -0.730013       -19.8647
 144   2.0000      -0.722149       -19.6507
 145   2.0000      -0.714185       -19.4340
 146   2.0000      -0.709195       -19.2982
 147   2.0000      -0.707684       -19.2571
 148   2.0000      -0.702008       -19.1026
 149   2.0000      -0.692860       -18.8537
 150   2.0000      -0.688182       -18.7264
 151   2.0000      -0.684480       -18.6256
 152   2.0000      -0.678058       -18.4509
 153   2.0000      -0.676288       -18.4027
 154   2.0000      -0.669815       -18.2266
 155   2.0000      -0.661447       -17.9989
 156   2.0000      -0.659532       -17.9468
 157   2.0000      -0.649689       -17.6789
 158   2.0000      -0.647788       -17.6272
 159   2.0000      -0.645800       -17.5731
 160   2.0000      -0.639640       -17.4055
 161   2.0000      -0.635007       -17.2794
 162   2.0000      -0.633630       -17.2420
 163   2.0000      -0.631349       -17.1799
 164   2.0000      -0.629121       -17.1192
 165   2.0000      -0.626476       -17.0473
 166   2.0000      -0.621217       -16.9042
 167   2.0000      -0.614997       -16.7349
 168   2.0000      -0.607833       -16.5400
 169   2.0000      -0.605218       -16.4688
 170   2.0000      -0.595852       -16.2140
 171   2.0000      -0.594315       -16.1721
 172   2.0000      -0.590087       -16.0571
 173   2.0000      -0.587155       -15.9773
 174   2.0000      -0.585731       -15.9386
 175   2.0000      -0.584912       -15.9163
 176   2.0000      -0.579137       -15.7591
 177   2.0000      -0.576608       -15.6903
 178   2.0000      -0.575252       -15.6534
 179   2.0000      -0.574514       -15.6333
 180   2.0000      -0.568644       -15.4736
 181   2.0000      -0.564802       -15.3691
 182   2.0000      -0.562671       -15.3111
 183   2.0000      -0.555649       -15.1200
 184   2.0000      -0.553462       -15.0605
 185   2.0000      -0.548586       -14.9278
 186   2.0000      -0.545872       -14.8539
 187   2.0000      -0.544748       -14.8233
 188   2.0000      -0.544647       -14.8206
 189   2.0000      -0.538341       -14.6490
 190   2.0000      -0.537907       -14.6372
 191   2.0000      -0.534187       -14.5360
 192   2.0000      -0.528481       -14.3807
 193   2.0000      -0.527629       -14.3575
 194   2.0000      -0.527175       -14.3452
 195   2.0000      -0.525210       -14.2917
 196   2.0000      -0.522551       -14.2193
 197   2.0000      -0.520734       -14.1699
 198   2.0000      -0.519850       -14.1458
 199   2.0000      -0.518267       -14.1028
 200   2.0000      -0.515514       -14.0279
 201   2.0000      -0.512308       -13.9406
 202   2.0000      -0.508834       -13.8461
 203   2.0000      -0.507508       -13.8100
 204   2.0000      -0.504404       -13.7255
 205   2.0000      -0.500675       -13.6241
 206   2.0000      -0.499905       -13.6031
 207   2.0000      -0.496900       -13.5213
 208   2.0000      -0.495010       -13.4699
 209   2.0000      -0.492421       -13.3994
 210   2.0000      -0.491160       -13.3651
 211   2.0000      -0.487950       -13.2778
 212   2.0000      -0.486294       -13.2327
 213   2.0000      -0.483135       -13.1468
 214   2.0000      -0.482469       -13.1286
 215   2.0000      -0.479632       -13.0514
 216   2.0000      -0.476351       -12.9622
 217   2.0000      -0.474216       -12.9041
 218   2.0000      -0.472747       -12.8641
 219   2.0000      -0.470474       -12.8022
 220   2.0000      -0.466217       -12.6864
 221   2.0000      -0.464875       -12.6499
 222   2.0000      -0.460344       -12.5266
 223   2.0000      -0.457161       -12.4400
 224   2.0000      -0.455844       -12.4041
 225   2.0000      -0.453836       -12.3495
 226   2.0000      -0.451383       -12.2827
 227   2.0000      -0.449829       -12.2405
 228   2.0000      -0.447072       -12.1655
 229   2.0000      -0.441668       -12.0184
 230   2.0000      -0.441301       -12.0084
 231   2.0000      -0.440433       -11.9848
 232   2.0000      -0.438664       -11.9366
 233   2.0000      -0.438182       -11.9235
 234   2.0000      -0.436926       -11.8894
 235   2.0000      -0.434975       -11.8363
 236   2.0000      -0.433481       -11.7956
 237   2.0000      -0.431790       -11.7496
 238   2.0000      -0.430906       -11.7255
 239   2.0000      -0.423645       -11.5280
 240   2.0000      -0.420877       -11.4526
 241   2.0000      -0.418985       -11.4012
 242   2.0000      -0.417105       -11.3500
 243   2.0000      -0.414217       -11.2714
 244   2.0000      -0.413192       -11.2435
 245   2.0000      -0.409908       -11.1542
 246   2.0000      -0.407210       -11.0808
 247   2.0000      -0.400398       -10.8954
 248   2.0000      -0.399589       -10.8734
 249   2.0000      -0.394032       -10.7222
 250   2.0000      -0.387546       -10.5457
 251   2.0000      -0.384715       -10.4686
 252   2.0000      -0.380566       -10.3557
 253   2.0000      -0.375195       -10.2096
 254   2.0000      -0.373799       -10.1716
 255   2.0000      -0.369859       -10.0644
 256   2.0000      -0.356784        -9.7086
 257   2.0000      -0.355362        -9.6699
 258   2.0000      -0.341260        -9.2862
 259   2.0000      -0.340700        -9.2709
 260   2.0000      -0.336757        -9.1636
 261   2.0000      -0.331789        -9.0284
 262   2.0000      -0.328296        -8.9334
 263   2.0000      -0.321077        -8.7370
 264   2.0000      -0.316295        -8.6068
 265   2.0000      -0.309086        -8.4107
 266   2.0000      -0.305938        -8.3250
 267   2.0000      -0.293769        -7.9939
 268   2.0000      -0.289314        -7.8726
 269   2.0000      -0.282498        -7.6872
 270   2.0000      -0.257821        -7.0157
 271   2.0000      -0.218398        -5.9429
 272   0.0000      -0.127182        -3.4608
 273   0.0000      -0.094288        -2.5657
 274   0.0000      -0.075908        -2.0656
 275   0.0000      -0.057154        -1.5552
 276   0.0000      -0.048717        -1.3256

MULLIKEN ATOMIC CHARGES
-----------------------
   0 C :   -0.120493
   1 C :    0.240358
   2 F :   -0.179921
   3 C :    0.266160
   4 F :   -0.180455
   5 C :   -0.124448
   6 C :    0.129445
   7 C :    0.111189
   8 C :   -0.091735
   9 C :    0.058801
  10 C :    0.023988
  11 C :   -0.057688
  12 C :    0.164495
  13 O :   -0.195508
  14 C :   -0.125382
  15 C :    0.311516
  16 C :   -0.352635
  17 C :   -0.205598
  18 N :    0.150949
  19 C :   -0.181559
  20 N :    0.139617
  21 C :    0.065494
  22 C :   -0.217314
  23 S :    0.165538
  24 C :   -0.135944
  25 C :    0.009985
  26 C :    0.258402
  27 O :   -0.170981
  28 C :    0.190080
  29 N :   -0.085007
  30 C :    0.029635
  31 C :   -0.019278
  32 C :    0.025214
  33 C :   -0.028042
  34 C :    0.033670
  35 C :    0.037065
  36 C :   -0.038085
  37 S :    0.066558
  38 C :   -0.029573
  39 C :    0.037113
  40 C :    0.036876
  41 C :   -0.042810
  42 S :    0.099262
  43 C :    0.070571
  44 C :   -0.203761
  45 S :    0.152611
  46 C :   -0.149033
  47 C :    0.061268
  48 C :    0.197550
  49 O :   -0.195835
  50 C :    0.223531
  51 N :   -0.094919
  52 C :    0.026837
  53 C :    0.003450
  54 C :    0.044583
  55 C :   -0.125858
  56 C :    0.130034
  57 O :   -0.148199
  58 C :    0.026511
  59 C :   -0.083987
  60 C :    0.124577
  61 C :    0.119727
  62 C :   -0.119875
  63 C :    0.245573
  64 C :    0.243013
  65 C :   -0.106733
  66 F :   -0.174070
  67 F :   -0.171745
  68 C :   -0.115736
  69 C :    0.043791
  70 C :    0.280947
  71 C :   -0.369160
  72 C :   -0.211615
  73 N :    0.163621
  74 C :   -0.152836
  75 N :    0.131845
  76 H :    0.004529
  77 H :   -0.011257
  78 H :   -0.010880
  79 H :   -0.056437
  80 H :    0.020716
  81 H :    0.043004
  82 H :   -0.018278
  83 H :    0.063047
  84 H :   -0.006762
  85 H :   -0.004290
  86 H :   -0.004836
  87 H :   -0.006945
  88 H :   -0.004403
  89 H :   -0.011809
  90 H :    0.044944
  91 H :    0.023799
  92 H :   -0.001624
  93 H :    0.025519
  94 H :   -0.014136
  95 H :    0.004267
  96 H :   -0.003656
  97 H :   -0.010146
Sum of atomic charges:   -0.0000000

LOEWDIN ATOMIC CHARGES
----------------------
   0 C :   -0.033004
   1 C :    0.061694
   2 F :   -0.051221
   3 C :    0.063370
   4 F :   -0.054015
   5 C :   -0.036766
   6 C :   -0.004478
   7 C :   -0.007074
   8 C :    0.012189
   9 C :   -0.015749
  10 C :   -0.047432
  11 C :    0.034000
  12 C :    0.090042
  13 O :   -0.170846
  14 C :   -0.110156
  15 C :    0.075669
  16 C :   -0.148785
  17 C :   -0.022679
  18 N :   -0.060625
  19 C :   -0.017554
  20 N :   -0.062541
  21 C :    0.047722
  22 C :   -0.207253
  23 S :    0.452547
  24 C :   -0.134290
  25 C :   -0.075084
  26 C :    0.034951
  27 O :    0.026211
  28 C :    0.100693
  29 N :   -0.097806
  30 C :   -0.048473
  31 C :   -0.000303
  32 C :   -0.054940
  33 C :   -0.123482
  34 C :   -0.036453
  35 C :   -0.020763
  36 C :   -0.177811
  37 S :    0.413360
  38 C :   -0.171174
  39 C :   -0.029554
  40 C :   -0.027527
  41 C :   -0.143152
  42 S :    0.419501
  43 C :   -0.071930
  44 C :   -0.168723
  45 S :    0.453962
  46 C :   -0.181601
  47 C :   -0.039039
  48 C :   -0.017200
  49 O :   -0.000520
  50 C :    0.122184
  51 N :   -0.101641
  52 C :    0.027905
  53 C :   -0.054105
  54 C :    0.067213
  55 C :   -0.102303
  56 C :    0.082465
  57 O :   -0.148093
  58 C :   -0.051010
  59 C :    0.029618
  60 C :   -0.007363
  61 C :   -0.010339
  62 C :   -0.033026
  63 C :    0.066176
  64 C :    0.067679
  65 C :   -0.031200
  66 F :   -0.051054
  67 F :   -0.050077
  68 C :    0.007660
  69 C :   -0.021876
  70 C :    0.067158
  71 C :   -0.156833
  72 C :   -0.016068
  73 N :   -0.052407
  74 C :   -0.016786
  75 N :   -0.064520
  76 H :    0.045623
  77 H :    0.040320
  78 H :    0.038259
  79 H :    0.031800
  80 H :    0.045216
  81 H :    0.031735
  82 H :    0.031063
  83 H :    0.024583
  84 H :    0.034426
  85 H :    0.036358
  86 H :    0.035343
  87 H :    0.035244
  88 H :    0.036148
  89 H :    0.038801
  90 H :    0.025415
  91 H :    0.042609
  92 H :    0.029750
  93 H :    0.046906
  94 H :    0.039399
  95 H :    0.044725
  96 H :    0.043900
  97 H :    0.037115

  Mayer bond orders larger than 0.100000
B(  0-C ,  1-C ) :   1.4387 B(  0-C ,  5-C ) :   0.1085 B(  0-C ,  7-C ) :   1.1877
B(  0-C , 76-H ) :   1.0077 B(  1-C ,  2-F ) :   1.1015 B(  1-C ,  3-C ) :   1.1970
B(  3-C ,  4-F ) :   1.1094 B(  3-C ,  5-C ) :   1.4338 B(  5-C ,  6-C ) :   1.1950
B(  5-C , 77-H ) :   1.0103 B(  6-C ,  7-C ) :   1.2571 B(  6-C , 11-C ) :   1.1967
B(  7-C ,  8-C ) :   1.2033 B(  8-C ,  9-C ) :   1.4633 B(  8-C , 78-H ) :   0.9897
B(  9-C , 10-C ) :   1.2181 B(  9-C , 15-C ) :   0.9789 B( 10-C , 11-C ) :   1.4594
B( 10-C , 12-C ) :   0.9518 B( 11-C , 79-H ) :   0.9997 B( 12-C , 13-O ) :   2.0603
B( 12-C , 14-C ) :   1.0081 B( 14-C , 15-C ) :   1.1134 B( 14-C , 21-C ) :   1.4677
B( 15-C , 16-C ) :   1.6149 B( 16-C , 17-C ) :   1.1458 B( 16-C , 19-C ) :   1.1501
B( 17-C , 18-N ) :   2.9858 B( 19-C , 20-N ) :   2.9592 B( 21-C , 22-C ) :   1.2887
B( 21-C , 80-H ) :   0.9377 B( 22-C , 23-S ) :   1.0587 B( 22-C , 26-C ) :   1.3360
B( 23-S , 24-C ) :   1.1245 B( 24-C , 25-C ) :   1.3032 B( 24-C , 30-C ) :   1.2308
B( 25-C , 26-C ) :   1.3213 B( 25-C , 29-N ) :   1.2646 B( 26-C , 27-O ) :   1.1472
B( 27-O , 28-C ) :   1.1256 B( 28-C , 29-N ) :   1.7545 B( 28-C , 81-H ) :   0.9859
B( 30-C , 31-C ) :   1.5153 B( 30-C , 82-H ) :   0.9798 B( 31-C , 32-C ) :   1.2350
B( 31-C , 83-H ) :   0.9286 B( 32-C , 33-C ) :   1.4680 B( 32-C , 84-H ) :   0.9883
B( 33-C , 34-C ) :   1.1894 B( 33-C , 37-S ) :   1.0694 B( 34-C , 35-C ) :   1.5324
B( 34-C , 85-H ) :   0.9978 B( 35-C , 36-C ) :   1.2339 B( 35-C , 86-H ) :   0.9972
B( 36-C , 37-S ) :   1.0728 B( 36-C , 38-C ) :   1.4156 B( 38-C , 39-C ) :   1.2293
B( 38-C , 42-S ) :   1.0682 B( 39-C , 40-C ) :   1.5423 B( 39-C , 87-H ) :   0.9964
B( 40-C , 41-C ) :   1.1830 B( 40-C , 88-H ) :   0.9997 B( 41-C , 42-S ) :   1.0665
B( 41-C , 43-C ) :   1.5131 B( 43-C , 44-C ) :   1.2399 B( 43-C , 89-H ) :   0.9450
B( 44-C , 45-S ) :   1.1133 B( 44-C , 48-C ) :   1.3390 B( 45-S , 46-C ) :   1.0704
B( 46-C , 47-C ) :   1.3429 B( 46-C , 52-C ) :   1.3225 B( 47-C , 48-C ) :   1.3019
B( 47-C , 51-N ) :   1.3097 B( 48-C , 49-O ) :   1.0978 B( 49-O , 50-C ) :   1.1310
B( 50-C , 51-N ) :   1.6980 B( 50-C , 90-H ) :   0.9579 B( 52-C , 53-C ) :   1.4983
B( 52-C , 91-H ) :   0.9555 B( 53-C , 54-C ) :   1.2444 B( 53-C , 92-H ) :   0.9648
B( 54-C , 55-C ) :   1.5602 B( 54-C , 93-H ) :   0.9300 B( 55-C , 56-C ) :   0.9542
B( 55-C , 70-C ) :   1.0727 B( 56-C , 57-O ) :   2.2570 B( 56-C , 58-C ) :   0.9171
B( 58-C , 59-C ) :   1.4743 B( 58-C , 69-C ) :   1.2249 B( 59-C , 60-C ) :   1.1850
B( 59-C , 94-H ) :   1.0137 B( 60-C , 61-C ) :   1.2674 B( 60-C , 65-C ) :   1.1923
B( 61-C , 62-C ) :   1.1873 B( 61-C , 68-C ) :   1.2048 B( 62-C , 63-C ) :   1.4340
B( 62-C , 65-C ) :   0.1087 B( 62-C , 95-H ) :   1.0060 B( 63-C , 64-C ) :   1.1936
B( 63-C , 67-F ) :   1.1368 B( 64-C , 65-C ) :   1.4395 B( 64-C , 66-F ) :   1.1304
B( 65-C , 96-H ) :   1.0067 B( 68-C , 69-C ) :   1.4361 B( 68-C , 97-H ) :   0.9970
B( 69-C , 70-C ) :   1.0142 B( 70-C , 71-C ) :   1.5869 B( 71-C , 72-C ) :   1.1826
B( 71-C , 74-C ) :   1.1407 B( 72-C , 73-N ) :   2.9778 B( 74-C , 75-N ) :   2.9200

-----------------------------------------------------------------------------
         ABSORPTION SPECTRUM VIA TRANSITION ELECTRIC DIPOLE MOMENTS
-----------------------------------------------------------------------------
State   Energy  Wavelength   fosc         T2         TX        TY        TZ
        (cm-1)    (nm)                  (au**2)     (au)      (au)      (au)
-----------------------------------------------------------------------------
   0    6341.4   1576.9   0.288470104  14.97574  -3.20083  -1.98799  -0.88224
   1   13086.9    764.1   0.203681027   5.12378  -0.75428   1.91574  -0.94062
   2   15574.4    642.1   1.645872953  34.79052   1.56349  -5.11137   2.49397
   3   18401.7    543.4   0.564762224  10.10376   0.41559   3.14974   0.10095
   4   20513.1    487.5   0.192031137   3.08188   0.59160   1.41394   0.85595
   5   21572.7    463.5   0.005963426   0.09101  -0.07771  -0.19565  -0.21607
   6   21852.2    457.6   0.214118549   3.22579   0.39083   1.71274   0.37356
   7   22120.8    452.1   0.014511009   0.21596   0.35815   0.21755  -0.20089
   8   22967.8    435.4   0.059914443   0.85879   0.35173   0.66764   0.53790
   9   23870.1    418.9   0.191641708   2.64309   0.68095  -1.29073   0.71652
  10   24755.0    404.0   0.062866455   0.83605  -0.34947  -0.84344  -0.05022
  11   25342.0    394.6   0.045226149   0.58752   0.35640   0.62017   0.27548
  12   25911.0    385.9   0.034417989   0.43730  -0.12479  -0.62395   0.18003
  13   26192.9    381.8   0.040997658   0.51529   0.41237  -0.55029   0.20596
  14   26341.7    379.6   0.016082040   0.20099  -0.17876  -0.38050  -0.15574
  15   26906.5    371.7   0.009989022   0.12222   0.03290  -0.27611   0.21189
  16   27251.1    367.0   0.017545255   0.21196   0.11280   0.41701   0.15918
  17   27614.8    362.1   0.030289892   0.36110  -0.11301   0.58659   0.06514
  18   28005.6    357.1   0.000326897   0.00384  -0.04612   0.04099   0.00602
  19   28298.3    353.4   0.042596740   0.49556   0.48405   0.51110   0.00490
  20   28786.9    347.4   0.009798921   0.11206  -0.20360   0.24634  -0.09965
  21   28970.8    345.2   0.164663731   1.87117  -1.19945  -0.06723  -0.65420
  22   29743.8    336.2   0.007185016   0.07953  -0.09488   0.20598  -0.16762
  23   29916.8    334.3   0.057488403   0.63262  -0.22848   0.76096   0.03669
  24   30027.0    333.0   0.020452707   0.22424   0.10098   0.38806   0.25189
  25   30567.5    327.1   0.147885183   1.59272   0.95873  -0.67543   0.46620
  26   30723.0    325.5   0.015097594   0.16178   0.25754  -0.23935   0.19536
  27   30935.5    323.3   0.023637156   0.25154   0.16910  -0.37470  -0.28731
  28   31555.8    316.9   0.318333993   3.32108   1.03280   1.31956   0.71636
  29   31758.4    314.9   0.017243007   0.17874   0.18530   0.31002   0.21977
  30   32002.1    312.5   0.027650951   0.28445  -0.40232  -0.26403  -0.22995
  31   32304.2    309.6   0.058736173   0.59858   0.21445  -0.73202  -0.12934
  32   32425.8    308.4   0.045081637   0.45770  -0.33320  -0.57547   0.12459
  33   32576.6    307.0   0.025062995   0.25328   0.13552  -0.44981  -0.18053
  34   33019.9    302.8   0.047984315   0.47841  -0.41441   0.54479  -0.09937
  35   33209.5    301.1   0.057397473   0.56899  -0.49230  -0.48937  -0.29520
  36   33653.8    297.1   0.147737361   1.44521   0.92531   0.55531   0.52975
  37   33832.9    295.6   0.131687015   1.28139  -0.68013   0.84532  -0.32286
  38   34012.5    294.0   0.041408002   0.40079  -0.25330  -0.51579  -0.26570
  39   34181.0    292.6   0.062735096   0.60423  -0.15054   0.75909  -0.07312
  40   34225.9    292.2   0.034943653   0.33612  -0.36319  -0.36978  -0.25976
  41   34474.5    290.1   0.112280901   1.07222  -0.70551  -0.75683   0.04117
  42   34672.6    288.4   0.240355980   2.28215  -0.44785  -1.33260  -0.55295
  43   34988.9    285.8   0.026513724   0.24947   0.20954   0.39851   0.21622
  44   35178.1    284.3   0.110851406   1.03740   0.86328  -0.28065   0.46194
  45   35347.4    282.9   0.040291753   0.37526   0.45383  -0.06769   0.40585
  46   35722.7    279.9   0.030180150   0.27813  -0.20010  -0.45103  -0.18618
  47   36094.2    277.1   0.068996873   0.62931  -0.60286  -0.23888  -0.45695
  48   36465.9    274.2   0.099093094   0.89461  -0.51345  -0.44521  -0.65785
  49   36499.6    274.0   0.019660509   0.17733  -0.03480   0.37966   0.17882
  50   36664.1    272.7   0.018691412   0.16783   0.15067  -0.36011   0.12431
  51   36888.5    271.1   0.010537589   0.09404   0.23216  -0.07751   0.18476
  52   36970.4    270.5   0.022149262   0.19723   0.21249  -0.28429   0.26694
  53   37057.6    269.9   0.007160049   0.06361   0.03451   0.20409   0.14410
  54   37330.5    267.9   0.020840953   0.18379   0.35387  -0.24162   0.01374
  55   37588.9    266.0   0.034091345   0.29858   0.32536   0.38790  -0.20555
  56   37693.3    265.3   0.045933202   0.40118   0.38882  -0.47984   0.14054
  57   37807.1    264.5   0.092925847   0.80917  -0.55091   0.65639  -0.27351
  58   38052.7    262.8   0.006155468   0.05325  -0.15350   0.16042  -0.06289
  59   38403.0    260.4   0.071085291   0.60938  -0.37181  -0.57505  -0.37478
  60   38750.0    258.1   0.074836517   0.63580   0.10607   0.78974   0.02926
  61   38999.0    256.4   0.034824947   0.29398   0.01655   0.51944  -0.15455
  62   39162.2    255.3   0.021949597   0.18452   0.20406  -0.25453   0.27945
  63   39485.3    253.3   0.013820425   0.11523  -0.27996   0.15964   0.10661
  64   39506.0    253.1   0.003854691   0.03212   0.10975   0.00878   0.14142
  65   39848.4    251.0   0.017912936   0.14799  -0.07629   0.36770   0.08345
  66   39984.0    250.1   0.034530774   0.28431  -0.46498   0.13188  -0.22519
  67   40123.7    249.2   0.041725269   0.34235   0.45391  -0.35535   0.10025

FINAL SINGLE POINT ENERGY     -4840.275135750337

DIPOLE MOMENT
-------------
                                X             Y             Z
Electronic contribution:    -12.97836      44.52096     -13.26057
Nuclear contribution   :     15.46652     -49.25096      16.91836
                        -----------------------------------------
Total Dipole Moment    :      2.48816      -4.73000       3.65778
                        -----------------------------------------
Magnitude (a.u.)       :      6.47636
Magnitude (Debye)      :     16.46161

Rotational constants in cm-1:     0.001222     0.000552     0.000399
Rotational constants in MHz :    36.633179    16.547898    11.973521

                             ****ORCA TERMINATED NORMALLY****
TOTAL RUN TIME: 0 days 0 hours 12 minutes 22 seconds 576 msec
