                         Program Version 4.2.0 -  RELEASE  -
|  1> # ORCA input file
|  2> # SCF done       -116.296444428112          0.000768046779
|  3> ! CAM-B3LYP def2-SVP def2/J RIJCOSX Grid4 TightSCF
|  4> %maxcore 5000
|  5> %tddft
|  6>     Mode sTDDFT
|  7>     Ethresh 5.0
|  8>     maxcore 5000
|  9> end
| 10>
| 11> %pal
| 12>   nprocs 6
| 13>   end
| 14> * xyz 0 1
| 15>    C        7.43010         7.29911        -1.02578
| 16>    C        7.42489         8.06532        -2.11799
| 17>    C        7.50297         5.90135        -1.07553
| 18>    C        7.57058         4.68907        -1.11470
| 19>    C        7.65258         3.30778        -1.17050
| 20>    C        7.73670         2.51736        -0.06710
| 21>    C        7.83525         1.11148        -0.17977
| 22>    N        7.96795         0.48054        -1.34269
| 23>    C        8.09691        -0.81959        -1.05326
| 24>    C        8.05227        -1.05130         0.40932
| 25>    C        8.16415        -2.49616         0.71513
| 26>    O        8.12090        -3.04160         1.79182
| 27>    C        8.31124        -3.08577        -0.62565
| 28>    C        8.25912        -2.03790        -1.66899
| 29>    N        8.37874        -2.58523        -2.90101
| 30>    C        8.49848        -3.87589        -2.69288
| 31>    C        8.46072        -4.25716        -1.29880
| 32>    C        7.87121         0.17243         0.96726
| 33>    C        7.72872         0.54620         2.35173
| 34>    C        6.73735         1.25555         2.99563
| 35>    C        5.44447         1.69930         2.44513
| 36>    O        5.28558         2.28611         1.40436
| 37>    O        4.42305         1.24196         3.18423
| 38>    C        7.17761         1.26312         4.35841
| 39>    N        8.31539         0.61667         4.46894
| 40>    O        8.64755         0.15920         3.24709
| 41>    C        6.55317         1.97562         5.42502
| 42>    C        5.71584         3.07106         5.26383
| 43>    C        5.27529         3.62198         6.51036
| 44>    N        4.44868         4.68672         6.54002
| 45>    C        4.09984         5.17386         5.38316
| 46>    C        4.55841         4.65416         4.13494
| 47>    C        4.14630         5.27946         2.84482
| 48>    N        5.35595         3.61955         4.08527
| 49>    C        5.79069         2.94045         7.61738
| 50>    S        6.81462         1.64311         7.09412
| 51>    C        5.52512         3.24766         8.97757
| 52>    C        6.04309         2.57330        10.02276
| 53>    C        5.80085         2.85493        11.42471
| 54>    C        5.04111         3.86130        11.89438
| 55>    C        6.43942         1.97119        12.33091
| 56>    C        7.00035         1.20032        13.07243
| 57>    C        7.64176         0.31627        13.95861
| 58>    C        8.39925        -0.69964        13.55464
| 59>    H        7.38410         7.73511        -0.03495
| 60>    H        7.47407         7.63661        -3.10504
| 61>    H        7.37454         9.13835        -2.05247
| 62>    H        7.65273         2.83954        -2.14693
| 63>    H        7.71961         2.94935         0.92200
| 64>    H        8.61203        -4.54998        -3.52426
| 65>    H        8.53871        -5.25752        -0.92162
| 66>    H        3.58267         1.52383         2.79106
| 67>    H        3.43239         6.02526         5.40163
| 68>    H        4.51420         4.68075         2.01542
| 69>    H        4.55834         6.28511         2.77022
| 70>    H        3.06144         5.35787         2.79187
| 71>    H        4.85824         4.08716         9.11549
| 72>    H        6.70324         1.73755         9.82337
| 73>    H        4.54208         4.55386        11.24111
| 74>    H        4.90903         4.00621        12.95237
| 75>    H        7.48173         0.51206        15.01231
| 76>    H        8.56263        -0.90030        12.50883
| 77>    H        8.87795        -1.35945        14.25754
| 78> *
| 79>
| 80>                          ****END OF INPUT****

CARTESIAN COORDINATES (ANGSTROEM)
---------------------------------
  C      7.430100    7.299110   -1.025780
  C      7.424890    8.065320   -2.117990
  C      7.502970    5.901350   -1.075530
  C      7.570580    4.689070   -1.114700
  C      7.652580    3.307780   -1.170500
  C      7.736700    2.517360   -0.067100
  C      7.835250    1.111480   -0.179770
  N      7.967950    0.480540   -1.342690
  C      8.096910   -0.819590   -1.053260
  C      8.052270   -1.051300    0.409320
  C      8.164150   -2.496160    0.715130
  O      8.120900   -3.041600    1.791820
  C      8.311240   -3.085770   -0.625650
  C      8.259120   -2.037900   -1.668990
  N      8.378740   -2.585230   -2.901010
  C      8.498480   -3.875890   -2.692880
  C      8.460720   -4.257160   -1.298800
  C      7.871210    0.172430    0.967260
  C      7.728720    0.546200    2.351730
  C      6.737350    1.255550    2.995630
  C      5.444470    1.699300    2.445130
  O      5.285580    2.286110    1.404360
  O      4.423050    1.241960    3.184230
  C      7.177610    1.263120    4.358410
  N      8.315390    0.616670    4.468940
  O      8.647550    0.159200    3.247090
  C      6.553170    1.975620    5.425020
  C      5.715840    3.071060    5.263830
  C      5.275290    3.621980    6.510360
  N      4.448680    4.686720    6.540020
  C      4.099840    5.173860    5.383160
  C      4.558410    4.654160    4.134940
  C      4.146300    5.279460    2.844820
  N      5.355950    3.619550    4.085270
  C      5.790690    2.940450    7.617380
  S      6.814620    1.643110    7.094120
  C      5.525120    3.247660    8.977570
  C      6.043090    2.573300   10.022760
  C      5.800850    2.854930   11.424710
  C      5.041110    3.861300   11.894380
  C      6.439420    1.971190   12.330910
  C      7.000350    1.200320   13.072430
  C      7.641760    0.316270   13.958610
  C      8.399250   -0.699640   13.554640
  H      7.384100    7.735110   -0.034950
  H      7.474070    7.636610   -3.105040
  H      7.374540    9.138350   -2.052470
  H      7.652730    2.839540   -2.146930
  H      7.719610    2.949350    0.922000
  H      8.612030   -4.549980   -3.524260
  H      8.538710   -5.257520   -0.921620
  H      3.582670    1.523830    2.791060
  H      3.432390    6.025260    5.401630
  H      4.514200    4.680750    2.015420
  H      4.558340    6.285110    2.770220
  H      3.061440    5.357870    2.791870
  H      4.858240    4.087160    9.115490
  H      6.703240    1.737550    9.823370
  H      4.542080    4.553860   11.241110
  H      4.909030    4.006210   12.952370
  H      7.481730    0.512060   15.012310
  H      8.562630   -0.900300   12.508830
  H      8.877950   -1.359450   14.257540

 Total Charge           Charge          ....    0
 Multiplicity           Mult            ....    1
 Number of Electrons    NEL             ....  306
 Basis Dimension        Dim             ....  715

ORBITAL ENERGIES
----------------

  NO   OCC          E(Eh)            E(eV)
   0   2.0000     -88.978980     -2421.2412
   1   2.0000     -19.317678      -525.6607
   2   2.0000     -19.260181      -524.0962
   3   2.0000     -19.205614      -522.6113
   4   2.0000     -19.204338      -522.5766
   5   2.0000     -14.457075      -393.3970
   6   2.0000     -14.431926      -392.7127
   7   2.0000     -14.424981      -392.5237
   8   2.0000     -14.403775      -391.9466
   9   2.0000     -14.400416      -391.8552
  10   2.0000     -10.414567      -283.3948
  11   2.0000     -10.368025      -282.1283
  12   2.0000     -10.360231      -281.9162
  13   2.0000     -10.341221      -281.3989
  14   2.0000     -10.330897      -281.1180
  15   2.0000     -10.330561      -281.1088
  16   2.0000     -10.325732      -280.9775
  17   2.0000     -10.320899      -280.8460
  18   2.0000     -10.320219      -280.8274
  19   2.0000     -10.320077      -280.8236
  20   2.0000     -10.315437      -280.6973
  21   2.0000     -10.314384      -280.6686
  22   2.0000     -10.312953      -280.6297
  23   2.0000     -10.310674      -280.5677
  24   2.0000     -10.309586      -280.5381
  25   2.0000     -10.307704      -280.4869
  26   2.0000     -10.300450      -280.2895
  27   2.0000     -10.300090      -280.2797
  28   2.0000     -10.297204      -280.2012
  29   2.0000     -10.294006      -280.1141
  30   2.0000     -10.288781      -279.9720
  31   2.0000     -10.286486      -279.9095
  32   2.0000     -10.286322      -279.9051
  33   2.0000     -10.285171      -279.8737
  34   2.0000     -10.284595      -279.8581
  35   2.0000     -10.284480      -279.8549
  36   2.0000     -10.283742      -279.8348
  37   2.0000     -10.281793      -279.7818
  38   2.0000     -10.278239      -279.6851
  39   2.0000     -10.272316      -279.5239
  40   2.0000     -10.271380      -279.4985
  41   2.0000     -10.271314      -279.4967
  42   2.0000     -10.264155      -279.3019
  43   2.0000     -10.261310      -279.2244
  44   2.0000      -8.073253      -219.6844
  45   2.0000      -6.042128      -164.4147
  46   2.0000      -6.038098      -164.3050
  47   2.0000      -6.036253      -164.2548
  48   2.0000      -1.256991       -34.2045
  49   2.0000      -1.189366       -32.3643
  50   2.0000      -1.121551       -30.5190
  51   2.0000      -1.094130       -29.7728
  52   2.0000      -1.084871       -29.5208
  53   2.0000      -1.075440       -29.2642
  54   2.0000      -1.055103       -28.7108
  55   2.0000      -1.010316       -27.4921
  56   2.0000      -0.995811       -27.0974
  57   2.0000      -0.963912       -26.2294
  58   2.0000      -0.936499       -25.4834
  59   2.0000      -0.929448       -25.2916
  60   2.0000      -0.923622       -25.1330
  61   2.0000      -0.911801       -24.8114
  62   2.0000      -0.893988       -24.3267
  63   2.0000      -0.887293       -24.1445
  64   2.0000      -0.878231       -23.8979
  65   2.0000      -0.865563       -23.5532
  66   2.0000      -0.861547       -23.4439
  67   2.0000      -0.855443       -23.2778
  68   2.0000      -0.827130       -22.5074
  69   2.0000      -0.821439       -22.3525
  70   2.0000      -0.802677       -21.8420
  71   2.0000      -0.794648       -21.6235
  72   2.0000      -0.779872       -21.2214
  73   2.0000      -0.773992       -21.0614
  74   2.0000      -0.754834       -20.5401
  75   2.0000      -0.747886       -20.3510
  76   2.0000      -0.744157       -20.2495
  77   2.0000      -0.728587       -19.8259
  78   2.0000      -0.715383       -19.4666
  79   2.0000      -0.701122       -19.0785
  80   2.0000      -0.698545       -19.0084
  81   2.0000      -0.692077       -18.8324
  82   2.0000      -0.678591       -18.4654
  83   2.0000      -0.669102       -18.2072
  84   2.0000      -0.656179       -17.8555
  85   2.0000      -0.645536       -17.5659
  86   2.0000      -0.641006       -17.4427
  87   2.0000      -0.629193       -17.1212
  88   2.0000      -0.619586       -16.8598
  89   2.0000      -0.607610       -16.5339
  90   2.0000      -0.604643       -16.4532
  91   2.0000      -0.600589       -16.3429
  92   2.0000      -0.591044       -16.0831
  93   2.0000      -0.586977       -15.9725
  94   2.0000      -0.578389       -15.7388
  95   2.0000      -0.575663       -15.6646
  96   2.0000      -0.570667       -15.5286
  97   2.0000      -0.565862       -15.3979
  98   2.0000      -0.556495       -15.1430
  99   2.0000      -0.555507       -15.1161
 100   2.0000      -0.551528       -15.0078
 101   2.0000      -0.546857       -14.8807
 102   2.0000      -0.544481       -14.8161
 103   2.0000      -0.540141       -14.6980
 104   2.0000      -0.537761       -14.6332
 105   2.0000      -0.529655       -14.4126
 106   2.0000      -0.524474       -14.2717
 107   2.0000      -0.521058       -14.1787
 108   2.0000      -0.517190       -14.0735
 109   2.0000      -0.510592       -13.8939
 110   2.0000      -0.506134       -13.7726
 111   2.0000      -0.499778       -13.5996
 112   2.0000      -0.496056       -13.4984
 113   2.0000      -0.493656       -13.4331
 114   2.0000      -0.486264       -13.2319
 115   2.0000      -0.480619       -13.0783
 116   2.0000      -0.479650       -13.0520
 117   2.0000      -0.476855       -12.9759
 118   2.0000      -0.471356       -12.8263
 119   2.0000      -0.468392       -12.7456
 120   2.0000      -0.467613       -12.7244
 121   2.0000      -0.464027       -12.6268
 122   2.0000      -0.460217       -12.5231
 123   2.0000      -0.456625       -12.4254
 124   2.0000      -0.454433       -12.3658
 125   2.0000      -0.452935       -12.3250
 126   2.0000      -0.447407       -12.1746
 127   2.0000      -0.445276       -12.1166
 128   2.0000      -0.442636       -12.0447
 129   2.0000      -0.431175       -11.7329
 130   2.0000      -0.425769       -11.5858
 131   2.0000      -0.401655       -10.9296
 132   2.0000      -0.395386       -10.7590
 133   2.0000      -0.393624       -10.7111
 134   2.0000      -0.391530       -10.6541
 135   2.0000      -0.388136       -10.5617
 136   2.0000      -0.381985       -10.3943
 137   2.0000      -0.374581       -10.1929
 138   2.0000      -0.359749        -9.7893
 139   2.0000      -0.352198        -9.5838
 140   2.0000      -0.349210        -9.5025
 141   2.0000      -0.343790        -9.3550
 142   2.0000      -0.342919        -9.3313
 143   2.0000      -0.337961        -9.1964
 144   2.0000      -0.336108        -9.1460
 145   2.0000      -0.328998        -8.9525
 146   2.0000      -0.326230        -8.8772
 147   2.0000      -0.325512        -8.8576
 148   2.0000      -0.324670        -8.8347
 149   2.0000      -0.314876        -8.5682
 150   2.0000      -0.287259        -7.8167
 151   2.0000      -0.275714        -7.5026
 152   2.0000      -0.253180        -6.8894
 153   0.0000      -0.113505        -3.0886
 154   0.0000      -0.073823        -2.0088
 155   0.0000      -0.044038        -1.1983
 156   0.0000      -0.026576        -0.7232
 157   0.0000      -0.022465        -0.6113

MULLIKEN ATOMIC CHARGES
-----------------------
   0 C :   -0.091857
   1 C :    0.012768
   2 C :   -0.023510
   3 C :    0.089955
   4 C :   -0.034633
   5 C :    0.007241
   6 C :    0.037598
   7 N :   -0.041752
   8 C :    0.057922
   9 C :   -0.092542
  10 C :    0.202906
  11 O :   -0.111122
  12 C :   -0.056381
  13 C :   -0.015264
  14 N :   -0.057298
  15 C :    0.089967
  16 C :   -0.087718
  17 C :   -0.003323
  18 C :    0.095802
  19 C :   -0.078822
  20 C :    0.163836
  21 O :   -0.198229
  22 O :   -0.174840
  23 C :   -0.005885
  24 N :    0.015851
  25 O :   -0.150273
  26 C :   -0.192480
  27 C :    0.089923
  28 C :    0.001526
  29 N :    0.008969
  30 C :    0.012974
  31 C :   -0.141963
  32 C :    0.090502
  33 N :   -0.026257
  34 C :   -0.146605
  35 S :    0.236074
  36 C :    0.028835
  37 C :    0.009252
  38 C :   -0.036262
  39 C :   -0.002426
  40 C :    0.027570
  41 C :   -0.052708
  42 C :   -0.088604
  43 C :    0.004927
  44 H :    0.034220
  45 H :    0.040984
  46 H :    0.039293
  47 H :    0.055821
  48 H :    0.010922
  49 H :    0.008723
  50 H :   -0.007505
  51 H :    0.188820
  52 H :    0.000712
  53 H :    0.051180
  54 H :    0.033046
  55 H :    0.027213
  56 H :    0.001286
  57 H :    0.001024
  58 H :    0.019764
  59 H :    0.028584
  60 H :    0.029754
  61 H :    0.031681
  62 H :    0.030836
Sum of atomic charges:   -0.0000000

LOEWDIN ATOMIC CHARGES
----------------------
   0 C :   -0.045337
   1 C :    0.009282
   2 C :   -0.007839
   3 C :   -0.033642
   4 C :    0.039912
   5 C :   -0.015024
   6 C :    0.081778
   7 N :   -0.108262
   8 C :    0.042851
   9 C :   -0.006147
  10 C :    0.061816
  11 O :   -0.126767
  12 C :   -0.042994
  13 C :    0.022507
  14 N :   -0.098829
  15 C :    0.073803
  16 C :   -0.040104
  17 C :   -0.056534
  18 C :    0.058436
  19 C :   -0.115691
  20 C :    0.085470
  21 O :   -0.176959
  22 O :   -0.031152
  23 C :   -0.036810
  24 N :   -0.040949
  25 O :    0.051197
  26 C :   -0.208206
  27 C :   -0.037376
  28 C :   -0.057362
  29 N :   -0.029564
  30 C :    0.000810
  31 C :    0.002196
  32 C :   -0.055752
  33 N :   -0.043355
  34 C :   -0.167651
  35 S :    0.533297
  36 C :   -0.022215
  37 C :   -0.009663
  38 C :   -0.045497
  39 C :   -0.006459
  40 C :   -0.031553
  41 C :   -0.035935
  42 C :   -0.042644
  43 C :   -0.011516
  44 H :    0.044035
  45 H :    0.033399
  46 H :    0.030509
  47 H :    0.054654
  48 H :    0.038624
  49 H :    0.023308
  50 H :    0.034018
  51 H :    0.098195
  52 H :    0.024412
  53 H :    0.043988
  54 H :    0.041432
  55 H :    0.037437
  56 H :    0.038519
  57 H :    0.027385
  58 H :    0.023348
  59 H :    0.031609
  60 H :    0.042701
  61 H :    0.029516
  62 H :    0.027343

  Mayer bond orders larger than 0.100000
B(  0-C ,  1-C ) :   1.9194 B(  0-C ,  2-C ) :   1.0207 B(  0-C , 44-H ) :   0.9620
B(  1-C , 45-H ) :   0.9637 B(  1-C , 46-H ) :   0.9566 B(  2-C ,  3-C ) :   2.2905
B(  3-C ,  4-C ) :   0.9599 B(  4-C ,  5-C ) :   1.6527 B(  4-C , 47-H ) :   0.9580
B(  5-C ,  6-C ) :   1.1907 B(  5-C , 48-H ) :   0.9508 B(  6-C ,  7-N ) :   1.5578
B(  6-C ,  8-C ) :   0.1054 B(  6-C , 17-C ) :   1.0481 B(  7-N ,  8-C ) :   1.3914
B(  8-C ,  9-C ) :   1.0320 B(  8-C , 13-C ) :   1.3838 B(  9-C , 10-C ) :   0.8639
B(  9-C , 17-C ) :   1.6752 B( 10-C , 11-O ) :   2.3235 B( 10-C , 12-C ) :   0.8948
B( 12-C , 13-C ) :   1.0560 B( 12-C , 16-C ) :   1.5967 B( 13-C , 14-N ) :   1.3284
B( 14-N , 15-C ) :   1.6364 B( 15-C , 16-C ) :   1.0883 B( 15-C , 49-H ) :   0.9890
B( 16-C , 50-H ) :   1.0108 B( 17-C , 18-C ) :   0.9284 B( 18-C , 19-C ) :   1.5828
B( 18-C , 25-O ) :   1.2071 B( 19-C , 20-C ) :   0.8910 B( 19-C , 23-C ) :   1.1967
B( 20-C , 21-O ) :   2.0893 B( 20-C , 22-O ) :   1.2873 B( 22-O , 51-H ) :   0.9464
B( 23-C , 24-N ) :   1.7280 B( 23-C , 26-C ) :   1.0769 B( 24-N , 25-O ) :   1.0068
B( 26-C , 27-C ) :   1.4148 B( 26-C , 34-C ) :   0.1522 B( 26-C , 35-S ) :   1.1690
B( 27-C , 28-C ) :   1.2105 B( 27-C , 33-N ) :   1.3589 B( 28-C , 29-N ) :   1.3985
B( 28-C , 34-C ) :   1.3440 B( 29-N , 30-C ) :   1.7360 B( 30-C , 31-C ) :   1.1425
B( 30-C , 52-H ) :   0.9805 B( 31-C , 32-C ) :   1.0503 B( 31-C , 33-N ) :   1.6936
B( 32-C , 53-H ) :   0.9495 B( 32-C , 54-H ) :   0.9488 B( 32-C , 55-H ) :   0.9513
B( 34-C , 35-S ) :   1.1623 B( 34-C , 36-C ) :   1.1894 B( 36-C , 37-C ) :   1.6631
B( 36-C , 56-H ) :   0.9699 B( 37-C , 38-C ) :   1.0757 B( 37-C , 57-H ) :   0.9789
B( 38-C , 39-C ) :   1.8942 B( 38-C , 40-C ) :   0.9068 B( 39-C , 58-H ) :   0.9392
B( 39-C , 59-H ) :   0.9447 B( 40-C , 41-C ) :   2.4269 B( 41-C , 42-C ) :   0.9980
B( 42-C , 43-C ) :   1.9454 B( 42-C , 60-H ) :   0.9630 B( 43-C , 61-H ) :   0.9630
B( 43-C , 62-H ) :   0.9551

-----------------------------------------------------------------------------
         ABSORPTION SPECTRUM VIA TRANSITION ELECTRIC DIPOLE MOMENTS
-----------------------------------------------------------------------------
State   Energy  Wavelength   fosc         T2         TX        TY        TZ
        (cm-1)    (nm)                  (au**2)     (au)      (au)      (au)
-----------------------------------------------------------------------------
   0   18552.1    539.0   0.011032552   0.19578   0.05109  -0.01641  -0.43920
   1   20297.3    492.7   0.820803502  13.31305  -0.25678   3.63859   0.08801
   2   21522.6    464.6   0.008145060   0.12459   0.13351  -0.22809  -0.23397
   3   21960.3    455.4   0.505080197   7.57176   0.46657  -0.67520  -2.62644
   4   23952.1    417.5   0.201893628   2.77495  -0.21982   1.64108   0.18300
   5   25035.6    399.4   0.019331309   0.25420   0.00075  -0.49313   0.10500
   6   25887.5    386.3   0.037748779   0.48005   0.15348  -0.66222  -0.13403
   7   27320.7    366.0   0.036140823   0.43549   0.07625   0.65549  -0.00325
   8   28352.1    352.7   0.006089284   0.07071  -0.18822  -0.15422  -0.10722
   9   29323.2    341.0   0.002001443   0.02247   0.03314  -0.07836   0.12342
  10   30271.4    330.3   0.041198694   0.44805  -0.04394   0.02710   0.66737
  11   30905.0    323.6   0.000042876   0.00046  -0.01076   0.01561   0.00986
  12   31397.3    318.5   0.045596778   0.47810  -0.19526   0.29573   0.59373
  13   31647.3    316.0   0.001523136   0.01584   0.01060  -0.05553  -0.11247
  14   31713.5    315.3   0.035105203   0.36442   0.08887  -0.42575  -0.41864
  15   31974.9    312.7   0.017032953   0.17537  -0.08131   0.14173  -0.38558
  16   32710.7    305.7   0.435341534   4.38142   0.33383   0.60080  -1.97712
  17   32957.5    303.4   0.235986261   2.35726  -0.23464   1.38900   0.61064
  18   33313.6    300.2   0.001115171   0.01102   0.01024   0.06493  -0.08185
  19   33955.5    294.5   0.001130060   0.01096  -0.03616   0.05751  -0.07963
  20   34271.2    291.8   0.057788125   0.55512  -0.02880   0.70902   0.22711
  21   35956.1    278.1   0.179967335   1.64777  -0.30542   0.26384  -1.21856
  22   36310.8    275.4   0.013200445   0.11968  -0.00416  -0.24281   0.24639
  23   36600.8    273.2   0.083640778   0.75232   0.32437  -0.45412   0.66399
  24   37571.7    266.2   0.104279965   0.91373   0.25939  -0.89760   0.20191
  25   38603.4    259.0   0.167727609   1.43039   0.31377  -1.11432  -0.30039
  26   38699.4    258.4   0.269175104   2.28985   0.18605  -1.49078  -0.18117
  27   39022.8    256.3   0.003866777   0.03262  -0.08574   0.10523   0.11915
  28   39178.0    255.2   0.139475186   1.17201   0.61718  -0.66290  -0.59301

FINAL SINGLE POINT ENERGY     -2277.112361368773

DIPOLE MOMENT
-------------
                                X             Y             Z
Electronic contribution:      8.14360     -22.60096     -17.31232
Nuclear contribution   :     -9.37653      24.44756      17.49583
                        -----------------------------------------
Total Dipole Moment    :     -1.23293       1.84660       0.18351
                        -----------------------------------------
Magnitude (a.u.)       :      2.22794
Magnitude (Debye)      :      5.66297

Rotational constants in cm-1:     0.003061     0.001173     0.000901
Rotational constants in MHz :    91.775337    35.150930    27.025104

                             ****ORCA TERMINATED NORMALLY****
TOTAL RUN TIME: 0 days 0 hours 3 minutes 50 seconds 459 msec
