                         Program Version 4.2.0 -  RELEASE  -
|  1> # ORCA input file
|  2> # SCF done       -124.824299500646          0.000835344089
|  3> ! CAM-B3LYP def2-SVP def2/J RIJCOSX Grid4 TightSCF
|  4> %maxcore 5000
|  5> %tddft
|  6>     Mode sTDDFT
|  7>     Ethresh 5.0
|  8>     maxcore 5000
|  9> end
| 10>
| 11> %pal
| 12>   nprocs 6
| 13>   end
| 14> * xyz 0 1
| 15>    C        6.81234        -8.58113        -4.08548
| 16>    C        5.80119        -9.37333        -3.72804
| 17>    C        7.26473        -7.50547        -3.30984
| 18>    C        7.66631        -6.57634        -2.64022
| 19>    C        8.12318        -5.51816        -1.86508
| 20>    C        9.18872        -4.75487        -2.22060
| 21>    C        9.68604        -3.68407        -1.44653
| 22>    C        9.23731        -3.17553        -0.21739
| 23>    C       10.02566        -2.08324         0.26797
| 24>    N        9.72815        -1.48239         1.43337
| 25>    C        8.69344        -1.94829         2.08049
| 26>    C        7.90265        -3.02790         1.60886
| 27>    C        6.72967        -3.51238         2.39512
| 28>    N        8.17597        -3.62963         0.47627
| 29>    C       11.08956        -1.73603        -0.58771
| 30>    S       11.07361        -2.78240        -1.97616
| 31>    C       12.06593        -0.73959        -0.46157
| 32>    C       12.16083         0.09849         0.61778
| 33>    C       13.12947         1.10128         0.74209
| 34>    C       14.15278         1.49459        -0.14556
| 35>    C       14.93498         2.58930         0.33805
| 36>    N       15.94823         3.08811        -0.39144
| 37>    C       16.16988         2.51663        -1.54595
| 38>    C       15.40513         1.42759        -2.03303
| 39>    C       15.71095         0.80822        -3.35636
| 40>    N       14.40901         0.92959        -1.33690
| 41>    C       14.53375         3.04900         1.60957
| 42>    S       13.18455         2.10184         2.16481
| 43>    C       15.04725         4.08244         2.40193
| 44>    C       16.06720         4.90989         2.01386
| 45>    C       16.57214         5.94113         2.81736
| 46>    C       16.23431         6.31495         4.13213
| 47>    C       16.98289         7.43932         4.60234
| 48>    N       16.79512         7.93656         5.84135
| 49>    C       15.90056         7.32901         6.57110
| 50>    C       15.15381         6.20802         6.11914
| 51>    C       14.14953         5.55362         7.00891
| 52>    N       15.32231         5.71354         4.91524
| 53>    C       17.89319         7.94378         3.66492
| 54>    S       17.81321         7.00116         2.21017
| 55>    C       18.74562         9.05472         3.85396
| 56>    C       19.58379         9.54984         2.91779
| 57>    C       20.45896        10.69086         3.08863
| 58>    C       20.69216        11.32355         4.25410
| 59>    C       21.10290        11.14146         1.90844
| 60>    C       21.63340        11.51817         0.89101
| 61>    C       22.26663        11.97431        -0.27906
| 62>    C       22.02085        11.47565        -1.48707
| 63>    H        7.34082        -8.74185        -5.01775
| 64>    H        5.26878        -9.22320        -2.80428
| 65>    H        5.47983       -10.19141        -4.34925
| 66>    H        7.60213        -5.30835        -0.94123
| 67>    H        9.71125        -4.96322        -3.14563
| 68>    H        8.45624        -1.46198         3.01766
| 69>    H        6.03686        -2.69313         2.58094
| 70>    H        7.05955        -3.89935         3.35862
| 71>    H        6.22022        -4.30075         1.84850
| 72>    H       12.78183        -0.63671        -1.26447
| 73>    H       11.45135        -0.01160         1.42562
| 74>    H       16.98586         2.92086        -2.13059
| 75>    H       16.72835         0.41986        -3.36219
| 76>    H       15.63045         1.55212        -4.14744
| 77>    H       15.01520        -0.00267        -3.55170
| 78>    H       14.59932         4.23341         3.37381
| 79>    H       16.50662         4.77586         1.03569
| 80>    H       15.74532         7.72293         7.56711
| 81>    H       14.62903         5.20186         7.92122
| 82>    H       13.69527         4.71260         6.49309
| 83>    H       13.37513         6.26616         7.28936
| 84>    H       18.66465         9.50513         4.83349
| 85>    H       19.60831         9.07975         1.94192
| 86>    H       20.23521        11.00993         5.17503
| 87>    H       21.35649        12.16875         4.30108
| 88>    H       22.98099        12.77742        -0.14012
| 89>    H       21.31031        10.67933        -1.63416
| 90>    H       22.52110        11.85014        -2.36366
| 91> *
| 92>
| 93>                          ****END OF INPUT****

CARTESIAN COORDINATES (ANGSTROEM)
---------------------------------
  C      6.812340   -8.581130   -4.085480
  C      5.801190   -9.373330   -3.728040
  C      7.264730   -7.505470   -3.309840
  C      7.666310   -6.576340   -2.640220
  C      8.123180   -5.518160   -1.865080
  C      9.188720   -4.754870   -2.220600
  C      9.686040   -3.684070   -1.446530
  C      9.237310   -3.175530   -0.217390
  C     10.025660   -2.083240    0.267970
  N      9.728150   -1.482390    1.433370
  C      8.693440   -1.948290    2.080490
  C      7.902650   -3.027900    1.608860
  C      6.729670   -3.512380    2.395120
  N      8.175970   -3.629630    0.476270
  C     11.089560   -1.736030   -0.587710
  S     11.073610   -2.782400   -1.976160
  C     12.065930   -0.739590   -0.461570
  C     12.160830    0.098490    0.617780
  C     13.129470    1.101280    0.742090
  C     14.152780    1.494590   -0.145560
  C     14.934980    2.589300    0.338050
  N     15.948230    3.088110   -0.391440
  C     16.169880    2.516630   -1.545950
  C     15.405130    1.427590   -2.033030
  C     15.710950    0.808220   -3.356360
  N     14.409010    0.929590   -1.336900
  C     14.533750    3.049000    1.609570
  S     13.184550    2.101840    2.164810
  C     15.047250    4.082440    2.401930
  C     16.067200    4.909890    2.013860
  C     16.572140    5.941130    2.817360
  C     16.234310    6.314950    4.132130
  C     16.982890    7.439320    4.602340
  N     16.795120    7.936560    5.841350
  C     15.900560    7.329010    6.571100
  C     15.153810    6.208020    6.119140
  C     14.149530    5.553620    7.008910
  N     15.322310    5.713540    4.915240
  C     17.893190    7.943780    3.664920
  S     17.813210    7.001160    2.210170
  C     18.745620    9.054720    3.853960
  C     19.583790    9.549840    2.917790
  C     20.458960   10.690860    3.088630
  C     20.692160   11.323550    4.254100
  C     21.102900   11.141460    1.908440
  C     21.633400   11.518170    0.891010
  C     22.266630   11.974310   -0.279060
  C     22.020850   11.475650   -1.487070
  H      7.340820   -8.741850   -5.017750
  H      5.268780   -9.223200   -2.804280
  H      5.479830  -10.191410   -4.349250
  H      7.602130   -5.308350   -0.941230
  H      9.711250   -4.963220   -3.145630
  H      8.456240   -1.461980    3.017660
  H      6.036860   -2.693130    2.580940
  H      7.059550   -3.899350    3.358620
  H      6.220220   -4.300750    1.848500
  H     12.781830   -0.636710   -1.264470
  H     11.451350   -0.011600    1.425620
  H     16.985860    2.920860   -2.130590
  H     16.728350    0.419860   -3.362190
  H     15.630450    1.552120   -4.147440
  H     15.015200   -0.002670   -3.551700
  H     14.599320    4.233410    3.373810
  H     16.506620    4.775860    1.035690
  H     15.745320    7.722930    7.567110
  H     14.629030    5.201860    7.921220
  H     13.695270    4.712600    6.493090
  H     13.375130    6.266160    7.289360
  H     18.664650    9.505130    4.833490
  H     19.608310    9.079750    1.941920
  H     20.235210   11.009930    5.175030
  H     21.356490   12.168750    4.301080
  H     22.980990   12.777420   -0.140120
  H     21.310310   10.679330   -1.634160
  H     22.521100   11.850140   -2.363660

 Total Charge           Charge          ....    0
 Multiplicity           Mult            ....    1
 Number of Electrons    NEL             ....  352
 Basis Dimension        Dim             ....  824

ORBITAL ENERGIES
----------------

  NO   OCC          E(Eh)            E(eV)
   0   2.0000     -88.963715     -2420.8258
   1   2.0000     -88.963300     -2420.8145
   2   2.0000     -88.963283     -2420.8140
   3   2.0000     -14.423343      -392.4791
   4   2.0000     -14.422604      -392.4590
   5   2.0000     -14.421292      -392.4233
   6   2.0000     -14.416959      -392.3054
   7   2.0000     -14.415827      -392.2746
   8   2.0000     -14.414846      -392.2479
   9   2.0000     -10.320453      -280.8338
  10   2.0000     -10.319608      -280.8108
  11   2.0000     -10.318962      -280.7932
  12   2.0000     -10.312859      -280.6272
  13   2.0000     -10.311854      -280.5998
  14   2.0000     -10.311428      -280.5882
  15   2.0000     -10.305849      -280.4364
  16   2.0000     -10.305134      -280.4169
  17   2.0000     -10.304363      -280.3960
  18   2.0000     -10.303806      -280.3808
  19   2.0000     -10.303445      -280.3710
  20   2.0000     -10.303157      -280.3632
  21   2.0000     -10.301724      -280.3242
  22   2.0000     -10.301206      -280.3101
  23   2.0000     -10.300724      -280.2970
  24   2.0000     -10.298759      -280.2435
  25   2.0000     -10.298698      -280.2418
  26   2.0000     -10.296832      -280.1910
  27   2.0000     -10.288889      -279.9749
  28   2.0000     -10.283250      -279.8215
  29   2.0000     -10.278240      -279.6851
  30   2.0000     -10.277053      -279.6528
  31   2.0000     -10.274704      -279.5889
  32   2.0000     -10.269691      -279.4525
  33   2.0000     -10.269593      -279.4498
  34   2.0000     -10.269052      -279.4351
  35   2.0000     -10.269024      -279.4343
  36   2.0000     -10.268777      -279.4276
  37   2.0000     -10.268647      -279.4241
  38   2.0000     -10.267929      -279.4046
  39   2.0000     -10.267833      -279.4019
  40   2.0000     -10.267533      -279.3938
  41   2.0000     -10.267161      -279.3837
  42   2.0000     -10.262988      -279.2701
  43   2.0000     -10.262354      -279.2528
  44   2.0000     -10.258753      -279.1549
  45   2.0000     -10.256343      -279.0893
  46   2.0000     -10.253496      -279.0118
  47   2.0000     -10.250999      -278.9439
  48   2.0000      -8.058732      -219.2892
  49   2.0000      -8.058297      -219.2774
  50   2.0000      -8.058161      -219.2737
  51   2.0000      -6.027561      -164.0183
  52   2.0000      -6.027140      -164.0068
  53   2.0000      -6.026995      -164.0029
  54   2.0000      -6.023706      -163.9134
  55   2.0000      -6.023276      -163.9017
  56   2.0000      -6.023159      -163.8985
  57   2.0000      -6.021632      -163.8569
  58   2.0000      -6.021157      -163.8440
  59   2.0000      -6.021022      -163.8404
  60   2.0000      -1.075641       -29.2697
  61   2.0000      -1.074071       -29.2270
  62   2.0000      -1.073892       -29.2221
  63   2.0000      -1.000014       -27.2118
  64   2.0000      -0.998597       -27.1732
  65   2.0000      -0.998409       -27.1681
  66   2.0000      -0.976113       -26.5614
  67   2.0000      -0.974179       -26.5087
  68   2.0000      -0.971731       -26.4422
  69   2.0000      -0.917346       -24.9622
  70   2.0000      -0.902065       -24.5464
  71   2.0000      -0.892950       -24.2984
  72   2.0000      -0.882884       -24.0245
  73   2.0000      -0.878374       -23.9018
  74   2.0000      -0.870254       -23.6808
  75   2.0000      -0.868800       -23.6412
  76   2.0000      -0.867457       -23.6047
  77   2.0000      -0.865399       -23.5487
  78   2.0000      -0.849943       -23.1281
  79   2.0000      -0.829231       -22.5645
  80   2.0000      -0.811415       -22.0797
  81   2.0000      -0.802747       -21.8439
  82   2.0000      -0.797362       -21.6973
  83   2.0000      -0.795115       -21.6362
  84   2.0000      -0.792411       -21.5626
  85   2.0000      -0.778070       -21.1724
  86   2.0000      -0.762718       -20.7546
  87   2.0000      -0.742659       -20.2088
  88   2.0000      -0.740435       -20.1483
  89   2.0000      -0.736500       -20.0412
  90   2.0000      -0.731407       -19.9026
  91   2.0000      -0.713847       -19.4248
  92   2.0000      -0.710108       -19.3230
  93   2.0000      -0.708701       -19.2847
  94   2.0000      -0.693123       -18.8608
  95   2.0000      -0.677466       -18.4348
  96   2.0000      -0.669222       -18.2104
  97   2.0000      -0.658093       -17.9076
  98   2.0000      -0.643937       -17.5224
  99   2.0000      -0.641444       -17.4546
 100   2.0000      -0.637956       -17.3597
 101   2.0000      -0.629792       -17.1375
 102   2.0000      -0.620751       -16.8915
 103   2.0000      -0.617930       -16.8147
 104   2.0000      -0.612980       -16.6800
 105   2.0000      -0.599433       -16.3114
 106   2.0000      -0.595612       -16.2074
 107   2.0000      -0.582851       -15.8602
 108   2.0000      -0.575829       -15.6691
 109   2.0000      -0.571580       -15.5535
 110   2.0000      -0.566631       -15.4188
 111   2.0000      -0.556727       -15.1493
 112   2.0000      -0.546489       -14.8707
 113   2.0000      -0.545149       -14.8343
 114   2.0000      -0.541907       -14.7460
 115   2.0000      -0.537703       -14.6316
 116   2.0000      -0.537214       -14.6183
 117   2.0000      -0.536087       -14.5877
 118   2.0000      -0.535814       -14.5802
 119   2.0000      -0.534599       -14.5472
 120   2.0000      -0.521081       -14.1793
 121   2.0000      -0.517408       -14.0794
 122   2.0000      -0.514488       -13.9999
 123   2.0000      -0.510044       -13.8790
 124   2.0000      -0.503516       -13.7014
 125   2.0000      -0.498131       -13.5548
 126   2.0000      -0.497364       -13.5340
 127   2.0000      -0.496112       -13.4999
 128   2.0000      -0.494730       -13.4623
 129   2.0000      -0.486883       -13.2488
 130   2.0000      -0.484753       -13.1908
 131   2.0000      -0.475832       -12.9481
 132   2.0000      -0.473899       -12.8955
 133   2.0000      -0.472923       -12.8689
 134   2.0000      -0.470751       -12.8098
 135   2.0000      -0.467449       -12.7199
 136   2.0000      -0.459397       -12.5008
 137   2.0000      -0.456533       -12.4229
 138   2.0000      -0.453428       -12.3384
 139   2.0000      -0.447956       -12.1895
 140   2.0000      -0.445364       -12.1190
 141   2.0000      -0.444369       -12.0919
 142   2.0000      -0.442794       -12.0490
 143   2.0000      -0.442536       -12.0420
 144   2.0000      -0.441197       -12.0056
 145   2.0000      -0.440462       -11.9856
 146   2.0000      -0.440305       -11.9813
 147   2.0000      -0.430491       -11.7143
 148   2.0000      -0.427344       -11.6286
 149   2.0000      -0.421870       -11.4797
 150   2.0000      -0.421034       -11.4569
 151   2.0000      -0.418634       -11.3916
 152   2.0000      -0.417050       -11.3485
 153   2.0000      -0.412556       -11.2262
 154   2.0000      -0.412501       -11.2247
 155   2.0000      -0.389982       -10.6120
 156   2.0000      -0.383670       -10.4402
 157   2.0000      -0.382035       -10.3957
 158   2.0000      -0.379534       -10.3277
 159   2.0000      -0.378521       -10.3001
 160   2.0000      -0.370327       -10.0771
 161   2.0000      -0.355130        -9.6636
 162   2.0000      -0.333327        -9.0703
 163   2.0000      -0.331829        -9.0295
 164   2.0000      -0.325384        -8.8542
 165   2.0000      -0.319626        -8.6975
 166   2.0000      -0.317833        -8.6487
 167   2.0000      -0.316747        -8.6191
 168   2.0000      -0.316415        -8.6101
 169   2.0000      -0.312370        -8.5000
 170   2.0000      -0.307145        -8.3578
 171   2.0000      -0.305913        -8.3243
 172   2.0000      -0.283219        -7.7068
 173   2.0000      -0.267570        -7.2809
 174   2.0000      -0.236067        -6.4237
 175   2.0000      -0.198713        -5.4073
 176   0.0000      -0.089244        -2.4284
 177   0.0000      -0.059103        -1.6083
 178   0.0000      -0.040611        -1.1051
 179   0.0000      -0.014951        -0.4069
 180   0.0000      -0.007814        -0.2126

MULLIKEN ATOMIC CHARGES
-----------------------
   0 C :   -0.088166
   1 C :   -0.001329
   2 C :   -0.046093
   3 C :    0.067460
   4 C :   -0.083128
   5 C :    0.028506
   6 C :   -0.169240
   7 C :    0.057473
   8 C :    0.023804
   9 N :    0.003606
  10 C :    0.019085
  11 C :   -0.144872
  12 C :    0.105050
  13 N :   -0.006783
  14 C :   -0.137367
  15 S :    0.176484
  16 C :    0.007265
  17 C :    0.015670
  18 C :   -0.148251
  19 C :    0.051291
  20 C :    0.028054
  21 N :    0.001487
  22 C :    0.021049
  23 C :   -0.142045
  24 C :    0.100981
  25 N :   -0.005361
  26 C :   -0.140381
  27 S :    0.179220
  28 C :    0.015375
  29 C :    0.013520
  30 C :   -0.147103
  31 C :    0.065560
  32 C :    0.020007
  33 N :   -0.000491
  34 C :    0.015798
  35 C :   -0.145925
  36 C :    0.105556
  37 N :   -0.005516
  38 C :   -0.151142
  39 S :    0.168027
  40 C :    0.027242
  41 C :    0.002743
  42 C :   -0.036546
  43 C :   -0.009036
  44 C :    0.033969
  45 C :   -0.058981
  46 C :   -0.087688
  47 C :    0.002693
  48 H :    0.024620
  49 H :    0.027128
  50 H :    0.025456
  51 H :    0.034297
  52 H :   -0.018991
  53 H :   -0.006191
  54 H :    0.030368
  55 H :    0.032457
  56 H :    0.031513
  57 H :   -0.018575
  58 H :   -0.017985
  59 H :   -0.004317
  60 H :    0.032487
  61 H :    0.032734
  62 H :    0.029986
  63 H :   -0.020097
  64 H :   -0.018802
  65 H :   -0.003493
  66 H :    0.030791
  67 H :    0.028038
  68 H :    0.031309
  69 H :   -0.003077
  70 H :   -0.007725
  71 H :    0.017474
  72 H :    0.024094
  73 H :    0.029016
  74 H :    0.028479
  75 H :    0.027473
Sum of atomic charges:    0.0000000

LOEWDIN ATOMIC CHARGES
----------------------
   0 C :   -0.041953
   1 C :   -0.021435
   2 C :   -0.048433
   3 C :   -0.035772
   4 C :   -0.039198
   5 C :   -0.024589
   6 C :   -0.193621
   7 C :   -0.040532
   8 C :   -0.052664
   9 N :   -0.025797
  10 C :   -0.000600
  11 C :   -0.004216
  12 C :   -0.052579
  13 N :   -0.044493
  14 C :   -0.172042
  15 S :    0.487505
  16 C :   -0.044365
  17 C :   -0.034294
  18 C :   -0.183947
  19 C :   -0.041469
  20 C :   -0.049803
  21 N :   -0.026727
  22 C :    0.001858
  23 C :   -0.005959
  24 C :   -0.053015
  25 N :   -0.043699
  26 C :   -0.176353
  27 S :    0.487943
  28 C :   -0.037920
  29 C :   -0.037459
  30 C :   -0.174006
  31 C :   -0.048271
  32 C :   -0.050732
  33 N :   -0.033860
  34 C :    0.002353
  35 C :   -0.008079
  36 C :   -0.052749
  37 N :   -0.044553
  38 C :   -0.184539
  39 S :    0.486904
  40 C :   -0.019383
  41 C :   -0.025619
  42 C :   -0.044878
  43 C :   -0.015000
  44 C :   -0.026342
  45 C :   -0.042372
  46 C :   -0.041164
  47 C :   -0.016789
  48 H :    0.040429
  49 H :    0.027415
  50 H :    0.024515
  51 H :    0.038437
  52 H :    0.030403
  53 H :    0.022703
  54 H :    0.038659
  55 H :    0.040152
  56 H :    0.039008
  57 H :    0.025332
  58 H :    0.026587
  59 H :    0.023456
  60 H :    0.039703
  61 H :    0.039558
  62 H :    0.038045
  63 H :    0.025701
  64 H :    0.026337
  65 H :    0.023246
  66 H :    0.038917
  67 H :    0.037489
  68 H :    0.039198
  69 H :    0.037332
  70 H :    0.024217
  71 H :    0.022301
  72 H :    0.029280
  73 H :    0.042169
  74 H :    0.028138
  75 H :    0.025978

  Mayer bond orders larger than 0.100000
B(  0-C ,  1-C ) :   1.9272 B(  0-C ,  2-C ) :   1.0160 B(  0-C , 48-H ) :   0.9619
B(  1-C , 49-H ) :   0.9627 B(  1-C , 50-H ) :   0.9559 B(  2-C ,  3-C ) :   2.2828
B(  3-C ,  4-C ) :   0.9783 B(  4-C ,  5-C ) :   1.6941 B(  4-C , 51-H ) :   0.9384
B(  5-C ,  6-C ) :   1.1736 B(  5-C , 52-H ) :   0.9546 B(  6-C ,  7-C ) :   1.3205
B(  6-C , 14-C ) :   0.1195 B(  6-C , 15-S ) :   1.1357 B(  7-C ,  8-C ) :   1.2219
B(  7-C , 13-N ) :   1.3909 B(  8-C ,  9-N ) :   1.4114 B(  8-C , 14-C ) :   1.2794
B(  9-N , 10-C ) :   1.6976 B( 10-C , 11-C ) :   1.1674 B( 10-C , 53-H ) :   0.9800
B( 11-C , 12-C ) :   1.0482 B( 11-C , 13-N ) :   1.6933 B( 12-C , 54-H ) :   0.9534
B( 12-C , 55-H ) :   0.9518 B( 12-C , 56-H ) :   0.9534 B( 14-C , 15-S ) :   1.1681
B( 14-C , 16-C ) :   1.1971 B( 16-C , 17-C ) :   1.6046 B( 16-C , 57-H ) :   0.9381
B( 17-C , 18-C ) :   1.1998 B( 17-C , 58-H ) :   0.9366 B( 18-C , 19-C ) :   1.2816
B( 18-C , 26-C ) :   0.1199 B( 18-C , 27-S ) :   1.1452 B( 19-C , 20-C ) :   1.2252
B( 19-C , 25-N ) :   1.4067 B( 20-C , 21-N ) :   1.4145 B( 20-C , 26-C ) :   1.2778
B( 21-N , 22-C ) :   1.6920 B( 22-C , 23-C ) :   1.1761 B( 22-C , 59-H ) :   0.9802
B( 23-C , 24-C ) :   1.0479 B( 23-C , 25-N ) :   1.6794 B( 24-C , 60-H ) :   0.9532
B( 24-C , 61-H ) :   0.9529 B( 24-C , 62-H ) :   0.9541 B( 26-C , 27-S ) :   1.1568
B( 26-C , 28-C ) :   1.2027 B( 28-C , 29-C ) :   1.6015 B( 28-C , 63-H ) :   0.9361
B( 29-C , 30-C ) :   1.1956 B( 29-C , 64-H ) :   0.9394 B( 30-C , 31-C ) :   1.2911
B( 30-C , 38-C ) :   0.1239 B( 30-C , 39-S ) :   1.1558 B( 31-C , 32-C ) :   1.2129
B( 31-C , 37-N ) :   1.3943 B( 32-C , 33-N ) :   1.4104 B( 32-C , 38-C ) :   1.3222
B( 33-N , 34-C ) :   1.7208 B( 34-C , 35-C ) :   1.1619 B( 34-C , 65-H ) :   0.9797
B( 35-C , 36-C ) :   1.0482 B( 35-C , 37-N ) :   1.6942 B( 36-C , 66-H ) :   0.9530
B( 36-C , 67-H ) :   0.9537 B( 36-C , 68-H ) :   0.9524 B( 38-C , 39-S ) :   1.1347
B( 38-C , 40-C ) :   1.2109 B( 40-C , 41-C ) :   1.6470 B( 40-C , 69-H ) :   0.9679
B( 41-C , 42-C ) :   1.0785 B( 41-C , 70-H ) :   0.9774 B( 42-C , 43-C ) :   1.8891
B( 42-C , 44-C ) :   0.9045 B( 43-C , 71-H ) :   0.9397 B( 43-C , 72-H ) :   0.9458
B( 44-C , 45-C ) :   2.4246 B( 45-C , 46-C ) :   0.9974 B( 46-C , 47-C ) :   1.9457
B( 46-C , 73-H ) :   0.9634 B( 47-C , 74-H ) :   0.9630 B( 47-C , 75-H ) :   0.9552

-----------------------------------------------------------------------------
         ABSORPTION SPECTRUM VIA TRANSITION ELECTRIC DIPOLE MOMENTS
-----------------------------------------------------------------------------
State   Energy  Wavelength   fosc         T2         TX        TY        TZ
        (cm-1)    (nm)                  (au**2)     (au)      (au)      (au)
-----------------------------------------------------------------------------
   0   10663.9    937.7   1.631528419  50.36808  -3.99245  -5.46484  -2.13634
   1   16319.0    612.8   0.006339040   0.12788   0.31418   0.13734  -0.10153
   2   18094.4    552.7   0.059993955   1.09154  -0.60196  -0.82443  -0.22249
   3   18944.6    527.9   0.001662737   0.02889  -0.05810   0.12270   0.10230
   4   24349.7    410.7   0.055306806   0.74776   0.55116   0.61972   0.24478
   5   25962.1    385.2   0.515066819   6.53129   1.43601   1.98160   0.73649
   6   26499.5    377.4   0.008306007   0.10319   0.00694  -0.26294  -0.18440
   7   26650.8    375.2   0.000881770   0.01089   0.06509   0.06909   0.04338
   8   27525.2    363.3   0.001762280   0.02108   0.01636  -0.14183   0.02634
   9   27700.5    361.0   0.551838804   6.55845   1.37893   2.04828   0.67939
  10   28254.4    353.9   0.009244392   0.10771   0.21600  -0.20988   0.13042
  11   28795.9    347.3   0.027859905   0.31851   0.39558   0.23524  -0.32664
  12   28922.8    345.7   0.205386668   2.33780   0.56670  -0.34057  -1.37865
  13   29602.5    337.8   0.015654737   0.17410   0.16855   0.23200   0.30309
  14   30609.3    326.7   0.012108292   0.13023   0.27069  -0.00480  -0.23861
  15   32553.3    307.2   0.114800182   1.16097  -0.38773   0.22955   0.97875
  16   33807.2    295.8   0.012866828   0.12530   0.20366   0.20161  -0.20778
  17   33947.1    294.6   0.074104131   0.71865   0.36428  -0.07382  -0.76190
  18   34392.7    290.8   0.054824952   0.52479   0.51285   0.12063  -0.49722
  19   34957.7    286.1   0.216495876   2.03884  -0.71547   0.30383   1.19776
  20   35086.6    285.0   0.035053571   0.32890   0.25280  -0.04585  -0.51273
  21   36137.8    276.7   0.073953662   0.67371  -0.28750   0.16042   0.75188
  22   36726.3    272.3   0.441640242   3.95883   1.23608   0.63894  -1.42221
  23   36873.7    271.2   0.003968884   0.03543   0.16184   0.06285  -0.07273
  24   36986.6    270.4   0.003548317   0.03158  -0.16243  -0.07166  -0.00798
  25   37271.6    268.3   0.164206241   1.45040   0.64049   0.95346   0.36207
  26   37392.9    267.4   0.000772401   0.00680   0.06513   0.00102   0.05057
  27   37727.6    265.1   0.002643467   0.02307  -0.07328   0.08729  -0.10038
  28   38006.7    263.1   0.118018381   1.02227   0.50193   0.22985  -0.84706
  29   38400.7    260.4   0.001528112   0.01310   0.01652   0.11243  -0.01369
  30   38757.4    258.0   0.000337831   0.00287  -0.00654  -0.01560   0.05083
  31   38820.1    257.6   0.001154820   0.00979   0.07417  -0.04228  -0.05005
  32   38993.2    256.5   0.053075884   0.44811   0.33376   0.04993  -0.57812
  33   39705.3    251.9   0.002218737   0.01840  -0.02755   0.06856   0.11374

FINAL SINGLE POINT ENERGY     -3023.145325763250

DIPOLE MOMENT
-------------
                                X             Y             Z
Electronic contribution:      2.97430       1.25282       1.75988
Nuclear contribution   :     -3.10541      -1.14087      -1.34269
                        -----------------------------------------
Total Dipole Moment    :     -0.13112       0.11195       0.41719
                        -----------------------------------------
Magnitude (a.u.)       :      0.45141
Magnitude (Debye)      :      1.14740

Rotational constants in cm-1:     0.004219     0.000461     0.000417
Rotational constants in MHz :   126.473774    13.826251    12.515494

                             ****ORCA TERMINATED NORMALLY****
TOTAL RUN TIME: 0 days 0 hours 4 minutes 54 seconds 709 msec
