                         Program Version 4.2.0 -  RELEASE  -
|  1> # ORCA input file
|  2> # SCF done       -145.084851503376          0.000379784768
|  3> ! CAM-B3LYP def2-SVP def2/J RIJCOSX Grid4 TightSCF
|  4> %maxcore 5000
|  5> %tddft
|  6>     Mode sTDDFT
|  7>     Ethresh 5.0
|  8>     maxcore 5000
|  9> end
| 10>
| 11> %pal
| 12>   nprocs 6
| 13>   end
| 14> * xyz 0 1
| 15>    C       -0.70920        -1.03533        -2.56077
| 16>    S       -1.97350        -0.52647        -1.54081
| 17>    C       -1.54607        -1.65896        -0.31971
| 18>    C       -0.43882        -2.41372        -0.69573
| 19>    C        0.04411        -2.04881        -2.00061
| 20>    C        1.16349        -2.71522        -2.54435
| 21>    C        1.77554        -3.70574        -1.81967
| 22>    C        2.89707        -4.38457        -2.34922
| 23>    N        3.80723        -4.92379        -2.78999
| 24>    C        1.29408        -4.06470        -0.51620
| 25>    C        1.93588        -5.09159         0.21227
| 26>    N        2.42575        -5.92393         0.82997
| 27>    C        0.21141        -3.42561         0.03347
| 28>    C       -2.32539        -1.69877         0.89130
| 29>    N       -3.29437        -0.78279         0.98394
| 30>    C       -4.01154        -0.79036         2.09426
| 31>    C       -3.78322        -1.68975         3.11879
| 32>    C       -2.75375        -2.62727         2.93027
| 33>    N       -2.03306        -2.61514         1.80349
| 34>    C       -2.44106        -3.61264         3.93254
| 35>    C       -1.55114        -4.60560         3.70088
| 36>    C       -1.11940        -5.64367         4.55848
| 37>    S       -0.27930        -6.96646         3.81885
| 38>    C       -0.08304        -7.82076         5.31080
| 39>    C       -0.67857        -7.10463         6.36524
| 40>    C       -1.23632        -5.85678         5.94480
| 41>    C       -1.76988        -4.99163         6.91328
| 42>    C       -1.84168        -5.36271         8.23623
| 43>    C       -2.36682        -4.43258         9.23388
| 44>    C       -3.32050        -3.53819         9.01035
| 45>    C       -1.39680        -6.65758         8.63252
| 46>    C       -1.56111        -7.10776        10.05171
| 47>    C       -0.82514        -7.49244         7.71066
| 48>    C        0.62991        -9.04401         5.26470
| 49>    C        1.21639        -9.69228         6.30209
| 50>    C        1.91806       -10.92174         6.17945
| 51>    S        2.72453       -11.58113         7.58360
| 52>    C        3.28717       -12.96344         6.69403
| 53>    C        2.84851       -12.90180         5.36458
| 54>    C        2.08717       -11.75122         5.09423
| 55>    C        3.12523       -13.90908         4.35387
| 56>    O        3.74684       -14.93464         4.50650
| 57>    C        4.08040       -13.97967         7.26915
| 58>    C        4.51674       -13.96790         8.55455
| 59>    C        5.32031       -14.94386         9.19176
| 60>    S        6.09969       -14.48257        10.67649
| 61>    C        6.89061       -15.97833        10.83626
| 62>    C        6.57080       -16.84456         9.81108
| 63>    C        5.65594       -16.26627         8.85979
| 64>    C        5.18132       -17.06722         7.80468
| 65>    C        5.62720       -18.36130         7.67345
| 66>    C        5.13767       -19.17905         6.62943
| 67>    N        4.73326       -19.84620         5.79003
| 68>    C        6.57476       -18.91462         8.59471
| 69>    C        7.01839       -20.24631         8.42090
| 70>    N        7.39189       -21.32297         8.30201
| 71>    C        7.03136       -18.16875         9.64902
| 72>    H       -0.56950        -0.57735        -3.51991
| 73>    H        1.53064        -2.44432        -3.52295
| 74>    H       -0.15242        -3.67730         1.01580
| 75>    H       -4.79201        -0.04228         2.15430
| 76>    H       -4.37227        -1.68120         4.02133
| 77>    H       -2.98402        -3.53241         4.86047
| 78>    H       -1.13571        -4.64753         2.70158
| 79>    H       -2.08826        -4.00384         6.62700
| 80>    H       -1.92944        -4.50325        10.22060
| 81>    H       -3.81581        -3.45267         8.05751
| 82>    H       -3.65818        -2.86839         9.78234
| 83>    H       -2.58030        -6.93683        10.39410
| 84>    H       -0.88787        -6.55655        10.70896
| 85>    H       -1.33387        -8.16681        10.14545
| 86>    H       -0.50662        -8.47535         8.01753
| 87>    H        0.75509        -9.45181         4.27002
| 88>    H        1.20575        -9.26090         7.29104
| 89>    H        1.67163       -11.54448         4.12458
| 90>    H        2.69243       -13.65413         3.36775
| 91>    H        4.35682       -14.76913         6.58806
| 92>    H        4.27467       -13.10398         9.16468
| 93>    H        7.54778       -16.15904        11.66325
| 94>    H        4.45305       -16.69389         7.10372
| 95>    H        7.72958       -18.58566        10.35916
| 96> *
| 97>
| 98>                          ****END OF INPUT****

CARTESIAN COORDINATES (ANGSTROEM)
---------------------------------
  C     -0.709200   -1.035330   -2.560770
  S     -1.973500   -0.526470   -1.540810
  C     -1.546070   -1.658960   -0.319710
  C     -0.438820   -2.413720   -0.695730
  C      0.044110   -2.048810   -2.000610
  C      1.163490   -2.715220   -2.544350
  C      1.775540   -3.705740   -1.819670
  C      2.897070   -4.384570   -2.349220
  N      3.807230   -4.923790   -2.789990
  C      1.294080   -4.064700   -0.516200
  C      1.935880   -5.091590    0.212270
  N      2.425750   -5.923930    0.829970
  C      0.211410   -3.425610    0.033470
  C     -2.325390   -1.698770    0.891300
  N     -3.294370   -0.782790    0.983940
  C     -4.011540   -0.790360    2.094260
  C     -3.783220   -1.689750    3.118790
  C     -2.753750   -2.627270    2.930270
  N     -2.033060   -2.615140    1.803490
  C     -2.441060   -3.612640    3.932540
  C     -1.551140   -4.605600    3.700880
  C     -1.119400   -5.643670    4.558480
  S     -0.279300   -6.966460    3.818850
  C     -0.083040   -7.820760    5.310800
  C     -0.678570   -7.104630    6.365240
  C     -1.236320   -5.856780    5.944800
  C     -1.769880   -4.991630    6.913280
  C     -1.841680   -5.362710    8.236230
  C     -2.366820   -4.432580    9.233880
  C     -3.320500   -3.538190    9.010350
  C     -1.396800   -6.657580    8.632520
  C     -1.561110   -7.107760   10.051710
  C     -0.825140   -7.492440    7.710660
  C      0.629910   -9.044010    5.264700
  C      1.216390   -9.692280    6.302090
  C      1.918060  -10.921740    6.179450
  S      2.724530  -11.581130    7.583600
  C      3.287170  -12.963440    6.694030
  C      2.848510  -12.901800    5.364580
  C      2.087170  -11.751220    5.094230
  C      3.125230  -13.909080    4.353870
  O      3.746840  -14.934640    4.506500
  C      4.080400  -13.979670    7.269150
  C      4.516740  -13.967900    8.554550
  C      5.320310  -14.943860    9.191760
  S      6.099690  -14.482570   10.676490
  C      6.890610  -15.978330   10.836260
  C      6.570800  -16.844560    9.811080
  C      5.655940  -16.266270    8.859790
  C      5.181320  -17.067220    7.804680
  C      5.627200  -18.361300    7.673450
  C      5.137670  -19.179050    6.629430
  N      4.733260  -19.846200    5.790030
  C      6.574760  -18.914620    8.594710
  C      7.018390  -20.246310    8.420900
  N      7.391890  -21.322970    8.302010
  C      7.031360  -18.168750    9.649020
  H     -0.569500   -0.577350   -3.519910
  H      1.530640   -2.444320   -3.522950
  H     -0.152420   -3.677300    1.015800
  H     -4.792010   -0.042280    2.154300
  H     -4.372270   -1.681200    4.021330
  H     -2.984020   -3.532410    4.860470
  H     -1.135710   -4.647530    2.701580
  H     -2.088260   -4.003840    6.627000
  H     -1.929440   -4.503250   10.220600
  H     -3.815810   -3.452670    8.057510
  H     -3.658180   -2.868390    9.782340
  H     -2.580300   -6.936830   10.394100
  H     -0.887870   -6.556550   10.708960
  H     -1.333870   -8.166810   10.145450
  H     -0.506620   -8.475350    8.017530
  H      0.755090   -9.451810    4.270020
  H      1.205750   -9.260900    7.291040
  H      1.671630  -11.544480    4.124580
  H      2.692430  -13.654130    3.367750
  H      4.356820  -14.769130    6.588060
  H      4.274670  -13.103980    9.164680
  H      7.547780  -16.159040   11.663250
  H      4.453050  -16.693890    7.103720
  H      7.729580  -18.585660   10.359160

 Total Charge           Charge          ....    0
 Multiplicity           Mult            ....    1
 Number of Electrons    NEL             ....  414
 Basis Dimension        Dim             ....  934

ORBITAL ENERGIES
----------------

  NO   OCC          E(Eh)            E(eV)
   0   2.0000     -88.989575     -2421.5294
   1   2.0000     -88.987153     -2421.4635
   2   2.0000     -88.972317     -2421.0598
   3   2.0000     -88.971268     -2421.0313
   4   2.0000     -19.215655      -522.8846
   5   2.0000     -14.416427      -392.2909
   6   2.0000     -14.415461      -392.2646
   7   2.0000     -14.405872      -392.0037
   8   2.0000     -14.404914      -391.9776
   9   2.0000     -14.404710      -391.9721
  10   2.0000     -14.401332      -391.8802
  11   2.0000     -10.361157      -281.9414
  12   2.0000     -10.358979      -281.8822
  13   2.0000     -10.336412      -281.2681
  14   2.0000     -10.328463      -281.0518
  15   2.0000     -10.327668      -281.0301
  16   2.0000     -10.326680      -281.0032
  17   2.0000     -10.326577      -281.0004
  18   2.0000     -10.326048      -280.9861
  19   2.0000     -10.325174      -280.9623
  20   2.0000     -10.323246      -280.9098
  21   2.0000     -10.318290      -280.7750
  22   2.0000     -10.316951      -280.7385
  23   2.0000     -10.316283      -280.7203
  24   2.0000     -10.316160      -280.7170
  25   2.0000     -10.313228      -280.6372
  26   2.0000     -10.311732      -280.5965
  27   2.0000     -10.311155      -280.5808
  28   2.0000     -10.310303      -280.5576
  29   2.0000     -10.308995      -280.5220
  30   2.0000     -10.306620      -280.4574
  31   2.0000     -10.306425      -280.4521
  32   2.0000     -10.305042      -280.4144
  33   2.0000     -10.303725      -280.3786
  34   2.0000     -10.303372      -280.3690
  35   2.0000     -10.303228      -280.3651
  36   2.0000     -10.303108      -280.3618
  37   2.0000     -10.302865      -280.3552
  38   2.0000     -10.302249      -280.3385
  39   2.0000     -10.299627      -280.2671
  40   2.0000     -10.299030      -280.2508
  41   2.0000     -10.297745      -280.2159
  42   2.0000     -10.295826      -280.1637
  43   2.0000     -10.291549      -280.0473
  44   2.0000     -10.291296      -280.0404
  45   2.0000     -10.290300      -280.0133
  46   2.0000     -10.289789      -279.9994
  47   2.0000     -10.289099      -279.9806
  48   2.0000     -10.288941      -279.9763
  49   2.0000     -10.287865      -279.9470
  50   2.0000     -10.287420      -279.9349
  51   2.0000     -10.281945      -279.7860
  52   2.0000     -10.281422      -279.7717
  53   2.0000     -10.280917      -279.7580
  54   2.0000     -10.279131      -279.7094
  55   2.0000     -10.274707      -279.5890
  56   2.0000     -10.273307      -279.5509
  57   2.0000      -8.085103      -220.0068
  58   2.0000      -8.081683      -219.9138
  59   2.0000      -8.067718      -219.5338
  60   2.0000      -8.066993      -219.5140
  61   2.0000      -6.053884      -164.7346
  62   2.0000      -6.050412      -164.6401
  63   2.0000      -6.049616      -164.6184
  64   2.0000      -6.048403      -164.5854
  65   2.0000      -6.045999      -164.5200
  66   2.0000      -6.045310      -164.5012
  67   2.0000      -6.036517      -164.2620
  68   2.0000      -6.036064      -164.2497
  69   2.0000      -6.032471      -164.1519
  70   2.0000      -6.032131      -164.1426
  71   2.0000      -6.030727      -164.1044
  72   2.0000      -6.029317      -164.0661
  73   2.0000      -1.128028       -30.6952
  74   2.0000      -1.092323       -29.7236
  75   2.0000      -1.020915       -27.7805
  76   2.0000      -1.017920       -27.6990
  77   2.0000      -1.005193       -27.3527
  78   2.0000      -0.999666       -27.2023
  79   2.0000      -0.997306       -27.1381
  80   2.0000      -0.996426       -27.1141
  81   2.0000      -0.989723       -26.9317
  82   2.0000      -0.986036       -26.8314
  83   2.0000      -0.983161       -26.7532
  84   2.0000      -0.957546       -26.0562
  85   2.0000      -0.956073       -26.0161
  86   2.0000      -0.952455       -25.9176
  87   2.0000      -0.926742       -25.2179
  88   2.0000      -0.918783       -25.0014
  89   2.0000      -0.908954       -24.7339
  90   2.0000      -0.893298       -24.3079
  91   2.0000      -0.884518       -24.0690
  92   2.0000      -0.883593       -24.0438
  93   2.0000      -0.876115       -23.8403
  94   2.0000      -0.870882       -23.6979
  95   2.0000      -0.869244       -23.6533
  96   2.0000      -0.866426       -23.5766
  97   2.0000      -0.858114       -23.3505
  98   2.0000      -0.845855       -23.0169
  99   2.0000      -0.830829       -22.6080
 100   2.0000      -0.826755       -22.4972
 101   2.0000      -0.809678       -22.0324
 102   2.0000      -0.792293       -21.5594
 103   2.0000      -0.781368       -21.2621
 104   2.0000      -0.765394       -20.8274
 105   2.0000      -0.760004       -20.6807
 106   2.0000      -0.756231       -20.5781
 107   2.0000      -0.753422       -20.5016
 108   2.0000      -0.747686       -20.3456
 109   2.0000      -0.733139       -19.9497
 110   2.0000      -0.723864       -19.6973
 111   2.0000      -0.719174       -19.5697
 112   2.0000      -0.717294       -19.5186
 113   2.0000      -0.697618       -18.9831
 114   2.0000      -0.694917       -18.9096
 115   2.0000      -0.679939       -18.5021
 116   2.0000      -0.674702       -18.3596
 117   2.0000      -0.664551       -18.0834
 118   2.0000      -0.657855       -17.9011
 119   2.0000      -0.645560       -17.5666
 120   2.0000      -0.642662       -17.4877
 121   2.0000      -0.635205       -17.2848
 122   2.0000      -0.629509       -17.1298
 123   2.0000      -0.623400       -16.9636
 124   2.0000      -0.616903       -16.7868
 125   2.0000      -0.608192       -16.5498
 126   2.0000      -0.605499       -16.4765
 127   2.0000      -0.603788       -16.4299
 128   2.0000      -0.603246       -16.4152
 129   2.0000      -0.590052       -16.0561
 130   2.0000      -0.587192       -15.9783
 131   2.0000      -0.584157       -15.8957
 132   2.0000      -0.569936       -15.5087
 133   2.0000      -0.558603       -15.2004
 134   2.0000      -0.554406       -15.0861
 135   2.0000      -0.553498       -15.0614
 136   2.0000      -0.552231       -15.0270
 137   2.0000      -0.545044       -14.8314
 138   2.0000      -0.544209       -14.8087
 139   2.0000      -0.541337       -14.7305
 140   2.0000      -0.540029       -14.6949
 141   2.0000      -0.537612       -14.6292
 142   2.0000      -0.531149       -14.4533
 143   2.0000      -0.525996       -14.3131
 144   2.0000      -0.523693       -14.2504
 145   2.0000      -0.523390       -14.2422
 146   2.0000      -0.519626       -14.1397
 147   2.0000      -0.516936       -14.0665
 148   2.0000      -0.515445       -14.0260
 149   2.0000      -0.511551       -13.9200
 150   2.0000      -0.510811       -13.8999
 151   2.0000      -0.499995       -13.6056
 152   2.0000      -0.498515       -13.5653
 153   2.0000      -0.496100       -13.4996
 154   2.0000      -0.492608       -13.4046
 155   2.0000      -0.490004       -13.3337
 156   2.0000      -0.485873       -13.2213
 157   2.0000      -0.483496       -13.1566
 158   2.0000      -0.481128       -13.0922
 159   2.0000      -0.477881       -13.0038
 160   2.0000      -0.476408       -12.9637
 161   2.0000      -0.469524       -12.7764
 162   2.0000      -0.466477       -12.6935
 163   2.0000      -0.465020       -12.6538
 164   2.0000      -0.463132       -12.6025
 165   2.0000      -0.458923       -12.4879
 166   2.0000      -0.454963       -12.3802
 167   2.0000      -0.449262       -12.2251
 168   2.0000      -0.447762       -12.1842
 169   2.0000      -0.446279       -12.1439
 170   2.0000      -0.441394       -12.0109
 171   2.0000      -0.439448       -11.9580
 172   2.0000      -0.436630       -11.8813
 173   2.0000      -0.434403       -11.8207
 174   2.0000      -0.432712       -11.7747
 175   2.0000      -0.432577       -11.7710
 176   2.0000      -0.432005       -11.7554
 177   2.0000      -0.430183       -11.7059
 178   2.0000      -0.428399       -11.6573
 179   2.0000      -0.425899       -11.5893
 180   2.0000      -0.423425       -11.5220
 181   2.0000      -0.419488       -11.4149
 182   2.0000      -0.415073       -11.2947
 183   2.0000      -0.412058       -11.2127
 184   2.0000      -0.410449       -11.1689
 185   2.0000      -0.407528       -11.0894
 186   2.0000      -0.404790       -11.0149
 187   2.0000      -0.403783       -10.9875
 188   2.0000      -0.401358       -10.9215
 189   2.0000      -0.397809       -10.8249
 190   2.0000      -0.393848       -10.7172
 191   2.0000      -0.385789       -10.4978
 192   2.0000      -0.381104       -10.3704
 193   2.0000      -0.368000       -10.0138
 194   2.0000      -0.358713        -9.7611
 195   2.0000      -0.347064        -9.4441
 196   2.0000      -0.338571        -9.2130
 197   2.0000      -0.335039        -9.1169
 198   2.0000      -0.332993        -9.0612
 199   2.0000      -0.329664        -8.9706
 200   2.0000      -0.328308        -8.9337
 201   2.0000      -0.325975        -8.8702
 202   2.0000      -0.310443        -8.4476
 203   2.0000      -0.302558        -8.2330
 204   2.0000      -0.278965        -7.5910
 205   2.0000      -0.264827        -7.2063
 206   2.0000      -0.232673        -6.3313
 207   0.0000      -0.091338        -2.4854
 208   0.0000      -0.072483        -1.9724
 209   0.0000      -0.069464        -1.8902
 210   0.0000      -0.041312        -1.1242
 211   0.0000      -0.023015        -0.6263

MULLIKEN ATOMIC CHARGES
-----------------------
   0 C :   -0.120912
   1 S :    0.246064
   2 C :   -0.115960
   3 C :    0.106556
   4 C :    0.101511
   5 C :   -0.016244
   6 C :   -0.073036
   7 C :   -0.178786
   8 N :    0.165094
   9 C :   -0.050300
  10 C :   -0.171048
  11 N :    0.160684
  12 C :   -0.022064
  13 C :   -0.064940
  14 N :   -0.101310
  15 C :    0.089056
  16 C :   -0.055168
  17 C :    0.077551
  18 N :   -0.082213
  19 C :   -0.046527
  20 C :    0.101443
  21 C :   -0.128045
  22 S :    0.194483
  23 C :   -0.130794
  24 C :    0.126640
  25 C :    0.131034
  26 C :   -0.119041
  27 C :    0.086932
  28 C :   -0.033165
  29 C :   -0.011406
  30 C :   -0.078994
  31 C :    0.099390
  32 C :   -0.104091
  33 C :    0.047592
  34 C :    0.047824
  35 C :   -0.069877
  36 S :    0.125278
  37 C :   -0.092677
  38 C :    0.023084
  39 C :   -0.006175
  40 C :    0.155679
  41 O :   -0.186569
  42 C :   -0.021735
  43 C :    0.052939
  44 C :   -0.155119
  45 S :    0.185417
  46 C :   -0.120747
  47 C :    0.096014
  48 C :    0.149703
  49 C :   -0.048511
  50 C :   -0.073198
  51 C :   -0.172279
  52 N :    0.171654
  53 C :   -0.077595
  54 C :   -0.172668
  55 N :    0.172012
  56 C :   -0.019830
  57 H :    0.027423
  58 H :   -0.008469
  59 H :   -0.026679
  60 H :    0.008656
  61 H :   -0.006849
  62 H :   -0.027284
  63 H :   -0.002645
  64 H :   -0.033381
  65 H :   -0.000705
  66 H :    0.015596
  67 H :    0.026524
  68 H :    0.032108
  69 H :    0.032728
  70 H :    0.010843
  71 H :   -0.042217
  72 H :   -0.007263
  73 H :   -0.013094
  74 H :   -0.009403
  75 H :   -0.011282
  76 H :    0.024244
  77 H :   -0.011663
  78 H :    0.031120
  79 H :    0.005111
  80 H :   -0.006029
Sum of atomic charges:   -0.0000000

LOEWDIN ATOMIC CHARGES
----------------------
   0 C :   -0.180379
   1 S :    0.559977
   2 C :   -0.197722
   3 C :   -0.033623
   4 C :   -0.054321
   5 C :    0.034302
   6 C :   -0.059177
   7 C :   -0.032540
   8 N :   -0.041434
   9 C :   -0.058841
  10 C :   -0.029411
  11 N :   -0.048738
  12 C :    0.038744
  13 C :    0.014901
  14 N :   -0.117603
  15 C :    0.054018
  16 C :   -0.072539
  17 C :    0.046223
  18 N :   -0.097528
  19 C :   -0.066467
  20 C :    0.003413
  21 C :   -0.187525
  22 S :    0.510741
  23 C :   -0.168575
  24 C :   -0.041664
  25 C :   -0.034692
  26 C :   -0.008069
  27 C :   -0.021008
  28 C :   -0.020016
  29 C :   -0.035035
  30 C :   -0.015224
  31 C :   -0.044678
  32 C :   -0.026061
  33 C :   -0.031866
  34 C :   -0.046028
  35 C :   -0.160720
  36 S :    0.444660
  37 C :   -0.133542
  38 C :   -0.114611
  39 C :   -0.037948
  40 C :    0.112934
  41 O :   -0.140793
  42 C :   -0.036888
  43 C :   -0.043359
  44 C :   -0.168504
  45 S :    0.513090
  46 C :   -0.187226
  47 C :   -0.049262
  48 C :   -0.044449
  49 C :    0.036083
  50 C :   -0.053346
  51 C :   -0.031890
  52 N :   -0.034846
  53 C :   -0.055250
  54 C :   -0.031418
  55 N :   -0.036849
  56 C :    0.034423
  57 H :    0.028453
  58 H :    0.043809
  59 H :    0.037485
  60 H :    0.028040
  61 H :    0.032818
  62 H :    0.024094
  63 H :    0.032735
  64 H :    0.026354
  65 H :    0.029938
  66 H :    0.019981
  67 H :    0.026685
  68 H :    0.036024
  69 H :    0.036115
  70 H :    0.030712
  71 H :    0.024320
  72 H :    0.031265
  73 H :    0.027052
  74 H :    0.031720
  75 H :    0.001543
  76 H :    0.036307
  77 H :    0.021234
  78 H :    0.029552
  79 H :    0.047226
  80 H :    0.044692

  Mayer bond orders larger than 0.100000
B(  0-C ,  1-S ) :   1.2359 B(  0-C ,  2-C ) :   0.1132 B(  0-C ,  4-C ) :   1.3924
B(  0-C , 57-H ) :   0.9701 B(  1-S ,  2-C ) :   1.2076 B(  2-C ,  3-C ) :   1.3808
B(  2-C , 13-C ) :   1.0278 B(  3-C ,  4-C ) :   1.1883 B(  3-C , 12-C ) :   1.2188
B(  4-C ,  5-C ) :   1.1557 B(  5-C ,  6-C ) :   1.5780 B(  5-C , 58-H ) :   1.0065
B(  6-C ,  7-C ) :   1.0801 B(  6-C ,  9-C ) :   1.2199 B(  7-C ,  8-N ) :   3.0454
B(  9-C , 10-C ) :   1.0794 B(  9-C , 12-C ) :   1.5398 B( 10-C , 11-N ) :   3.0422
B( 12-C , 59-H ) :   0.9965 B( 13-C , 14-N ) :   1.5929 B( 13-C , 18-N ) :   1.5763
B( 14-N , 15-C ) :   1.5294 B( 15-C , 16-C ) :   1.3883 B( 15-C , 60-H ) :   0.9787
B( 16-C , 17-C ) :   1.3122 B( 16-C , 61-H ) :   0.9754 B( 17-C , 18-N ) :   1.4815
B( 17-C , 19-C ) :   1.1050 B( 19-C , 20-C ) :   1.6521 B( 19-C , 62-H ) :   0.9708
B( 20-C , 21-C ) :   1.1590 B( 20-C , 63-H ) :   0.9456 B( 21-C , 22-S ) :   1.1582
B( 21-C , 23-C ) :   0.1072 B( 21-C , 25-C ) :   1.2973 B( 22-S , 23-C ) :   1.1804
B( 23-C , 24-C ) :   1.3051 B( 23-C , 33-C ) :   1.1583 B( 24-C , 25-C ) :   1.2273
B( 24-C , 32-C ) :   1.1918 B( 25-C , 26-C ) :   1.2014 B( 26-C , 27-C ) :   1.5069
B( 26-C , 64-H ) :   0.9921 B( 27-C , 28-C ) :   1.0292 B( 27-C , 30-C ) :   1.2102
B( 28-C , 29-C ) :   1.9772 B( 28-C , 65-H ) :   0.9510 B( 29-C , 66-H ) :   0.9577
B( 29-C , 67-H ) :   0.9500 B( 30-C , 31-C ) :   1.0865 B( 30-C , 32-C ) :   1.5456
B( 31-C , 68-H ) :   0.9437 B( 31-C , 69-H ) :   0.9399 B( 31-C , 70-H ) :   0.9542
B( 32-C , 71-H ) :   0.9884 B( 33-C , 34-C ) :   1.6807 B( 33-C , 72-H ) :   0.9462
B( 34-C , 35-C ) :   1.1275 B( 34-C , 73-H ) :   0.9575 B( 35-C , 36-S ) :   1.1040
B( 35-C , 39-C ) :   1.5096 B( 36-S , 37-C ) :   1.1404 B( 37-C , 38-C ) :   1.4108
B( 37-C , 42-C ) :   1.2065 B( 38-C , 39-C ) :   1.2268 B( 38-C , 40-C ) :   1.0068
B( 39-C , 74-H ) :   0.9885 B( 40-C , 41-O ) :   2.1068 B( 40-C , 75-H ) :   0.9628
B( 42-C , 43-C ) :   1.6042 B( 42-C , 76-H ) :   0.9524 B( 43-C , 44-C ) :   1.1635
B( 43-C , 77-H ) :   0.9462 B( 44-C , 45-S ) :   1.1875 B( 44-C , 46-C ) :   0.1003
B( 44-C , 48-C ) :   1.3205 B( 45-S , 46-C ) :   1.2111 B( 46-C , 47-C ) :   1.4025
B( 46-C , 78-H ) :   0.9705 B( 47-C , 48-C ) :   1.1960 B( 47-C , 56-C ) :   1.1586
B( 48-C , 49-C ) :   1.1878 B( 49-C , 50-C ) :   1.5685 B( 49-C , 79-H ) :   0.9969
B( 50-C , 51-C ) :   1.0859 B( 50-C , 53-C ) :   1.2253 B( 51-C , 52-N ) :   3.0377
B( 53-C , 54-C ) :   1.0763 B( 53-C , 56-C ) :   1.5778 B( 54-C , 55-N ) :   3.0494
B( 56-C , 80-H ) :   1.0089

-----------------------------------------------------------------------------
         ABSORPTION SPECTRUM VIA TRANSITION ELECTRIC DIPOLE MOMENTS
-----------------------------------------------------------------------------
State   Energy  Wavelength   fosc         T2         TX        TY        TZ
        (cm-1)    (nm)                  (au**2)     (au)      (au)      (au)
-----------------------------------------------------------------------------
   0   16638.3    601.0   1.872601898  37.05211   2.91618  -4.76138   2.42431
   1   21195.6    471.8   0.060849007   0.94511  -0.14135  -0.85132   0.44765
   2   22623.3    442.0   0.008280491   0.12050  -0.24288  -0.04118   0.24457
   3   23926.2    418.0   0.062362791   0.85808  -0.67349   0.56634  -0.28940
   4   26667.5    375.0   0.069592307   0.85912  -0.53679   0.53901   0.52957
   5   28014.5    357.0   0.077153386   0.90667   0.07445   0.22515  -0.92219
   6   28229.8    354.2   0.456439753   5.32294   1.06998  -0.05547  -2.04329
   7   28832.5    346.8   0.036036871   0.41147   0.56336  -0.23921   0.19203
   8   29570.2    338.2   0.027118725   0.30192  -0.11064   0.33495   0.42129
   9   31002.4    322.6   0.031423091   0.33368  -0.20915   0.39868  -0.36193
  10   31184.4    320.7   0.000243943   0.00258   0.00923   0.04204  -0.02688
  11   32311.9    309.5   0.364250175   3.71118  -0.94075   1.07882   1.28931
  12   33011.7    302.9   0.059856308   0.59692  -0.10833   0.27856  -0.71245
  13   33199.5    301.2   0.014109510   0.13991   0.15648  -0.19459   0.27850
  14   33652.7    297.2   0.012944212   0.12663   0.14774  -0.27436   0.17182
  15   33825.2    295.6   0.008160685   0.07943  -0.24097   0.12218   0.08020
  16   33942.4    294.6   0.000884841   0.00858   0.05920   0.07065   0.00925
  17   34919.3    286.4   0.046988482   0.44300   0.24325  -0.59961   0.15587
  18   35290.8    283.4   0.117546590   1.09654  -0.19653   0.75642  -0.69695
  19   35482.2    281.8   0.001660229   0.01540   0.08669  -0.07824  -0.04202
  20   35708.8    280.0   0.021164511   0.19512   0.25774  -0.35871  -0.00435
  21   35958.8    278.1   0.039875537   0.36507  -0.32815   0.32984  -0.38547
  22   37037.8    270.0   0.012783151   0.11362   0.16564  -0.26081   0.13478
  23   37434.4    267.1   0.059999990   0.52766  -0.46181  -0.13694   0.54373
  24   38161.5    262.0   0.358088455   3.08916   0.02414  -1.38843  -1.07743
  25   38597.3    259.1   0.199003565   1.69738   0.01155   0.76171   1.05690
  26   38863.8    257.3   0.001795584   0.01521  -0.04760   0.09373   0.06449
  27   39319.3    254.3   0.040483926   0.33896   0.47181  -0.34101   0.00828
  28   39621.4    252.4   0.016732432   0.13903   0.26268  -0.25589   0.06745
  29   39826.0    251.1   0.010776430   0.08908  -0.15456   0.22867  -0.11359

FINAL SINGLE POINT ENERGY     -3760.478853822588

DIPOLE MOMENT
-------------
                                X             Y             Z
Electronic contribution:     24.17946     -18.08740     -26.31400
Nuclear contribution   :    -27.29614      23.45194      29.27932
                        -----------------------------------------
Total Dipole Moment    :     -3.11667       5.36455       2.96531
                        -----------------------------------------
Magnitude (a.u.)       :      6.87642
Magnitude (Debye)      :     17.47846

Rotational constants in cm-1:     0.002170     0.000374     0.000329
Rotational constants in MHz :    65.067818    11.208203     9.872225

                             ****ORCA TERMINATED NORMALLY****
TOTAL RUN TIME: 0 days 0 hours 6 minutes 3 seconds 393 msec
