                         Program Version 4.2.0 -  RELEASE  -
|  1> # ORCA input file
|  2> # SCF done       -123.859990866289          0.000368790092
|  3> ! CAM-B3LYP def2-SVP def2/J RIJCOSX Grid4 TightSCF
|  4> %maxcore 5000
|  5> %tddft
|  6>     Mode sTDDFT
|  7>     Ethresh 5.0
|  8>     maxcore 5000
|  9> end
| 10>
| 11> %pal
| 12>   nprocs 6
| 13>   end
| 14> * xyz 0 1
| 15>    C       -1.03275         4.41494         2.05803
| 16>    S        0.46294         4.62165         1.24071
| 17>    C        0.68403         2.90948         1.07980
| 18>    C       -0.38065         2.22746         1.64721
| 19>    C       -1.36422         3.10069         2.20979
| 20>    O       -2.49279         2.69317         2.82155
| 21>    C       -0.54336         0.83665         1.70229
| 22>    N       -0.78266        -0.28219         1.80306
| 23>    C        1.84091         2.38349         0.43606
| 24>    S        2.08710         0.68252         0.20441
| 25>    C        3.60158         0.96845        -0.58129
| 26>    C        4.32960        -0.14528        -1.15683
| 27>    O        5.22987        -0.05225        -1.95316
| 28>    C        3.89832         2.32575        -0.64441
| 29>    C        2.89262         3.11774        -0.06964
| 30>    C        5.17488         2.81972        -1.11622
| 31>    N        5.35176         3.88363        -1.96259
| 32>    C        4.32969         4.55290        -2.72910
| 33>    C        3.67803         3.61560        -3.74111
| 34>    C        6.72307         4.14044        -2.18201
| 35>    O        7.11939         5.03128        -2.91156
| 36>    C        7.40668         3.16751        -1.36820
| 37>    C        6.41312         2.36772        -0.72976
| 38>    C        7.07853         1.38352         0.09222
| 39>    O        6.65922         0.51416         0.82572
| 40>    N        8.44723         1.63803        -0.12033
| 41>    C        9.45933         0.86090         0.55163
| 42>    C       10.02825         1.59343         1.76502
| 43>    C        8.65316         2.69521        -0.97789
| 44>    C        9.94643         3.16340        -1.35174
| 45>    C       10.10939         4.22500        -2.16895
| 46>    C       11.36645         4.78830        -2.59830
| 47>    C       11.35383         5.84974        -3.50551
| 48>    C       12.54633         6.42275        -3.94024
| 49>    C       13.73497         5.88515        -3.42370
| 50>    N       13.75954         4.88728        -2.56237
| 51>    C       12.62509         4.35309        -2.15895
| 52>    C       12.54039         7.52132        -4.88109
| 53>    S       11.02499         8.15964        -5.47502
| 54>    C       11.81143         9.31560        -6.44387
| 55>    C       13.17489         9.23605        -6.33449
| 56>    C       13.59845         8.20562        -5.43624
| 57>    O       14.89731         7.94322        -5.17094
| 58>    C       14.09560        10.05288        -7.01027
| 59>    N       14.90607        10.68116        -7.52563
| 60>    H       -1.59380         5.26486         2.38714
| 61>    H       -2.54067         1.72749         2.83165
| 62>    H        3.94792        -1.12832        -0.82351
| 63>    H        2.94109         4.18884         0.01663
| 64>    H        4.83894         5.37071        -3.24724
| 65>    H        3.57395         4.97553        -2.06097
| 66>    H        4.43195         3.19841        -4.40399
| 67>    H        2.95163         4.16223        -4.33619
| 68>    H        3.17135         2.79532        -3.23714
| 69>    H       10.25206         0.59968        -0.15503
| 70>    H        8.96414        -0.05802         0.87803
| 71>    H       10.47538         2.54200         1.47546
| 72>    H       10.78676         0.98016         2.24368
| 73>    H        9.23616         1.79059         2.48325
| 74>    H       10.79958         2.63301        -0.95606
| 75>    H        9.22734         4.72043        -2.55396
| 76>    H       10.40543         6.22131        -3.87002
| 77>    H       14.69701         6.27651        -3.71536
| 78>    H       12.72744         3.54469        -1.44849
| 79>    H       11.24747         9.99861        -7.04767
| 80>    H       15.46449         8.54403        -5.67392
| 81> *
| 82>
| 83>                          ****END OF INPUT****

CARTESIAN COORDINATES (ANGSTROEM)
---------------------------------
  C     -1.032750    4.414940    2.058030
  S      0.462940    4.621650    1.240710
  C      0.684030    2.909480    1.079800
  C     -0.380650    2.227460    1.647210
  C     -1.364220    3.100690    2.209790
  O     -2.492790    2.693170    2.821550
  C     -0.543360    0.836650    1.702290
  N     -0.782660   -0.282190    1.803060
  C      1.840910    2.383490    0.436060
  S      2.087100    0.682520    0.204410
  C      3.601580    0.968450   -0.581290
  C      4.329600   -0.145280   -1.156830
  O      5.229870   -0.052250   -1.953160
  C      3.898320    2.325750   -0.644410
  C      2.892620    3.117740   -0.069640
  C      5.174880    2.819720   -1.116220
  N      5.351760    3.883630   -1.962590
  C      4.329690    4.552900   -2.729100
  C      3.678030    3.615600   -3.741110
  C      6.723070    4.140440   -2.182010
  O      7.119390    5.031280   -2.911560
  C      7.406680    3.167510   -1.368200
  C      6.413120    2.367720   -0.729760
  C      7.078530    1.383520    0.092220
  O      6.659220    0.514160    0.825720
  N      8.447230    1.638030   -0.120330
  C      9.459330    0.860900    0.551630
  C     10.028250    1.593430    1.765020
  C      8.653160    2.695210   -0.977890
  C      9.946430    3.163400   -1.351740
  C     10.109390    4.225000   -2.168950
  C     11.366450    4.788300   -2.598300
  C     11.353830    5.849740   -3.505510
  C     12.546330    6.422750   -3.940240
  C     13.734970    5.885150   -3.423700
  N     13.759540    4.887280   -2.562370
  C     12.625090    4.353090   -2.158950
  C     12.540390    7.521320   -4.881090
  S     11.024990    8.159640   -5.475020
  C     11.811430    9.315600   -6.443870
  C     13.174890    9.236050   -6.334490
  C     13.598450    8.205620   -5.436240
  O     14.897310    7.943220   -5.170940
  C     14.095600   10.052880   -7.010270
  N     14.906070   10.681160   -7.525630
  H     -1.593800    5.264860    2.387140
  H     -2.540670    1.727490    2.831650
  H      3.947920   -1.128320   -0.823510
  H      2.941090    4.188840    0.016630
  H      4.838940    5.370710   -3.247240
  H      3.573950    4.975530   -2.060970
  H      4.431950    3.198410   -4.403990
  H      2.951630    4.162230   -4.336190
  H      3.171350    2.795320   -3.237140
  H     10.252060    0.599680   -0.155030
  H      8.964140   -0.058020    0.878030
  H     10.475380    2.542000    1.475460
  H     10.786760    0.980160    2.243680
  H      9.236160    1.790590    2.483250
  H     10.799580    2.633010   -0.956060
  H      9.227340    4.720430   -2.553960
  H     10.405430    6.221310   -3.870020
  H     14.697010    6.276510   -3.715360
  H     12.727440    3.544690   -1.448490
  H     11.247470    9.998610   -7.047670
  H     15.464490    8.544030   -5.673920

 Total Charge           Charge          ....    0
 Multiplicity           Mult            ....    1
 Number of Electrons    NEL             ....  336
 Basis Dimension        Dim             ....  747

ORBITAL ENERGIES
----------------

  NO   OCC          E(Eh)            E(eV)
   0   2.0000     -88.985583     -2421.4208
   1   2.0000     -88.983869     -2421.3742
   2   2.0000     -88.980335     -2421.2780
   3   2.0000     -19.271562      -524.4059
   4   2.0000     -19.266375      -524.2647
   5   2.0000     -19.210779      -522.7519
   6   2.0000     -19.186541      -522.0923
   7   2.0000     -19.186087      -522.0800
   8   2.0000     -14.450818      -393.2268
   9   2.0000     -14.449005      -393.1774
  10   2.0000     -14.427223      -392.5847
  11   2.0000     -14.420777      -392.4093
  12   2.0000     -14.402383      -391.9088
  13   2.0000     -10.369535      -282.1694
  14   2.0000     -10.368860      -282.1510
  15   2.0000     -10.362566      -281.9798
  16   2.0000     -10.361801      -281.9589
  17   2.0000     -10.361291      -281.9451
  18   2.0000     -10.347341      -281.5655
  19   2.0000     -10.338651      -281.3290
  20   2.0000     -10.338136      -281.3150
  21   2.0000     -10.333273      -281.1827
  22   2.0000     -10.329588      -281.0824
  23   2.0000     -10.327385      -281.0224
  24   2.0000     -10.326688      -281.0035
  25   2.0000     -10.322860      -280.8993
  26   2.0000     -10.320934      -280.8469
  27   2.0000     -10.313640      -280.6484
  28   2.0000     -10.312517      -280.6179
  29   2.0000     -10.312451      -280.6161
  30   2.0000     -10.306444      -280.4526
  31   2.0000     -10.306021      -280.4411
  32   2.0000     -10.305337      -280.4225
  33   2.0000     -10.304881      -280.4101
  34   2.0000     -10.303186      -280.3639
  35   2.0000     -10.302163      -280.3361
  36   2.0000     -10.298802      -280.2447
  37   2.0000     -10.292869      -280.0832
  38   2.0000     -10.290217      -280.0110
  39   2.0000     -10.289930      -280.0032
  40   2.0000     -10.287451      -279.9358
  41   2.0000     -10.261819      -279.2383
  42   2.0000     -10.261179      -279.2209
  43   2.0000     -10.254658      -279.0434
  44   2.0000     -10.253711      -279.0177
  45   2.0000      -8.080916      -219.8929
  46   2.0000      -8.078812      -219.8357
  47   2.0000      -8.075646      -219.7495
  48   2.0000      -6.050290      -164.6368
  49   2.0000      -6.047914      -164.5721
  50   2.0000      -6.045991      -164.5198
  51   2.0000      -6.044815      -164.4878
  52   2.0000      -6.043743      -164.4586
  53   2.0000      -6.043038      -164.4394
  54   2.0000      -6.041309      -164.3924
  55   2.0000      -6.040667      -164.3749
  56   2.0000      -6.038032      -164.3032
  57   2.0000      -1.167501       -31.7693
  58   2.0000      -1.164236       -31.6805
  59   2.0000      -1.129565       -30.7370
  60   2.0000      -1.124321       -30.5943
  61   2.0000      -1.121649       -30.5216
  62   2.0000      -1.060161       -28.8485
  63   2.0000      -1.052198       -28.6318
  64   2.0000      -1.038720       -28.2650
  65   2.0000      -1.026607       -27.9354
  66   2.0000      -1.012765       -27.5587
  67   2.0000      -1.007741       -27.4220
  68   2.0000      -0.995750       -27.0957
  69   2.0000      -0.994516       -27.0622
  70   2.0000      -0.928249       -25.2589
  71   2.0000      -0.922276       -25.0964
  72   2.0000      -0.908392       -24.7186
  73   2.0000      -0.895835       -24.3769
  74   2.0000      -0.877970       -23.8908
  75   2.0000      -0.877006       -23.8645
  76   2.0000      -0.868314       -23.6280
  77   2.0000      -0.863934       -23.5088
  78   2.0000      -0.857826       -23.3426
  79   2.0000      -0.827403       -22.5148
  80   2.0000      -0.825482       -22.4625
  81   2.0000      -0.817041       -22.2328
  82   2.0000      -0.794104       -21.6087
  83   2.0000      -0.774882       -21.0856
  84   2.0000      -0.758045       -20.6275
  85   2.0000      -0.753737       -20.5102
  86   2.0000      -0.741983       -20.1904
  87   2.0000      -0.731792       -19.9131
  88   2.0000      -0.717831       -19.5332
  89   2.0000      -0.708924       -19.2908
  90   2.0000      -0.703712       -19.1490
  91   2.0000      -0.697803       -18.9882
  92   2.0000      -0.695861       -18.9354
  93   2.0000      -0.678288       -18.4572
  94   2.0000      -0.676890       -18.4191
  95   2.0000      -0.673297       -18.3213
  96   2.0000      -0.653855       -17.7923
  97   2.0000      -0.647752       -17.6262
  98   2.0000      -0.632647       -17.2152
  99   2.0000      -0.627522       -17.0757
 100   2.0000      -0.611710       -16.6455
 101   2.0000      -0.605687       -16.4816
 102   2.0000      -0.597190       -16.2504
 103   2.0000      -0.590751       -16.0751
 104   2.0000      -0.584145       -15.8954
 105   2.0000      -0.576785       -15.6951
 106   2.0000      -0.570648       -15.5281
 107   2.0000      -0.567873       -15.4526
 108   2.0000      -0.563114       -15.3231
 109   2.0000      -0.556710       -15.1488
 110   2.0000      -0.550498       -14.9798
 111   2.0000      -0.543783       -14.7971
 112   2.0000      -0.540626       -14.7112
 113   2.0000      -0.538871       -14.6634
 114   2.0000      -0.530646       -14.4396
 115   2.0000      -0.526024       -14.3138
 116   2.0000      -0.520920       -14.1750
 117   2.0000      -0.519228       -14.1289
 118   2.0000      -0.515706       -14.0331
 119   2.0000      -0.514719       -14.0062
 120   2.0000      -0.512610       -13.9488
 121   2.0000      -0.506250       -13.7758
 122   2.0000      -0.502920       -13.6852
 123   2.0000      -0.499975       -13.6050
 124   2.0000      -0.496928       -13.5221
 125   2.0000      -0.495879       -13.4936
 126   2.0000      -0.491352       -13.3704
 127   2.0000      -0.483087       -13.1455
 128   2.0000      -0.479045       -13.0355
 129   2.0000      -0.476014       -12.9530
 130   2.0000      -0.472432       -12.8555
 131   2.0000      -0.471505       -12.8303
 132   2.0000      -0.465843       -12.6762
 133   2.0000      -0.464104       -12.6289
 134   2.0000      -0.461647       -12.5620
 135   2.0000      -0.459066       -12.4918
 136   2.0000      -0.458439       -12.4748
 137   2.0000      -0.454976       -12.3805
 138   2.0000      -0.453614       -12.3435
 139   2.0000      -0.451099       -12.2750
 140   2.0000      -0.449991       -12.2449
 141   2.0000      -0.449670       -12.2361
 142   2.0000      -0.446439       -12.1482
 143   2.0000      -0.443580       -12.0704
 144   2.0000      -0.442417       -12.0388
 145   2.0000      -0.439758       -11.9664
 146   2.0000      -0.438159       -11.9229
 147   2.0000      -0.433428       -11.7942
 148   2.0000      -0.428047       -11.6477
 149   2.0000      -0.422503       -11.4969
 150   2.0000      -0.421940       -11.4816
 151   2.0000      -0.417972       -11.3736
 152   2.0000      -0.403615       -10.9829
 153   2.0000      -0.386766       -10.5244
 154   2.0000      -0.381732       -10.3874
 155   2.0000      -0.362441        -9.8625
 156   2.0000      -0.345311        -9.3964
 157   2.0000      -0.344023        -9.3613
 158   2.0000      -0.335074        -9.1178
 159   2.0000      -0.328816        -8.9475
 160   2.0000      -0.324528        -8.8308
 161   2.0000      -0.324143        -8.8204
 162   2.0000      -0.322889        -8.7862
 163   2.0000      -0.317264        -8.6332
 164   2.0000      -0.308596        -8.3973
 165   2.0000      -0.284615        -7.7448
 166   2.0000      -0.283671        -7.7191
 167   2.0000      -0.240548        -6.5456
 168   0.0000      -0.078131        -2.1260
 169   0.0000      -0.063238        -1.7208
 170   0.0000      -0.032804        -0.8926
 171   0.0000      -0.016287        -0.4432
 172   0.0000       0.010307         0.2805

MULLIKEN ATOMIC CHARGES
-----------------------
   0 C :   -0.154372
   1 S :    0.152596
   2 C :   -0.012647
   3 C :   -0.062310
   4 C :    0.195639
   5 O :   -0.165520
   6 C :   -0.310687
   7 N :    0.155982
   8 C :   -0.090475
   9 S :    0.178747
  10 C :   -0.154564
  11 C :    0.202775
  12 O :   -0.178077
  13 C :    0.054157
  14 C :   -0.041314
  15 C :    0.058175
  16 N :   -0.252287
  17 C :    0.108254
  18 C :   -0.000596
  19 C :    0.169570
  20 O :   -0.222972
  21 C :   -0.093191
  22 C :    0.024135
  23 C :    0.142844
  24 O :   -0.197234
  25 N :   -0.267897
  26 C :    0.101608
  27 C :    0.005142
  28 C :    0.140916
  29 C :    0.004838
  30 C :    0.006469
  31 C :    0.078209
  32 C :   -0.073445
  33 C :    0.100953
  34 C :   -0.021506
  35 N :   -0.045688
  36 C :   -0.021589
  37 C :   -0.178510
  38 S :    0.153598
  39 C :   -0.037401
  40 C :   -0.105847
  41 C :    0.181544
  42 O :   -0.164823
  43 C :   -0.216796
  44 N :    0.130847
  45 H :    0.030054
  46 H :    0.195636
  47 H :   -0.013333
  48 H :    0.005997
  49 H :    0.043170
  50 H :    0.008223
  51 H :    0.030586
  52 H :    0.019981
  53 H :    0.027328
  54 H :    0.023885
  55 H :    0.042822
  56 H :    0.013738
  57 H :    0.023572
  58 H :    0.028727
  59 H :   -0.027825
  60 H :    0.007425
  61 H :    0.014603
  62 H :    0.014222
  63 H :   -0.004394
  64 H :    0.039617
  65 H :    0.198716
Sum of atomic charges:   -0.0000000

LOEWDIN ATOMIC CHARGES
----------------------
   0 C :   -0.224164
   1 S :    0.475163
   2 C :   -0.151539
   3 C :   -0.145629
   4 C :    0.035427
   5 O :   -0.038327
   6 C :   -0.060396
   7 N :   -0.045670
   8 C :   -0.177126
   9 S :    0.505998
  10 C :   -0.214012
  11 C :    0.094232
  12 O :   -0.127893
  13 C :   -0.035880
  14 C :   -0.044168
  15 C :    0.067100
  16 N :    0.001707
  17 C :    0.035233
  18 C :   -0.060178
  19 C :    0.081045
  20 O :   -0.212398
  21 C :   -0.131472
  22 C :   -0.104471
  23 C :    0.086655
  24 O :   -0.194019
  25 N :   -0.002960
  26 C :    0.036369
  27 C :   -0.061576
  28 C :    0.090514
  29 C :   -0.049953
  30 C :    0.041762
  31 C :   -0.051627
  32 C :    0.009732
  33 C :   -0.054379
  34 C :    0.029511
  35 N :   -0.060838
  36 C :    0.027347
  37 C :   -0.208723
  38 S :    0.485290
  39 C :   -0.138913
  40 C :   -0.144091
  41 C :    0.041071
  42 O :   -0.030791
  43 C :   -0.042956
  44 N :   -0.051556
  45 H :    0.032785
  46 H :    0.101561
  47 H :   -0.002264
  48 H :    0.029361
  49 H :    0.036139
  50 H :    0.017471
  51 H :    0.032774
  52 H :    0.029605
  53 H :    0.025092
  54 H :    0.023220
  55 H :    0.038273
  56 H :    0.021291
  57 H :    0.030499
  58 H :    0.032108
  59 H :    0.027074
  60 H :    0.037267
  61 H :    0.027701
  62 H :    0.022068
  63 H :    0.018519
  64 H :    0.037201
  65 H :    0.103803

  Mayer bond orders larger than 0.100000
B(  0-C ,  1-S ) :   1.1154 B(  0-C ,  4-C ) :   1.5516 B(  0-C , 45-H ) :   0.9684
B(  1-S ,  2-C ) :   1.1875 B(  2-C ,  3-C ) :   1.4707 B(  2-C ,  8-C ) :   1.1454
B(  3-C ,  4-C ) :   1.1748 B(  3-C ,  6-C ) :   1.1165 B(  4-C ,  5-O ) :   1.2880
B(  5-O , 46-H ) :   0.9488 B(  6-C ,  7-N ) :   3.0096 B(  8-C ,  9-S ) :   1.1716
B(  8-C , 14-C ) :   1.4530 B(  9-S , 10-C ) :   1.1101 B( 10-C , 11-C ) :   0.9886
B( 10-C , 13-C ) :   1.4874 B( 11-C , 12-O ) :   2.1539 B( 11-C , 47-H ) :   0.9498
B( 13-C , 14-C ) :   1.2946 B( 13-C , 15-C ) :   0.9692 B( 14-C , 48-H ) :   0.9977
B( 15-C , 16-N ) :   1.2040 B( 15-C , 22-C ) :   1.4907 B( 16-N , 17-C ) :   0.9540
B( 16-N , 19-C ) :   1.0459 B( 17-C , 18-C ) :   1.1174 B( 17-C , 49-H ) :   0.9285
B( 17-C , 50-H ) :   0.9479 B( 18-C , 51-H ) :   0.9648 B( 18-C , 52-H ) :   0.9665
B( 18-C , 53-H ) :   0.9680 B( 19-C , 20-O ) :   2.0059 B( 19-C , 21-C ) :   1.0067
B( 20-O , 60-H ) :   0.1161 B( 21-C , 22-C ) :   1.2074 B( 21-C , 28-C ) :   1.3625
B( 22-C , 23-C ) :   0.9535 B( 23-C , 24-O ) :   2.1351 B( 23-C , 25-N ) :   1.0338
B( 25-N , 26-C ) :   0.9471 B( 25-N , 28-C ) :   1.1626 B( 26-C , 27-C ) :   1.1215
B( 26-C , 54-H ) :   0.9499 B( 26-C , 55-H ) :   0.9269 B( 27-C , 56-H ) :   0.9683
B( 27-C , 57-H ) :   0.9678 B( 27-C , 58-H ) :   0.9632 B( 28-C , 29-C ) :   1.1347
B( 29-C , 30-C ) :   1.6264 B( 29-C , 59-H ) :   0.9616 B( 30-C , 31-C ) :   1.0542
B( 30-C , 60-H ) :   0.9664 B( 31-C , 32-C ) :   1.3723 B( 31-C , 36-C ) :   1.3114
B( 32-C , 33-C ) :   1.3318 B( 32-C , 61-H ) :   0.9910 B( 33-C , 34-C ) :   1.3437
B( 33-C , 37-C ) :   1.0546 B( 34-C , 35-N ) :   1.5439 B( 34-C , 62-H ) :   0.9746
B( 35-N , 36-C ) :   1.5817 B( 36-C , 63-H ) :   0.9848 B( 37-C , 38-S ) :   1.1220
B( 37-C , 41-C ) :   1.5054 B( 38-S , 39-C ) :   1.2042 B( 38-S , 40-C ) :   0.1166
B( 39-C , 40-C ) :   1.5227 B( 39-C , 64-H ) :   0.9762 B( 40-C , 41-C ) :   1.2032
B( 40-C , 43-C ) :   1.0829 B( 41-C , 42-O ) :   1.2764 B( 42-O , 65-H ) :   0.9395
B( 43-C , 44-N ) :   3.0300

-----------------------------------------------------------------------------
         ABSORPTION SPECTRUM VIA TRANSITION ELECTRIC DIPOLE MOMENTS
-----------------------------------------------------------------------------
State   Energy  Wavelength   fosc         T2         TX        TY        TZ
        (cm-1)    (nm)                  (au**2)     (au)      (au)      (au)
-----------------------------------------------------------------------------
   0   17421.5    574.0   0.216579149   4.09267   1.98915   0.36752  -0.02948
   1   21960.3    455.4   0.283362697   4.24795  -2.05563   0.08697   0.12156
   2   27486.9    363.8   0.005732429   0.06866   0.26094  -0.02345   0.00445
   3   28703.6    348.4   0.444638057   5.09972  -1.73876   1.01431   1.02354
   4   29258.4    341.8   0.017491554   0.19681   0.31925  -0.20521  -0.22974
   5   29825.9    335.3   0.095299691   1.05190   0.84713   0.46274  -0.34661
   6   30423.9    328.7   0.082671079   0.89457   0.64526  -0.38383  -0.57522
   7   30813.4    324.5   0.028559000   0.30513  -0.30106   0.46167   0.03671
   8   32044.3    312.1   0.162632191   1.67083   1.22389  -0.07888  -0.40830
   9   32290.0    309.7   0.094251444   0.96094  -0.67242   0.18177   0.68974
  10   33318.8    300.1   0.018513089   0.18292   0.29172   0.28620  -0.12614
  11   34521.2    289.7   0.061283575   0.58443  -0.47719  -0.49589   0.33290
  12   34565.4    289.3   0.191968857   1.82837   0.79835   0.88626  -0.63683
  13   34847.8    287.0   0.207675366   1.96194  -0.95795  -0.80947   0.62372
  14   37327.8    267.9   0.155310862   1.36976  -0.64243  -0.63821   0.74144
  15   37424.1    267.2   0.072062598   0.63392   0.64939   0.32762  -0.32386
  16   38139.1    262.2   0.767008974   6.62073   0.44204   2.00776  -1.54733
  17   38667.6    258.6   0.025277338   0.21521   0.28232   0.13177  -0.34371
  18   39411.4    253.7   0.197643471   1.65096  -0.37572   0.95699  -0.77069
  19   39905.4    250.6   0.086995673   0.71770   0.74767   0.35980  -0.17096
  20   40137.3    249.1   0.028285057   0.23200  -0.46677  -0.05546  -0.10510

FINAL SINGLE POINT ENERGY     -3073.782646209140

DIPOLE MOMENT
-------------
                                X             Y             Z
Electronic contribution:    -13.78235       6.40965      -1.92349
Nuclear contribution   :     12.38096      -5.24317       2.28779
                        -----------------------------------------
Total Dipole Moment    :     -1.40139       1.16648       0.36430
                        -----------------------------------------
Magnitude (a.u.)       :      1.85938
Magnitude (Debye)      :      4.72616

Rotational constants in cm-1:     0.004469     0.000698     0.000635
Rotational constants in MHz :   133.968689    20.914741    19.031949

                             ****ORCA TERMINATED NORMALLY****
TOTAL RUN TIME: 0 days 0 hours 4 minutes 12 seconds 572 msec
