                         Program Version 4.2.0 -  RELEASE  -
|  1> # ORCA input file
|  2> # SCF done       -169.719106611038          0.000657112706
|  3> ! CAM-B3LYP def2-SVP def2/J RIJCOSX Grid4 TightSCF
|  4> %maxcore 5000
|  5> %tddft
|  6>     Mode sTDDFT
|  7>     Ethresh 5.0
|  8>     maxcore 5000
|  9> end
| 10>
| 11> %pal
| 12>   nprocs 6
| 13>   end
| 14> * xyz 0 1
| 15>    C        6.01765        -0.66376        -6.75327
| 16>    C        6.46197         0.19224        -7.71220
| 17>    S        6.88789         1.72126        -7.03312
| 18>    C        6.44709         1.19996        -5.42235
| 19>   Cl        6.60438         2.22829        -4.08877
| 20>    C        6.00877        -0.08767        -5.44129
| 21>    C        5.49931        -1.06556        -4.47367
| 22>    O        5.12371        -0.86780        -3.34345
| 23>    C        5.34449        -2.32837        -5.26944
| 24>    C        5.55916        -2.03670        -6.67080
| 25>    C        5.43283        -2.88653        -7.74287
| 26>    C        5.71905        -2.46212        -9.05565
| 27>    N        5.94457        -2.13435       -10.13217
| 28>    C        5.01405        -4.22738        -7.66934
| 29>    N        4.68021        -5.32702        -7.65984
| 30>    C        4.98890        -3.53289        -4.73301
| 31>    C        5.16048        -3.85866        -3.36768
| 32>    N        4.47494        -4.85167        -2.70939
| 33>    C        3.38592        -5.63461        -3.24390
| 34>    C        3.88470        -6.86443        -3.99926
| 35>    C        4.93708        -5.02557        -1.39684
| 36>    O        4.46522        -5.82833        -0.61479
| 37>    C        6.02347        -4.07558        -1.27112
| 38>    C        6.12752        -3.37354        -2.49045
| 39>    C        7.27589        -2.49220        -2.41198
| 40>    O        7.79455        -1.75347        -3.22247
| 41>    N        7.76026        -2.67991        -1.10731
| 42>    C        8.91781        -1.96230        -0.63262
| 43>    C       10.17985        -2.82169        -0.66715
| 44>    C        7.03417        -3.62426        -0.41459
| 45>    C        7.32463        -4.01091         0.90974
| 46>    C        6.61120        -4.97456         1.56145
| 47>    C        6.84597        -5.45904         2.86482
| 48>    S        5.85132        -6.80013         3.41181
| 49>    C        6.67382        -6.89065         4.92208
| 50>    C        7.64023        -5.95239         5.00763
| 51>    C        7.76309        -5.11603         3.86428
| 52>    C        8.76909        -4.11364         3.98421
| 53>    C        9.47532        -4.11874         5.14485
| 54>    S        8.87566        -5.45752         6.20762
| 55>    O        8.26257        -4.94347         7.40037
| 56>    O        9.86862        -6.48485         6.36330
| 57>    C       10.51680        -3.27379         5.56113
| 58>    C       11.15803        -3.43815         6.74893
| 59>    C       12.21124        -2.61565         7.20564
| 60>    C       12.93577        -2.76402         8.37541
| 61>    C       13.91922        -1.79450         8.53989
| 62>    C       13.97419        -0.87781         7.50668
| 63>    S       12.77898        -1.23141         6.30762
| 64>    C       14.86366         0.25246         7.37170
| 65>    C       14.82587         1.06073         6.22092
| 66>    O       13.93190         0.74365         5.21622
| 67>    C       14.51652         0.23903         4.03033
| 68>    C       15.65493         2.17977         6.11099
| 69>    C       16.55520         2.47064         7.13371
| 70>    C       16.62225         1.66733         8.26460
| 71>    C       15.76710         0.57643         8.38155
| 72>    O       17.46605         1.86759         9.31139
| 73>    C       18.35693         2.95663         9.26095
| 74>    C       15.53081         3.06193         4.94963
| 75>    C       16.51477         3.77563         4.42057
| 76>    H        6.57068         0.03745        -8.76731
| 77>    H        4.61299        -4.31303        -5.38045
| 78>    H        2.77481        -5.00102        -3.89180
| 79>    H        2.78605        -5.95402        -2.38693
| 80>    H        4.48674        -6.58630        -4.86117
| 81>    H        3.03614        -7.44670        -4.34691
| 82>    H        4.48544        -7.48487        -3.33876
| 83>    H        8.72632        -1.58627         0.37663
| 84>    H        9.03916        -1.10912        -1.30594
| 85>    H       10.07032        -3.70749        -0.04517
| 86>    H       11.02856        -2.24462        -0.31000
| 87>    H       10.38136        -3.14025        -1.68677
| 88>    H        8.15267        -3.52387         1.39631
| 89>    H        5.79212        -5.44681         1.03199
| 90>    H        6.39404        -7.62731         5.64829
| 91>    H        8.95940        -3.38485         3.21423
| 92>    H       10.81336        -2.46778         4.89912
| 93>    H       10.85743        -4.25291         7.39418
| 94>    H       12.74949        -3.55694         9.07761
| 95>    H       14.57510        -1.76511         9.39039
| 96>    H       15.24759         0.93771         3.61451
| 97>    H       13.69774         0.10095         3.32698
| 98>    H       15.00523        -0.72373         4.21344
| 99>    H       17.16925         3.35074         7.03815
|100>    H       15.82328        -0.00765         9.28411
|101>    H       18.93046         2.90918        10.18506
|102>    H       17.82333         3.91124         9.21585
|103>    H       19.03892         2.87825         8.40826
|104>    H       14.53827         3.10390         4.51869
|105>    H       17.52252         3.73616         4.79948
|106>    H       16.35138         4.41763         3.57228
|107> *
|108>
|109>                          ****END OF INPUT****

CARTESIAN COORDINATES (ANGSTROEM)
---------------------------------
  C      6.017650   -0.663760   -6.753270
  C      6.461970    0.192240   -7.712200
  S      6.887890    1.721260   -7.033120
  C      6.447090    1.199960   -5.422350
  Cl     6.604380    2.228290   -4.088770
  C      6.008770   -0.087670   -5.441290
  C      5.499310   -1.065560   -4.473670
  O      5.123710   -0.867800   -3.343450
  C      5.344490   -2.328370   -5.269440
  C      5.559160   -2.036700   -6.670800
  C      5.432830   -2.886530   -7.742870
  C      5.719050   -2.462120   -9.055650
  N      5.944570   -2.134350  -10.132170
  C      5.014050   -4.227380   -7.669340
  N      4.680210   -5.327020   -7.659840
  C      4.988900   -3.532890   -4.733010
  C      5.160480   -3.858660   -3.367680
  N      4.474940   -4.851670   -2.709390
  C      3.385920   -5.634610   -3.243900
  C      3.884700   -6.864430   -3.999260
  C      4.937080   -5.025570   -1.396840
  O      4.465220   -5.828330   -0.614790
  C      6.023470   -4.075580   -1.271120
  C      6.127520   -3.373540   -2.490450
  C      7.275890   -2.492200   -2.411980
  O      7.794550   -1.753470   -3.222470
  N      7.760260   -2.679910   -1.107310
  C      8.917810   -1.962300   -0.632620
  C     10.179850   -2.821690   -0.667150
  C      7.034170   -3.624260   -0.414590
  C      7.324630   -4.010910    0.909740
  C      6.611200   -4.974560    1.561450
  C      6.845970   -5.459040    2.864820
  S      5.851320   -6.800130    3.411810
  C      6.673820   -6.890650    4.922080
  C      7.640230   -5.952390    5.007630
  C      7.763090   -5.116030    3.864280
  C      8.769090   -4.113640    3.984210
  C      9.475320   -4.118740    5.144850
  S      8.875660   -5.457520    6.207620
  O      8.262570   -4.943470    7.400370
  O      9.868620   -6.484850    6.363300
  C     10.516800   -3.273790    5.561130
  C     11.158030   -3.438150    6.748930
  C     12.211240   -2.615650    7.205640
  C     12.935770   -2.764020    8.375410
  C     13.919220   -1.794500    8.539890
  C     13.974190   -0.877810    7.506680
  S     12.778980   -1.231410    6.307620
  C     14.863660    0.252460    7.371700
  C     14.825870    1.060730    6.220920
  O     13.931900    0.743650    5.216220
  C     14.516520    0.239030    4.030330
  C     15.654930    2.179770    6.110990
  C     16.555200    2.470640    7.133710
  C     16.622250    1.667330    8.264600
  C     15.767100    0.576430    8.381550
  O     17.466050    1.867590    9.311390
  C     18.356930    2.956630    9.260950
  C     15.530810    3.061930    4.949630
  C     16.514770    3.775630    4.420570
  H      6.570680    0.037450   -8.767310
  H      4.612990   -4.313030   -5.380450
  H      2.774810   -5.001020   -3.891800
  H      2.786050   -5.954020   -2.386930
  H      4.486740   -6.586300   -4.861170
  H      3.036140   -7.446700   -4.346910
  H      4.485440   -7.484870   -3.338760
  H      8.726320   -1.586270    0.376630
  H      9.039160   -1.109120   -1.305940
  H     10.070320   -3.707490   -0.045170
  H     11.028560   -2.244620   -0.310000
  H     10.381360   -3.140250   -1.686770
  H      8.152670   -3.523870    1.396310
  H      5.792120   -5.446810    1.031990
  H      6.394040   -7.627310    5.648290
  H      8.959400   -3.384850    3.214230
  H     10.813360   -2.467780    4.899120
  H     10.857430   -4.252910    7.394180
  H     12.749490   -3.556940    9.077610
  H     14.575100   -1.765110    9.390390
  H     15.247590    0.937710    3.614510
  H     13.697740    0.100950    3.326980
  H     15.005230   -0.723730    4.213440
  H     17.169250    3.350740    7.038150
  H     15.823280   -0.007650    9.284110
  H     18.930460    2.909180   10.185060
  H     17.823330    3.911240    9.215850
  H     19.038920    2.878250    8.408260
  H     14.538270    3.103900    4.518690
  H     17.522520    3.736160    4.799480
  H     16.351380    4.417630    3.572280

 Total Charge           Charge          ....    0
 Multiplicity           Mult            ....    1
 Number of Electrons    NEL             ....  466
 Basis Dimension        Dim             .... 1029

ORBITAL ENERGIES
----------------

  NO   OCC          E(Eh)            E(eV)
   0   2.0000    -101.608556     -2764.9094
   1   2.0000     -89.149509     -2425.8815
   2   2.0000     -88.984660     -2421.3957
   3   2.0000     -88.977923     -2421.2124
   4   2.0000     -88.956105     -2420.6187
   5   2.0000     -19.247655      -523.7553
   6   2.0000     -19.247518      -523.7516
   7   2.0000     -19.208223      -522.6823
   8   2.0000     -19.207264      -522.6562
   9   2.0000     -19.199563      -522.4467
  10   2.0000     -19.199432      -522.4431
  11   2.0000     -19.190113      -522.1895
  12   2.0000     -14.464202      -393.5910
  13   2.0000     -14.452988      -393.2858
  14   2.0000     -14.416962      -392.3055
  15   2.0000     -14.412420      -392.1819
  16   2.0000     -10.386396      -282.6282
  17   2.0000     -10.374980      -282.3176
  18   2.0000     -10.367214      -282.1062
  19   2.0000     -10.365627      -282.0631
  20   2.0000     -10.355214      -281.7797
  21   2.0000     -10.341441      -281.4049
  22   2.0000     -10.339068      -281.3403
  23   2.0000     -10.336346      -281.2663
  24   2.0000     -10.335846      -281.2527
  25   2.0000     -10.330193      -281.0988
  26   2.0000     -10.329407      -281.0775
  27   2.0000     -10.326967      -281.0111
  28   2.0000     -10.325362      -280.9674
  29   2.0000     -10.324328      -280.9393
  30   2.0000     -10.320876      -280.8453
  31   2.0000     -10.319803      -280.8161
  32   2.0000     -10.318797      -280.7887
  33   2.0000     -10.318743      -280.7873
  34   2.0000     -10.315157      -280.6897
  35   2.0000     -10.315118      -280.6886
  36   2.0000     -10.314907      -280.6829
  37   2.0000     -10.312465      -280.6164
  38   2.0000     -10.309694      -280.5410
  39   2.0000     -10.307058      -280.4693
  40   2.0000     -10.306619      -280.4574
  41   2.0000     -10.305726      -280.4331
  42   2.0000     -10.304038      -280.3871
  43   2.0000     -10.301904      -280.3291
  44   2.0000     -10.299918      -280.2750
  45   2.0000     -10.299476      -280.2630
  46   2.0000     -10.295538      -280.1558
  47   2.0000     -10.295341      -280.1505
  48   2.0000     -10.290652      -280.0229
  49   2.0000     -10.289433      -279.9897
  50   2.0000     -10.287716      -279.9430
  51   2.0000     -10.281701      -279.7793
  52   2.0000     -10.279170      -279.7104
  53   2.0000     -10.276883      -279.6482
  54   2.0000     -10.276746      -279.6445
  55   2.0000     -10.275245      -279.6036
  56   2.0000     -10.274606      -279.5862
  57   2.0000     -10.273525      -279.5568
  58   2.0000     -10.273231      -279.5488
  59   2.0000     -10.267907      -279.4040
  60   2.0000     -10.256277      -279.0875
  61   2.0000      -9.563391      -260.2331
  62   2.0000      -8.214290      -223.5222
  63   2.0000      -8.080293      -219.8760
  64   2.0000      -8.073528      -219.6919
  65   2.0000      -8.050196      -219.0570
  66   2.0000      -7.333978      -199.5677
  67   2.0000      -7.323429      -199.2806
  68   2.0000      -7.322944      -199.2674
  69   2.0000      -6.183288      -168.2558
  70   2.0000      -6.182959      -168.2469
  71   2.0000      -6.182602      -168.2371
  72   2.0000      -6.049667      -164.6198
  73   2.0000      -6.045126      -164.4962
  74   2.0000      -6.042935      -164.4366
  75   2.0000      -6.042556      -164.4263
  76   2.0000      -6.038507      -164.3161
  77   2.0000      -6.035567      -164.2361
  78   2.0000      -6.019460      -163.7978
  79   2.0000      -6.015149      -163.6805
  80   2.0000      -6.012656      -163.6127
  81   2.0000      -1.205395       -32.8005
  82   2.0000      -1.152668       -31.3657
  83   2.0000      -1.150302       -31.3013
  84   2.0000      -1.145986       -31.1839
  85   2.0000      -1.129799       -30.7434
  86   2.0000      -1.125129       -30.6163
  87   2.0000      -1.082578       -29.4585
  88   2.0000      -1.073672       -29.2161
  89   2.0000      -1.059271       -28.8242
  90   2.0000      -1.029145       -28.0045
  91   2.0000      -1.016631       -27.6639
  92   2.0000      -1.011321       -27.5195
  93   2.0000      -0.993243       -27.0275
  94   2.0000      -0.988031       -26.8857
  95   2.0000      -0.980219       -26.6731
  96   2.0000      -0.958958       -26.0946
  97   2.0000      -0.954134       -25.9633
  98   2.0000      -0.946814       -25.7641
  99   2.0000      -0.935927       -25.4679
 100   2.0000      -0.922026       -25.0896
 101   2.0000      -0.908250       -24.7147
 102   2.0000      -0.904022       -24.5997
 103   2.0000      -0.892020       -24.2731
 104   2.0000      -0.889050       -24.1923
 105   2.0000      -0.874430       -23.7945
 106   2.0000      -0.864382       -23.5210
 107   2.0000      -0.859718       -23.3941
 108   2.0000      -0.842516       -22.9260
 109   2.0000      -0.831491       -22.6260
 110   2.0000      -0.825646       -22.4670
 111   2.0000      -0.824699       -22.4412
 112   2.0000      -0.823946       -22.4207
 113   2.0000      -0.814824       -22.1725
 114   2.0000      -0.805581       -21.9210
 115   2.0000      -0.800462       -21.7817
 116   2.0000      -0.786119       -21.3914
 117   2.0000      -0.770892       -20.9770
 118   2.0000      -0.764475       -20.8024
 119   2.0000      -0.763867       -20.7859
 120   2.0000      -0.752245       -20.4696
 121   2.0000      -0.744549       -20.2602
 122   2.0000      -0.736910       -20.0523
 123   2.0000      -0.721605       -19.6359
 124   2.0000      -0.715850       -19.4793
 125   2.0000      -0.713526       -19.4160
 126   2.0000      -0.693242       -18.8641
 127   2.0000      -0.684396       -18.6233
 128   2.0000      -0.683565       -18.6007
 129   2.0000      -0.672645       -18.3036
 130   2.0000      -0.667565       -18.1654
 131   2.0000      -0.661745       -18.0070
 132   2.0000      -0.656216       -17.8565
 133   2.0000      -0.653177       -17.7739
 134   2.0000      -0.647615       -17.6225
 135   2.0000      -0.640748       -17.4356
 136   2.0000      -0.628695       -17.1077
 137   2.0000      -0.620990       -16.8980
 138   2.0000      -0.619375       -16.8540
 139   2.0000      -0.618715       -16.8361
 140   2.0000      -0.610747       -16.6193
 141   2.0000      -0.600863       -16.3503
 142   2.0000      -0.599870       -16.3233
 143   2.0000      -0.595498       -16.2043
 144   2.0000      -0.590599       -16.0710
 145   2.0000      -0.587775       -15.9942
 146   2.0000      -0.585974       -15.9452
 147   2.0000      -0.580864       -15.8061
 148   2.0000      -0.579065       -15.7572
 149   2.0000      -0.563099       -15.3227
 150   2.0000      -0.560374       -15.2486
 151   2.0000      -0.557896       -15.1811
 152   2.0000      -0.553618       -15.0647
 153   2.0000      -0.551214       -14.9993
 154   2.0000      -0.547644       -14.9022
 155   2.0000      -0.543908       -14.8005
 156   2.0000      -0.542725       -14.7683
 157   2.0000      -0.541325       -14.7302
 158   2.0000      -0.536370       -14.5954
 159   2.0000      -0.535810       -14.5801
 160   2.0000      -0.534760       -14.5516
 161   2.0000      -0.533329       -14.5126
 162   2.0000      -0.531510       -14.4631
 163   2.0000      -0.523151       -14.2357
 164   2.0000      -0.520458       -14.1624
 165   2.0000      -0.518058       -14.0971
 166   2.0000      -0.516852       -14.0642
 167   2.0000      -0.514193       -13.9919
 168   2.0000      -0.513381       -13.9698
 169   2.0000      -0.510865       -13.9014
 170   2.0000      -0.506659       -13.7869
 171   2.0000      -0.502025       -13.6608
 172   2.0000      -0.501629       -13.6500
 173   2.0000      -0.501233       -13.6392
 174   2.0000      -0.499356       -13.5882
 175   2.0000      -0.496388       -13.5074
 176   2.0000      -0.494104       -13.4452
 177   2.0000      -0.488779       -13.3004
 178   2.0000      -0.488050       -13.2805
 179   2.0000      -0.486842       -13.2477
 180   2.0000      -0.484280       -13.1779
 181   2.0000      -0.478716       -13.0265
 182   2.0000      -0.475111       -12.9284
 183   2.0000      -0.470833       -12.8120
 184   2.0000      -0.468514       -12.7489
 185   2.0000      -0.466748       -12.7009
 186   2.0000      -0.463107       -12.6018
 187   2.0000      -0.458015       -12.4632
 188   2.0000      -0.456080       -12.4106
 189   2.0000      -0.451694       -12.2912
 190   2.0000      -0.450773       -12.2662
 191   2.0000      -0.449879       -12.2418
 192   2.0000      -0.448376       -12.2009
 193   2.0000      -0.447021       -12.1641
 194   2.0000      -0.445696       -12.1280
 195   2.0000      -0.443954       -12.0806
 196   2.0000      -0.441275       -12.0077
 197   2.0000      -0.440159       -11.9773
 198   2.0000      -0.436854       -11.8874
 199   2.0000      -0.433635       -11.7998
 200   2.0000      -0.431218       -11.7340
 201   2.0000      -0.428975       -11.6730
 202   2.0000      -0.426027       -11.5928
 203   2.0000      -0.424597       -11.5539
 204   2.0000      -0.423048       -11.5117
 205   2.0000      -0.418477       -11.3873
 206   2.0000      -0.411780       -11.2051
 207   2.0000      -0.408746       -11.1225
 208   2.0000      -0.406583       -11.0637
 209   2.0000      -0.404474       -11.0063
 210   2.0000      -0.402360       -10.9488
 211   2.0000      -0.397226       -10.8091
 212   2.0000      -0.395463       -10.7611
 213   2.0000      -0.394508       -10.7351
 214   2.0000      -0.386835       -10.5263
 215   2.0000      -0.370061       -10.0699
 216   2.0000      -0.363232        -9.8841
 217   2.0000      -0.361676        -9.8417
 218   2.0000      -0.358019        -9.7422
 219   2.0000      -0.353726        -9.6254
 220   2.0000      -0.344009        -9.3610
 221   2.0000      -0.338738        -9.2175
 222   2.0000      -0.334522        -9.1028
 223   2.0000      -0.331758        -9.0276
 224   2.0000      -0.324850        -8.8396
 225   2.0000      -0.324235        -8.8229
 226   2.0000      -0.320676        -8.7260
 227   2.0000      -0.316774        -8.6199
 228   2.0000      -0.303480        -8.2581
 229   2.0000      -0.301727        -8.2104
 230   2.0000      -0.284465        -7.7407
 231   2.0000      -0.256723        -6.9858
 232   2.0000      -0.238882        -6.5003
 233   0.0000      -0.114112        -3.1051
 234   0.0000      -0.077745        -2.1156
 235   0.0000      -0.050033        -1.3615
 236   0.0000      -0.036483        -0.9928
 237   0.0000      -0.014071        -0.3829

MULLIKEN ATOMIC CHARGES
-----------------------
   0 C :    0.033859
   1 C :   -0.136202
   2 S :    0.176593
   3 C :   -0.173003
   4 Cl:   -0.009755
   5 C :    0.098663
   6 C :    0.156573
   7 O :   -0.132552
   8 C :   -0.095269
   9 C :    0.291219
  10 C :   -0.338593
  11 C :   -0.191558
  12 N :    0.150669
  13 C :   -0.185259
  14 N :    0.152393
  15 C :   -0.057842
  16 C :    0.127760
  17 N :   -0.256832
  18 C :    0.103693
  19 C :    0.000049
  20 C :    0.178162
  21 O :   -0.220251
  22 C :   -0.100787
  23 C :   -0.002486
  24 C :    0.166018
  25 O :   -0.187783
  26 N :   -0.263695
  27 C :    0.101704
  28 C :    0.001964
  29 C :    0.156399
  30 C :   -0.027479
  31 C :    0.093729
  32 C :   -0.164820
  33 S :    0.171538
  34 C :   -0.130503
  35 C :    0.030380
  36 C :    0.120817
  37 C :   -0.003000
  38 C :    0.016944
  39 S :    0.767662
  40 O :   -0.447559
  41 O :   -0.449568
  42 C :   -0.026930
  43 C :    0.054541
  44 C :   -0.052372
  45 C :    0.035460
  46 C :    0.003311
  47 C :   -0.085394
  48 S :    0.128940
  49 C :    0.185059
  50 C :    0.045455
  51 O :   -0.363075
  52 C :    0.199955
  53 C :    0.070548
  54 C :   -0.171116
  55 C :    0.276821
  56 C :   -0.114594
  57 O :   -0.309310
  58 C :    0.176494
  59 C :   -0.039503
  60 C :   -0.014372
  61 H :    0.052345
  62 H :    0.017952
  63 H :    0.025122
  64 H :    0.038953
  65 H :    0.030046
  66 H :    0.025327
  67 H :    0.026320
  68 H :    0.023391
  69 H :    0.045815
  70 H :    0.018263
  71 H :    0.022891
  72 H :    0.032823
  73 H :   -0.061957
  74 H :    0.008210
  75 H :    0.046426
  76 H :   -0.014962
  77 H :   -0.010326
  78 H :    0.016013
  79 H :   -0.009759
  80 H :   -0.015372
  81 H :    0.032955
  82 H :    0.029718
  83 H :    0.016958
  84 H :   -0.037783
  85 H :   -0.030223
  86 H :    0.039174
  87 H :    0.024340
  88 H :    0.021296
  89 H :    0.017481
  90 H :    0.018697
  91 H :    0.027956
Sum of atomic charges:   -0.0000000

LOEWDIN ATOMIC CHARGES
----------------------
   0 C :   -0.056335
   1 C :   -0.152044
   2 S :    0.468076
   3 C :   -0.273469
   4 Cl:    0.186817
   5 C :   -0.105089
   6 C :    0.084239
   7 O :   -0.131196
   8 C :   -0.065448
   9 C :    0.074568
  10 C :   -0.143731
  11 C :   -0.016394
  12 N :   -0.056967
  13 C :   -0.018651
  14 N :   -0.056183
  15 C :    0.037223
  16 C :    0.047919
  17 N :    0.005070
  18 C :    0.037895
  19 C :   -0.060693
  20 C :    0.077122
  21 O :   -0.210741
  22 C :   -0.126807
  23 C :   -0.068892
  24 C :    0.093282
  25 O :   -0.170346
  26 N :   -0.000225
  27 C :    0.036624
  28 C :   -0.061568
  29 C :    0.100787
  30 C :   -0.063760
  31 C :    0.032270
  32 C :   -0.179389
  33 S :    0.478512
  34 C :   -0.143762
  35 C :   -0.206192
  36 C :   -0.047919
  37 C :   -0.044433
  38 C :   -0.126400
  39 S :    1.171767
  40 O :   -0.491831
  41 O :   -0.494146
  42 C :   -0.067651
  43 C :    0.010562
  44 C :   -0.190887
  45 C :   -0.030539
  46 C :   -0.059111
  47 C :   -0.148329
  48 S :    0.470910
  49 C :   -0.043362
  50 C :    0.030021
  51 O :   -0.139122
  52 C :    0.073938
  53 C :   -0.034022
  54 C :   -0.061141
  55 C :    0.054313
  56 C :   -0.030812
  57 O :   -0.104911
  58 C :    0.076106
  59 C :   -0.017506
  60 C :   -0.041189
  61 H :    0.036679
  62 H :    0.043843
  63 H :    0.026130
  64 H :    0.036742
  65 H :    0.025176
  66 H :    0.032616
  67 H :    0.030778
  68 H :    0.022848
  69 H :    0.039646
  70 H :    0.022092
  71 H :    0.030468
  72 H :    0.033932
  73 H :    0.024034
  74 H :    0.039637
  75 H :    0.038982
  76 H :    0.030612
  77 H :    0.028258
  78 H :    0.034196
  79 H :    0.033739
  80 H :    0.029763
  81 H :    0.016989
  82 H :    0.023083
  83 H :    0.011641
  84 H :    0.027429
  85 H :    0.032467
  86 H :    0.029970
  87 H :    0.015435
  88 H :    0.014458
  89 H :    0.033520
  90 H :    0.021047
  91 H :    0.026966

  Mayer bond orders larger than 0.100000
B(  0-C ,  1-C ) :   1.5426 B(  0-C ,  5-C ) :   1.2314 B(  0-C ,  9-C ) :   0.9974
B(  1-C ,  2-S ) :   1.1611 B(  1-C , 61-H ) :   0.9529 B(  2-S ,  3-C ) :   1.1420
B(  3-C ,  4-Cl) :   1.1197 B(  3-C ,  5-C ) :   1.4899 B(  5-C ,  6-C ) :   0.9309
B(  6-C ,  7-O ) :   2.2556 B(  6-C ,  8-C ) :   0.9172 B(  8-C ,  9-C ) :   1.1086
B(  8-C , 15-C ) :   1.5813 B(  9-C , 10-C ) :   1.6261 B( 10-C , 11-C ) :   1.1486
B( 10-C , 13-C ) :   1.1433 B( 11-C , 12-N ) :   2.9884 B( 13-C , 14-N ) :   2.9802
B( 15-C , 16-C ) :   1.1621 B( 15-C , 62-H ) :   0.9269 B( 16-C , 17-N ) :   1.1518
B( 16-C , 23-C ) :   1.3570 B( 17-N , 18-C ) :   0.9414 B( 17-N , 20-C ) :   1.0801
B( 18-C , 19-C ) :   1.1207 B( 18-C , 63-H ) :   0.9498 B( 18-C , 64-H ) :   0.9301
B( 19-C , 65-H ) :   0.9654 B( 19-C , 66-H ) :   0.9663 B( 19-C , 67-H ) :   0.9619
B( 20-C , 21-O ) :   2.0098 B( 20-C , 22-C ) :   0.9862 B( 21-O , 74-H ) :   0.1240
B( 22-C , 23-C ) :   1.3065 B( 22-C , 29-C ) :   1.2805 B( 23-C , 24-C ) :   0.9545
B( 24-C , 25-O ) :   2.1043 B( 24-C , 26-N ) :   1.0408 B( 26-N , 27-C ) :   0.9460
B( 26-N , 29-C ) :   1.1652 B( 27-C , 28-C ) :   1.1196 B( 27-C , 68-H ) :   0.9486
B( 27-C , 69-H ) :   0.9280 B( 28-C , 70-H ) :   0.9683 B( 28-C , 71-H ) :   0.9678
B( 28-C , 72-H ) :   0.9628 B( 29-C , 30-C ) :   1.2100 B( 30-C , 31-C ) :   1.5552
B( 30-C , 73-H ) :   0.9556 B( 31-C , 32-C ) :   1.1842 B( 31-C , 74-H ) :   0.9256
B( 32-C , 33-S ) :   1.1242 B( 32-C , 36-C ) :   1.3892 B( 33-S , 34-C ) :   1.1819
B( 34-C , 35-C ) :   1.6021 B( 34-C , 75-H ) :   0.9765 B( 35-C , 36-C ) :   1.2610
B( 35-C , 39-S ) :   0.7631 B( 36-C , 37-C ) :   1.0996 B( 37-C , 38-C ) :   1.6065
B( 37-C , 76-H ) :   0.9967 B( 38-C , 39-S ) :   0.8181 B( 38-C , 42-C ) :   1.2310
B( 39-S , 40-O ) :   1.7191 B( 39-S , 41-O ) :   1.7104 B( 42-C , 43-C ) :   1.5809
B( 42-C , 77-H ) :   0.9762 B( 43-C , 44-C ) :   1.1881 B( 43-C , 78-H ) :   0.9614
B( 44-C , 45-C ) :   1.4422 B( 44-C , 48-S ) :   1.0732 B( 45-C , 46-C ) :   1.2782
B( 45-C , 79-H ) :   1.0022 B( 46-C , 47-C ) :   1.4950 B( 46-C , 80-H ) :   0.9917
B( 47-C , 48-S ) :   1.1481 B( 47-C , 49-C ) :   1.0541 B( 49-C , 50-C ) :   1.3161
B( 49-C , 56-C ) :   1.3318 B( 50-C , 51-O ) :   1.1047 B( 50-C , 53-C ) :   1.3773
B( 51-O , 52-C ) :   0.9201 B( 52-C , 81-H ) :   0.9666 B( 52-C , 82-H ) :   0.9818
B( 52-C , 83-H ) :   0.9644 B( 53-C , 54-C ) :   1.3253 B( 53-C , 59-C ) :   1.0225
B( 54-C , 55-C ) :   1.2830 B( 54-C , 84-H ) :   0.9991 B( 55-C , 56-C ) :   1.3371
B( 55-C , 57-O ) :   1.1500 B( 56-C , 85-H ) :   1.0055 B( 57-O , 58-C ) :   0.9693
B( 58-C , 86-H ) :   0.9788 B( 58-C , 87-H ) :   0.9690 B( 58-C , 88-H ) :   0.9688
B( 59-C , 60-C ) :   1.9545 B( 59-C , 89-H ) :   0.9638 B( 60-C , 90-H ) :   0.9550
B( 60-C , 91-H ) :   0.9530

-----------------------------------------------------------------------------
         ABSORPTION SPECTRUM VIA TRANSITION ELECTRIC DIPOLE MOMENTS
-----------------------------------------------------------------------------
State   Energy  Wavelength   fosc         T2         TX        TY        TZ
        (cm-1)    (nm)                  (au**2)     (au)      (au)      (au)
-----------------------------------------------------------------------------
   0   11406.0    876.7   0.840751506  24.26668   2.04971  -0.36341   4.46467
   1   18071.0    553.4   0.448673921   8.17378  -2.03390  -1.19134  -1.61794
   2   20672.8    483.7   0.131855880   2.09979   1.15060   0.71474   0.51483
   3   22733.2    439.9   0.036069527   0.52234  -0.00444  -0.42116   0.58732
   4   24234.3    412.6   0.020075862   0.27272  -0.06578  -0.02226  -0.51759
   5   25002.9    400.0   0.055532858   0.73120  -0.61674  -0.57638   0.13640
   6   25488.5    392.3   0.247207244   3.19295  -0.83510  -1.04533  -1.18442
   7   26112.3    383.0   0.327749440   4.13212  -1.61496  -1.23409   0.03218
   8   26668.5    375.0   0.036799508   0.45428   0.32379   0.59077  -0.02067
   9   27238.8    367.1   0.421949325   5.09973  -0.01447  -0.98201   2.03351
  10   28119.2    355.6   0.029237414   0.34230   0.25492   0.31141  -0.42467
  11   28581.8    349.9   0.035661397   0.41076  -0.04253  -0.53554  -0.34949
  12   28813.2    347.1   0.035050283   0.40048   0.35245   0.52014   0.07553
  13   29972.8    333.6   0.000572809   0.00629   0.03070  -0.05690  -0.04594
  14   30898.2    323.6   0.009845094   0.10490   0.06445  -0.13633   0.28663
  15   32242.7    310.1   0.351845370   3.59249   1.10231   1.41810  -0.60529
  16   33252.9    300.7   0.308388508   3.05313   0.37412   1.39041  -0.98991
  17   33367.6    299.7   0.109714380   1.08247   0.77768   0.68527   0.08991
  18   34334.9    291.2   0.027365193   0.26238  -0.45946  -0.21003   0.08467
  19   34553.2    289.4   0.040367429   0.38461  -0.05809   0.06673  -0.61383
  20   34959.4    286.0   0.003234277   0.03046   0.11353  -0.09114   0.09624
  21   35293.6    283.3   0.026494743   0.24714  -0.28356  -0.04773  -0.40553
  22   35579.7    281.1   0.028265801   0.26154   0.11224   0.40508   0.29129
  23   35990.9    277.8   0.016761797   0.15332  -0.19705  -0.19198   0.27863
  24   36571.9    273.4   0.241113563   2.17045   0.48969   1.38755   0.07322
  25   36685.4    272.6   0.022952789   0.20598  -0.16761  -0.42167   0.00903
  26   37019.7    270.1   0.042968516   0.38211   0.23837   0.56590  -0.07105
  27   37217.6    268.7   0.007982310   0.07061  -0.19130  -0.17124  -0.06849
  28   37441.7    267.1   0.009024975   0.07935  -0.10502  -0.24823  -0.08190
  29   38314.3    261.0   0.046053840   0.39571   0.16705   0.54076  -0.27457
  30   38468.8    260.0   0.033523566   0.28689  -0.06127  -0.52181   0.10418
  31   38615.3    259.0   0.130415883   1.11185  -0.37633  -0.95971  -0.22178
  32   39058.1    256.0   0.025726191   0.21684  -0.08730  -0.14996  -0.43212
  33   39755.2    251.5   0.046244745   0.38295   0.19748   0.32846  -0.48587
  34   40080.4    249.5   0.266783503   2.19131  -0.15681  -1.06097  -1.02033
  35   40198.7    248.8   0.005950895   0.04874   0.15570  -0.02738  -0.15409

FINAL SINGLE POINT ENERGY     -4528.088950609605

DIPOLE MOMENT
-------------
                                X             Y             Z
Electronic contribution:    -55.56391      -3.08124     -47.98575
Nuclear contribution   :     58.48743       5.32541      49.90707
                        -----------------------------------------
Total Dipole Moment    :      2.92352       2.24417       1.92131
                        -----------------------------------------
Magnitude (a.u.)       :      4.15628
Magnitude (Debye)      :     10.56443

Rotational constants in cm-1:     0.001407     0.000417     0.000331
Rotational constants in MHz :    42.172366    12.515594     9.927795

                             ****ORCA TERMINATED NORMALLY****
TOTAL RUN TIME: 0 days 0 hours 7 minutes 58 seconds 982 msec
