                         Program Version 4.2.0 -  RELEASE  -
|  1> # ORCA input file
|  2> # SCF done       -165.064924547268          0.000906766531
|  3> ! CAM-B3LYP def2-SVP def2/J RIJCOSX Grid4 TightSCF
|  4> %maxcore 5000
|  5> %tddft
|  6>     Mode sTDDFT
|  7>     Ethresh 5.0
|  8>     maxcore 5000
|  9> end
| 10>
| 11> %pal
| 12>   nprocs 6
| 13>   end
| 14> * xyz 0 1
| 15>    C        5.79788        -3.39697         6.07768
| 16>    C        5.67573        -3.33135         7.43208
| 17>    S        4.79158        -1.93060         7.91137
| 18>    C        4.57350        -1.41982         6.25363
| 19>   Cl        3.73221        -0.00158         5.86963
| 20>    C        5.16870        -2.30201         5.40150
| 21>    C        5.34220        -2.43665         3.95104
| 22>    O        4.90334        -1.72195         3.08278
| 23>    C        6.12599        -3.70583         3.78168
| 24>    C        6.40010        -4.27671         5.09895
| 25>    C        7.11629        -5.40276         5.39863
| 26>    C        7.30600        -5.81807         6.73482
| 27>    N        7.46804        -6.17194         7.81373
| 28>    C        7.73827        -6.26075         4.46905
| 29>    N        8.26968        -6.99768         3.76722
| 30>    C        6.40923        -4.29093         2.59625
| 31>    C        6.23570        -3.71775         1.28026
| 32>    C        5.80967        -4.51751         0.22183
| 33>    C        5.68650        -3.98185        -1.05880
| 34>    C        5.97295        -2.61834        -1.20267
| 35>    N        6.44195        -1.87616        -0.22093
| 36>    C        6.59258        -2.39429         0.97552
| 37>    C        5.26153        -4.81566        -2.16554
| 38>    S        4.14418        -6.11421        -1.88208
| 39>    C        4.21340        -6.58612        -3.54011
| 40>    C        5.05476        -5.77477        -4.26886
| 41>    C        5.65070        -4.76502        -3.48690
| 42>    C        6.65356        -3.82357        -4.07809
| 43>    C        7.32779        -4.47760        -5.29080
| 44>    C        8.32157        -3.49183        -5.89538
| 45>    F        9.19131        -3.04544        -4.97446
| 46>    F        9.05982        -4.02397        -6.87671
| 47>    F        7.71800        -2.40953        -6.40499
| 48>    C        6.25149        -4.88288        -6.31217
| 49>    C        6.81495        -5.42844        -7.52657
| 50>    N        7.20480        -5.92881        -8.47737
| 51>    C        5.33429        -5.97129        -5.72151
| 52>    C        3.44565        -7.72708        -3.96845
| 53>    N        2.66432        -8.29169        -3.04198
| 54>    C        1.95919        -9.34059        -3.41339
| 55>    C        2.01172        -9.85294        -4.70195
| 56>    C        2.85741        -9.19896        -5.60442
| 57>    N        3.57268        -8.13846        -5.22313
| 58>    C        2.98973        -9.63731        -6.97964
| 59>    C        3.74931        -8.96471        -7.86407
| 60>    C        3.92792        -9.31940        -9.23179
| 61>    C        4.42720        -8.49670       -10.18710
| 62>    C        4.97460        -9.05011       -11.46937
| 63>    O        4.77479       -10.15113       -11.91872
| 64>    C        5.83220        -7.97400       -11.97975
| 65>    C        6.71770        -7.79622       -13.00128
| 66>    S        7.40504        -6.18937       -12.94259
| 67>    C        6.47851        -5.76938       -11.55210
| 68>    C        5.69833        -6.80824       -11.15279
| 69>    C        4.71902        -7.07416       -10.12227
| 70>    C        4.06914        -6.12609        -9.38084
| 71>    C        4.43623        -4.76435        -9.41357
| 72>    N        4.71162        -3.65094        -9.37709
| 73>    C        2.92845        -6.35944        -8.58454
| 74>    N        1.97111        -6.46167        -7.95939
| 75>   Cl        7.16129        -8.90199       -14.20402
| 76>    H        6.04054        -4.00534         8.18157
| 77>    H        6.81050        -5.29751         2.59904
| 78>    H        5.55559        -5.55423         0.39261
| 79>    H        5.80430        -2.10353        -2.13677
| 80>    H        7.03760        -1.75009         1.71885
| 81>    H        7.40355        -3.55413        -3.33097
| 82>    H        6.16104        -2.90240        -4.40730
| 83>    H        7.89949        -5.35910        -4.97976
| 84>    H        5.66673        -3.99421        -6.58155
| 85>    H        5.79926        -6.95454        -5.84875
| 86>    H        4.38665        -5.99638        -6.26419
| 87>    H        1.33222        -9.78224        -2.64947
| 88>    H        1.42927       -10.71019        -4.99605
| 89>    H        2.41321       -10.50200        -7.27655
| 90>    H        4.28086        -8.09655        -7.50055
| 91>    H        3.72232       -10.34188        -9.52775
| 92>    H        6.59532        -4.80173       -11.10668
| 93> *
| 94>
| 95>                          ****END OF INPUT****

CARTESIAN COORDINATES (ANGSTROEM)
---------------------------------
  C      5.797880   -3.396970    6.077680
  C      5.675730   -3.331350    7.432080
  S      4.791580   -1.930600    7.911370
  C      4.573500   -1.419820    6.253630
  Cl     3.732210   -0.001580    5.869630
  C      5.168700   -2.302010    5.401500
  C      5.342200   -2.436650    3.951040
  O      4.903340   -1.721950    3.082780
  C      6.125990   -3.705830    3.781680
  C      6.400100   -4.276710    5.098950
  C      7.116290   -5.402760    5.398630
  C      7.306000   -5.818070    6.734820
  N      7.468040   -6.171940    7.813730
  C      7.738270   -6.260750    4.469050
  N      8.269680   -6.997680    3.767220
  C      6.409230   -4.290930    2.596250
  C      6.235700   -3.717750    1.280260
  C      5.809670   -4.517510    0.221830
  C      5.686500   -3.981850   -1.058800
  C      5.972950   -2.618340   -1.202670
  N      6.441950   -1.876160   -0.220930
  C      6.592580   -2.394290    0.975520
  C      5.261530   -4.815660   -2.165540
  S      4.144180   -6.114210   -1.882080
  C      4.213400   -6.586120   -3.540110
  C      5.054760   -5.774770   -4.268860
  C      5.650700   -4.765020   -3.486900
  C      6.653560   -3.823570   -4.078090
  C      7.327790   -4.477600   -5.290800
  C      8.321570   -3.491830   -5.895380
  F      9.191310   -3.045440   -4.974460
  F      9.059820   -4.023970   -6.876710
  F      7.718000   -2.409530   -6.404990
  C      6.251490   -4.882880   -6.312170
  C      6.814950   -5.428440   -7.526570
  N      7.204800   -5.928810   -8.477370
  C      5.334290   -5.971290   -5.721510
  C      3.445650   -7.727080   -3.968450
  N      2.664320   -8.291690   -3.041980
  C      1.959190   -9.340590   -3.413390
  C      2.011720   -9.852940   -4.701950
  C      2.857410   -9.198960   -5.604420
  N      3.572680   -8.138460   -5.223130
  C      2.989730   -9.637310   -6.979640
  C      3.749310   -8.964710   -7.864070
  C      3.927920   -9.319400   -9.231790
  C      4.427200   -8.496700  -10.187100
  C      4.974600   -9.050110  -11.469370
  O      4.774790  -10.151130  -11.918720
  C      5.832200   -7.974000  -11.979750
  C      6.717700   -7.796220  -13.001280
  S      7.405040   -6.189370  -12.942590
  C      6.478510   -5.769380  -11.552100
  C      5.698330   -6.808240  -11.152790
  C      4.719020   -7.074160  -10.122270
  C      4.069140   -6.126090   -9.380840
  C      4.436230   -4.764350   -9.413570
  N      4.711620   -3.650940   -9.377090
  C      2.928450   -6.359440   -8.584540
  N      1.971110   -6.461670   -7.959390
  Cl     7.161290   -8.901990  -14.204020
  H      6.040540   -4.005340    8.181570
  H      6.810500   -5.297510    2.599040
  H      5.555590   -5.554230    0.392610
  H      5.804300   -2.103530   -2.136770
  H      7.037600   -1.750090    1.718850
  H      7.403550   -3.554130   -3.330970
  H      6.161040   -2.902400   -4.407300
  H      7.899490   -5.359100   -4.979760
  H      5.666730   -3.994210   -6.581550
  H      5.799260   -6.954540   -5.848750
  H      4.386650   -5.996380   -6.264190
  H      1.332220   -9.782240   -2.649470
  H      1.429270  -10.710190   -4.996050
  H      2.413210  -10.502000   -7.276550
  H      4.280860   -8.096550   -7.500550
  H      3.722320  -10.341880   -9.527750
  H      6.595320   -4.801730  -11.106680

 Total Charge           Charge          ....    0
 Multiplicity           Mult            ....    1
 Number of Electrons    NEL             ....  456
 Basis Dimension        Dim             ....  959

ORBITAL ENERGIES
----------------

  NO   OCC          E(Eh)            E(eV)
   0   2.0000    -101.622236     -2765.2816
   1   2.0000    -101.613608     -2765.0468
   2   2.0000     -89.000107     -2421.8160
   3   2.0000     -88.988693     -2421.5054
   4   2.0000     -88.964195     -2420.8388
   5   2.0000     -24.805174      -674.9831
   6   2.0000     -24.801860      -674.8929
   7   2.0000     -24.801821      -674.8919
   8   2.0000     -19.227800      -523.2151
   9   2.0000     -19.219769      -522.9965
  10   2.0000     -14.428602      -392.6222
  11   2.0000     -14.426774      -392.5725
  12   2.0000     -14.422911      -392.4674
  13   2.0000     -14.421611      -392.4320
  14   2.0000     -14.420932      -392.4135
  15   2.0000     -14.420502      -392.4018
  16   2.0000     -14.412510      -392.1843
  17   2.0000     -14.410896      -392.1404
  18   2.0000     -10.517396      -286.1929
  19   2.0000     -10.385267      -282.5975
  20   2.0000     -10.382218      -282.5145
  21   2.0000     -10.376089      -282.3477
  22   2.0000     -10.371334      -282.2183
  23   2.0000     -10.360544      -281.9247
  24   2.0000     -10.356573      -281.8167
  25   2.0000     -10.355949      -281.7997
  26   2.0000     -10.349343      -281.6199
  27   2.0000     -10.348190      -281.5886
  28   2.0000     -10.342366      -281.4301
  29   2.0000     -10.335999      -281.2568
  30   2.0000     -10.333625      -281.1922
  31   2.0000     -10.331026      -281.1215
  32   2.0000     -10.330552      -281.1086
  33   2.0000     -10.329847      -281.0894
  34   2.0000     -10.328556      -281.0543
  35   2.0000     -10.325142      -280.9614
  36   2.0000     -10.323581      -280.9189
  37   2.0000     -10.322926      -280.9011
  38   2.0000     -10.320654      -280.8393
  39   2.0000     -10.320442      -280.8335
  40   2.0000     -10.320118      -280.8247
  41   2.0000     -10.319687      -280.8130
  42   2.0000     -10.319287      -280.8021
  43   2.0000     -10.316156      -280.7169
  44   2.0000     -10.313028      -280.6318
  45   2.0000     -10.312559      -280.6190
  46   2.0000     -10.307993      -280.4947
  47   2.0000     -10.307289      -280.4756
  48   2.0000     -10.306576      -280.4562
  49   2.0000     -10.306064      -280.4423
  50   2.0000     -10.305976      -280.4399
  51   2.0000     -10.304976      -280.4126
  52   2.0000     -10.303574      -280.3745
  53   2.0000     -10.302119      -280.3349
  54   2.0000     -10.300987      -280.3041
  55   2.0000     -10.298364      -280.2327
  56   2.0000     -10.296958      -280.1945
  57   2.0000     -10.296709      -280.1877
  58   2.0000     -10.295059      -280.1428
  59   2.0000     -10.294658      -280.1319
  60   2.0000     -10.292267      -280.0668
  61   2.0000      -9.577008      -260.6036
  62   2.0000      -9.568388      -260.3691
  63   2.0000      -8.095818      -220.2984
  64   2.0000      -8.084457      -219.9892
  65   2.0000      -8.059078      -219.2987
  66   2.0000      -7.347667      -199.9402
  67   2.0000      -7.339017      -199.7048
  68   2.0000      -7.337040      -199.6510
  69   2.0000      -7.336478      -199.6357
  70   2.0000      -7.328420      -199.4164
  71   2.0000      -7.327909      -199.4025
  72   2.0000      -6.065179      -165.0419
  73   2.0000      -6.060548      -164.9159
  74   2.0000      -6.058117      -164.8497
  75   2.0000      -6.053817      -164.7327
  76   2.0000      -6.049220      -164.6076
  77   2.0000      -6.046722      -164.5397
  78   2.0000      -6.028275      -164.0377
  79   2.0000      -6.024129      -163.9249
  80   2.0000      -6.021403      -163.8507
  81   2.0000      -1.394045       -37.9339
  82   2.0000      -1.296973       -35.2924
  83   2.0000      -1.294185       -35.2166
  84   2.0000      -1.145657       -31.1749
  85   2.0000      -1.136644       -30.9297
  86   2.0000      -1.097187       -29.8560
  87   2.0000      -1.052334       -28.6355
  88   2.0000      -1.044521       -28.4229
  89   2.0000      -1.034894       -28.1609
  90   2.0000      -1.024704       -27.8836
  91   2.0000      -1.018860       -27.7246
  92   2.0000      -1.009566       -27.4717
  93   2.0000      -1.006122       -27.3780
  94   2.0000      -1.000747       -27.2317
  95   2.0000      -0.999011       -27.1845
  96   2.0000      -0.995292       -27.0833
  97   2.0000      -0.994677       -27.0665
  98   2.0000      -0.987088       -26.8600
  99   2.0000      -0.962081       -26.1795
 100   2.0000      -0.957888       -26.0655
 101   2.0000      -0.953419       -25.9438
 102   2.0000      -0.935306       -25.4510
 103   2.0000      -0.929332       -25.2884
 104   2.0000      -0.917148       -24.9569
 105   2.0000      -0.910665       -24.7804
 106   2.0000      -0.904579       -24.6148
 107   2.0000      -0.895065       -24.3559
 108   2.0000      -0.881288       -23.9811
 109   2.0000      -0.865635       -23.5551
 110   2.0000      -0.857013       -23.3205
 111   2.0000      -0.851932       -23.1822
 112   2.0000      -0.839084       -22.8326
 113   2.0000      -0.828956       -22.5570
 114   2.0000      -0.823598       -22.4112
 115   2.0000      -0.795738       -21.6531
 116   2.0000      -0.793035       -21.5796
 117   2.0000      -0.786898       -21.4126
 118   2.0000      -0.763994       -20.7893
 119   2.0000      -0.761392       -20.7185
 120   2.0000      -0.759627       -20.6705
 121   2.0000      -0.754845       -20.5404
 122   2.0000      -0.744729       -20.2651
 123   2.0000      -0.734953       -19.9991
 124   2.0000      -0.728098       -19.8126
 125   2.0000      -0.712545       -19.3893
 126   2.0000      -0.696245       -18.9458
 127   2.0000      -0.695581       -18.9277
 128   2.0000      -0.690515       -18.7899
 129   2.0000      -0.683538       -18.6000
 130   2.0000      -0.680425       -18.5153
 131   2.0000      -0.675995       -18.3948
 132   2.0000      -0.672970       -18.3124
 133   2.0000      -0.670776       -18.2527
 134   2.0000      -0.661312       -17.9952
 135   2.0000      -0.651523       -17.7288
 136   2.0000      -0.638692       -17.3797
 137   2.0000      -0.635803       -17.3011
 138   2.0000      -0.626886       -17.0584
 139   2.0000      -0.623754       -16.9732
 140   2.0000      -0.620973       -16.8975
 141   2.0000      -0.614712       -16.7272
 142   2.0000      -0.612371       -16.6634
 143   2.0000      -0.608712       -16.5639
 144   2.0000      -0.600702       -16.3459
 145   2.0000      -0.599936       -16.3251
 146   2.0000      -0.579340       -15.7647
 147   2.0000      -0.577048       -15.7023
 148   2.0000      -0.569680       -15.5018
 149   2.0000      -0.564332       -15.3563
 150   2.0000      -0.561643       -15.2831
 151   2.0000      -0.557492       -15.1701
 152   2.0000      -0.556988       -15.1564
 153   2.0000      -0.553123       -15.0512
 154   2.0000      -0.546889       -14.8816
 155   2.0000      -0.546251       -14.8642
 156   2.0000      -0.544222       -14.8090
 157   2.0000      -0.540291       -14.7021
 158   2.0000      -0.539235       -14.6733
 159   2.0000      -0.537583       -14.6284
 160   2.0000      -0.532412       -14.4877
 161   2.0000      -0.531093       -14.4518
 162   2.0000      -0.528585       -14.3835
 163   2.0000      -0.523142       -14.2354
 164   2.0000      -0.521402       -14.1881
 165   2.0000      -0.517633       -14.0855
 166   2.0000      -0.514834       -14.0093
 167   2.0000      -0.513400       -13.9703
 168   2.0000      -0.511839       -13.9279
 169   2.0000      -0.505940       -13.7673
 170   2.0000      -0.504257       -13.7215
 171   2.0000      -0.503163       -13.6918
 172   2.0000      -0.502579       -13.6759
 173   2.0000      -0.498677       -13.5697
 174   2.0000      -0.498248       -13.5580
 175   2.0000      -0.496028       -13.4976
 176   2.0000      -0.493526       -13.4295
 177   2.0000      -0.492766       -13.4089
 178   2.0000      -0.489173       -13.3111
 179   2.0000      -0.488902       -13.3037
 180   2.0000      -0.484796       -13.1920
 181   2.0000      -0.480252       -13.0683
 182   2.0000      -0.472600       -12.8601
 183   2.0000      -0.468698       -12.7539
 184   2.0000      -0.462871       -12.5954
 185   2.0000      -0.461372       -12.5546
 186   2.0000      -0.459951       -12.5159
 187   2.0000      -0.459788       -12.5115
 188   2.0000      -0.457589       -12.4516
 189   2.0000      -0.455182       -12.3861
 190   2.0000      -0.453778       -12.3479
 191   2.0000      -0.452575       -12.3152
 192   2.0000      -0.450635       -12.2624
 193   2.0000      -0.448098       -12.1934
 194   2.0000      -0.446240       -12.1428
 195   2.0000      -0.445199       -12.1145
 196   2.0000      -0.441726       -12.0200
 197   2.0000      -0.440563       -11.9883
 198   2.0000      -0.438681       -11.9371
 199   2.0000      -0.432759       -11.7760
 200   2.0000      -0.430832       -11.7235
 201   2.0000      -0.428999       -11.6737
 202   2.0000      -0.427477       -11.6322
 203   2.0000      -0.424346       -11.5471
 204   2.0000      -0.420259       -11.4358
 205   2.0000      -0.417669       -11.3654
 206   2.0000      -0.409567       -11.1449
 207   2.0000      -0.408284       -11.1100
 208   2.0000      -0.404355       -11.0031
 209   2.0000      -0.403572       -10.9817
 210   2.0000      -0.400007       -10.8848
 211   2.0000      -0.395007       -10.7487
 212   2.0000      -0.388083       -10.5603
 213   2.0000      -0.385380       -10.4867
 214   2.0000      -0.378104       -10.2887
 215   2.0000      -0.363550        -9.8927
 216   2.0000      -0.354131        -9.6364
 217   2.0000      -0.343634        -9.3508
 218   2.0000      -0.343120        -9.3368
 219   2.0000      -0.338337        -9.2066
 220   2.0000      -0.334390        -9.0992
 221   2.0000      -0.332202        -9.0397
 222   2.0000      -0.327827        -8.9206
 223   2.0000      -0.321249        -8.7416
 224   2.0000      -0.314256        -8.5513
 225   2.0000      -0.311092        -8.4653
 226   2.0000      -0.302588        -8.2338
 227   2.0000      -0.282376        -7.6838
 228   0.0000      -0.099956        -2.7199
 229   0.0000      -0.099403        -2.7049
 230   0.0000      -0.057686        -1.5697
 231   0.0000      -0.054570        -1.4849
 232   0.0000      -0.045793        -1.2461

MULLIKEN ATOMIC CHARGES
-----------------------
   0 C :    0.028316
   1 C :   -0.125140
   2 S :    0.193421
   3 C :   -0.170048
   4 Cl:    0.005258
   5 C :    0.072268
   6 C :    0.139937
   7 O :   -0.115358
   8 C :   -0.089883
   9 C :    0.293666
  10 C :   -0.324292
  11 C :   -0.192148
  12 N :    0.158648
  13 C :   -0.190187
  14 N :    0.162912
  15 C :   -0.029380
  16 C :    0.038667
  17 C :   -0.012654
  18 C :    0.021580
  19 C :   -0.001647
  20 N :   -0.053311
  21 C :    0.057634
  22 C :   -0.125199
  23 S :    0.188952
  24 C :   -0.080733
  25 C :   -0.093982
  26 C :   -0.065535
  27 C :    0.189981
  28 C :   -0.191543
  29 C :    0.509939
  30 F :   -0.162194
  31 F :   -0.144903
  32 F :   -0.161136
  33 C :   -0.060651
  34 C :   -0.254068
  35 N :    0.120360
  36 C :    0.187680
  37 C :   -0.074178
  38 N :   -0.078970
  39 C :    0.091067
  40 C :   -0.045546
  41 C :    0.074799
  42 N :   -0.082961
  43 C :    0.011970
  44 C :    0.053038
  45 C :    0.042147
  46 C :   -0.119001
  47 C :    0.139676
  48 O :   -0.121940
  49 C :    0.077990
  50 C :   -0.172443
  51 S :    0.185932
  52 C :   -0.092302
  53 C :    0.034463
  54 C :    0.290517
  55 C :   -0.336896
  56 C :   -0.185274
  57 N :    0.154430
  58 C :   -0.224364
  59 N :    0.179994
  60 Cl:   -0.003844
  61 H :    0.055972
  62 H :    0.035186
  63 H :    0.001371
  64 H :    0.007616
  65 H :    0.006071
  66 H :    0.038475
  67 H :    0.033012
  68 H :    0.042531
  69 H :    0.053735
  70 H :    0.044573
  71 H :    0.053241
  72 H :    0.012925
  73 H :   -0.001058
  74 H :   -0.006970
  75 H :    0.024894
  76 H :    0.020453
  77 H :    0.054443
Sum of atomic charges:   -0.0000000

LOEWDIN ATOMIC CHARGES
----------------------
   0 C :   -0.060691
   1 C :   -0.148004
   2 S :    0.482388
   3 C :   -0.271202
   4 Cl:    0.196271
   5 C :   -0.117974
   6 C :    0.079765
   7 O :   -0.117531
   8 C :   -0.080127
   9 C :    0.074814
  10 C :   -0.131277
  11 C :   -0.015012
  12 N :   -0.046822
  13 C :   -0.023666
  14 N :   -0.041531
  15 C :    0.080002
  16 C :   -0.057542
  17 C :    0.024547
  18 C :   -0.062973
  19 C :    0.038424
  20 N :   -0.057545
  21 C :    0.059846
  22 C :   -0.165158
  23 S :    0.485815
  24 C :   -0.197175
  25 C :   -0.036374
  26 C :   -0.063996
  27 C :   -0.018588
  28 C :   -0.047821
  29 C :    0.159861
  30 F :   -0.059631
  31 F :   -0.046067
  32 F :   -0.056682
  33 C :   -0.045263
  34 C :   -0.023328
  35 N :   -0.073728
  36 C :   -0.008625
  37 C :    0.021505
  38 N :   -0.099045
  39 C :    0.059743
  40 C :   -0.060999
  41 C :    0.039834
  42 N :   -0.082086
  43 C :    0.004261
  44 C :    0.006318
  45 C :    0.063256
  46 C :   -0.065963
  47 C :    0.081263
  48 O :   -0.128793
  49 C :   -0.117216
  50 C :   -0.274401
  51 S :    0.480139
  52 C :   -0.133502
  53 C :   -0.053756
  54 C :    0.080254
  55 C :   -0.138235
  56 C :   -0.013835
  57 N :   -0.054159
  58 C :   -0.027820
  59 N :   -0.046851
  60 Cl:    0.189795
  61 H :    0.038484
  62 H :    0.048264
  63 H :    0.029576
  64 H :    0.025727
  65 H :    0.024426
  66 H :    0.040090
  67 H :    0.037953
  68 H :    0.047226
  69 H :    0.057083
  70 H :    0.044163
  71 H :    0.045844
  72 H :    0.029954
  73 H :    0.035701
  74 H :    0.034071
  75 H :    0.038448
  76 H :    0.046978
  77 H :    0.038908

  Mayer bond orders larger than 0.100000
B(  0-C ,  1-C ) :   1.5389 B(  0-C ,  5-C ) :   1.2202 B(  0-C ,  9-C ) :   1.0068
B(  1-C ,  2-S ) :   1.1674 B(  1-C , 61-H ) :   0.9533 B(  2-S ,  3-C ) :   1.1541
B(  3-C ,  4-Cl) :   1.1329 B(  3-C ,  5-C ) :   1.4748 B(  5-C ,  6-C ) :   0.9468
B(  6-C ,  7-O ) :   2.2615 B(  6-C ,  8-C ) :   0.9157 B(  8-C ,  9-C ) :   1.0416
B(  8-C , 15-C ) :   1.7269 B(  9-C , 10-C ) :   1.6691 B( 10-C , 11-C ) :   1.1435
B( 10-C , 13-C ) :   1.1365 B( 11-C , 12-N ) :   2.9921 B( 13-C , 14-N ) :   2.9747
B( 15-C , 16-C ) :   1.0248 B( 15-C , 62-H ) :   0.9428 B( 16-C , 17-C ) :   1.3724
B( 16-C , 21-C ) :   1.3159 B( 17-C , 18-C ) :   1.3753 B( 17-C , 63-H ) :   0.9896
B( 18-C , 19-C ) :   1.3439 B( 18-C , 22-C ) :   0.9970 B( 19-C , 20-N ) :   1.5433
B( 19-C , 64-H ) :   0.9866 B( 20-N , 21-C ) :   1.5806 B( 21-C , 65-H ) :   0.9827
B( 22-C , 23-S ) :   1.1432 B( 22-C , 24-C ) :   0.1182 B( 22-C , 26-C ) :   1.5605
B( 23-S , 24-C ) :   1.1330 B( 24-C , 25-C ) :   1.5696 B( 24-C , 37-C ) :   1.0166
B( 25-C , 26-C ) :   1.3017 B( 25-C , 36-C ) :   1.0684 B( 26-C , 27-C ) :   1.0418
B( 27-C , 28-C ) :   1.0372 B( 27-C , 66-H ) :   0.9124 B( 27-C , 67-H ) :   0.8878
B( 28-C , 29-C ) :   0.9828 B( 28-C , 33-C ) :   1.0146 B( 28-C , 68-H ) :   0.8974
B( 29-C , 30-F ) :   1.1495 B( 29-C , 31-F ) :   1.1672 B( 29-C , 32-F ) :   1.1519
B( 33-C , 34-C ) :   1.0683 B( 33-C , 36-C ) :   1.0345 B( 33-C , 69-H ) :   0.8492
B( 34-C , 35-N ) :   3.0628 B( 36-C , 70-H ) :   0.8951 B( 36-C , 71-H ) :   0.8936
B( 37-C , 38-N ) :   1.5852 B( 37-C , 42-N ) :   1.5664 B( 38-N , 39-C ) :   1.5593
B( 39-C , 40-C ) :   1.3561 B( 39-C , 72-H ) :   0.9790 B( 40-C , 41-C ) :   1.3453
B( 40-C , 73-H ) :   0.9772 B( 41-C , 42-N ) :   1.4870 B( 41-C , 43-C ) :   1.0515
B( 43-C , 44-C ) :   1.7303 B( 43-C , 74-H ) :   0.9839 B( 44-C , 45-C ) :   1.0801
B( 44-C , 75-H ) :   0.9375 B( 45-C , 46-C ) :   1.6878 B( 45-C , 76-H ) :   0.9607
B( 46-C , 47-C ) :   0.9207 B( 46-C , 54-C ) :   1.0311 B( 47-C , 48-O ) :   2.2930
B( 47-C , 49-C ) :   0.9266 B( 49-C , 50-C ) :   1.4814 B( 49-C , 53-C ) :   1.2204
B( 50-C , 51-S ) :   1.1529 B( 50-C , 60-Cl) :   1.1256 B( 51-S , 52-C ) :   1.1641
B( 52-C , 53-C ) :   1.5562 B( 52-C , 77-H ) :   0.9505 B( 53-C , 54-C ) :   1.0230
B( 54-C , 55-C ) :   1.6534 B( 55-C , 56-C ) :   1.1489 B( 55-C , 58-C ) :   1.1572
B( 56-C , 57-N ) :   2.9505 B( 58-C , 59-N ) :   2.9815

-----------------------------------------------------------------------------
         ABSORPTION SPECTRUM VIA TRANSITION ELECTRIC DIPOLE MOMENTS
-----------------------------------------------------------------------------
State   Energy  Wavelength   fosc         T2         TX        TY        TZ
        (cm-1)    (nm)                  (au**2)     (au)      (au)      (au)
-----------------------------------------------------------------------------
   0   24294.7    411.6   0.148667083   2.01456   0.12037  -0.43041   1.34715
   1   24653.1    405.6   0.110727150   1.47863   0.40200   0.48146  -1.04174
   2   26427.3    378.4   0.091905545   1.14489  -0.26278   0.59062  -0.85265
   3   27783.2    359.9   0.101727708   1.20540  -0.18711   0.01554  -1.08174
   4   28226.7    354.3   0.283889666   3.31104  -0.46261  -0.62630   1.64463
   5   28675.0    348.7   0.165896481   1.90462  -0.26857  -0.15779   1.34447
   6   29536.6    338.6   0.067346431   0.75064   0.50617  -0.32249   0.62484
   7   30043.9    332.8   0.012812999   0.14040   0.07945  -0.08939   0.35510
   8   30701.6    325.7   0.128137999   1.37402  -0.04715  -0.15887  -1.16041
   9   31546.8    317.0   0.215763730   2.25164  -0.56697  -0.10626  -1.38524
  10   32067.5    311.8   0.031723082   0.32568   0.44349  -0.03569  -0.35738
  11   32837.9    304.5   0.014852570   0.14890  -0.02280  -0.18766  -0.33640
  12   33136.2    301.8   0.075541897   0.75052  -0.34846  -0.27880  -0.74254
  13   33800.6    295.9   1.263295188  12.30428   0.35556   2.56680   2.36419
  14   34069.7    293.5   0.062778214   0.60662   0.16566   0.53604   0.54022
  15   35011.6    285.6   0.032900776   0.30936   0.36866  -0.12161  -0.39833
  16   35195.4    284.1   0.197621264   1.84852   0.62342   1.04988  -0.59801
  17   35938.1    278.3   0.270746665   2.48018  -1.08680  -0.04144   1.13901
  18   36075.3    277.2   0.047874134   0.43688   0.53367  -0.31359  -0.23182
  19   36376.3    274.9   0.047537364   0.43022   0.38935  -0.09972  -0.51834
  20   36725.6    272.3   0.704403564   6.31434  -1.67950  -0.37346   1.83143
  21   37299.9    268.1   0.068761687   0.60690  -0.26728   0.63203   0.36877
  22   37477.8    266.8   0.222140176   1.95132  -0.75613   1.03660   0.55232
  23   37541.0    266.4   0.525663033   4.60975   1.18389  -1.55892  -0.88200
  24   38695.5    258.4   0.011690104   0.09946   0.30553   0.07797  -0.00521
  25   39062.9    256.0   0.003483829   0.02936   0.10190   0.09466   0.10008
  26   39607.9    252.5   0.018688782   0.15534   0.33072  -0.21435   0.00405
  27   39831.0    251.1   0.019415426   0.16047  -0.22996   0.05353  -0.32362

FINAL SINGLE POINT ENERGY     -4647.904047739154

DIPOLE MOMENT
-------------
                                X             Y             Z
Electronic contribution:     13.01861      17.97843      -2.93108
Nuclear contribution   :    -14.00277     -18.47416       3.84151
                        -----------------------------------------
Total Dipole Moment    :     -0.98415      -0.49572       0.91044
                        -----------------------------------------
Magnitude (a.u.)       :      1.42940
Magnitude (Debye)      :      3.63326

Rotational constants in cm-1:     0.002682     0.000382     0.000363
Rotational constants in MHz :    80.391932    11.453850    10.880176

                             ****ORCA TERMINATED NORMALLY****
TOTAL RUN TIME: 0 days 0 hours 6 minutes 48 seconds 783 msec
