                         Program Version 4.2.0 -  RELEASE  -
|  1> # ORCA input file
|  2> # SCF done       -158.893561024159          0.000688706661
|  3> ! CAM-B3LYP def2-SVP def2/J RIJCOSX Grid4 TightSCF
|  4> %maxcore 5000
|  5> %tddft
|  6>     Mode sTDDFT
|  7>     Ethresh 5.0
|  8>     maxcore 5000
|  9> end
| 10>
| 11> %pal
| 12>   nprocs 6
| 13>   end
| 14> * xyz 0 1
| 15>    C        3.55400        -0.39591         5.11201
| 16>    C        3.27906         0.44453         6.14714
| 17>    S        3.97983        -0.12526         7.61643
| 18>    C        4.66330        -1.52603         6.82537
| 19>   Cl        5.56880        -2.67162         7.68094
| 20>    C        4.34520        -1.52537         5.49924
| 21>    C        4.60050        -2.38549         4.34121
| 22>    O        5.28960        -3.37603         4.29250
| 23>    C        3.89349        -1.70569         3.20166
| 24>    C        3.26419        -0.48260         3.69666
| 25>    C        2.49902         0.41210         3.00105
| 26>    C        1.93942         1.54466         3.63228
| 27>    N        1.48166         2.47182         4.12833
| 28>    C        2.17353         0.33236         1.63165
| 29>    N        1.87131         0.32342         0.52447
| 30>    C        3.96441        -2.09203         1.90743
| 31>    C        4.50392        -3.34476         1.42269
| 32>    C        4.26446        -4.55026         2.07439
| 33>    C        4.79908        -5.73442         1.59124
| 34>    N        4.41846        -6.94418         2.27108
| 35>    O        3.83553        -6.84003         3.32741
| 36>    O        4.67562        -8.01160         1.74404
| 37>    C        5.62305        -5.75578         0.44835
| 38>    C        5.80595        -4.54143        -0.22517
| 39>    C        5.24564        -3.37156         0.23351
| 40>    C        6.28316        -6.96032        -0.00778
| 41>    C        6.46650        -7.26831        -1.30270
| 42>    C        7.06919        -8.48821        -1.74681
| 43>    N        7.09796        -9.63368        -0.99452
| 44>    C        7.66288       -10.60082        -1.75316
| 45>    N        8.01527       -10.15966        -2.92538
| 46>    C        7.66448        -8.84265        -2.96022
| 47>    C        7.93313        -8.02176        -4.11876
| 48>    C        8.01193        -6.63673        -4.03506
| 49>    C        8.21839        -5.86540        -5.16976
| 50>    N        8.27761        -4.44509        -4.97170
| 51>    O        7.79172        -4.00819        -3.94534
| 52>    O        8.79929        -3.75422        -5.82361
| 53>    C        8.39040        -6.45363        -6.43638
| 54>    C        8.35366        -7.85447        -6.49125
| 55>    C        8.13032        -8.61937        -5.37093
| 56>    C        8.52954        -5.68711        -7.65371
| 57>    C        9.27372        -6.08106        -8.70717
| 58>    C        9.45156        -5.32800        -9.90527
| 59>    C        8.64505        -4.41647       -10.50725
| 60>    C        9.25676        -3.51904       -11.54372
| 61>    O       10.33672        -3.66115       -12.06273
| 62>    C        8.27315        -2.44769       -11.72894
| 63>    C        8.18488        -1.27442       -12.41649
| 64>    S        6.64139        -0.50793       -12.12248
| 65>    C        6.13015        -1.78862       -11.08506
| 66>    C        7.09381        -2.74090       -10.96832
| 67>    C        7.25994        -4.02354       -10.30941
| 68>    C        6.22255        -4.76486        -9.80882
| 69>    C        4.90817        -4.25435        -9.76159
| 70>    N        3.83636        -3.84991        -9.70226
| 71>    C        6.32073        -6.09413        -9.35981
| 72>    N        6.33890        -7.18426        -9.00028
| 73>   Cl        9.33956        -0.56921       -13.43491
| 74>    H        2.71804         1.35791         6.15163
| 75>    H        3.61796        -1.41246         1.13838
| 76>    H        3.62626        -4.59635         2.94291
| 77>    H        6.42266        -4.51894        -1.11041
| 78>    H        5.41200        -2.45262        -0.30831
| 79>    H        6.63355        -7.63705         0.75831
| 80>    H        6.10003        -6.60891        -2.07661
| 81>    H        6.68571        -9.73444        -0.08017
| 82>    H        7.80293       -11.60830        -1.41609
| 83>    H        7.95387        -6.13419        -3.08277
| 84>    H        8.44921        -8.33119        -7.45345
| 85>    H        8.09202        -9.69522        -5.43255
| 86>    H        8.04834        -4.71893        -7.68585
| 87>    H        9.88197        -6.97186        -8.62286
| 88>    H       10.41218        -5.45528       -10.39753
| 89>    H        5.16143        -1.74048       -10.62874
| 90> *
| 91>
| 92>                          ****END OF INPUT****

CARTESIAN COORDINATES (ANGSTROEM)
---------------------------------
  C      3.554000   -0.395910    5.112010
  C      3.279060    0.444530    6.147140
  S      3.979830   -0.125260    7.616430
  C      4.663300   -1.526030    6.825370
  Cl     5.568800   -2.671620    7.680940
  C      4.345200   -1.525370    5.499240
  C      4.600500   -2.385490    4.341210
  O      5.289600   -3.376030    4.292500
  C      3.893490   -1.705690    3.201660
  C      3.264190   -0.482600    3.696660
  C      2.499020    0.412100    3.001050
  C      1.939420    1.544660    3.632280
  N      1.481660    2.471820    4.128330
  C      2.173530    0.332360    1.631650
  N      1.871310    0.323420    0.524470
  C      3.964410   -2.092030    1.907430
  C      4.503920   -3.344760    1.422690
  C      4.264460   -4.550260    2.074390
  C      4.799080   -5.734420    1.591240
  N      4.418460   -6.944180    2.271080
  O      3.835530   -6.840030    3.327410
  O      4.675620   -8.011600    1.744040
  C      5.623050   -5.755780    0.448350
  C      5.805950   -4.541430   -0.225170
  C      5.245640   -3.371560    0.233510
  C      6.283160   -6.960320   -0.007780
  C      6.466500   -7.268310   -1.302700
  C      7.069190   -8.488210   -1.746810
  N      7.097960   -9.633680   -0.994520
  C      7.662880  -10.600820   -1.753160
  N      8.015270  -10.159660   -2.925380
  C      7.664480   -8.842650   -2.960220
  C      7.933130   -8.021760   -4.118760
  C      8.011930   -6.636730   -4.035060
  C      8.218390   -5.865400   -5.169760
  N      8.277610   -4.445090   -4.971700
  O      7.791720   -4.008190   -3.945340
  O      8.799290   -3.754220   -5.823610
  C      8.390400   -6.453630   -6.436380
  C      8.353660   -7.854470   -6.491250
  C      8.130320   -8.619370   -5.370930
  C      8.529540   -5.687110   -7.653710
  C      9.273720   -6.081060   -8.707170
  C      9.451560   -5.328000   -9.905270
  C      8.645050   -4.416470  -10.507250
  C      9.256760   -3.519040  -11.543720
  O     10.336720   -3.661150  -12.062730
  C      8.273150   -2.447690  -11.728940
  C      8.184880   -1.274420  -12.416490
  S      6.641390   -0.507930  -12.122480
  C      6.130150   -1.788620  -11.085060
  C      7.093810   -2.740900  -10.968320
  C      7.259940   -4.023540  -10.309410
  C      6.222550   -4.764860   -9.808820
  C      4.908170   -4.254350   -9.761590
  N      3.836360   -3.849910   -9.702260
  C      6.320730   -6.094130   -9.359810
  N      6.338900   -7.184260   -9.000280
  Cl     9.339560   -0.569210  -13.434910
  H      2.718040    1.357910    6.151630
  H      3.617960   -1.412460    1.138380
  H      3.626260   -4.596350    2.942910
  H      6.422660   -4.518940   -1.110410
  H      5.412000   -2.452620   -0.308310
  H      6.633550   -7.637050    0.758310
  H      6.100030   -6.608910   -2.076610
  H      6.685710   -9.734440   -0.080170
  H      7.802930  -11.608300   -1.416090
  H      7.953870   -6.134190   -3.082770
  H      8.449210   -8.331190   -7.453450
  H      8.092020   -9.695220   -5.432550
  H      8.048340   -4.718930   -7.685850
  H      9.881970   -6.971860   -8.622860
  H     10.412180   -5.455280  -10.397530
  H      5.161430   -1.740480  -10.628740

 Total Charge           Charge          ....    0
 Multiplicity           Mult            ....    1
 Number of Electrons    NEL             ....  432
 Basis Dimension        Dim             ....  922

ORBITAL ENERGIES
----------------

  NO   OCC          E(Eh)            E(eV)
   0   2.0000    -101.623547     -2765.3173
   1   2.0000    -101.615084     -2765.0870
   2   2.0000     -89.001203     -2421.8459
   3   2.0000     -88.990986     -2421.5678
   4   2.0000     -19.252854      -523.8968
   5   2.0000     -19.251662      -523.8644
   6   2.0000     -19.251419      -523.8577
   7   2.0000     -19.250418      -523.8305
   8   2.0000     -19.230203      -523.2804
   9   2.0000     -19.216540      -522.9086
  10   2.0000     -14.658488      -398.8777
  11   2.0000     -14.656790      -398.8315
  12   2.0000     -14.482358      -394.0850
  13   2.0000     -14.429034      -392.6340
  14   2.0000     -14.427420      -392.5901
  15   2.0000     -14.421858      -392.4387
  16   2.0000     -14.419391      -392.3716
  17   2.0000     -14.399172      -391.8214
  18   2.0000     -10.387658      -282.6625
  19   2.0000     -10.383513      -282.5498
  20   2.0000     -10.373837      -282.2865
  21   2.0000     -10.372693      -282.2553
  22   2.0000     -10.357421      -281.8398
  23   2.0000     -10.356830      -281.8237
  24   2.0000     -10.349397      -281.6214
  25   2.0000     -10.347035      -281.5571
  26   2.0000     -10.339380      -281.3488
  27   2.0000     -10.337241      -281.2906
  28   2.0000     -10.336935      -281.2823
  29   2.0000     -10.336293      -281.2648
  30   2.0000     -10.331747      -281.1411
  31   2.0000     -10.330791      -281.1151
  32   2.0000     -10.329153      -281.0705
  33   2.0000     -10.327095      -281.0145
  34   2.0000     -10.325150      -280.9616
  35   2.0000     -10.323282      -280.9108
  36   2.0000     -10.321613      -280.8654
  37   2.0000     -10.320368      -280.8315
  38   2.0000     -10.320328      -280.8304
  39   2.0000     -10.318124      -280.7704
  40   2.0000     -10.317210      -280.7455
  41   2.0000     -10.312395      -280.6145
  42   2.0000     -10.311674      -280.5949
  43   2.0000     -10.310973      -280.5758
  44   2.0000     -10.310954      -280.5753
  45   2.0000     -10.308992      -280.5219
  46   2.0000     -10.307326      -280.4766
  47   2.0000     -10.306302      -280.4487
  48   2.0000     -10.303184      -280.3639
  49   2.0000     -10.302176      -280.3365
  50   2.0000     -10.301502      -280.3181
  51   2.0000     -10.301384      -280.3149
  52   2.0000     -10.299745      -280.2703
  53   2.0000     -10.298225      -280.2289
  54   2.0000     -10.297861      -280.2191
  55   2.0000     -10.297222      -280.2017
  56   2.0000     -10.292880      -280.0835
  57   2.0000     -10.291474      -280.0453
  58   2.0000     -10.289308      -279.9863
  59   2.0000      -9.578314      -260.6392
  60   2.0000      -9.569863      -260.4092
  61   2.0000      -8.096858      -220.3267
  62   2.0000      -8.086747      -220.0516
  63   2.0000      -7.348941      -199.9748
  64   2.0000      -7.340497      -199.7451
  65   2.0000      -7.338369      -199.6872
  66   2.0000      -7.337800      -199.6717
  67   2.0000      -7.329907      -199.4569
  68   2.0000      -7.329359      -199.4420
  69   2.0000      -6.066214      -165.0701
  70   2.0000      -6.061596      -164.9444
  71   2.0000      -6.059181      -164.8787
  72   2.0000      -6.056139      -164.7959
  73   2.0000      -6.051519      -164.6702
  74   2.0000      -6.048975      -164.6010
  75   2.0000      -1.332926       -36.2708
  76   2.0000      -1.331201       -36.2238
  77   2.0000      -1.150203       -31.2986
  78   2.0000      -1.149187       -31.2710
  79   2.0000      -1.148225       -31.2448
  80   2.0000      -1.133918       -30.8555
  81   2.0000      -1.126421       -30.6515
  82   2.0000      -1.045718       -28.4554
  83   2.0000      -1.036126       -28.1944
  84   2.0000      -1.025451       -27.9039
  85   2.0000      -1.017458       -27.6864
  86   2.0000      -1.006751       -27.3951
  87   2.0000      -1.003172       -27.2977
  88   2.0000      -0.999534       -27.1987
  89   2.0000      -0.994982       -27.0748
  90   2.0000      -0.994635       -27.0654
  91   2.0000      -0.986368       -26.8404
  92   2.0000      -0.978538       -26.6274
  93   2.0000      -0.962727       -26.1971
  94   2.0000      -0.953306       -25.9408
  95   2.0000      -0.936600       -25.4862
  96   2.0000      -0.927425       -25.2365
  97   2.0000      -0.918288       -24.9879
  98   2.0000      -0.912938       -24.8423
  99   2.0000      -0.907638       -24.6981
 100   2.0000      -0.904375       -24.6093
 101   2.0000      -0.892448       -24.2847
 102   2.0000      -0.881499       -23.9868
 103   2.0000      -0.862532       -23.4707
 104   2.0000      -0.840836       -22.8803
 105   2.0000      -0.839854       -22.8536
 106   2.0000      -0.830837       -22.6082
 107   2.0000      -0.823212       -22.4007
 108   2.0000      -0.802262       -21.8307
 109   2.0000      -0.798754       -21.7352
 110   2.0000      -0.791481       -21.5373
 111   2.0000      -0.777398       -21.1541
 112   2.0000      -0.762980       -20.7617
 113   2.0000      -0.756656       -20.5896
 114   2.0000      -0.744940       -20.2709
 115   2.0000      -0.736155       -20.0318
 116   2.0000      -0.717643       -19.5281
 117   2.0000      -0.705805       -19.2059
 118   2.0000      -0.703024       -19.1303
 119   2.0000      -0.696864       -18.9626
 120   2.0000      -0.695841       -18.9348
 121   2.0000      -0.684719       -18.6322
 122   2.0000      -0.683862       -18.6088
 123   2.0000      -0.681138       -18.5347
 124   2.0000      -0.674270       -18.3478
 125   2.0000      -0.664441       -18.0804
 126   2.0000      -0.661368       -17.9967
 127   2.0000      -0.647217       -17.6117
 128   2.0000      -0.640703       -17.4344
 129   2.0000      -0.638515       -17.3749
 130   2.0000      -0.633553       -17.2399
 131   2.0000      -0.626900       -17.0588
 132   2.0000      -0.625217       -17.0130
 133   2.0000      -0.620560       -16.8863
 134   2.0000      -0.613535       -16.6951
 135   2.0000      -0.612066       -16.6552
 136   2.0000      -0.608813       -16.5666
 137   2.0000      -0.604136       -16.4394
 138   2.0000      -0.602600       -16.3976
 139   2.0000      -0.598257       -16.2794
 140   2.0000      -0.595264       -16.1980
 141   2.0000      -0.579686       -15.7741
 142   2.0000      -0.575653       -15.6643
 143   2.0000      -0.568781       -15.4773
 144   2.0000      -0.563749       -15.3404
 145   2.0000      -0.559355       -15.2208
 146   2.0000      -0.550509       -14.9801
 147   2.0000      -0.546798       -14.8791
 148   2.0000      -0.545248       -14.8369
 149   2.0000      -0.545138       -14.8340
 150   2.0000      -0.544226       -14.8092
 151   2.0000      -0.539663       -14.6850
 152   2.0000      -0.539238       -14.6734
 153   2.0000      -0.534275       -14.5384
 154   2.0000      -0.531706       -14.4685
 155   2.0000      -0.528319       -14.3763
 156   2.0000      -0.527786       -14.3618
 157   2.0000      -0.522807       -14.2263
 158   2.0000      -0.520536       -14.1645
 159   2.0000      -0.515296       -14.0219
 160   2.0000      -0.513036       -13.9604
 161   2.0000      -0.505174       -13.7465
 162   2.0000      -0.504200       -13.7200
 163   2.0000      -0.497291       -13.5320
 164   2.0000      -0.494038       -13.4434
 165   2.0000      -0.493171       -13.4199
 166   2.0000      -0.489002       -13.3064
 167   2.0000      -0.484892       -13.1946
 168   2.0000      -0.483248       -13.1498
 169   2.0000      -0.480702       -13.0806
 170   2.0000      -0.474857       -12.9215
 171   2.0000      -0.467689       -12.7265
 172   2.0000      -0.465171       -12.6579
 173   2.0000      -0.460276       -12.5247
 174   2.0000      -0.459347       -12.4995
 175   2.0000      -0.456918       -12.4334
 176   2.0000      -0.456636       -12.4257
 177   2.0000      -0.454128       -12.3574
 178   2.0000      -0.453668       -12.3449
 179   2.0000      -0.450716       -12.2646
 180   2.0000      -0.449747       -12.2383
 181   2.0000      -0.446997       -12.1634
 182   2.0000      -0.442960       -12.0536
 183   2.0000      -0.441152       -12.0044
 184   2.0000      -0.439438       -11.9577
 185   2.0000      -0.439251       -11.9526
 186   2.0000      -0.432717       -11.7748
 187   2.0000      -0.427616       -11.6360
 188   2.0000      -0.425754       -11.5854
 189   2.0000      -0.424531       -11.5521
 190   2.0000      -0.413279       -11.2459
 191   2.0000      -0.411942       -11.2095
 192   2.0000      -0.409425       -11.1410
 193   2.0000      -0.403424       -10.9777
 194   2.0000      -0.400830       -10.9071
 195   2.0000      -0.394055       -10.7228
 196   2.0000      -0.393133       -10.6977
 197   2.0000      -0.390534       -10.6270
 198   2.0000      -0.389579       -10.6010
 199   2.0000      -0.381724       -10.3872
 200   2.0000      -0.376795       -10.2531
 201   2.0000      -0.375506       -10.2180
 202   2.0000      -0.374839       -10.1999
 203   2.0000      -0.363860        -9.9011
 204   2.0000      -0.358435        -9.7535
 205   2.0000      -0.350670        -9.5422
 206   2.0000      -0.347822        -9.4647
 207   2.0000      -0.345225        -9.3941
 208   2.0000      -0.342663        -9.3243
 209   2.0000      -0.341457        -9.2915
 210   2.0000      -0.332611        -9.0508
 211   2.0000      -0.327405        -8.9091
 212   2.0000      -0.316392        -8.6095
 213   2.0000      -0.312028        -8.4907
 214   2.0000      -0.298355        -8.1187
 215   2.0000      -0.269506        -7.3336
 216   0.0000      -0.103319        -2.8114
 217   0.0000      -0.095645        -2.6026
 218   0.0000      -0.065385        -1.7792
 219   0.0000      -0.059156        -1.6097
 220   0.0000      -0.058547        -1.5931

MULLIKEN ATOMIC CHARGES
-----------------------
   0 C :    0.029214
   1 C :   -0.126417
   2 S :    0.194043
   3 C :   -0.167512
   4 Cl:    0.005850
   5 C :    0.075889
   6 C :    0.140696
   7 O :   -0.121225
   8 C :   -0.094660
   9 C :    0.292846
  10 C :   -0.321969
  11 C :   -0.194255
  12 N :    0.161933
  13 C :   -0.192007
  14 N :    0.166420
  15 C :   -0.024737
  16 C :    0.065009
  17 C :    0.020861
  18 C :    0.124417
  19 N :    0.248572
  20 O :   -0.221749
  21 O :   -0.254128
  22 C :    0.050136
  23 C :   -0.041795
  24 C :    0.036677
  25 C :   -0.013304
  26 C :   -0.015111
  27 C :    0.015439
  28 N :   -0.042534
  29 C :    0.101267
  30 N :   -0.110986
  31 C :   -0.010925
  32 C :    0.089142
  33 C :   -0.101335
  34 C :    0.151276
  35 N :    0.251799
  36 O :   -0.246379
  37 O :   -0.232845
  38 C :    0.019336
  39 C :    0.002724
  40 C :    0.025253
  41 C :    0.030714
  42 C :    0.004202
  43 C :    0.040733
  44 C :   -0.130474
  45 C :    0.128654
  46 O :   -0.129873
  47 C :    0.101132
  48 C :   -0.175516
  49 S :    0.185167
  50 C :   -0.125727
  51 C :    0.009476
  52 C :    0.277493
  53 C :   -0.332667
  54 C :   -0.183407
  55 N :    0.154932
  56 C :   -0.194752
  57 N :    0.178201
  58 Cl:   -0.000876
  59 H :    0.056117
  60 H :    0.036550
  61 H :    0.009010
  62 H :    0.003894
  63 H :    0.002946
  64 H :    0.003307
  65 H :    0.024173
  66 H :    0.143851
  67 H :    0.017709
  68 H :   -0.002761
  69 H :    0.003724
  70 H :    0.004517
  71 H :    0.029231
  72 H :    0.009795
  73 H :    0.031981
  74 H :    0.053617
Sum of atomic charges:    0.0000000

LOEWDIN ATOMIC CHARGES
----------------------
   0 C :   -0.060181
   1 C :   -0.147497
   2 S :    0.483125
   3 C :   -0.270881
   4 Cl:    0.197200
   5 C :   -0.117970
   6 C :    0.080774
   7 O :   -0.119685
   8 C :   -0.080490
   9 C :    0.073805
  10 C :   -0.129984
  11 C :   -0.015266
  12 N :   -0.045536
  13 C :   -0.024185
  14 N :   -0.039446
  15 C :    0.079477
  16 C :   -0.042155
  17 C :    0.048109
  18 C :   -0.035896
  19 N :    0.289482
  20 O :   -0.190065
  21 O :   -0.210834
  22 C :    0.013845
  23 C :   -0.010616
  24 C :    0.028769
  25 C :   -0.024086
  26 C :   -0.020832
  27 C :   -0.023610
  28 N :    0.093786
  29 C :    0.031812
  30 N :   -0.109358
  31 C :   -0.043191
  32 C :   -0.011780
  33 C :   -0.004377
  34 C :   -0.026344
  35 N :    0.289566
  36 O :   -0.213212
  37 O :   -0.192659
  38 C :   -0.014779
  39 C :    0.011351
  40 C :    0.026316
  41 C :    0.043459
  42 C :   -0.038458
  43 C :    0.073307
  44 C :   -0.087456
  45 C :    0.081500
  46 O :   -0.132636
  47 C :   -0.117413
  48 C :   -0.272579
  49 S :    0.474580
  50 C :   -0.150917
  51 C :   -0.057235
  52 C :    0.069846
  53 C :   -0.140082
  54 C :   -0.017406
  55 N :   -0.051018
  56 C :   -0.012635
  57 N :   -0.042804
  58 Cl:    0.191648
  59 H :    0.038581
  60 H :    0.048279
  61 H :    0.041157
  62 H :    0.040250
  63 H :    0.040821
  64 H :    0.024106
  65 H :    0.039555
  66 H :    0.100295
  67 H :    0.021492
  68 H :    0.034787
  69 H :    0.038121
  70 H :    0.041216
  71 H :    0.032599
  72 H :    0.035729
  73 H :    0.049155
  74 H :    0.037652

  Mayer bond orders larger than 0.100000
B(  0-C ,  1-C ) :   1.5402 B(  0-C ,  5-C ) :   1.2221 B(  0-C ,  9-C ) :   1.0056
B(  1-C ,  2-S ) :   1.1671 B(  1-C , 59-H ) :   0.9531 B(  2-S ,  3-C ) :   1.1540
B(  3-C ,  4-Cl) :   1.1338 B(  3-C ,  5-C ) :   1.4717 B(  5-C ,  6-C ) :   0.9532
B(  6-C ,  7-O ) :   2.2451 B(  6-C ,  8-C ) :   0.9155 B(  8-C ,  9-C ) :   1.0444
B(  8-C , 15-C ) :   1.7173 B(  9-C , 10-C ) :   1.6719 B( 10-C , 11-C ) :   1.1431
B( 10-C , 13-C ) :   1.1354 B( 11-C , 12-N ) :   2.9938 B( 13-C , 14-N ) :   2.9772
B( 15-C , 16-C ) :   1.0357 B( 15-C , 60-H ) :   0.9452 B( 16-C , 17-C ) :   1.3102
B( 16-C , 24-C ) :   1.3126 B( 17-C , 18-C ) :   1.4024 B( 17-C , 61-H ) :   0.9733
B( 18-C , 19-N ) :   0.8917 B( 18-C , 22-C ) :   1.3250 B( 19-N , 20-O ) :   1.5775
B( 19-N , 21-O ) :   1.5105 B( 20-O , 21-O ) :   0.2593 B( 22-C , 23-C ) :   1.3537
B( 22-C , 25-C ) :   1.0616 B( 23-C , 24-C ) :   1.3930 B( 23-C , 62-H ) :   0.9924
B( 24-C , 63-H ) :   1.0002 B( 25-C , 26-C ) :   1.7446 B( 25-C , 64-H ) :   0.9470
B( 26-C , 27-C ) :   1.1009 B( 26-C , 65-H ) :   0.9514 B( 27-C , 28-N ) :   1.2435
B( 27-C , 31-C ) :   1.3907 B( 28-N , 29-C ) :   1.2251 B( 28-N , 66-H ) :   0.9210
B( 29-C , 30-N ) :   1.6472 B( 29-C , 67-H ) :   0.9807 B( 30-N , 31-C ) :   1.4489
B( 31-C , 32-C ) :   1.0299 B( 32-C , 33-C ) :   1.3111 B( 32-C , 40-C ) :   1.3380
B( 33-C , 34-C ) :   1.3577 B( 33-C , 68-H ) :   0.9929 B( 34-C , 35-N ) :   0.8915
B( 34-C , 38-C ) :   1.3459 B( 35-N , 36-O ) :   1.5392 B( 35-N , 37-O ) :   1.5201
B( 36-O , 37-O ) :   0.2596 B( 38-C , 39-C ) :   1.3447 B( 38-C , 41-C ) :   1.0891
B( 39-C , 40-C ) :   1.3733 B( 39-C , 69-H ) :   0.9852 B( 40-C , 70-H ) :   0.9993
B( 41-C , 42-C ) :   1.6948 B( 41-C , 71-H ) :   0.9401 B( 42-C , 43-C ) :   1.1346
B( 42-C , 72-H ) :   0.9599 B( 43-C , 44-C ) :   1.7014 B( 43-C , 73-H ) :   0.9259
B( 44-C , 45-C ) :   0.9386 B( 44-C , 52-C ) :   1.0305 B( 45-C , 46-O ) :   2.2733
B( 45-C , 47-C ) :   0.9244 B( 47-C , 48-C ) :   1.4817 B( 47-C , 51-C ) :   1.2221
B( 48-C , 49-S ) :   1.1512 B( 48-C , 58-Cl) :   1.1291 B( 49-S , 50-C ) :   1.1600
B( 50-C , 51-C ) :   1.5507 B( 50-C , 74-H ) :   0.9558 B( 51-C , 52-C ) :   1.0109
B( 52-C , 53-C ) :   1.6597 B( 53-C , 54-C ) :   1.1285 B( 53-C , 56-C ) :   1.1683
B( 54-C , 55-N ) :   2.9995 B( 56-C , 57-N ) :   2.9978

-----------------------------------------------------------------------------
         ABSORPTION SPECTRUM VIA TRANSITION ELECTRIC DIPOLE MOMENTS
-----------------------------------------------------------------------------
State   Energy  Wavelength   fosc         T2         TX        TY        TZ
        (cm-1)    (nm)                  (au**2)     (au)      (au)      (au)
-----------------------------------------------------------------------------
   0   21539.9    464.3   0.772900885  11.81287  -0.57869   0.65701   3.32360
   1   23081.0    433.3   0.448039239   6.39054  -1.23951   2.20070  -0.10513
   2   26701.5    374.5   0.072991591   0.89994  -0.55342  -0.14403   0.75692
   3   27524.3    363.3   0.058761928   0.70284   0.68695  -0.36857  -0.30837
   4   27731.3    360.6   0.015638171   0.18565  -0.29447   0.25738   0.18080
   5   28293.0    353.4   0.035412316   0.41205   0.53784   0.33507   0.10248
   6   29247.8    341.9   0.028277769   0.31829  -0.24694   0.37080  -0.34615
   7   29484.0    339.2   0.035500845   0.39639   0.36154  -0.41989   0.29896
   8   29819.2    335.4   0.021856997   0.24131   0.33335  -0.34227   0.11416
   9   31182.0    320.7   0.159807802   1.68721   0.48988  -1.20301  -0.00127
  10   32399.7    308.6   0.190984224   1.94058   0.36928  -0.74678  -1.11648
  11   32581.5    306.9   0.063698477   0.64363   0.28527   0.34523  -0.66563
  12   33418.1    299.2   0.080192183   0.79000   0.27044   0.11283   0.83913
  13   34007.7    294.1   0.520413971   5.03787  -0.80103  -0.93696   1.87572
  14   34285.0    291.7   0.011610774   0.11149   0.01941   0.00546   0.33329
  15   34480.2    290.0   0.069866346   0.66707   0.06180   0.58243  -0.56924
  16   34921.1    286.4   0.117764206   1.11020   0.34156  -0.48569  -0.87042
  17   35360.0    282.8   0.142968298   1.33108   0.49044   0.98389  -0.35000
  18   35580.4    281.1   0.121631622   1.12541  -0.36664   0.03230   0.99496
  19   35949.2    278.2   0.025915492   0.23733  -0.07963  -0.44022  -0.19286
  20   36406.0    274.7   0.083395072   0.75412  -0.20050   0.72421   0.43524
  21   36688.8    272.6   0.026239059   0.23545  -0.14140  -0.25480  -0.38798
  22   37232.0    268.6   0.138890965   1.22810   0.63157  -0.63494   0.65274
  23   37655.8    265.6   0.498867357   4.36143  -0.49583   0.38647  -1.99154
  24   37856.9    264.2   0.154900480   1.34705  -0.53747   0.95928  -0.37142
  25   38095.4    262.5   0.192528112   1.66378  -0.63013  -0.91887  -0.64991
  26   38424.6    260.2   0.499266555   4.27759  -0.49278  -1.62804   1.17654
  27   39045.4    256.1   0.009852911   0.08307   0.12038  -0.26079  -0.02389
  28   39546.8    252.9   0.011744058   0.09776   0.03750   0.02922   0.30904
  29   40070.4    249.6   0.077753962   0.63881  -0.50866   0.55225   0.27404

FINAL SINGLE POINT ENERGY     -4174.240458709571

DIPOLE MOMENT
-------------
                                X             Y             Z
Electronic contribution:     -3.42683      32.08693       4.31817
Nuclear contribution   :      4.66832     -32.51749      -2.49171
                        -----------------------------------------
Total Dipole Moment    :      1.24149      -0.43056       1.82645
                        -----------------------------------------
Magnitude (a.u.)       :      2.25003
Magnitude (Debye)      :      5.71911

Rotational constants in cm-1:     0.001712     0.000406     0.000346
Rotational constants in MHz :    51.309639    12.160806    10.368217

                             ****ORCA TERMINATED NORMALLY****
TOTAL RUN TIME: 0 days 0 hours 6 minutes 7 seconds 4 msec
