                         Program Version 4.2.0 -  RELEASE  -
|  1> # ORCA input file
|  2> # SCF done       -157.149686241493          0.000731148555
|  3> ! CAM-B3LYP def2-SVP def2/J RIJCOSX Grid4 TightSCF
|  4> %maxcore 5000
|  5> %tddft
|  6>     Mode sTDDFT
|  7>     Ethresh 5.0
|  8>     maxcore 5000
|  9> end
| 10>
| 11> %pal
| 12>   nprocs 6
| 13>   end
| 14> * xyz 0 1
| 15>    C        0.63082         1.06935        -1.59872
| 16>    C       -0.42172         1.76522        -2.10713
| 17>    S       -1.32783         0.80239        -3.21555
| 18>    C       -0.26694        -0.56865        -2.99335
| 19>   Cl       -0.52115        -2.02409        -3.82008
| 20>    C        0.72250        -0.26756        -2.10469
| 21>    C        1.87673        -0.95800        -1.51673
| 22>    O        2.24670        -2.08636        -1.73347
| 23>    C        2.44772         0.03769        -0.54823
| 24>    C        1.72821         1.29809        -0.68236
| 25>    C        2.05390         2.50581        -0.12897
| 26>    C        1.25517         3.64856        -0.35163
| 27>    N        0.60749         4.57994        -0.51998
| 28>    C        3.20843         2.77023         0.63804
| 29>    N        4.15110         3.06152         1.22342
| 30>    C        3.34662        -0.22037         0.44177
| 31>    C        4.11809        -1.39197         0.63008
| 32>    O        4.35493        -2.27694        -0.34072
| 33>    C        5.13567        -3.25873         0.14565
| 34>    C        5.43972        -3.01383         1.47144
| 35>    C        4.79208        -1.80448         1.79982
| 36>    C        4.76137        -1.10518         3.06535
| 37>    O        4.07519        -0.15394         3.34152
| 38>    C        5.72850        -1.69506         4.13398
| 39>    F        6.99113        -1.75416         3.68004
| 40>    F        5.73666        -0.97699         5.24998
| 41>    F        5.38072        -2.95104         4.46552
| 42>    C        5.50317        -4.32896        -0.71970
| 43>    S        5.00797        -4.30468        -2.38475
| 44>    C        5.80026        -5.81833        -2.68816
| 45>    C        6.38181        -6.32443        -1.52240
| 46>    C        6.22416        -5.45919        -0.42343
| 47>    C        6.95689        -7.65683        -1.35729
| 48>    O        7.65670        -7.99220        -0.43627
| 49>    C        5.82078        -6.32172        -4.01798
| 50>    C        6.74873        -7.17649        -4.51242
| 51>    C        6.75063        -7.68967        -5.83763
| 52>    C        5.85070        -7.49571        -6.87371
| 53>    C        6.17364        -8.20500        -8.02126
| 54>    C        7.34805        -8.93568        -7.91639
| 55>    S        8.03031        -8.75510        -6.32608
| 56>    C        7.86281        -9.81502        -8.89962
| 57>    C        9.09786       -10.37119        -9.01508
| 58>    C        9.25029       -11.62525        -9.82062
| 59>    O        8.44448       -12.08478       -10.59263
| 60>    C       10.54857       -12.16627        -9.40062
| 61>    C       11.28427       -13.29227        -9.62161
| 62>    S       12.79047       -13.22363        -8.73684
| 63>    C       12.41423       -11.66787        -8.08924
| 64>    C       11.19991       -11.23820        -8.52165
| 65>    C       10.36958       -10.05571        -8.39205
| 66>    C       10.82338        -8.82265        -8.00572
| 67>    C       12.12518        -8.64452        -7.49534
| 68>    N       13.17821        -8.49253        -7.06673
| 69>    C       10.09136        -7.63112        -8.17396
| 70>    N        9.53456        -6.64275        -8.34880
| 71>   Cl       10.89280       -14.62329       -10.59310
| 72>    H       -0.73281         2.77118        -1.90608
| 73>    H        3.48535         0.51700         1.22322
| 74>    H        6.03804        -3.63127         2.10784
| 75>    H        6.61170        -5.69237         0.55136
| 76>    H        6.65365        -8.37931        -2.13934
| 77>    H        5.05727        -5.92981        -4.67550
| 78>    H        7.57561        -7.48706        -3.88931
| 79>    H        4.98539        -6.86447        -6.78979
| 80>    H        5.59377        -8.18182        -8.92672
| 81>    H        7.13406       -10.16994        -9.62351
| 82>    H       13.10915       -11.18815        -7.42887
| 83> *
| 84>
| 85>                          ****END OF INPUT****

CARTESIAN COORDINATES (ANGSTROEM)
---------------------------------
  C      0.630820    1.069350   -1.598720
  C     -0.421720    1.765220   -2.107130
  S     -1.327830    0.802390   -3.215550
  C     -0.266940   -0.568650   -2.993350
  Cl    -0.521150   -2.024090   -3.820080
  C      0.722500   -0.267560   -2.104690
  C      1.876730   -0.958000   -1.516730
  O      2.246700   -2.086360   -1.733470
  C      2.447720    0.037690   -0.548230
  C      1.728210    1.298090   -0.682360
  C      2.053900    2.505810   -0.128970
  C      1.255170    3.648560   -0.351630
  N      0.607490    4.579940   -0.519980
  C      3.208430    2.770230    0.638040
  N      4.151100    3.061520    1.223420
  C      3.346620   -0.220370    0.441770
  C      4.118090   -1.391970    0.630080
  O      4.354930   -2.276940   -0.340720
  C      5.135670   -3.258730    0.145650
  C      5.439720   -3.013830    1.471440
  C      4.792080   -1.804480    1.799820
  C      4.761370   -1.105180    3.065350
  O      4.075190   -0.153940    3.341520
  C      5.728500   -1.695060    4.133980
  F      6.991130   -1.754160    3.680040
  F      5.736660   -0.976990    5.249980
  F      5.380720   -2.951040    4.465520
  C      5.503170   -4.328960   -0.719700
  S      5.007970   -4.304680   -2.384750
  C      5.800260   -5.818330   -2.688160
  C      6.381810   -6.324430   -1.522400
  C      6.224160   -5.459190   -0.423430
  C      6.956890   -7.656830   -1.357290
  O      7.656700   -7.992200   -0.436270
  C      5.820780   -6.321720   -4.017980
  C      6.748730   -7.176490   -4.512420
  C      6.750630   -7.689670   -5.837630
  C      5.850700   -7.495710   -6.873710
  C      6.173640   -8.205000   -8.021260
  C      7.348050   -8.935680   -7.916390
  S      8.030310   -8.755100   -6.326080
  C      7.862810   -9.815020   -8.899620
  C      9.097860  -10.371190   -9.015080
  C      9.250290  -11.625250   -9.820620
  O      8.444480  -12.084780  -10.592630
  C     10.548570  -12.166270   -9.400620
  C     11.284270  -13.292270   -9.621610
  S     12.790470  -13.223630   -8.736840
  C     12.414230  -11.667870   -8.089240
  C     11.199910  -11.238200   -8.521650
  C     10.369580  -10.055710   -8.392050
  C     10.823380   -8.822650   -8.005720
  C     12.125180   -8.644520   -7.495340
  N     13.178210   -8.492530   -7.066730
  C     10.091360   -7.631120   -8.173960
  N      9.534560   -6.642750   -8.348800
  Cl    10.892800  -14.623290  -10.593100
  H     -0.732810    2.771180   -1.906080
  H      3.485350    0.517000    1.223220
  H      6.038040   -3.631270    2.107840
  H      6.611700   -5.692370    0.551360
  H      6.653650   -8.379310   -2.139340
  H      5.057270   -5.929810   -4.675500
  H      7.575610   -7.487060   -3.889310
  H      4.985390   -6.864470   -6.789790
  H      5.593770   -8.181820   -8.926720
  H      7.134060  -10.169940   -9.623510
  H     13.109150  -11.188150   -7.428870

 Total Charge           Charge          ....    0
 Multiplicity           Mult            ....    1
 Number of Electrons    NEL             ....  438
 Basis Dimension        Dim             ....  877

ORBITAL ENERGIES
----------------

  NO   OCC          E(Eh)            E(eV)
   0   2.0000    -101.623188     -2765.3075
   1   2.0000    -101.618431     -2765.1781
   2   2.0000     -88.998759     -2421.7794
   3   2.0000     -88.994019     -2421.6504
   4   2.0000     -88.985966     -2421.4313
   5   2.0000     -88.981969     -2421.3225
   6   2.0000     -24.818039      -675.3332
   7   2.0000     -24.817304      -675.3132
   8   2.0000     -24.812734      -675.1888
   9   2.0000     -19.330542      -526.0108
  10   2.0000     -19.255930      -523.9805
  11   2.0000     -19.226323      -523.1748
  12   2.0000     -19.221795      -523.0516
  13   2.0000     -19.220455      -523.0152
  14   2.0000     -14.424575      -392.5126
  15   2.0000     -14.422794      -392.4642
  16   2.0000     -14.422049      -392.4439
  17   2.0000     -14.419815      -392.3831
  18   2.0000     -10.528880      -286.5054
  19   2.0000     -10.406569      -283.1771
  20   2.0000     -10.385456      -282.6026
  21   2.0000     -10.381342      -282.4907
  22   2.0000     -10.377867      -282.3961
  23   2.0000     -10.377670      -282.3908
  24   2.0000     -10.377357      -282.3822
  25   2.0000     -10.377280      -282.3801
  26   2.0000     -10.368239      -282.1341
  27   2.0000     -10.354434      -281.7585
  28   2.0000     -10.353065      -281.7212
  29   2.0000     -10.351359      -281.6748
  30   2.0000     -10.350237      -281.6443
  31   2.0000     -10.339216      -281.3444
  32   2.0000     -10.334561      -281.2177
  33   2.0000     -10.334499      -281.2160
  34   2.0000     -10.333829      -281.1978
  35   2.0000     -10.332419      -281.1594
  36   2.0000     -10.330306      -281.1019
  37   2.0000     -10.329361      -281.0762
  38   2.0000     -10.327589      -281.0280
  39   2.0000     -10.326186      -280.9898
  40   2.0000     -10.324255      -280.9373
  41   2.0000     -10.323883      -280.9271
  42   2.0000     -10.322544      -280.8907
  43   2.0000     -10.321564      -280.8640
  44   2.0000     -10.320379      -280.8318
  45   2.0000     -10.317937      -280.7653
  46   2.0000     -10.317683      -280.7584
  47   2.0000     -10.316502      -280.7263
  48   2.0000     -10.314464      -280.6708
  49   2.0000     -10.311818      -280.5988
  50   2.0000     -10.306982      -280.4672
  51   2.0000     -10.306613      -280.4572
  52   2.0000     -10.306010      -280.4408
  53   2.0000     -10.305470      -280.4261
  54   2.0000     -10.301819      -280.3268
  55   2.0000     -10.301408      -280.3156
  56   2.0000     -10.299852      -280.2732
  57   2.0000      -9.577989      -260.6303
  58   2.0000      -9.573224      -260.5007
  59   2.0000      -8.094436      -220.2608
  60   2.0000      -8.089782      -220.1342
  61   2.0000      -8.081452      -219.9075
  62   2.0000      -8.077307      -219.7947
  63   2.0000      -7.348619      -199.9661
  64   2.0000      -7.343877      -199.8370
  65   2.0000      -7.338018      -199.6776
  66   2.0000      -7.337501      -199.6635
  67   2.0000      -7.333246      -199.5478
  68   2.0000      -7.332716      -199.5334
  69   2.0000      -6.063822      -165.0050
  70   2.0000      -6.059197      -164.8791
  71   2.0000      -6.059161      -164.8782
  72   2.0000      -6.056714      -164.8116
  73   2.0000      -6.054589      -164.7538
  74   2.0000      -6.051993      -164.6831
  75   2.0000      -6.050668      -164.6470
  76   2.0000      -6.046484      -164.5332
  77   2.0000      -6.046396      -164.5308
  78   2.0000      -6.043703      -164.4575
  79   2.0000      -6.042397      -164.4220
  80   2.0000      -6.039561      -164.3448
  81   2.0000      -1.406181       -38.2641
  82   2.0000      -1.308761       -35.6132
  83   2.0000      -1.308520       -35.6066
  84   2.0000      -1.257212       -34.2105
  85   2.0000      -1.171866       -31.8881
  86   2.0000      -1.144354       -31.1395
  87   2.0000      -1.137841       -30.9622
  88   2.0000      -1.135762       -30.9057
  89   2.0000      -1.043709       -28.4008
  90   2.0000      -1.039632       -28.2898
  91   2.0000      -1.021491       -27.7962
  92   2.0000      -1.020279       -27.7632
  93   2.0000      -1.016554       -27.6619
  94   2.0000      -1.010516       -27.4975
  95   2.0000      -1.002047       -27.2671
  96   2.0000      -0.998670       -27.1752
  97   2.0000      -0.994233       -27.0544
  98   2.0000      -0.989242       -26.9187
  99   2.0000      -0.962868       -26.2010
 100   2.0000      -0.956233       -26.0204
 101   2.0000      -0.949767       -25.8445
 102   2.0000      -0.942007       -25.6333
 103   2.0000      -0.926626       -25.2148
 104   2.0000      -0.911817       -24.8118
 105   2.0000      -0.908478       -24.7209
 106   2.0000      -0.896449       -24.3936
 107   2.0000      -0.880457       -23.9585
 108   2.0000      -0.869771       -23.6677
 109   2.0000      -0.858426       -23.3590
 110   2.0000      -0.846220       -23.0268
 111   2.0000      -0.841924       -22.9099
 112   2.0000      -0.837433       -22.7877
 113   2.0000      -0.833807       -22.6890
 114   2.0000      -0.821136       -22.3442
 115   2.0000      -0.795036       -21.6340
 116   2.0000      -0.779645       -21.2152
 117   2.0000      -0.772997       -21.0343
 118   2.0000      -0.760132       -20.6843
 119   2.0000      -0.756674       -20.5901
 120   2.0000      -0.746181       -20.3046
 121   2.0000      -0.741156       -20.1679
 122   2.0000      -0.725555       -19.7434
 123   2.0000      -0.702852       -19.1256
 124   2.0000      -0.697493       -18.9797
 125   2.0000      -0.695335       -18.9210
 126   2.0000      -0.690401       -18.7868
 127   2.0000      -0.689169       -18.7532
 128   2.0000      -0.684215       -18.6184
 129   2.0000      -0.681759       -18.5516
 130   2.0000      -0.676765       -18.4157
 131   2.0000      -0.675346       -18.3771
 132   2.0000      -0.665226       -18.1017
 133   2.0000      -0.658053       -17.9065
 134   2.0000      -0.642133       -17.4733
 135   2.0000      -0.636127       -17.3099
 136   2.0000      -0.624086       -16.9823
 137   2.0000      -0.623270       -16.9600
 138   2.0000      -0.620983       -16.8978
 139   2.0000      -0.613909       -16.7053
 140   2.0000      -0.612782       -16.6747
 141   2.0000      -0.607714       -16.5367
 142   2.0000      -0.602696       -16.4002
 143   2.0000      -0.592889       -16.1333
 144   2.0000      -0.587613       -15.9898
 145   2.0000      -0.570671       -15.5288
 146   2.0000      -0.569164       -15.4877
 147   2.0000      -0.565294       -15.3824
 148   2.0000      -0.564197       -15.3526
 149   2.0000      -0.554552       -15.0901
 150   2.0000      -0.553867       -15.0715
 151   2.0000      -0.550893       -14.9905
 152   2.0000      -0.547792       -14.9062
 153   2.0000      -0.545764       -14.8510
 154   2.0000      -0.540651       -14.7119
 155   2.0000      -0.536842       -14.6082
 156   2.0000      -0.534070       -14.5328
 157   2.0000      -0.532916       -14.5014
 158   2.0000      -0.531850       -14.4724
 159   2.0000      -0.529823       -14.4172
 160   2.0000      -0.527910       -14.3652
 161   2.0000      -0.524988       -14.2856
 162   2.0000      -0.520250       -14.1567
 163   2.0000      -0.518235       -14.1019
 164   2.0000      -0.517515       -14.0823
 165   2.0000      -0.513360       -13.9692
 166   2.0000      -0.510384       -13.8883
 167   2.0000      -0.509983       -13.8773
 168   2.0000      -0.508846       -13.8464
 169   2.0000      -0.507139       -13.8000
 170   2.0000      -0.505882       -13.7657
 171   2.0000      -0.503648       -13.7050
 172   2.0000      -0.500987       -13.6325
 173   2.0000      -0.499122       -13.5818
 174   2.0000      -0.495284       -13.4774
 175   2.0000      -0.493430       -13.4269
 176   2.0000      -0.492583       -13.4039
 177   2.0000      -0.485617       -13.2143
 178   2.0000      -0.483909       -13.1678
 179   2.0000      -0.480840       -13.0843
 180   2.0000      -0.469899       -12.7866
 181   2.0000      -0.460483       -12.5304
 182   2.0000      -0.460193       -12.5225
 183   2.0000      -0.457464       -12.4482
 184   2.0000      -0.455752       -12.4016
 185   2.0000      -0.453817       -12.3490
 186   2.0000      -0.450527       -12.2595
 187   2.0000      -0.449614       -12.2346
 188   2.0000      -0.448705       -12.2099
 189   2.0000      -0.447254       -12.1704
 190   2.0000      -0.446281       -12.1439
 191   2.0000      -0.442252       -12.0343
 192   2.0000      -0.440266       -11.9803
 193   2.0000      -0.437616       -11.9081
 194   2.0000      -0.434810       -11.8318
 195   2.0000      -0.432828       -11.7778
 196   2.0000      -0.430841       -11.7238
 197   2.0000      -0.426459       -11.6045
 198   2.0000      -0.419840       -11.4244
 199   2.0000      -0.416569       -11.3354
 200   2.0000      -0.409255       -11.1364
 201   2.0000      -0.408960       -11.1284
 202   2.0000      -0.404455       -11.0058
 203   2.0000      -0.398308       -10.8385
 204   2.0000      -0.392652       -10.6846
 205   2.0000      -0.376039       -10.2325
 206   2.0000      -0.371864       -10.1189
 207   2.0000      -0.349936        -9.5222
 208   2.0000      -0.347875        -9.4662
 209   2.0000      -0.346450        -9.4274
 210   2.0000      -0.345794        -9.4095
 211   2.0000      -0.344701        -9.3798
 212   2.0000      -0.340975        -9.2784
 213   2.0000      -0.338475        -9.2104
 214   2.0000      -0.333604        -9.0778
 215   2.0000      -0.319645        -8.6980
 216   2.0000      -0.314077        -8.5465
 217   2.0000      -0.296928        -8.0798
 218   2.0000      -0.266838        -7.2610
 219   0.0000      -0.116303        -3.1648
 220   0.0000      -0.104392        -2.8406
 221   0.0000      -0.066449        -1.8082
 222   0.0000      -0.059314        -1.6140
 223   0.0000      -0.048015        -1.3065

MULLIKEN ATOMIC CHARGES
-----------------------
   0 C :    0.037342
   1 C :   -0.126204
   2 S :    0.188999
   3 C :   -0.168900
   4 Cl:   -0.003871
   5 C :    0.064995
   6 C :    0.141905
   7 O :   -0.120335
   8 C :   -0.076211
   9 C :    0.276070
  10 C :   -0.313365
  11 C :   -0.191070
  12 N :    0.156133
  13 C :   -0.196671
  14 N :    0.177032
  15 C :   -0.070857
  16 C :    0.112770
  17 O :   -0.143997
  18 C :    0.246442
  19 C :   -0.059770
  20 C :   -0.005413
  21 C :    0.027365
  22 O :   -0.122725
  23 C :    0.480746
  24 F :   -0.162268
  25 F :   -0.127053
  26 F :   -0.168416
  27 C :   -0.101416
  28 S :    0.221359
  29 C :   -0.091657
  30 C :    0.013917
  31 C :   -0.014631
  32 C :    0.122712
  33 O :   -0.179249
  34 C :    0.037885
  35 C :    0.063268
  36 C :   -0.084067
  37 C :    0.024347
  38 C :    0.067706
  39 C :   -0.101400
  40 S :    0.165977
  41 C :    0.061033
  42 C :   -0.153073
  43 C :    0.138197
  44 O :   -0.131549
  45 C :    0.087336
  46 C :   -0.169986
  47 S :    0.184678
  48 C :   -0.129482
  49 C :    0.019537
  50 C :    0.248050
  51 C :   -0.307408
  52 C :   -0.183545
  53 N :    0.159149
  54 C :   -0.209208
  55 N :    0.179126
  56 Cl:   -0.000709
  57 H :    0.055232
  58 H :    0.053202
  59 H :    0.014237
  60 H :    0.001553
  61 H :   -0.003565
  62 H :    0.002127
  63 H :    0.006050
  64 H :   -0.005709
  65 H :    0.001820
  66 H :    0.031024
  67 H :    0.054456
Sum of atomic charges:   -0.0000000

LOEWDIN ATOMIC CHARGES
----------------------
   0 C :   -0.058960
   1 C :   -0.148803
   2 S :    0.478232
   3 C :   -0.273634
   4 Cl:    0.189854
   5 C :   -0.117117
   6 C :    0.074035
   7 O :   -0.129891
   8 C :   -0.067057
   9 C :    0.069155
  10 C :   -0.125981
  11 C :   -0.014781
  12 N :   -0.046250
  13 C :   -0.028439
  14 N :   -0.033554
  15 C :    0.041769
  16 C :    0.054459
  17 O :    0.062478
  18 C :    0.041622
  19 C :   -0.037291
  20 C :   -0.084551
  21 C :    0.041712
  22 O :   -0.086395
  23 C :    0.141810
  24 F :   -0.056825
  25 F :   -0.028591
  26 F :   -0.060026
  27 C :   -0.189079
  28 S :    0.497094
  29 C :   -0.142577
  30 C :   -0.112205
  31 C :   -0.006271
  32 C :    0.098393
  33 O :   -0.131917
  34 C :   -0.030783
  35 C :   -0.024488
  36 C :   -0.147189
  37 C :   -0.047141
  38 C :   -0.007311
  39 C :   -0.182502
  40 S :    0.483473
  41 C :    0.053024
  42 C :   -0.095176
  43 C :    0.080826
  44 O :   -0.135334
  45 C :   -0.117993
  46 C :   -0.272363
  47 S :    0.473327
  48 C :   -0.152324
  49 C :   -0.056590
  50 C :    0.060465
  51 C :   -0.139636
  52 C :   -0.018272
  53 N :   -0.048453
  54 C :   -0.037827
  55 N :   -0.043743
  56 Cl:    0.191763
  57 H :    0.038448
  58 H :    0.055509
  59 H :    0.037662
  60 H :    0.040461
  61 H :   -0.001046
  62 H :    0.034029
  63 H :    0.034297
  64 H :    0.033573
  65 H :    0.039382
  66 H :    0.053442
  67 H :    0.038069

  Mayer bond orders larger than 0.100000
B(  0-C ,  1-C ) :   1.5479 B(  0-C ,  5-C ) :   1.2224 B(  0-C ,  9-C ) :   0.9997
B(  1-C ,  2-S ) :   1.1618 B(  1-C , 57-H ) :   0.9539 B(  2-S ,  3-C ) :   1.1530
B(  3-C ,  4-Cl) :   1.1241 B(  3-C ,  5-C ) :   1.4827 B(  5-C ,  6-C ) :   0.9488
B(  6-C ,  7-O ) :   2.2754 B(  6-C ,  8-C ) :   0.9166 B(  8-C ,  9-C ) :   1.0529
B(  8-C , 15-C ) :   1.6009 B(  9-C , 10-C ) :   1.6739 B( 10-C , 11-C ) :   1.1423
B( 10-C , 13-C ) :   1.1293 B( 11-C , 12-N ) :   2.9930 B( 13-C , 14-N ) :   3.0010
B( 15-C , 16-C ) :   1.2084 B( 15-C , 58-H ) :   0.9190 B( 16-C , 17-O ) :   1.1847
B( 16-C , 18-C ) :   0.1008 B( 16-C , 20-C ) :   1.3525 B( 17-O , 18-C ) :   1.1891
B( 18-C , 19-C ) :   1.4453 B( 18-C , 27-C ) :   1.0640 B( 19-C , 20-C ) :   1.2601
B( 19-C , 59-H ) :   0.9906 B( 20-C , 21-C ) :   0.9462 B( 21-C , 22-O ) :   2.1792
B( 21-C , 23-C ) :   0.8831 B( 23-C , 24-F ) :   1.1414 B( 23-C , 25-F ) :   1.1989
B( 23-C , 26-F ) :   1.1184 B( 27-C , 28-S ) :   1.1146 B( 27-C , 31-C ) :   1.5166
B( 28-S , 29-C ) :   1.1546 B( 29-C , 30-C ) :   1.4135 B( 29-C , 34-C ) :   1.1277
B( 30-C , 31-C ) :   1.2598 B( 30-C , 32-C ) :   0.9668 B( 31-C , 60-H ) :   1.0009
B( 32-C , 33-O ) :   2.1798 B( 32-C , 61-H ) :   0.9586 B( 34-C , 35-C ) :   1.6955
B( 34-C , 62-H ) :   0.9522 B( 35-C , 36-C ) :   1.1342 B( 35-C , 63-H ) :   0.9585
B( 36-C , 37-C ) :   1.4522 B( 36-C , 40-S ) :   1.1552 B( 37-C , 38-C ) :   1.3175
B( 37-C , 64-H ) :   0.9907 B( 38-C , 39-C ) :   1.4198 B( 38-C , 65-H ) :   0.9987
B( 39-C , 40-S ) :   1.1190 B( 39-C , 41-C ) :   1.1388 B( 41-C , 42-C ) :   1.6625
B( 41-C , 66-H ) :   0.9427 B( 42-C , 43-C ) :   0.9389 B( 42-C , 50-C ) :   1.0349
B( 43-C , 44-O ) :   2.2749 B( 43-C , 45-C ) :   0.9260 B( 45-C , 46-C ) :   1.4863
B( 45-C , 49-C ) :   1.2227 B( 46-C , 47-S ) :   1.1515 B( 46-C , 56-Cl) :   1.1282
B( 47-S , 48-C ) :   1.1573 B( 48-C , 49-C ) :   1.5554 B( 48-C , 67-H ) :   0.9571
B( 49-C , 50-C ) :   1.0110 B( 50-C , 51-C ) :   1.6693 B( 51-C , 52-C ) :   1.1354
B( 51-C , 54-C ) :   1.1486 B( 52-C , 53-N ) :   3.0039 B( 54-C , 55-N ) :   3.0294

-----------------------------------------------------------------------------
         ABSORPTION SPECTRUM VIA TRANSITION ELECTRIC DIPOLE MOMENTS
-----------------------------------------------------------------------------
State   Energy  Wavelength   fosc         T2         TX        TY        TZ
        (cm-1)    (nm)                  (au**2)     (au)      (au)      (au)
-----------------------------------------------------------------------------
   0   17706.9    564.8   1.292857544  24.03718   2.85044  -3.48732  -1.93669
   1   20464.7    488.6   0.301396358   4.84852   0.59968   0.28162  -2.09990
   2   24976.6    400.4   0.015100200   0.19903   0.10248   0.33097  -0.28105
   3   26251.6    380.9   0.047701751   0.59821   0.02263   0.76612  -0.10369
   4   27051.9    369.7   0.032313108   0.39324  -0.07839   0.57614   0.23486
   5   27521.1    363.4   0.260893821   3.12085  -0.40761  -0.56492  -1.62345
   6   28085.2    356.1   0.240837726   2.82307   0.69071   0.26573   1.50844
   7   29176.5    342.7   0.004074044   0.04597  -0.07072  -0.14630  -0.13987
   8   29702.5    336.7   0.179097138   1.98505  -0.68132   1.08795   0.58070
   9   30273.9    330.3   0.047265507   0.51399  -0.32340  -0.46393  -0.44064
  10   30855.2    324.1   0.027592528   0.29440   0.02265   0.35499   0.40972
  11   31027.6    322.3   0.054725348   0.58065  -0.66686  -0.27915  -0.24089
  12   31884.8    313.6   0.040681496   0.42004   0.54748  -0.03272   0.34531
  13   32190.3    310.7   0.002768196   0.02831   0.05485   0.15778   0.02023
  14   32543.8    307.3   0.094727842   0.95826  -0.21899  -0.69226  -0.65657
  15   33159.4    301.6   0.160053793   1.58904  -0.34162   1.03633   0.63115
  16   33636.8    297.3   0.072851471   0.71302   0.19778  -0.58292  -0.57801
  17   34495.7    289.9   0.010353549   0.09881  -0.04666  -0.29825  -0.08765
  18   34674.0    288.4   0.071086566   0.67493  -0.59056   0.51265  -0.25171
  19   35419.2    282.3   0.221110064   2.05516  -0.88492   0.24153  -1.10170
  20   35567.5    281.2   0.115300746   1.06722   0.26953   0.90124   0.42702
  21   36156.7    276.6   0.225777337   2.05574  -1.06867   0.53142  -0.79452
  22   36472.7    274.2   0.010855788   0.09799   0.17675   0.24256   0.08896
  23   36681.4    272.6   0.067515882   0.60595  -0.33302   0.70316   0.02495
  24   36898.9    271.0   0.070356761   0.62772  -0.54381   0.52870   0.22905
  25   37426.4    267.2   0.055753061   0.49042   0.67485  -0.12493   0.13925
  26   37798.5    264.6   0.633812135   5.52028  -0.87328  -1.53401  -1.55064
  27   38452.7    260.1   0.413061541   3.53642   0.59331  -1.77870  -0.14365
  28   38553.2    259.4   0.025280471   0.21587   0.38176  -0.00058   0.26483
  29   38982.7    256.5   0.132047266   1.11515   0.26416  -0.98821  -0.26234
  30   39242.2    254.8   0.042895226   0.35986   0.46879   0.20286   0.31455
  31   39663.0    252.1   0.044794554   0.37180  -0.37633   0.47402   0.07410
  32   40105.7    249.3   0.020217939   0.16596   0.21596  -0.34526  -0.01107

FINAL SINGLE POINT ENERGY     -4896.775227922456

DIPOLE MOMENT
-------------
                                X             Y             Z
Electronic contribution:     -3.77240       5.57046      13.53333
Nuclear contribution   :      2.00983      -8.00303     -15.01941
                        -----------------------------------------
Total Dipole Moment    :     -1.76257      -2.43257      -1.48608
                        -----------------------------------------
Magnitude (a.u.)       :      3.35149
Magnitude (Debye)      :      8.51880

Rotational constants in cm-1:     0.002104     0.000358     0.000322
Rotational constants in MHz :    63.066342    10.726619     9.645144

                             ****ORCA TERMINATED NORMALLY****
TOTAL RUN TIME: 0 days 0 hours 5 minutes 32 seconds 604 msec
