                         Program Version 4.2.0 -  RELEASE  -
|  1> # ORCA input file
|  2> # SCF done        -74.187019074371          0.000566085342
|  3> ! CAM-B3LYP def2-SVP def2/J RIJCOSX Grid4 TightSCF
|  4> %maxcore 5000
|  5> %tddft
|  6>     Mode sTDDFT
|  7>     Ethresh 5.0
|  8>     maxcore 5000
|  9> end
| 10>
| 11> %pal
| 12>   nprocs 6
| 13>   end
| 14> * xyz 0 1
| 15>    C        2.39612         0.75056         0.45981
| 16>    C        3.68467         0.67964         0.11548
| 17>    C        4.81182         0.68471         1.00734
| 18>    C        4.76481         0.75117         2.36041
| 19>    C        5.91663         0.76403         3.18286
| 20>    C        5.85969         0.84080         4.54403
| 21>    C        6.95403         0.88248         5.43409
| 22>    C        8.28276         0.83812         5.09845
| 23>    C        9.31320         0.92525         6.03722
| 24>    C       10.65751         0.89985         5.73695
| 25>    C       11.73075         1.03598         6.64386
| 26>    C       12.96577         0.99867         6.06418
| 27>    C       12.93652         0.81799         4.66689
| 28>    S       11.28283         0.70225         4.10682
| 29>    C       14.01806         0.73579         3.80510
| 30>    C       15.38268         0.87847         4.12674
| 31>    C       16.21973         0.75556         3.05600
| 32>    C       15.56557         0.49462         1.83221
| 33>    S       13.82931         0.42937         2.09239
| 34>    C       16.16035         0.30154         0.60493
| 35>    C       15.48447        -0.01811        -0.57513
| 36>    C       16.11030        -0.21997        -1.77765
| 37>    C       15.44388        -0.59579        -2.95782
| 38>    C       16.08277        -0.79721        -4.14626
| 39>    C       15.48989        -1.21306        -5.36908
| 40>    C       14.19273        -1.55145        -5.56805
| 41>    C       13.68001        -1.97696        -6.83460
| 42>    C       12.40884        -2.33066        -7.04081
| 43>    H        1.61676         0.74142        -0.28207
| 44>    H        2.07461         0.82105         1.48453
| 45>    H        3.93306         0.61337        -0.93693
| 46>    H        5.78527         0.63197         0.53563
| 47>    H        3.80795         0.80284         2.86214
| 48>    H        6.87521         0.71749         2.68505
| 49>    H        4.87671         0.88539         4.99841
| 50>    H        6.71293         0.96690         6.48706
| 51>    H        8.57379         0.74198         4.06124
| 52>    H        9.04907         1.03723         7.08155
| 53>    H       11.55911         1.16343         7.69846
| 54>    H       13.88950         1.08948         6.60706
| 55>    H       15.71319         1.07391         5.13115
| 56>    H       17.29120         0.83809         3.11077
| 57>    H       17.23914         0.38860         0.56814
| 58>    H       14.40786        -0.12388        -0.51931
| 59>    H       17.18566        -0.09825        -1.82711
| 60>    H       14.37330        -0.73259        -2.89343
| 61>    H       17.15263        -0.62803        -4.17202
| 62>    H       16.15945        -1.27368        -6.21926
| 63>    H       13.48688        -1.51706        -4.74990
| 64>    H       14.38603        -2.00672        -7.65559
| 65>    H       11.68363        -2.31209        -6.24359
| 66>    H       12.05483        -2.64968        -8.00548
| 67> *
| 68>
| 69>                          ****END OF INPUT****

CARTESIAN COORDINATES (ANGSTROEM)
---------------------------------
  C      2.396120    0.750560    0.459810
  C      3.684670    0.679640    0.115480
  C      4.811820    0.684710    1.007340
  C      4.764810    0.751170    2.360410
  C      5.916630    0.764030    3.182860
  C      5.859690    0.840800    4.544030
  C      6.954030    0.882480    5.434090
  C      8.282760    0.838120    5.098450
  C      9.313200    0.925250    6.037220
  C     10.657510    0.899850    5.736950
  C     11.730750    1.035980    6.643860
  C     12.965770    0.998670    6.064180
  C     12.936520    0.817990    4.666890
  S     11.282830    0.702250    4.106820
  C     14.018060    0.735790    3.805100
  C     15.382680    0.878470    4.126740
  C     16.219730    0.755560    3.056000
  C     15.565570    0.494620    1.832210
  S     13.829310    0.429370    2.092390
  C     16.160350    0.301540    0.604930
  C     15.484470   -0.018110   -0.575130
  C     16.110300   -0.219970   -1.777650
  C     15.443880   -0.595790   -2.957820
  C     16.082770   -0.797210   -4.146260
  C     15.489890   -1.213060   -5.369080
  C     14.192730   -1.551450   -5.568050
  C     13.680010   -1.976960   -6.834600
  C     12.408840   -2.330660   -7.040810
  H      1.616760    0.741420   -0.282070
  H      2.074610    0.821050    1.484530
  H      3.933060    0.613370   -0.936930
  H      5.785270    0.631970    0.535630
  H      3.807950    0.802840    2.862140
  H      6.875210    0.717490    2.685050
  H      4.876710    0.885390    4.998410
  H      6.712930    0.966900    6.487060
  H      8.573790    0.741980    4.061240
  H      9.049070    1.037230    7.081550
  H     11.559110    1.163430    7.698460
  H     13.889500    1.089480    6.607060
  H     15.713190    1.073910    5.131150
  H     17.291200    0.838090    3.110770
  H     17.239140    0.388600    0.568140
  H     14.407860   -0.123880   -0.519310
  H     17.185660   -0.098250   -1.827110
  H     14.373300   -0.732590   -2.893430
  H     17.152630   -0.628030   -4.172020
  H     16.159450   -1.273680   -6.219260
  H     13.486880   -1.517060   -4.749900
  H     14.386030   -2.006720   -7.655590
  H     11.683630   -2.312090   -6.243590
  H     12.054830   -2.649680   -8.005480

 Total Charge           Charge          ....    0
 Multiplicity           Mult            ....    1
 Number of Electrons    NEL             ....  212
 Basis Dimension        Dim             ....  520

ORBITAL ENERGIES
----------------

  NO   OCC          E(Eh)            E(eV)
   0   2.0000     -88.937408     -2420.1099
   1   2.0000     -88.937340     -2420.1081
   2   2.0000     -10.303234      -280.3653
   3   2.0000     -10.302883      -280.3557
   4   2.0000     -10.298541      -280.2375
   5   2.0000     -10.298286      -280.2306
   6   2.0000     -10.280176      -279.7378
   7   2.0000     -10.280076      -279.7351
   8   2.0000     -10.277052      -279.6528
   9   2.0000     -10.276889      -279.6484
  10   2.0000     -10.271075      -279.4902
  11   2.0000     -10.270900      -279.4854
  12   2.0000     -10.267958      -279.4053
  13   2.0000     -10.267492      -279.3927
  14   2.0000     -10.267150      -279.3834
  15   2.0000     -10.266307      -279.3604
  16   2.0000     -10.265261      -279.3319
  17   2.0000     -10.264743      -279.3178
  18   2.0000     -10.264706      -279.3169
  19   2.0000     -10.264139      -279.3014
  20   2.0000     -10.264071      -279.2996
  21   2.0000     -10.263790      -279.2919
  22   2.0000     -10.263408      -279.2815
  23   2.0000     -10.263204      -279.2760
  24   2.0000     -10.262852      -279.2664
  25   2.0000     -10.261872      -279.2397
  26   2.0000     -10.255936      -279.0782
  27   2.0000     -10.255065      -279.0545
  28   2.0000      -8.033662      -218.6071
  29   2.0000      -8.033612      -218.6057
  30   2.0000      -6.003350      -163.3595
  31   2.0000      -6.003295      -163.3580
  32   2.0000      -5.999408      -163.2522
  33   2.0000      -5.999388      -163.2516
  34   2.0000      -5.994570      -163.1205
  35   2.0000      -5.994554      -163.1201
  36   2.0000      -0.987312       -26.8661
  37   2.0000      -0.965713       -26.2784
  38   2.0000      -0.913355       -24.8537
  39   2.0000      -0.911156       -24.7938
  40   2.0000      -0.897299       -24.4168
  41   2.0000      -0.891417       -24.2567
  42   2.0000      -0.873267       -23.7628
  43   2.0000      -0.862135       -23.4599
  44   2.0000      -0.845589       -23.0097
  45   2.0000      -0.833247       -22.6738
  46   2.0000      -0.826160       -22.4810
  47   2.0000      -0.813009       -22.1231
  48   2.0000      -0.801269       -21.8036
  49   2.0000      -0.781525       -21.2664
  50   2.0000      -0.756714       -20.5912
  51   2.0000      -0.734279       -19.9807
  52   2.0000      -0.712102       -19.3773
  53   2.0000      -0.689239       -18.7552
  54   2.0000      -0.678466       -18.4620
  55   2.0000      -0.664192       -18.0736
  56   2.0000      -0.645032       -17.5522
  57   2.0000      -0.641163       -17.4469
  58   2.0000      -0.629733       -17.1359
  59   2.0000      -0.619444       -16.8559
  60   2.0000      -0.617224       -16.7955
  61   2.0000      -0.611578       -16.6419
  62   2.0000      -0.605432       -16.4746
  63   2.0000      -0.596121       -16.2213
  64   2.0000      -0.591071       -16.0839
  65   2.0000      -0.566356       -15.4113
  66   2.0000      -0.557562       -15.1720
  67   2.0000      -0.553576       -15.0636
  68   2.0000      -0.543639       -14.7932
  69   2.0000      -0.534842       -14.5538
  70   2.0000      -0.521783       -14.1984
  71   2.0000      -0.513001       -13.9595
  72   2.0000      -0.506340       -13.7782
  73   2.0000      -0.499448       -13.5907
  74   2.0000      -0.490309       -13.3420
  75   2.0000      -0.489701       -13.3254
  76   2.0000      -0.485984       -13.2243
  77   2.0000      -0.477378       -12.9901
  78   2.0000      -0.474529       -12.9126
  79   2.0000      -0.469999       -12.7893
  80   2.0000      -0.460723       -12.5369
  81   2.0000      -0.455046       -12.3824
  82   2.0000      -0.447366       -12.1734
  83   2.0000      -0.444485       -12.0950
  84   2.0000      -0.440274       -11.9805
  85   2.0000      -0.432645       -11.7729
  86   2.0000      -0.428673       -11.6648
  87   2.0000      -0.426261       -11.5991
  88   2.0000      -0.424259       -11.5447
  89   2.0000      -0.422397       -11.4940
  90   2.0000      -0.419749       -11.4220
  91   2.0000      -0.416248       -11.3267
  92   2.0000      -0.413746       -11.2586
  93   2.0000      -0.409064       -11.1312
  94   2.0000      -0.407422       -11.0865
  95   2.0000      -0.395097       -10.7511
  96   2.0000      -0.389673       -10.6035
  97   2.0000      -0.374155       -10.1813
  98   2.0000      -0.353047        -9.6069
  99   2.0000      -0.332408        -9.0453
 100   2.0000      -0.324768        -8.8374
 101   2.0000      -0.317720        -8.6456
 102   2.0000      -0.298315        -8.1176
 103   2.0000      -0.266383        -7.2486
 104   2.0000      -0.237721        -6.4687
 105   2.0000      -0.190268        -5.1774
 106   0.0000      -0.082629        -2.2484
 107   0.0000      -0.039793        -1.0828
 108   0.0000      -0.007614        -0.2072
 109   0.0000       0.023658         0.6438
 110   0.0000       0.052214         1.4208

MULLIKEN ATOMIC CHARGES
-----------------------
   0 C :   -0.019521
   1 C :    0.001370
   2 C :   -0.001206
   3 C :    0.032197
   4 C :    0.021059
   5 C :    0.011004
   6 C :    0.013056
   7 C :    0.014788
   8 C :   -0.010150
   9 C :   -0.025232
  10 C :    0.033409
  11 C :    0.021056
  12 C :   -0.046379
  13 S :    0.071113
  14 C :   -0.048668
  15 C :    0.022772
  16 C :    0.030141
  17 C :   -0.018239
  18 S :    0.074840
  19 C :   -0.013964
  20 C :    0.007000
  21 C :    0.012759
  22 C :    0.031256
  23 C :    0.009216
  24 C :    0.010911
  25 C :    0.017359
  26 C :    0.004478
  27 C :   -0.023593
  28 H :    0.021902
  29 H :    0.011614
  30 H :   -0.008025
  31 H :   -0.017216
  32 H :   -0.019277
  33 H :   -0.013208
  34 H :   -0.019648
  35 H :   -0.019144
  36 H :   -0.001767
  37 H :   -0.019508
  38 H :   -0.015515
  39 H :   -0.016675
  40 H :   -0.016991
  41 H :   -0.014738
  42 H :   -0.018747
  43 H :   -0.005393
  44 H :   -0.017944
  45 H :   -0.014203
  46 H :   -0.018320
  47 H :   -0.017807
  48 H :   -0.013940
  49 H :   -0.010888
  50 H :    0.012917
  51 H :    0.019691
Sum of atomic charges:    0.0000000

LOEWDIN ATOMIC CHARGES
----------------------
   0 C :   -0.040411
   1 C :   -0.034364
   2 C :   -0.036170
   3 C :   -0.012582
   4 C :   -0.011943
   5 C :   -0.037517
   6 C :   -0.030747
   7 C :   -0.023964
   8 C :   -0.054180
   9 C :   -0.148793
  10 C :   -0.037217
  11 C :   -0.035800
  12 C :   -0.179713
  13 S :    0.368541
  14 C :   -0.179882
  15 C :   -0.035616
  16 C :   -0.037487
  17 C :   -0.147565
  18 S :    0.368741
  19 C :   -0.056958
  20 C :   -0.034324
  21 C :   -0.019663
  22 C :   -0.016784
  23 C :   -0.033832
  24 C :   -0.035271
  25 C :   -0.014741
  26 C :   -0.026208
  27 C :   -0.049011
  28 H :    0.023983
  29 H :    0.018190
  30 H :    0.028432
  31 H :    0.025161
  32 H :    0.025321
  33 H :    0.025669
  34 H :    0.026705
  35 H :    0.026932
  36 H :    0.020466
  37 H :    0.031773
  38 H :    0.032270
  39 H :    0.030454
  40 H :    0.030400
  41 H :    0.032324
  42 H :    0.031719
  43 H :    0.022558
  44 H :    0.026438
  45 H :    0.025876
  46 H :    0.026168
  47 H :    0.026899
  48 H :    0.024369
  49 H :    0.027698
  50 H :    0.020611
  51 H :    0.023049

  Mayer bond orders larger than 0.100000
B(  0-C ,  1-C ) :   1.9290 B(  0-C , 28-H ) :   0.9533 B(  0-C , 29-H ) :   0.9514
B(  1-C ,  2-C ) :   1.1089 B(  1-C , 30-H ) :   0.9645 B(  2-C ,  3-C ) :   1.6764
B(  2-C , 31-H ) :   0.9757 B(  3-C ,  4-C ) :   1.1710 B(  3-C , 32-H ) :   0.9776
B(  4-C ,  5-C ) :   1.6215 B(  4-C , 33-H ) :   0.9767 B(  5-C ,  6-C ) :   1.1568
B(  5-C , 34-H ) :   0.9752 B(  6-C ,  7-C ) :   1.6084 B(  6-C , 35-H ) :   0.9782
B(  7-C ,  8-C ) :   1.1992 B(  7-C , 36-H ) :   0.9637 B(  8-C ,  9-C ) :   1.5218
B(  8-C , 37-H ) :   0.9830 B(  9-C , 10-C ) :   1.1621 B(  9-C , 13-S ) :   1.0332
B( 10-C , 11-C ) :   1.5642 B( 10-C , 38-H ) :   0.9994 B( 11-C , 12-C ) :   1.2085
B( 11-C , 39-H ) :   0.9944 B( 12-C , 13-S ) :   1.0481 B( 12-C , 14-C ) :   1.4779
B( 14-C , 15-C ) :   1.2095 B( 14-C , 18-S ) :   1.0481 B( 15-C , 16-C ) :   1.5647
B( 15-C , 40-H ) :   0.9939 B( 16-C , 17-C ) :   1.1621 B( 16-C , 41-H ) :   0.9996
B( 17-C , 18-S ) :   1.0320 B( 17-C , 19-C ) :   1.5352 B( 19-C , 20-C ) :   1.1771
B( 19-C , 42-H ) :   0.9798 B( 20-C , 21-C ) :   1.5721 B( 20-C , 43-H ) :   0.9766
B( 21-C , 22-C ) :   1.1791 B( 21-C , 44-H ) :   0.9913 B( 22-C , 23-C ) :   1.6307
B( 22-C , 45-H ) :   0.9733 B( 23-C , 24-C ) :   1.1321 B( 23-C , 46-H ) :   0.9754
B( 24-C , 25-C ) :   1.6973 B( 24-C , 47-H ) :   0.9734 B( 25-C , 26-C ) :   1.1288
B( 25-C , 48-H ) :   0.9667 B( 26-C , 27-C ) :   1.8840 B( 26-C , 49-H ) :   0.9762
B( 27-C , 50-H ) :   0.9581 B( 27-C , 51-H ) :   0.9529

-----------------------------------------------------------------------------
         ABSORPTION SPECTRUM VIA TRANSITION ELECTRIC DIPOLE MOMENTS
-----------------------------------------------------------------------------
State   Energy  Wavelength   fosc         T2         TX        TY        TZ
        (cm-1)    (nm)                  (au**2)     (au)      (au)      (au)
-----------------------------------------------------------------------------
   0   11720.4    853.2   1.200823145  33.72971  -4.69494   0.78447   3.32744
   1   18440.8    542.3   0.025394665   0.45336  -0.26084  -0.11683  -0.60965
   2   22967.3    435.4   2.231998275  31.99337  -2.95029  -0.89062  -4.74299
   3   24816.6    403.0   0.002829358   0.03753  -0.14468   0.02204   0.12695
   4   29219.8    342.2   0.043827699   0.49380   0.45762   0.29462  -0.44450
   5   30748.5    325.2   0.003925180   0.04203   0.13181   0.03634   0.15275
   6   31491.3    317.5   0.034474951   0.36040   0.30419   0.43611  -0.27872
   7   32000.5    312.5   0.048720779   0.50122  -0.38154  -0.10041  -0.58785
   8   32387.9    308.8   0.001166307   0.01186  -0.08006  -0.02551   0.06925
   9   35471.4    281.9   0.066537068   0.61753   0.64269   0.01563  -0.45193
  10   36725.6    272.3   0.034429954   0.30863  -0.24557  -0.09426  -0.48933
  11   36966.4    270.5   0.078256238   0.69693   0.43249   0.14296   0.69960
  12   37189.6    268.9   0.019134802   0.16939   0.36345   0.02555  -0.19140
  13   38290.0    261.2   0.343639362   2.95456  -0.96180  -0.32507  -1.38702

FINAL SINGLE POINT ENERGY     -1799.853169442614

DIPOLE MOMENT
-------------
                                X             Y             Z
Electronic contribution:     16.93055       4.74669      23.84639
Nuclear contribution   :    -16.38873      -4.62447     -23.21787
                        -----------------------------------------
Total Dipole Moment    :      0.54182       0.12222       0.62852
                        -----------------------------------------
Magnitude (a.u.)       :      0.83878
Magnitude (Debye)      :      2.13200

Rotational constants in cm-1:     0.003524     0.001865     0.001226
Rotational constants in MHz :   105.655802    55.922208    36.753707

                             ****ORCA TERMINATED NORMALLY****
TOTAL RUN TIME: 0 days 0 hours 3 minutes 9 seconds 285 msec
