                         Program Version 4.2.0 -  RELEASE  -
|  1> # ORCA input file
|  2> # SCF done       -177.850756116397          0.000608063603
|  3> ! CAM-B3LYP def2-SVP def2/J RIJCOSX Grid4 TightSCF
|  4> %maxcore 5000
|  5> %tddft
|  6>     Mode sTDDFT
|  7>     Ethresh 5.0
|  8>     maxcore 5000
|  9> end
| 10>
| 11> %pal
| 12>   nprocs 6
| 13>   end
| 14> * xyz 0 1
| 15>    C        5.59860         7.61118        -5.35470
| 16>    C        4.66623         8.37568        -5.99941
| 17>    F        5.01813         9.05809        -7.10228
| 18>    C        3.34084         8.47985        -5.55390
| 19>    C        2.96319         7.79367        -4.43369
| 20>    C        3.88406         6.99090        -3.72898
| 21>    C        5.22794         6.89907        -4.19731
| 22>    C        6.17235         6.10890        -3.50237
| 23>    C        5.78501         5.43532        -2.37468
| 24>    C        4.43578         5.51759        -1.92144
| 25>    C        3.50429         6.27520        -2.57250
| 26>    C        4.26972         4.67810        -0.72304
| 27>    O        3.28692         4.53686        -0.03483
| 28>    C        5.57602         3.96971        -0.55855
| 29>    C        6.53915         4.59533        -1.44915
| 30>    C        7.90023         4.59175        -1.31198
| 31>    C        8.59199         3.95968        -0.25773
| 32>    N        9.20438         3.51246         0.60372
| 33>    C        8.77475         5.30228        -2.16219
| 34>    N        9.52529         5.85417        -2.83173
| 35>    C        5.64462         2.88189         0.24080
| 36>    C        6.67972         1.88794         0.29158
| 37>    C        7.05472         1.25809         1.48969
| 38>    N        8.00101         0.35621         1.54431
| 39>    C        8.62767         0.04144         0.40629
| 40>    N        8.30332         0.52328        -0.79670
| 41>    C        7.34690         1.41469        -0.85079
| 42>    C        9.70015        -0.90105         0.49687
| 43>    C       10.44900        -1.44497        -0.52723
| 44>    C       11.39941        -2.34131        -0.03925
| 45>    C       11.36152        -2.45772         1.36398
| 46>    S       10.16267        -1.48030         2.07641
| 47>    C       12.35558        -3.39363         1.76107
| 48>    C       13.01107        -3.86879         0.61453
| 49>    C       12.43592        -3.22132        -0.55512
| 50>    C       12.79386        -3.40819        -1.85770
| 51>    C       13.82467        -4.29785        -2.22794
| 52>    N       14.66427        -5.01840        -2.52878
| 53>    C       12.16034        -2.73040        -2.92126
| 54>    N       11.65191        -2.18895        -3.79430
| 55>    C       13.99699        -4.81389         0.90749
| 56>    C       14.10131        -5.05059         2.26280
| 57>    S       12.95970        -4.09019         3.19253
| 58>    C       14.97634        -5.96478         2.93620
| 59>    C       15.16063        -5.94288         4.32833
| 60>    N       15.91704        -6.80547         4.96141
| 61>    C       16.49263        -7.76480         4.23792
| 62>    N       16.43782        -7.84431         2.90541
| 63>    C       15.71300        -6.95730         2.26778
| 64>    C       17.26702        -8.75203         4.95987
| 65>    C       17.50006       -10.02639         4.59251
| 66>    C       18.59060       -10.81470         5.25268
| 67>    O       19.14528       -10.54645         6.28989
| 68>    C       18.86290       -11.93128         4.33082
| 69>    C       19.84766       -12.87607         4.39768
| 70>    C       19.93596       -13.85334         3.38246
| 71>    C       19.00510       -13.82479         2.30208
| 72>    C       19.10533       -14.79727         1.28780
| 73>    C       20.08508       -15.74769         1.36375
| 74>    C       21.00657       -15.79516         2.41969
| 75>    C       20.92651       -14.85721         3.41058
| 76>    F       20.18107       -16.67801         0.39848
| 77>    C       17.99328       -12.83849         2.25978
| 78>    C       17.91488       -11.91213         3.26554
| 79>    C       16.96300       -10.83382         3.50679
| 80>    C       15.70566       -10.75345         2.98212
| 81>    C       14.71146        -9.85158         3.41992
| 82>    N       13.83580        -9.19009         3.75531
| 83>    C       15.21398       -11.63255         1.99273
| 84>    N       14.77309       -12.31309         1.18112
| 85>    H        6.61073         7.55718        -5.72407
| 86>    H        2.64960         9.09828        -6.10413
| 87>    H        1.94832         7.85817        -4.07137
| 88>    H        7.17902         6.04925        -3.88471
| 89>    H        2.48953         6.32815        -2.20758
| 90>    H        4.78240         2.71458         0.87949
| 91>    H        6.58589         1.52020         2.42906
| 92>    H        7.06366         1.75050        -1.84151
| 93>    H       10.28588        -1.18709        -1.55739
| 94>    H       14.61365        -5.29742         0.17245
| 95>    H       14.68170        -5.18863         4.94150
| 96>    H       15.69760        -7.05008         1.19003
| 97>    H       17.73198        -8.40311         5.87426
| 98>    H       20.55015       -12.87784         5.21761
| 99>    H       18.41051       -14.79366         0.46261
|100>    H       21.75712       -16.56956         2.42632
|101>    H       21.62498       -14.87320         4.23357
|102>    H       17.30786       -12.83346         1.42712
|103> *
|104>
|105>                          ****END OF INPUT****

CARTESIAN COORDINATES (ANGSTROEM)
---------------------------------
  C      5.598600    7.611180   -5.354700
  C      4.666230    8.375680   -5.999410
  F      5.018130    9.058090   -7.102280
  C      3.340840    8.479850   -5.553900
  C      2.963190    7.793670   -4.433690
  C      3.884060    6.990900   -3.728980
  C      5.227940    6.899070   -4.197310
  C      6.172350    6.108900   -3.502370
  C      5.785010    5.435320   -2.374680
  C      4.435780    5.517590   -1.921440
  C      3.504290    6.275200   -2.572500
  C      4.269720    4.678100   -0.723040
  O      3.286920    4.536860   -0.034830
  C      5.576020    3.969710   -0.558550
  C      6.539150    4.595330   -1.449150
  C      7.900230    4.591750   -1.311980
  C      8.591990    3.959680   -0.257730
  N      9.204380    3.512460    0.603720
  C      8.774750    5.302280   -2.162190
  N      9.525290    5.854170   -2.831730
  C      5.644620    2.881890    0.240800
  C      6.679720    1.887940    0.291580
  C      7.054720    1.258090    1.489690
  N      8.001010    0.356210    1.544310
  C      8.627670    0.041440    0.406290
  N      8.303320    0.523280   -0.796700
  C      7.346900    1.414690   -0.850790
  C      9.700150   -0.901050    0.496870
  C     10.449000   -1.444970   -0.527230
  C     11.399410   -2.341310   -0.039250
  C     11.361520   -2.457720    1.363980
  S     10.162670   -1.480300    2.076410
  C     12.355580   -3.393630    1.761070
  C     13.011070   -3.868790    0.614530
  C     12.435920   -3.221320   -0.555120
  C     12.793860   -3.408190   -1.857700
  C     13.824670   -4.297850   -2.227940
  N     14.664270   -5.018400   -2.528780
  C     12.160340   -2.730400   -2.921260
  N     11.651910   -2.188950   -3.794300
  C     13.996990   -4.813890    0.907490
  C     14.101310   -5.050590    2.262800
  S     12.959700   -4.090190    3.192530
  C     14.976340   -5.964780    2.936200
  C     15.160630   -5.942880    4.328330
  N     15.917040   -6.805470    4.961410
  C     16.492630   -7.764800    4.237920
  N     16.437820   -7.844310    2.905410
  C     15.713000   -6.957300    2.267780
  C     17.267020   -8.752030    4.959870
  C     17.500060  -10.026390    4.592510
  C     18.590600  -10.814700    5.252680
  O     19.145280  -10.546450    6.289890
  C     18.862900  -11.931280    4.330820
  C     19.847660  -12.876070    4.397680
  C     19.935960  -13.853340    3.382460
  C     19.005100  -13.824790    2.302080
  C     19.105330  -14.797270    1.287800
  C     20.085080  -15.747690    1.363750
  C     21.006570  -15.795160    2.419690
  C     20.926510  -14.857210    3.410580
  F     20.181070  -16.678010    0.398480
  C     17.993280  -12.838490    2.259780
  C     17.914880  -11.912130    3.265540
  C     16.963000  -10.833820    3.506790
  C     15.705660  -10.753450    2.982120
  C     14.711460   -9.851580    3.419920
  N     13.835800   -9.190090    3.755310
  C     15.213980  -11.632550    1.992730
  N     14.773090  -12.313090    1.181120
  H      6.610730    7.557180   -5.724070
  H      2.649600    9.098280   -6.104130
  H      1.948320    7.858170   -4.071370
  H      7.179020    6.049250   -3.884710
  H      2.489530    6.328150   -2.207580
  H      4.782400    2.714580    0.879490
  H      6.585890    1.520200    2.429060
  H      7.063660    1.750500   -1.841510
  H     10.285880   -1.187090   -1.557390
  H     14.613650   -5.297420    0.172450
  H     14.681700   -5.188630    4.941500
  H     15.697600   -7.050080    1.190030
  H     17.731980   -8.403110    5.874260
  H     20.550150  -12.877840    5.217610
  H     18.410510  -14.793660    0.462610
  H     21.757120  -16.569560    2.426320
  H     21.624980  -14.873200    4.233570
  H     17.307860  -12.833460    1.427120

 Total Charge           Charge          ....    0
 Multiplicity           Mult            ....    1
 Number of Electrons    NEL             ....  478
 Basis Dimension        Dim             .... 1078

ORBITAL ENERGIES
----------------

  NO   OCC          E(Eh)            E(eV)
   0   2.0000     -88.994982     -2421.6766
   1   2.0000     -88.989699     -2421.5328
   2   2.0000     -24.792726      -674.6444
   3   2.0000     -24.787448      -674.5008
   4   2.0000     -19.226110      -523.1691
   5   2.0000     -19.219118      -522.9788
   6   2.0000     -14.431169      -392.6921
   7   2.0000     -14.428884      -392.6299
   8   2.0000     -14.428289      -392.6137
   9   2.0000     -14.427823      -392.6010
  10   2.0000     -14.427388      -392.5892
  11   2.0000     -14.426601      -392.5678
  12   2.0000     -14.426416      -392.5627
  13   2.0000     -14.425860      -392.5476
  14   2.0000     -14.418934      -392.3591
  15   2.0000     -14.417855      -392.3298
  16   2.0000     -10.377449      -282.3847
  17   2.0000     -10.377077      -282.3746
  18   2.0000     -10.371547      -282.2241
  19   2.0000     -10.370076      -282.1841
  20   2.0000     -10.367355      -282.1101
  21   2.0000     -10.365114      -282.0491
  22   2.0000     -10.357174      -281.8330
  23   2.0000     -10.357116      -281.8314
  24   2.0000     -10.354454      -281.7590
  25   2.0000     -10.352734      -281.7122
  26   2.0000     -10.347769      -281.5771
  27   2.0000     -10.343228      -281.4535
  28   2.0000     -10.341968      -281.4193
  29   2.0000     -10.341602      -281.4093
  30   2.0000     -10.336495      -281.2703
  31   2.0000     -10.336317      -281.2655
  32   2.0000     -10.335895      -281.2540
  33   2.0000     -10.334476      -281.2154
  34   2.0000     -10.331555      -281.1359
  35   2.0000     -10.330766      -281.1144
  36   2.0000     -10.330210      -281.0993
  37   2.0000     -10.328835      -281.0619
  38   2.0000     -10.328348      -281.0486
  39   2.0000     -10.327655      -281.0298
  40   2.0000     -10.320745      -280.8418
  41   2.0000     -10.320709      -280.8408
  42   2.0000     -10.317131      -280.7434
  43   2.0000     -10.316654      -280.7304
  44   2.0000     -10.315290      -280.6933
  45   2.0000     -10.315128      -280.6889
  46   2.0000     -10.312865      -280.6273
  47   2.0000     -10.312358      -280.6135
  48   2.0000     -10.310746      -280.5697
  49   2.0000     -10.310241      -280.5559
  50   2.0000     -10.309691      -280.5410
  51   2.0000     -10.309033      -280.5230
  52   2.0000     -10.308724      -280.5147
  53   2.0000     -10.308170      -280.4996
  54   2.0000     -10.307684      -280.4863
  55   2.0000     -10.307191      -280.4729
  56   2.0000     -10.305492      -280.4267
  57   2.0000     -10.305488      -280.4266
  58   2.0000     -10.303787      -280.3803
  59   2.0000     -10.303542      -280.3736
  60   2.0000     -10.303037      -280.3599
  61   2.0000     -10.302944      -280.3574
  62   2.0000     -10.302340      -280.3409
  63   2.0000     -10.300595      -280.2934
  64   2.0000     -10.300120      -280.2805
  65   2.0000     -10.299814      -280.2722
  66   2.0000     -10.296651      -280.1861
  67   2.0000     -10.296523      -280.1826
  68   2.0000     -10.293212      -280.0925
  69   2.0000     -10.290769      -280.0261
  70   2.0000      -8.089446      -220.1250
  71   2.0000      -8.083722      -219.9692
  72   2.0000      -6.058617      -164.8633
  73   2.0000      -6.054471      -164.7505
  74   2.0000      -6.052866      -164.7068
  75   2.0000      -6.051968      -164.6824
  76   2.0000      -6.048582      -164.5903
  77   2.0000      -6.046434      -164.5318
  78   2.0000      -1.308143       -35.5964
  79   2.0000      -1.302787       -35.4506
  80   2.0000      -1.141644       -31.0657
  81   2.0000      -1.134976       -30.8843
  82   2.0000      -1.104139       -30.0451
  83   2.0000      -1.100716       -29.9520
  84   2.0000      -1.046330       -28.4721
  85   2.0000      -1.030034       -28.0286
  86   2.0000      -1.022254       -27.8170
  87   2.0000      -1.021400       -27.7937
  88   2.0000      -1.010741       -27.5037
  89   2.0000      -1.007639       -27.4193
  90   2.0000      -1.004733       -27.3402
  91   2.0000      -1.003489       -27.3063
  92   2.0000      -1.001110       -27.2416
  93   2.0000      -0.998057       -27.1585
  94   2.0000      -0.997623       -27.1467
  95   2.0000      -0.993101       -27.0237
  96   2.0000      -0.986576       -26.8461
  97   2.0000      -0.978820       -26.6350
  98   2.0000      -0.963261       -26.2117
  99   2.0000      -0.945073       -25.7167
 100   2.0000      -0.935636       -25.4600
 101   2.0000      -0.930718       -25.3261
 102   2.0000      -0.925333       -25.1796
 103   2.0000      -0.910121       -24.7657
 104   2.0000      -0.903174       -24.5766
 105   2.0000      -0.896326       -24.3903
 106   2.0000      -0.893835       -24.3225
 107   2.0000      -0.888232       -24.1700
 108   2.0000      -0.873840       -23.7784
 109   2.0000      -0.870636       -23.6912
 110   2.0000      -0.859038       -23.3756
 111   2.0000      -0.856516       -23.3070
 112   2.0000      -0.843573       -22.9548
 113   2.0000      -0.837233       -22.7823
 114   2.0000      -0.825996       -22.4765
 115   2.0000      -0.812695       -22.1146
 116   2.0000      -0.791540       -21.5389
 117   2.0000      -0.783536       -21.3211
 118   2.0000      -0.775810       -21.1109
 119   2.0000      -0.769515       -20.9396
 120   2.0000      -0.764099       -20.7922
 121   2.0000      -0.762954       -20.7610
 122   2.0000      -0.757383       -20.6094
 123   2.0000      -0.746102       -20.3025
 124   2.0000      -0.731084       -19.8938
 125   2.0000      -0.723890       -19.6980
 126   2.0000      -0.718172       -19.5424
 127   2.0000      -0.711428       -19.3589
 128   2.0000      -0.702887       -19.1265
 129   2.0000      -0.700210       -19.0537
 130   2.0000      -0.694327       -18.8936
 131   2.0000      -0.691167       -18.8076
 132   2.0000      -0.689541       -18.7634
 133   2.0000      -0.683407       -18.5964
 134   2.0000      -0.680661       -18.5217
 135   2.0000      -0.657121       -17.8812
 136   2.0000      -0.652722       -17.7615
 137   2.0000      -0.650381       -17.6978
 138   2.0000      -0.643486       -17.5101
 139   2.0000      -0.640232       -17.4216
 140   2.0000      -0.637778       -17.3548
 141   2.0000      -0.635926       -17.3044
 142   2.0000      -0.632037       -17.1986
 143   2.0000      -0.630284       -17.1509
 144   2.0000      -0.621776       -16.9194
 145   2.0000      -0.617991       -16.8164
 146   2.0000      -0.606244       -16.4967
 147   2.0000      -0.602219       -16.3872
 148   2.0000      -0.598597       -16.2886
 149   2.0000      -0.595870       -16.2144
 150   2.0000      -0.583470       -15.8770
 151   2.0000      -0.576662       -15.6918
 152   2.0000      -0.572623       -15.5819
 153   2.0000      -0.568697       -15.4750
 154   2.0000      -0.565920       -15.3995
 155   2.0000      -0.565323       -15.3832
 156   2.0000      -0.560582       -15.2542
 157   2.0000      -0.559794       -15.2328
 158   2.0000      -0.556710       -15.1489
 159   2.0000      -0.553265       -15.0551
 160   2.0000      -0.552557       -15.0358
 161   2.0000      -0.547326       -14.8935
 162   2.0000      -0.545441       -14.8422
 163   2.0000      -0.544999       -14.8302
 164   2.0000      -0.540710       -14.7135
 165   2.0000      -0.539267       -14.6742
 166   2.0000      -0.535973       -14.5846
 167   2.0000      -0.533048       -14.5050
 168   2.0000      -0.531795       -14.4709
 169   2.0000      -0.525844       -14.3089
 170   2.0000      -0.524558       -14.2740
 171   2.0000      -0.523399       -14.2424
 172   2.0000      -0.522544       -14.2191
 173   2.0000      -0.519906       -14.1474
 174   2.0000      -0.513612       -13.9761
 175   2.0000      -0.510381       -13.8882
 176   2.0000      -0.510037       -13.8788
 177   2.0000      -0.506159       -13.7733
 178   2.0000      -0.504157       -13.7188
 179   2.0000      -0.498718       -13.5708
 180   2.0000      -0.497525       -13.5384
 181   2.0000      -0.496785       -13.5182
 182   2.0000      -0.495649       -13.4873
 183   2.0000      -0.493200       -13.4207
 184   2.0000      -0.491765       -13.3816
 185   2.0000      -0.487784       -13.2733
 186   2.0000      -0.485261       -13.2046
 187   2.0000      -0.481115       -13.0918
 188   2.0000      -0.477553       -12.9949
 189   2.0000      -0.475029       -12.9262
 190   2.0000      -0.468228       -12.7411
 191   2.0000      -0.466176       -12.6853
 192   2.0000      -0.461494       -12.5579
 193   2.0000      -0.460367       -12.5272
 194   2.0000      -0.459568       -12.5055
 195   2.0000      -0.457377       -12.4459
 196   2.0000      -0.454227       -12.3601
 197   2.0000      -0.453505       -12.3405
 198   2.0000      -0.453157       -12.3310
 199   2.0000      -0.448353       -12.2003
 200   2.0000      -0.446009       -12.1365
 201   2.0000      -0.444658       -12.0997
 202   2.0000      -0.443055       -12.0561
 203   2.0000      -0.440809       -11.9950
 204   2.0000      -0.440085       -11.9753
 205   2.0000      -0.439028       -11.9466
 206   2.0000      -0.438401       -11.9295
 207   2.0000      -0.436824       -11.8866
 208   2.0000      -0.434360       -11.8195
 209   2.0000      -0.430489       -11.7142
 210   2.0000      -0.429229       -11.6799
 211   2.0000      -0.426338       -11.6013
 212   2.0000      -0.425567       -11.5803
 213   2.0000      -0.421252       -11.4628
 214   2.0000      -0.414258       -11.2725
 215   2.0000      -0.410805       -11.1786
 216   2.0000      -0.409280       -11.1371
 217   2.0000      -0.404018       -10.9939
 218   2.0000      -0.402245       -10.9456
 219   2.0000      -0.399291       -10.8652
 220   2.0000      -0.396937       -10.8012
 221   2.0000      -0.391959       -10.6657
 222   2.0000      -0.389505       -10.5990
 223   2.0000      -0.383785       -10.4433
 224   2.0000      -0.380294       -10.3483
 225   2.0000      -0.361663        -9.8414
 226   2.0000      -0.350586        -9.5399
 227   2.0000      -0.348204        -9.4751
 228   2.0000      -0.344286        -9.3685
 229   2.0000      -0.338514        -9.2114
 230   2.0000      -0.336862        -9.1665
 231   2.0000      -0.333530        -9.0758
 232   2.0000      -0.325309        -8.8521
 233   2.0000      -0.322350        -8.7716
 234   2.0000      -0.316512        -8.6127
 235   2.0000      -0.311870        -8.4864
 236   2.0000      -0.305442        -8.3115
 237   2.0000      -0.298926        -8.1342
 238   2.0000      -0.265741        -7.2312
 239   0.0000      -0.110580        -3.0090
 240   0.0000      -0.100571        -2.7367
 241   0.0000      -0.095080        -2.5873
 242   0.0000      -0.066197        -1.8013
 243   0.0000      -0.058718        -1.5978

MULLIKEN ATOMIC CHARGES
-----------------------
   0 C :   -0.094913
   1 C :    0.304673
   2 F :   -0.186532
   3 C :   -0.029422
   4 C :   -0.006777
   5 C :    0.098809
   6 C :    0.100059
   7 C :   -0.081784
   8 C :    0.039623
   9 C :    0.007237
  10 C :   -0.075136
  11 C :    0.138614
  12 O :   -0.135732
  13 C :   -0.119195
  14 C :    0.271685
  15 C :   -0.330314
  16 C :   -0.185848
  17 N :    0.171029
  18 C :   -0.178291
  19 N :    0.163672
  20 C :    0.048310
  21 C :   -0.051913
  22 C :    0.078084
  23 N :   -0.065155
  24 C :   -0.052347
  25 N :   -0.037968
  26 C :    0.062611
  27 C :   -0.040361
  28 C :   -0.032268
  29 C :    0.004885
  30 C :   -0.095295
  31 S :    0.249858
  32 C :   -0.097092
  33 C :    0.011579
  34 C :    0.301890
  35 C :   -0.293759
  36 C :   -0.186978
  37 N :    0.166666
  38 C :   -0.193422
  39 N :    0.187047
  40 C :   -0.034184
  41 C :   -0.062439
  42 S :    0.192572
  43 C :    0.067589
  44 C :    0.010252
  45 N :   -0.031301
  46 C :   -0.096150
  47 N :   -0.063253
  48 C :    0.028527
  49 C :    0.098866
  50 C :   -0.102355
  51 C :    0.136785
  52 O :   -0.130219
  53 C :    0.004501
  54 C :   -0.074826
  55 C :    0.099128
  56 C :    0.100276
  57 C :   -0.095475
  58 C :    0.302211
  59 C :   -0.030541
  60 C :   -0.008055
  61 F :   -0.188692
  62 C :   -0.080445
  63 C :    0.039587
  64 C :    0.295514
  65 C :   -0.304932
  66 C :   -0.179105
  67 N :    0.155292
  68 C :   -0.190929
  69 N :    0.157157
  70 H :    0.001124
  71 H :    0.007951
  72 H :   -0.006386
  73 H :   -0.001603
  74 H :   -0.008275
  75 H :    0.033760
  76 H :    0.012494
  77 H :    0.019759
  78 H :    0.021454
  79 H :    0.010322
  80 H :    0.016283
  81 H :    0.016632
  82 H :    0.032752
  83 H :   -0.007962
  84 H :    0.000183
  85 H :    0.006295
  86 H :   -0.006138
  87 H :    0.000171
Sum of atomic charges:   -0.0000000

LOEWDIN ATOMIC CHARGES
----------------------
   0 C :   -0.040479
   1 C :    0.095308
   2 F :   -0.061197
   3 C :   -0.033155
   4 C :    0.005992
   5 C :   -0.017195
   6 C :    0.004429
   7 C :    0.015074
   8 C :   -0.019492
   9 C :   -0.062014
  10 C :    0.038367
  11 C :    0.084274
  12 O :   -0.136297
  13 C :   -0.079254
  14 C :    0.066414
  15 C :   -0.127887
  16 C :   -0.017438
  17 N :   -0.041959
  18 C :   -0.018638
  19 N :   -0.040909
  20 C :    0.072084
  21 C :   -0.095073
  22 C :    0.077586
  23 N :   -0.089334
  24 C :    0.028707
  25 N :   -0.072048
  26 C :    0.068468
  27 C :   -0.188587
  28 C :    0.006319
  29 C :   -0.073049
  30 C :   -0.174013
  31 S :    0.524832
  32 C :   -0.176842
  33 C :   -0.064879
  34 C :    0.080480
  35 C :   -0.099988
  36 C :   -0.015549
  37 N :   -0.034055
  38 C :   -0.018942
  39 N :   -0.026192
  40 C :   -0.021093
  41 C :   -0.161926
  42 S :    0.490480
  43 C :   -0.066161
  44 C :    0.045032
  45 N :   -0.056403
  46 C :    0.010497
  47 N :   -0.064818
  48 C :    0.061124
  49 C :    0.063353
  50 C :   -0.057966
  51 C :    0.084845
  52 O :   -0.131494
  53 C :   -0.061311
  54 C :    0.037033
  55 C :   -0.017966
  56 C :    0.004758
  57 C :   -0.041524
  58 C :    0.094275
  59 C :   -0.035491
  60 C :    0.005339
  61 F :   -0.062771
  62 C :    0.013174
  63 C :   -0.015819
  64 C :    0.076205
  65 C :   -0.116878
  66 C :   -0.015885
  67 N :   -0.052888
  68 C :   -0.017707
  69 N :   -0.045953
  70 H :    0.044545
  71 H :    0.043556
  72 H :    0.036898
  73 H :    0.040408
  74 H :    0.041227
  75 H :    0.050183
  76 H :    0.031059
  77 H :    0.029076
  78 H :    0.047464
  79 H :    0.040712
  80 H :    0.021295
  81 H :    0.030086
  82 H :    0.053421
  83 H :    0.040735
  84 H :    0.043947
  85 H :    0.042706
  86 H :    0.036549
  87 H :    0.040202

  Mayer bond orders larger than 0.100000
B(  0-C ,  1-C ) :   1.4408 B(  0-C ,  6-C ) :   1.2019 B(  0-C , 70-H ) :   1.0066
B(  1-C ,  2-F ) :   1.0929 B(  1-C ,  3-C ) :   1.2520 B(  3-C ,  4-C ) :   1.4629
B(  3-C , 71-H ) :   0.9933 B(  4-C ,  5-C ) :   1.2322 B(  4-C , 72-H ) :   0.9975
B(  5-C ,  6-C ) :   1.2508 B(  5-C , 10-C ) :   1.1972 B(  6-C ,  7-C ) :   1.2091
B(  7-C ,  8-C ) :   1.4539 B(  7-C , 73-H ) :   0.9946 B(  8-C ,  9-C ) :   1.2151
B(  8-C , 14-C ) :   1.0034 B(  9-C , 10-C ) :   1.4649 B(  9-C , 11-C ) :   0.9226
B( 10-C , 74-H ) :   1.0156 B( 11-C , 12-O ) :   2.2798 B( 11-C , 13-C ) :   0.9247
B( 13-C , 14-C ) :   1.0057 B( 13-C , 20-C ) :   1.7585 B( 14-C , 15-C ) :   1.6770
B( 15-C , 16-C ) :   1.1585 B( 15-C , 18-C ) :   1.1305 B( 16-C , 17-N ) :   2.9969
B( 18-C , 19-N ) :   2.9884 B( 20-C , 21-C ) :   1.0158 B( 20-C , 75-H ) :   0.9413
B( 21-C , 22-C ) :   1.3063 B( 21-C , 26-C ) :   1.2968 B( 22-C , 23-N ) :   1.5849
B( 22-C , 76-H ) :   0.9902 B( 23-N , 24-C ) :   1.5577 B( 24-C , 25-N ) :   1.5641
B( 24-C , 27-C ) :   1.0415 B( 25-N , 26-C ) :   1.5953 B( 26-C , 77-H ) :   0.9868
B( 27-C , 28-C ) :   1.4696 B( 27-C , 31-S ) :   1.1095 B( 28-C , 29-C ) :   1.2739
B( 28-C , 78-H ) :   1.0058 B( 29-C , 30-C ) :   1.4277 B( 29-C , 34-C ) :   0.9964
B( 30-C , 31-S ) :   1.1420 B( 30-C , 32-C ) :   1.1837 B( 32-C , 33-C ) :   1.4507
B( 32-C , 42-S ) :   1.1343 B( 33-C , 34-C ) :   0.9969 B( 33-C , 40-C ) :   1.2875
B( 34-C , 35-C ) :   1.7156 B( 35-C , 36-C ) :   1.1332 B( 35-C , 38-C ) :   1.1330
B( 36-C , 37-N ) :   2.9861 B( 38-C , 39-N ) :   3.0026 B( 40-C , 41-C ) :   1.4922
B( 40-C , 79-H ) :   0.9882 B( 41-C , 42-S ) :   1.1092 B( 41-C , 43-C ) :   1.0741
B( 43-C , 44-C ) :   1.3047 B( 43-C , 48-C ) :   1.3133 B( 44-C , 45-N ) :   1.5837
B( 44-C , 80-H ) :   0.9807 B( 45-N , 46-C ) :   1.5034 B( 46-C , 47-N ) :   1.4736
B( 46-C , 49-C ) :   0.9929 B( 47-N , 48-C ) :   1.5673 B( 48-C , 81-H ) :   0.9863
B( 49-C , 50-C ) :   1.7439 B( 49-C , 82-H ) :   0.9488 B( 50-C , 51-C ) :   0.9181
B( 50-C , 64-C ) :   1.0012 B( 51-C , 52-O ) :   2.2898 B( 51-C , 53-C ) :   0.9219
B( 53-C , 54-C ) :   1.4656 B( 53-C , 63-C ) :   1.2138 B( 54-C , 55-C ) :   1.2024
B( 54-C , 83-H ) :   1.0145 B( 55-C , 56-C ) :   1.2504 B( 55-C , 60-C ) :   1.2318
B( 56-C , 57-C ) :   1.2033 B( 56-C , 62-C ) :   1.2108 B( 57-C , 58-C ) :   1.4435
B( 57-C , 84-H ) :   1.0061 B( 58-C , 59-C ) :   1.2517 B( 58-C , 61-F ) :   1.0899
B( 59-C , 60-C ) :   1.4661 B( 59-C , 85-H ) :   0.9927 B( 60-C , 86-H ) :   0.9969
B( 62-C , 63-C ) :   1.4581 B( 62-C , 87-H ) :   0.9933 B( 63-C , 64-C ) :   1.0047
B( 64-C , 65-C ) :   1.6943 B( 65-C , 66-C ) :   1.1528 B( 65-C , 68-C ) :   1.1338
B( 66-C , 67-N ) :   2.9853 B( 68-C , 69-N ) :   2.9899

-----------------------------------------------------------------------------
         ABSORPTION SPECTRUM VIA TRANSITION ELECTRIC DIPOLE MOMENTS
-----------------------------------------------------------------------------
State   Energy  Wavelength   fosc         T2         TX        TY        TZ
        (cm-1)    (nm)                  (au**2)     (au)      (au)      (au)
-----------------------------------------------------------------------------
   0   15186.3    658.5   0.224612532   4.86918  -1.36108   1.62945  -0.60129
   1   20926.9    477.9   1.117740416  17.58374  -2.12999   3.44859  -1.07430
   2   22939.7    435.9   0.149840797   2.15039   0.66660  -1.22660   0.44888
   3   26479.8    377.6   0.062515764   0.77723   0.73823  -0.48174  -0.01304
   4   26839.6    372.6   0.027698277   0.33974   0.44176  -0.11870   0.36125
   5   27426.8    364.6   0.007210313   0.08655  -0.22660   0.11840  -0.14554
   6   27760.9    360.2   0.023542715   0.27919   0.35603   0.36775  -0.13114
   7   28297.4    353.4   0.014943726   0.17386   0.39057   0.10209   0.10433
   8   28903.0    346.0   0.057478142   0.65469   0.67257  -0.42652   0.14292
   9   29242.7    342.0   0.029351725   0.33044   0.27784  -0.26479   0.42794
  10   29708.3    336.6   0.448190509   4.96661  -1.77203   1.27334  -0.45290
  11   29986.8    333.5   0.066499317   0.73007  -0.72505   0.44192   0.09528
  12   30127.6    331.9   0.551656719   6.02809   1.99888  -1.17695   0.80458
  13   31479.0    317.7   0.369621871   3.86555   0.26631   0.24842  -1.93208
  14   31692.3    315.5   0.490010459   5.09010   1.22406  -1.84607  -0.42873
  15   32157.2    311.0   0.096664988   0.98962  -0.88102   0.31503   0.33791
  16   32449.9    308.2   0.110358406   1.11961  -0.03842   0.19366  -1.03954
  17   33122.0    301.9   0.384195799   3.81867  -1.05290   1.49966  -0.67903
  18   33531.2    298.2   0.095841956   0.94098  -0.54434   0.54072  -0.59354
  19   33635.4    297.3   0.384376687   3.76215  -1.69865   0.74209  -0.57100
  20   33798.0    295.9   0.179992931   1.75323  -0.35434   0.71347  -1.05766
  21   34480.9    290.0   0.225898581   2.15680   0.83359  -1.19812  -0.16260
  22   34564.0    289.3   0.051554949   0.49105   0.32685   0.02989   0.61913
  23   34788.7    287.4   0.004571365   0.04326  -0.13275  -0.15128  -0.05246
  24   34866.3    286.8   0.435572129   4.11272  -1.02073   1.62984  -0.64378
  25   35202.8    284.1   0.045863636   0.42891  -0.35936   0.11716  -0.53483
  26   35318.2    283.1   0.241297667   2.24921  -0.69841   0.49766   1.23035
  27   35438.2    282.2   0.166928354   1.55072   0.41259  -0.49941   1.06353
  28   36275.2    275.7   0.140467973   1.27480  -0.82187   0.71320   0.30113
  29   36366.1    275.0   0.057717928   0.52250   0.36037  -0.56473   0.27151
  30   37010.0    270.2   0.080433305   0.71547   0.28501  -0.59742  -0.52662
  31   37183.0    268.9   0.029188682   0.25843  -0.30653  -0.12808  -0.38479
  32   37261.3    268.4   0.041289021   0.36480  -0.07340   0.07964   0.59420
  33   37608.6    265.9   0.019006532   0.16638  -0.18003   0.21522  -0.29605
  34   37945.6    263.5   0.046345173   0.40209  -0.00718   0.07428   0.62969
  35   38132.5    262.2   0.056155663   0.48481  -0.53529   0.39164   0.21188
  36   38241.1    261.5   0.024537904   0.21124  -0.42576   0.17310   0.00207
  37   38602.4    259.1   0.112377369   0.95838   0.95310   0.01944   0.22275
  38   38819.1    257.6   0.043330390   0.36747   0.50340  -0.04380   0.33487
  39   39169.1    255.3   0.028985958   0.24362  -0.35921  -0.09540   0.32479
  40   39812.6    251.2   0.052106409   0.43087   0.65099  -0.05565   0.06314
  41   39907.9    250.6   0.051350451   0.42361  -0.46406  -0.03050  -0.45533
  42   40082.8    249.5   0.116891687   0.96007  -0.23738  -0.74576   0.58954

FINAL SINGLE POINT ENERGY     -3758.550359072106

DIPOLE MOMENT
-------------
                                X             Y             Z
Electronic contribution:      2.66866      -1.18898      -1.35184
Nuclear contribution   :     -3.91083       2.26119       1.80576
                        -----------------------------------------
Total Dipole Moment    :     -1.24217       1.07221       0.45392
                        -----------------------------------------
Magnitude (a.u.)       :      1.70254
Magnitude (Debye)      :      4.32753

Rotational constants in cm-1:     0.003465     0.000203     0.000198
Rotational constants in MHz :   103.886665     6.094954     5.931651

                             ****ORCA TERMINATED NORMALLY****
TOTAL RUN TIME: 0 days 0 hours 11 minutes 13 seconds 389 msec
