                         Program Version 4.2.0 -  RELEASE  -
|  1> # ORCA input file
|  2> # SCF done       -207.773647448080          0.000485039596
|  3> ! CAM-B3LYP def2-SVP def2/J RIJCOSX Grid4 TightSCF
|  4> %maxcore 5000
|  5> %tddft
|  6>     Mode sTDDFT
|  7>     Ethresh 5.0
|  8>     maxcore 5000
|  9> end
| 10>
| 11> %pal
| 12>   nprocs 6
| 13>   end
| 14> * xyz 0 1
| 15>    C      -13.21664        -4.84214        -5.01842
| 16>    C      -13.92921        -5.98362        -5.35515
| 17>    C      -13.88301        -7.11927        -4.55870
| 18>    C      -13.12630        -7.14515        -3.39659
| 19>    C      -12.40895        -6.01235        -3.05157
| 20>    C      -12.44896        -4.85583        -3.86455
| 21>    C      -11.59769        -3.83225        -3.27249
| 22>    C      -11.49365        -2.52939        -3.68145
| 23>    C      -12.20853        -1.98163        -4.76798
| 24>    N      -12.76095        -1.47508        -5.63695
| 25>    C      -10.70419        -1.54837        -3.04671
| 26>    N      -10.08484        -0.71090        -2.56213
| 27>    C      -10.89565        -4.46635        -2.16206
| 28>    C      -11.57175        -5.73051        -1.89726
| 29>    C      -11.63707        -6.35989        -0.68319
| 30>    C      -11.05369        -5.83376         0.48841
| 31>    N      -10.63657        -5.39664         1.46460
| 32>    C      -12.37327        -7.53890        -0.44884
| 33>    N      -12.94335        -8.50592        -0.21103
| 34>    C       -9.75827        -3.98103        -1.58376
| 35>    C       -8.79321        -4.68122        -0.82304
| 36>    S       -8.50123        -6.39469        -0.98944
| 37>    C       -7.17200        -6.34858         0.13111
| 38>    C       -6.96823        -5.05214         0.59176
| 39>    C       -7.86285        -4.12080         0.04109
| 40>    C       -7.75882        -2.67367         0.40258
| 41>    C       -6.42436        -2.12716        -0.08080
| 42>    S       -5.05428        -3.21209         0.47276
| 43>    O       -4.45991        -3.81958        -0.68469
| 44>    O       -4.19616        -2.48084         1.36244
| 45>    C       -5.86456        -4.55694         1.43715
| 46>    C       -6.49538        -7.56629         0.40127
| 47>    C       -5.75007        -7.84735         1.49916
| 48>    C       -5.02350        -9.05326         1.70727
| 49>    C       -4.30384        -9.26092         2.86549
| 50>    C       -3.51822       -10.37736         3.12880
| 51>    C       -3.38512       -11.45932         2.15146
| 52>    C       -4.01763       -11.48077         0.95695
| 53>    S       -5.05056       -10.23278         0.40318
| 54>    C       -2.48509       -12.38872         2.73888
| 55>    C       -2.06782       -11.92693         3.99128
| 56>    C       -1.18986       -12.84403         4.61325
| 57>    C       -0.96432       -13.93478         3.83492
| 58>    S       -1.80307       -13.90726         2.32322
| 59>    C       -2.70974       -10.66366         4.25393
| 60>    C       -2.60147        -9.84362         5.39490
| 61>    C       -1.67798        -9.96526         6.38903
| 62>    C       -1.64312        -9.13659         7.53127
| 63>    S       -2.90616        -7.98513         7.83898
| 64>    C       -2.13065        -7.44711         9.29922
| 65>    C       -0.92955        -8.13597         9.51147
| 66>    C       -0.66899        -9.10220         8.53676
| 67>    C        0.53542        -9.99743         8.49860
| 68>    C        1.15429       -10.19736         9.86539
| 69>    S        1.59380        -8.53985        10.45455
| 70>    O        2.23352        -8.61894        11.73635
| 71>    O        2.27508        -7.84125         9.40234
| 72>    C       -0.06271        -7.82639        10.68212
| 73>    C       -2.73483        -6.49961        10.14287
| 74>    C       -3.98562        -5.98956         9.93817
| 75>    C       -4.60489        -5.10250        10.83162
| 76>    C       -5.93033        -4.73843        10.80416
| 77>    C       -6.49216        -3.55670        11.43821
| 78>    C       -5.92344        -2.79372        12.42463
| 79>    C       -4.68330        -3.05680        13.04233
| 80>    N       -3.68800        -3.21472        13.59331
| 81>    C       -6.52865        -1.65295        12.99213
| 82>    N       -6.96222        -0.71791        13.49773
| 83>    C       -7.79330        -3.32682        10.82102
| 84>    C       -8.07714        -4.39638         9.94146
| 85>    C       -9.25292        -4.41586         9.21036
| 86>    C      -10.14381        -3.36316         9.36018
| 87>    C       -9.87082        -2.31654        10.22855
| 88>    C       -8.69698        -2.28689        10.96758
| 89>    C       -6.98911        -5.35972        10.02758
| 90>    C       -7.06025        -6.67817         9.65257
| 91>    C       -8.11511        -7.22510         8.89414
| 92>    N       -8.92197        -7.72320         8.24644
| 93>    C       -6.15899        -7.67977        10.07152
| 94>    N       -5.50226        -8.55005        10.43208
| 95>    H      -13.26188        -3.97089        -5.65100
| 96>    H      -14.52664        -5.98600        -6.25389
| 97>    H      -14.44231        -7.99633        -4.84607
| 98>    H      -13.09113        -8.03369        -2.78707
| 99>    H       -9.49892        -2.95179        -1.79158
|100>    H       -7.82557        -2.57250         1.48918
|101>    H       -8.57604        -2.09525        -0.03065
|102>    H       -6.21374        -1.14087         0.32062
|103>    H       -6.36367        -2.11586        -1.16545
|104>    H       -6.19343        -4.11177         2.37303
|105>    H       -5.08104        -5.28620         1.60988
|106>    H       -6.63525        -8.34102        -0.34258
|107>    H       -5.69699        -7.13606         2.31027
|108>    H       -4.35273        -8.47892         3.61134
|109>    H       -3.90685       -12.29310         0.25610
|110>    H       -0.74953       -12.73066         5.58638
|111>    H       -0.34293       -14.77992         4.05815
|112>    H       -3.31450        -9.03236         5.47440
|113>    H       -0.90268       -10.70924         6.30195
|114>    H        1.29015        -9.53329         7.85479
|115>    H        0.26578       -10.96387         8.06633
|116>    H        2.05975       -10.79596         9.82215
|117>    H        0.46470       -10.61618        10.59282
|118>    H        0.07521        -6.75393        10.80664
|119>    H       -0.44626        -8.24931        11.60990
|120>    H       -2.20101        -6.22503        11.04242
|121>    H       -4.51542        -6.28614         9.04259
|122>    H       -3.96232        -4.62876        11.56063
|123>    H       -9.47478        -5.22164         8.52949
|124>    H      -11.06124        -3.36180         8.79168
|125>    H      -10.57969        -1.50931        10.33204
|126>    H       -8.50139        -1.46451        11.63571
|127> *
|128>
|129>                          ****END OF INPUT****

CARTESIAN COORDINATES (ANGSTROEM)
---------------------------------
  C    -13.216640   -4.842140   -5.018420
  C    -13.929210   -5.983620   -5.355150
  C    -13.883010   -7.119270   -4.558700
  C    -13.126300   -7.145150   -3.396590
  C    -12.408950   -6.012350   -3.051570
  C    -12.448960   -4.855830   -3.864550
  C    -11.597690   -3.832250   -3.272490
  C    -11.493650   -2.529390   -3.681450
  C    -12.208530   -1.981630   -4.767980
  N    -12.760950   -1.475080   -5.636950
  C    -10.704190   -1.548370   -3.046710
  N    -10.084840   -0.710900   -2.562130
  C    -10.895650   -4.466350   -2.162060
  C    -11.571750   -5.730510   -1.897260
  C    -11.637070   -6.359890   -0.683190
  C    -11.053690   -5.833760    0.488410
  N    -10.636570   -5.396640    1.464600
  C    -12.373270   -7.538900   -0.448840
  N    -12.943350   -8.505920   -0.211030
  C     -9.758270   -3.981030   -1.583760
  C     -8.793210   -4.681220   -0.823040
  S     -8.501230   -6.394690   -0.989440
  C     -7.172000   -6.348580    0.131110
  C     -6.968230   -5.052140    0.591760
  C     -7.862850   -4.120800    0.041090
  C     -7.758820   -2.673670    0.402580
  C     -6.424360   -2.127160   -0.080800
  S     -5.054280   -3.212090    0.472760
  O     -4.459910   -3.819580   -0.684690
  O     -4.196160   -2.480840    1.362440
  C     -5.864560   -4.556940    1.437150
  C     -6.495380   -7.566290    0.401270
  C     -5.750070   -7.847350    1.499160
  C     -5.023500   -9.053260    1.707270
  C     -4.303840   -9.260920    2.865490
  C     -3.518220  -10.377360    3.128800
  C     -3.385120  -11.459320    2.151460
  C     -4.017630  -11.480770    0.956950
  S     -5.050560  -10.232780    0.403180
  C     -2.485090  -12.388720    2.738880
  C     -2.067820  -11.926930    3.991280
  C     -1.189860  -12.844030    4.613250
  C     -0.964320  -13.934780    3.834920
  S     -1.803070  -13.907260    2.323220
  C     -2.709740  -10.663660    4.253930
  C     -2.601470   -9.843620    5.394900
  C     -1.677980   -9.965260    6.389030
  C     -1.643120   -9.136590    7.531270
  S     -2.906160   -7.985130    7.838980
  C     -2.130650   -7.447110    9.299220
  C     -0.929550   -8.135970    9.511470
  C     -0.668990   -9.102200    8.536760
  C      0.535420   -9.997430    8.498600
  C      1.154290  -10.197360    9.865390
  S      1.593800   -8.539850   10.454550
  O      2.233520   -8.618940   11.736350
  O      2.275080   -7.841250    9.402340
  C     -0.062710   -7.826390   10.682120
  C     -2.734830   -6.499610   10.142870
  C     -3.985620   -5.989560    9.938170
  C     -4.604890   -5.102500   10.831620
  C     -5.930330   -4.738430   10.804160
  C     -6.492160   -3.556700   11.438210
  C     -5.923440   -2.793720   12.424630
  C     -4.683300   -3.056800   13.042330
  N     -3.688000   -3.214720   13.593310
  C     -6.528650   -1.652950   12.992130
  N     -6.962220   -0.717910   13.497730
  C     -7.793300   -3.326820   10.821020
  C     -8.077140   -4.396380    9.941460
  C     -9.252920   -4.415860    9.210360
  C    -10.143810   -3.363160    9.360180
  C     -9.870820   -2.316540   10.228550
  C     -8.696980   -2.286890   10.967580
  C     -6.989110   -5.359720   10.027580
  C     -7.060250   -6.678170    9.652570
  C     -8.115110   -7.225100    8.894140
  N     -8.921970   -7.723200    8.246440
  C     -6.158990   -7.679770   10.071520
  N     -5.502260   -8.550050   10.432080
  H    -13.261880   -3.970890   -5.651000
  H    -14.526640   -5.986000   -6.253890
  H    -14.442310   -7.996330   -4.846070
  H    -13.091130   -8.033690   -2.787070
  H     -9.498920   -2.951790   -1.791580
  H     -7.825570   -2.572500    1.489180
  H     -8.576040   -2.095250   -0.030650
  H     -6.213740   -1.140870    0.320620
  H     -6.363670   -2.115860   -1.165450
  H     -6.193430   -4.111770    2.373030
  H     -5.081040   -5.286200    1.609880
  H     -6.635250   -8.341020   -0.342580
  H     -5.696990   -7.136060    2.310270
  H     -4.352730   -8.478920    3.611340
  H     -3.906850  -12.293100    0.256100
  H     -0.749530  -12.730660    5.586380
  H     -0.342930  -14.779920    4.058150
  H     -3.314500   -9.032360    5.474400
  H     -0.902680  -10.709240    6.301950
  H      1.290150   -9.533290    7.854790
  H      0.265780  -10.963870    8.066330
  H      2.059750  -10.795960    9.822150
  H      0.464700  -10.616180   10.592820
  H      0.075210   -6.753930   10.806640
  H     -0.446260   -8.249310   11.609900
  H     -2.201010   -6.225030   11.042420
  H     -4.515420   -6.286140    9.042590
  H     -3.962320   -4.628760   11.560630
  H     -9.474780   -5.221640    8.529490
  H    -11.061240   -3.361800    8.791680
  H    -10.579690   -1.509310   10.332040
  H     -8.501390   -1.464510   11.635710

 Total Charge           Charge          ....    0
 Multiplicity           Mult            ....    1
 Number of Electrons    NEL             ....  588
 Basis Dimension        Dim             .... 1304

ORBITAL ENERGIES
----------------

  NO   OCC          E(Eh)            E(eV)
   0   2.0000     -89.141081     -2425.6521
   1   2.0000     -89.140641     -2425.6402
   2   2.0000     -88.992176     -2421.6002
   3   2.0000     -88.985436     -2421.4168
   4   2.0000     -88.973078     -2421.0805
   5   2.0000     -88.972290     -2421.0591
   6   2.0000     -19.196959      -522.3758
   7   2.0000     -19.194173      -522.3000
   8   2.0000     -19.193774      -522.2891
   9   2.0000     -19.192593      -522.2570
  10   2.0000     -14.435717      -392.8158
  11   2.0000     -14.430610      -392.6769
  12   2.0000     -14.429643      -392.6505
  13   2.0000     -14.428629      -392.6229
  14   2.0000     -14.420230      -392.3944
  15   2.0000     -14.420195      -392.3935
  16   2.0000     -14.417957      -392.3326
  17   2.0000     -14.416756      -392.2999
  18   2.0000     -10.361869      -281.9608
  19   2.0000     -10.360518      -281.9240
  20   2.0000     -10.359396      -281.8935
  21   2.0000     -10.356877      -281.8250
  22   2.0000     -10.349256      -281.6176
  23   2.0000     -10.346664      -281.5470
  24   2.0000     -10.345774      -281.5228
  25   2.0000     -10.344843      -281.4975
  26   2.0000     -10.344784      -281.4959
  27   2.0000     -10.343354      -281.4570
  28   2.0000     -10.341008      -281.3931
  29   2.0000     -10.340908      -281.3904
  30   2.0000     -10.338140      -281.3151
  31   2.0000     -10.333917      -281.2002
  32   2.0000     -10.332242      -281.1546
  33   2.0000     -10.331540      -281.1355
  34   2.0000     -10.331071      -281.1227
  35   2.0000     -10.329683      -281.0850
  36   2.0000     -10.328119      -281.0424
  37   2.0000     -10.323698      -280.9221
  38   2.0000     -10.322800      -280.8977
  39   2.0000     -10.322655      -280.8937
  40   2.0000     -10.322651      -280.8936
  41   2.0000     -10.322322      -280.8847
  42   2.0000     -10.321826      -280.8712
  43   2.0000     -10.321424      -280.8602
  44   2.0000     -10.320773      -280.8425
  45   2.0000     -10.320428      -280.8331
  46   2.0000     -10.320061      -280.8231
  47   2.0000     -10.319618      -280.8111
  48   2.0000     -10.319579      -280.8100
  49   2.0000     -10.319497      -280.8078
  50   2.0000     -10.318308      -280.7754
  51   2.0000     -10.317441      -280.7519
  52   2.0000     -10.317102      -280.7426
  53   2.0000     -10.316797      -280.7343
  54   2.0000     -10.315025      -280.6861
  55   2.0000     -10.314795      -280.6798
  56   2.0000     -10.314683      -280.6768
  57   2.0000     -10.314584      -280.6741
  58   2.0000     -10.311805      -280.5985
  59   2.0000     -10.311273      -280.5840
  60   2.0000     -10.310394      -280.5601
  61   2.0000     -10.310206      -280.5550
  62   2.0000     -10.310062      -280.5510
  63   2.0000     -10.310059      -280.5510
  64   2.0000     -10.308941      -280.5205
  65   2.0000     -10.307779      -280.4889
  66   2.0000     -10.305537      -280.4279
  67   2.0000     -10.304780      -280.4073
  68   2.0000     -10.304033      -280.3870
  69   2.0000     -10.303733      -280.3788
  70   2.0000     -10.302940      -280.3572
  71   2.0000     -10.298939      -280.2484
  72   2.0000     -10.298506      -280.2366
  73   2.0000     -10.297866      -280.2192
  74   2.0000     -10.297815      -280.2178
  75   2.0000     -10.297090      -280.1981
  76   2.0000     -10.297063      -280.1973
  77   2.0000     -10.296949      -280.1942
  78   2.0000     -10.292006      -280.0597
  79   2.0000     -10.290878      -280.0290
  80   2.0000      -8.207436      -223.3357
  81   2.0000      -8.207384      -223.3343
  82   2.0000      -8.087501      -220.0721
  83   2.0000      -8.080601      -219.8843
  84   2.0000      -8.068448      -219.5536
  85   2.0000      -8.067826      -219.5367
  86   2.0000      -6.176274      -168.0649
  87   2.0000      -6.176090      -168.0599
  88   2.0000      -6.176022      -168.0581
  89   2.0000      -6.175999      -168.0575
  90   2.0000      -6.175553      -168.0453
  91   2.0000      -6.175452      -168.0426
  92   2.0000      -6.056997      -164.8193
  93   2.0000      -6.052487      -164.6965
  94   2.0000      -6.049966      -164.6280
  95   2.0000      -6.049485      -164.6149
  96   2.0000      -6.045805      -164.5147
  97   2.0000      -6.042555      -164.4263
  98   2.0000      -6.037551      -164.2901
  99   2.0000      -6.037213      -164.2809
 100   2.0000      -6.033788      -164.1877
 101   2.0000      -6.032979      -164.1657
 102   2.0000      -6.030553      -164.0997
 103   2.0000      -6.029906      -164.0821
 104   2.0000      -1.203192       -32.7405
 105   2.0000      -1.201790       -32.7024
 106   2.0000      -1.082080       -29.4449
 107   2.0000      -1.080706       -29.4075
 108   2.0000      -1.047990       -28.5173
 109   2.0000      -1.033480       -28.1224
 110   2.0000      -1.029770       -28.0215
 111   2.0000      -1.025340       -27.9009
 112   2.0000      -1.023499       -27.8508
 113   2.0000      -1.017630       -27.6911
 114   2.0000      -1.016334       -27.6559
 115   2.0000      -1.014682       -27.6109
 116   2.0000      -1.009679       -27.4748
 117   2.0000      -1.007770       -27.4228
 118   2.0000      -1.005560       -27.3627
 119   2.0000      -0.997534       -27.1443
 120   2.0000      -0.996695       -27.1214
 121   2.0000      -0.991857       -26.9898
 122   2.0000      -0.969879       -26.3917
 123   2.0000      -0.959236       -26.1021
 124   2.0000      -0.952905       -25.9299
 125   2.0000      -0.950925       -25.8760
 126   2.0000      -0.945280       -25.7224
 127   2.0000      -0.940960       -25.6048
 128   2.0000      -0.937943       -25.5227
 129   2.0000      -0.937437       -25.5089
 130   2.0000      -0.930375       -25.3168
 131   2.0000      -0.918540       -24.9947
 132   2.0000      -0.909317       -24.7438
 133   2.0000      -0.904600       -24.6154
 134   2.0000      -0.892163       -24.2770
 135   2.0000      -0.887132       -24.1401
 136   2.0000      -0.885952       -24.1080
 137   2.0000      -0.884151       -24.0590
 138   2.0000      -0.875753       -23.8305
 139   2.0000      -0.870678       -23.6923
 140   2.0000      -0.864151       -23.5147
 141   2.0000      -0.855247       -23.2725
 142   2.0000      -0.850883       -23.1537
 143   2.0000      -0.840624       -22.8745
 144   2.0000      -0.830640       -22.6029
 145   2.0000      -0.822569       -22.3832
 146   2.0000      -0.818957       -22.2850
 147   2.0000      -0.805353       -21.9148
 148   2.0000      -0.801107       -21.7992
 149   2.0000      -0.789333       -21.4788
 150   2.0000      -0.788397       -21.4534
 151   2.0000      -0.776248       -21.1228
 152   2.0000      -0.767024       -20.8718
 153   2.0000      -0.754166       -20.5219
 154   2.0000      -0.750330       -20.4175
 155   2.0000      -0.743793       -20.2396
 156   2.0000      -0.726600       -19.7718
 157   2.0000      -0.725219       -19.7342
 158   2.0000      -0.723209       -19.6795
 159   2.0000      -0.715470       -19.4689
 160   2.0000      -0.714741       -19.4491
 161   2.0000      -0.711664       -19.3654
 162   2.0000      -0.702574       -19.1180
 163   2.0000      -0.691413       -18.8143
 164   2.0000      -0.684455       -18.6250
 165   2.0000      -0.680246       -18.5104
 166   2.0000      -0.677737       -18.4422
 167   2.0000      -0.676967       -18.4212
 168   2.0000      -0.671297       -18.2669
 169   2.0000      -0.669404       -18.2154
 170   2.0000      -0.664311       -18.0768
 171   2.0000      -0.660696       -17.9785
 172   2.0000      -0.657902       -17.9024
 173   2.0000      -0.652500       -17.7554
 174   2.0000      -0.641366       -17.4525
 175   2.0000      -0.636534       -17.3210
 176   2.0000      -0.634068       -17.2539
 177   2.0000      -0.631295       -17.1784
 178   2.0000      -0.626002       -17.0344
 179   2.0000      -0.619209       -16.8495
 180   2.0000      -0.610136       -16.6026
 181   2.0000      -0.602779       -16.4024
 182   2.0000      -0.601030       -16.3549
 183   2.0000      -0.596490       -16.2313
 184   2.0000      -0.595553       -16.2058
 185   2.0000      -0.591644       -16.0995
 186   2.0000      -0.584919       -15.9165
 187   2.0000      -0.583740       -15.8844
 188   2.0000      -0.580238       -15.7891
 189   2.0000      -0.578116       -15.7313
 190   2.0000      -0.576267       -15.6810
 191   2.0000      -0.575570       -15.6620
 192   2.0000      -0.565960       -15.4005
 193   2.0000      -0.564318       -15.3559
 194   2.0000      -0.562921       -15.3179
 195   2.0000      -0.558611       -15.2006
 196   2.0000      -0.554453       -15.0874
 197   2.0000      -0.550690       -14.9850
 198   2.0000      -0.547756       -14.9052
 199   2.0000      -0.546597       -14.8736
 200   2.0000      -0.544886       -14.8271
 201   2.0000      -0.541984       -14.7481
 202   2.0000      -0.540335       -14.7033
 203   2.0000      -0.537803       -14.6344
 204   2.0000      -0.536391       -14.5959
 205   2.0000      -0.535142       -14.5619
 206   2.0000      -0.532976       -14.5030
 207   2.0000      -0.530582       -14.4379
 208   2.0000      -0.529715       -14.4143
 209   2.0000      -0.528496       -14.3811
 210   2.0000      -0.524023       -14.2594
 211   2.0000      -0.523323       -14.2403
 212   2.0000      -0.520428       -14.1616
 213   2.0000      -0.519958       -14.1488
 214   2.0000      -0.515680       -14.0324
 215   2.0000      -0.513278       -13.9670
 216   2.0000      -0.511651       -13.9227
 217   2.0000      -0.507792       -13.8177
 218   2.0000      -0.503079       -13.6895
 219   2.0000      -0.500622       -13.6226
 220   2.0000      -0.499690       -13.5972
 221   2.0000      -0.496131       -13.5004
 222   2.0000      -0.495082       -13.4719
 223   2.0000      -0.491426       -13.3724
 224   2.0000      -0.489011       -13.3067
 225   2.0000      -0.487404       -13.2629
 226   2.0000      -0.484585       -13.1862
 227   2.0000      -0.480326       -13.0703
 228   2.0000      -0.478520       -13.0212
 229   2.0000      -0.473848       -12.8941
 230   2.0000      -0.473499       -12.8846
 231   2.0000      -0.471479       -12.8296
 232   2.0000      -0.469234       -12.7685
 233   2.0000      -0.468545       -12.7497
 234   2.0000      -0.466544       -12.6953
 235   2.0000      -0.465554       -12.6684
 236   2.0000      -0.464848       -12.6492
 237   2.0000      -0.462993       -12.5987
 238   2.0000      -0.461037       -12.5455
 239   2.0000      -0.457793       -12.4572
 240   2.0000      -0.457004       -12.4357
 241   2.0000      -0.456434       -12.4202
 242   2.0000      -0.456133       -12.4120
 243   2.0000      -0.453560       -12.3420
 244   2.0000      -0.452976       -12.3261
 245   2.0000      -0.451873       -12.2961
 246   2.0000      -0.451111       -12.2754
 247   2.0000      -0.448979       -12.2173
 248   2.0000      -0.446725       -12.1560
 249   2.0000      -0.446262       -12.1434
 250   2.0000      -0.444975       -12.1084
 251   2.0000      -0.443337       -12.0638
 252   2.0000      -0.441724       -12.0199
 253   2.0000      -0.439957       -11.9718
 254   2.0000      -0.439441       -11.9578
 255   2.0000      -0.437155       -11.8956
 256   2.0000      -0.435446       -11.8491
 257   2.0000      -0.430936       -11.7264
 258   2.0000      -0.430310       -11.7093
 259   2.0000      -0.429647       -11.6913
 260   2.0000      -0.428429       -11.6582
 261   2.0000      -0.426893       -11.6163
 262   2.0000      -0.425888       -11.5890
 263   2.0000      -0.424881       -11.5616
 264   2.0000      -0.422355       -11.4929
 265   2.0000      -0.421236       -11.4624
 266   2.0000      -0.413892       -11.2626
 267   2.0000      -0.410045       -11.1579
 268   2.0000      -0.406910       -11.0726
 269   2.0000      -0.403645       -10.9837
 270   2.0000      -0.402986       -10.9658
 271   2.0000      -0.395127       -10.7519
 272   2.0000      -0.392608       -10.6834
 273   2.0000      -0.391863       -10.6631
 274   2.0000      -0.389780       -10.6065
 275   2.0000      -0.383666       -10.4401
 276   2.0000      -0.382322       -10.4035
 277   2.0000      -0.371735       -10.1154
 278   2.0000      -0.370003       -10.0683
 279   2.0000      -0.366660        -9.9773
 280   2.0000      -0.359127        -9.7723
 281   2.0000      -0.356968        -9.7136
 282   2.0000      -0.354353        -9.6424
 283   2.0000      -0.344205        -9.3663
 284   2.0000      -0.337227        -9.1764
 285   2.0000      -0.335855        -9.1391
 286   2.0000      -0.334190        -9.0938
 287   2.0000      -0.331643        -9.0245
 288   2.0000      -0.324855        -8.8398
 289   2.0000      -0.312045        -8.4912
 290   2.0000      -0.302488        -8.2311
 291   2.0000      -0.290028        -7.8921
 292   2.0000      -0.274129        -7.4594
 293   2.0000      -0.237288        -6.4569
 294   0.0000      -0.119104        -3.2410
 295   0.0000      -0.105810        -2.8792
 296   0.0000      -0.097223        -2.6456
 297   0.0000      -0.086350        -2.3497
 298   0.0000      -0.076103        -2.0709

MULLIKEN ATOMIC CHARGES
-----------------------
   0 C :   -0.033407
   1 C :    0.047907
   2 C :    0.050052
   3 C :   -0.032731
   4 C :    0.008383
   5 C :    0.015648
   6 C :    0.288448
   7 C :   -0.337721
   8 C :   -0.188559
   9 N :    0.165115
  10 C :   -0.175069
  11 N :    0.144574
  12 C :   -0.068243
  13 C :    0.206977
  14 C :   -0.318786
  15 C :   -0.188023
  16 N :    0.178884
  17 C :   -0.183049
  18 N :    0.168566
  19 C :    0.016726
  20 C :   -0.171868
  21 S :    0.161888
  22 C :   -0.096644
  23 C :   -0.051146
  24 C :   -0.035829
  25 C :    0.092655
  26 C :    0.031737
  27 S :    0.631830
  28 O :   -0.456268
  29 O :   -0.455281
  30 C :    0.104139
  31 C :    0.044202
  32 C :   -0.018800
  33 C :   -0.035240
  34 C :   -0.040262
  35 C :    0.062580
  36 C :    0.062541
  37 C :   -0.113147
  38 S :    0.126790
  39 C :   -0.110237
  40 C :    0.053542
  41 C :   -0.000014
  42 C :   -0.064378
  43 S :    0.141771
  44 C :    0.099916
  45 C :   -0.026058
  46 C :   -0.028436
  47 C :   -0.053541
  48 S :    0.113121
  49 C :   -0.071870
  50 C :   -0.044534
  51 C :   -0.083735
  52 C :    0.112419
  53 C :   -0.054719
  54 S :    0.673882
  55 O :   -0.447795
  56 O :   -0.449971
  57 C :    0.052855
  58 C :    0.012378
  59 C :   -0.026375
  60 C :    0.034379
  61 C :   -0.069244
  62 C :    0.304671
  63 C :   -0.347431
  64 C :   -0.184969
  65 N :    0.151966
  66 C :   -0.188298
  67 N :    0.159438
  68 C :    0.010644
  69 C :    0.007640
  70 C :   -0.037756
  71 C :    0.047711
  72 C :    0.046802
  73 C :   -0.036060
  74 C :    0.245292
  75 C :   -0.339985
  76 C :   -0.182322
  77 N :    0.153586
  78 C :   -0.215926
  79 N :    0.173319
  80 H :    0.009005
  81 H :    0.007376
  82 H :    0.007218
  83 H :    0.008452
  84 H :    0.019547
  85 H :    0.042568
  86 H :    0.040499
  87 H :    0.068659
  88 H :    0.064080
  89 H :    0.054243
  90 H :    0.062767
  91 H :    0.012961
  92 H :    0.009842
  93 H :   -0.016445
  94 H :    0.042419
  95 H :   -0.019194
  96 H :    0.030660
  97 H :   -0.013911
  98 H :   -0.025472
  99 H :    0.062683
 100 H :    0.029318
 101 H :    0.070077
 102 H :    0.058108
 103 H :    0.083013
 104 H :    0.077326
 105 H :    0.013728
 106 H :    0.027563
 107 H :    0.012199
 108 H :    0.006098
 109 H :    0.003734
 110 H :    0.004195
 111 H :    0.005440
Sum of atomic charges:   -0.0000000

LOEWDIN ATOMIC CHARGES
----------------------
   0 C :    0.006880
   1 C :    0.003312
   2 C :    0.007108
   3 C :    0.002020
   4 C :   -0.009228
   5 C :   -0.013996
   6 C :    0.081001
   7 C :   -0.134319
   8 C :   -0.020470
   9 N :   -0.041954
  10 C :   -0.016248
  11 N :   -0.052004
  12 C :   -0.061002
  13 C :    0.059411
  14 C :   -0.131943
  15 C :   -0.030057
  16 N :   -0.045496
  17 C :   -0.020602
  18 N :   -0.039629
  19 C :    0.040665
  20 C :   -0.187992
  21 S :    0.471789
  22 C :   -0.125589
  23 C :   -0.088614
  24 C :   -0.015792
  25 C :   -0.030935
  26 C :   -0.127699
  27 S :    1.156946
  28 O :   -0.514828
  29 O :   -0.516121
  30 C :   -0.131554
  31 C :   -0.056761
  32 C :   -0.018181
  33 C :   -0.165872
  34 C :   -0.007285
  35 C :   -0.015394
  36 C :   -0.050572
  37 C :   -0.132251
  38 S :    0.464713
  39 C :   -0.195355
  40 C :   -0.038257
  41 C :   -0.066071
  42 C :   -0.160817
  43 S :    0.434687
  44 C :   -0.042285
  45 C :    0.001024
  46 C :   -0.060066
  47 C :   -0.133475
  48 S :    0.457395
  49 C :   -0.179244
  50 C :   -0.050253
  51 C :   -0.068179
  52 C :   -0.042783
  53 C :   -0.136703
  54 S :    1.163175
  55 O :   -0.511105
  56 O :   -0.508667
  57 C :   -0.139197
  58 C :    0.023893
  59 C :   -0.046964
  60 C :    0.058943
  61 C :   -0.069028
  62 C :    0.077556
  63 C :   -0.136359
  64 C :   -0.020278
  65 N :   -0.049942
  66 C :   -0.019460
  67 N :   -0.048934
  68 C :   -0.013029
  69 C :   -0.011308
  70 C :   -0.000525
  71 C :    0.002622
  72 C :    0.000523
  73 C :    0.004225
  74 C :    0.070873
  75 C :   -0.139272
  76 C :   -0.020974
  77 N :   -0.050708
  78 C :   -0.025697
  79 N :   -0.049414
  80 H :    0.042419
  81 H :    0.038953
  82 H :    0.038817
  83 H :    0.041552
  84 H :    0.047259
  85 H :    0.046454
  86 H :    0.046216
  87 H :    0.043423
  88 H :    0.042670
  89 H :    0.040414
  90 H :    0.043451
  91 H :    0.025977
  92 H :    0.037316
  93 H :    0.038292
  94 H :    0.039457
  95 H :    0.027836
  96 H :    0.025990
  97 H :    0.020931
  98 H :    0.029934
  99 H :    0.047096
 100 H :    0.035809
 101 H :    0.044505
 102 H :    0.034702
 103 H :    0.052159
 104 H :    0.047581
 105 H :    0.041859
 106 H :    0.024458
 107 H :    0.045602
 108 H :    0.040699
 109 H :    0.037356
 110 H :    0.037379
 111 H :    0.041405

  Mayer bond orders larger than 0.100000
B(  0-C ,  1-C ) :   1.3712 B(  0-C ,  5-C ) :   1.3823 B(  0-C , 80-H ) :   0.9839
B(  1-C ,  2-C ) :   1.3773 B(  1-C , 81-H ) :   0.9859 B(  2-C ,  3-C ) :   1.3644
B(  2-C , 82-H ) :   0.9864 B(  3-C ,  4-C ) :   1.3848 B(  3-C , 83-H ) :   0.9872
B(  4-C ,  5-C ) :   1.3087 B(  4-C , 13-C ) :   1.0154 B(  5-C ,  6-C ) :   1.0039
B(  6-C ,  7-C ) :   1.6422 B(  6-C , 12-C ) :   1.0516 B(  7-C ,  8-C ) :   1.1439
B(  7-C , 10-C ) :   1.1412 B(  8-C ,  9-N ) :   2.9808 B( 10-C , 11-N ) :   2.9674
B( 12-C , 13-C ) :   1.0125 B( 12-C , 19-C ) :   1.6203 B( 13-C , 14-C ) :   1.6614
B( 14-C , 15-C ) :   1.1515 B( 14-C , 17-C ) :   1.1433 B( 15-C , 16-N ) :   3.0188
B( 17-C , 18-N ) :   2.9960 B( 19-C , 20-C ) :   1.1635 B( 19-C , 84-H ) :   0.9256
B( 20-C , 21-S ) :   1.1046 B( 20-C , 24-C ) :   1.4589 B( 21-S , 22-C ) :   1.1469
B( 22-C , 23-C ) :   1.4854 B( 22-C , 31-C ) :   1.1428 B( 23-C , 24-C ) :   1.3274
B( 23-C , 30-C ) :   1.0369 B( 24-C , 25-C ) :   1.0767 B( 25-C , 26-C ) :   1.1046
B( 25-C , 85-H ) :   0.8989 B( 25-C , 86-H ) :   0.9070 B( 26-C , 27-S ) :   0.8206
B( 26-C , 87-H ) :   0.9271 B( 26-C , 88-H ) :   0.9264 B( 27-S , 28-O ) :   1.7071
B( 27-S , 29-O ) :   1.7326 B( 27-S , 30-C ) :   0.8379 B( 30-C , 89-H ) :   0.8991
B( 30-C , 90-H ) :   0.9038 B( 31-C , 32-C ) :   1.6367 B( 31-C , 91-H ) :   0.9334
B( 32-C , 33-C ) :   1.1709 B( 32-C , 92-H ) :   0.9838 B( 33-C , 34-C ) :   1.5001
B( 33-C , 38-S ) :   1.0484 B( 34-C , 35-C ) :   1.2379 B( 34-C , 93-H ) :   0.9755
B( 35-C , 36-C ) :   1.0550 B( 35-C , 44-C ) :   1.3488 B( 36-C , 37-C ) :   1.5982
B( 36-C , 39-C ) :   1.1805 B( 37-C , 38-S ) :   1.1508 B( 37-C , 94-H ) :   0.9411
B( 39-C , 40-C ) :   1.4444 B( 39-C , 43-S ) :   1.0870 B( 40-C , 41-C ) :   1.2140
B( 40-C , 44-C ) :   1.0892 B( 41-C , 42-C ) :   1.5863 B( 41-C , 95-H ) :   0.9978
B( 42-C , 43-S ) :   1.1574 B( 42-C , 96-H ) :   0.9651 B( 44-C , 45-C ) :   1.2004
B( 45-C , 46-C ) :   1.5740 B( 45-C , 97-H ) :   0.9559 B( 46-C , 47-C ) :   1.1931
B( 46-C , 98-H ) :   0.9721 B( 47-C , 48-S ) :   1.1414 B( 47-C , 51-C ) :   1.4398
B( 48-S , 49-C ) :   1.0942 B( 49-C , 50-C ) :   1.4291 B( 49-C , 58-C ) :   1.2226
B( 50-C , 51-C ) :   1.3676 B( 50-C , 57-C ) :   1.0033 B( 51-C , 52-C ) :   1.0564
B( 52-C , 53-C ) :   1.0304 B( 52-C , 99-H ) :   0.9050 B( 52-C ,100-H ) :   0.9064
B( 53-C , 54-S ) :   0.8699 B( 53-C ,101-H ) :   0.9299 B( 53-C ,102-H ) :   0.9407
B( 54-S , 55-O ) :   1.7488 B( 54-S , 56-O ) :   1.7047 B( 54-S , 57-C ) :   0.8423
B( 57-C ,103-H ) :   0.9003 B( 57-C ,104-H ) :   0.9138 B( 58-C , 59-C ) :   1.5338
B( 58-C ,105-H ) :   0.9770 B( 59-C , 60-C ) :   1.2176 B( 59-C ,106-H ) :   0.9638
B( 60-C , 61-C ) :   1.5032 B( 60-C ,107-H ) :   0.9502 B( 61-C , 62-C ) :   1.0654
B( 61-C , 74-C ) :   1.0473 B( 62-C , 63-C ) :   1.6265 B( 62-C , 68-C ) :   0.9955
B( 63-C , 64-C ) :   1.1412 B( 63-C , 66-C ) :   1.1484 B( 64-C , 65-N ) :   2.9688
B( 66-C , 67-N ) :   2.9750 B( 68-C , 69-C ) :   1.3131 B( 68-C , 73-C ) :   1.3858
B( 69-C , 70-C ) :   1.3858 B( 69-C , 74-C ) :   1.0114 B( 70-C , 71-C ) :   1.3615
B( 70-C ,108-H ) :   0.9858 B( 71-C , 72-C ) :   1.3814 B( 71-C ,109-H ) :   0.9861
B( 72-C , 73-C ) :   1.3665 B( 72-C ,110-H ) :   0.9857 B( 73-C ,111-H ) :   0.9841
B( 74-C , 75-C ) :   1.6137 B( 75-C , 76-C ) :   1.1409 B( 75-C , 78-C ) :   1.1558
B( 76-C , 77-N ) :   2.9865 B( 78-C , 79-N ) :   3.0115

-----------------------------------------------------------------------------
         ABSORPTION SPECTRUM VIA TRANSITION ELECTRIC DIPOLE MOMENTS
-----------------------------------------------------------------------------
State   Energy  Wavelength   fosc         T2         TX        TY        TZ
        (cm-1)    (nm)                  (au**2)     (au)      (au)      (au)
-----------------------------------------------------------------------------
   0   12061.6    829.1   0.816434298  22.28393   0.87168   0.67032   4.59073
   1   15916.4    628.3   0.815504022  16.86775   3.24534  -2.51523  -0.09565
   2   19328.4    517.4   0.120925374   2.05966  -0.44240  -0.87304  -1.04964
   3   19996.7    500.1   0.430792677   7.09227   2.25982  -1.40787  -0.05815
   4   20331.5    491.8   0.270930424   4.38697   1.23876  -1.54843   0.67439
   5   21202.6    471.6   0.127977438   1.98710  -1.05571   0.84711  -0.39367
   6   22411.7    446.2   0.020197299   0.29668   0.32414  -0.32713  -0.29086
   7   24237.4    412.6   0.135315628   1.83797   0.78605  -0.74429   0.81616
   8   25018.3    399.7   0.125722267   1.65436  -0.62046  -0.87567  -0.70894
   9   25576.5    391.0   0.112771047   1.45155  -0.14986   0.91059  -0.77455
  10   25749.6    388.4   0.035780392   0.45746   0.09438  -0.54620   0.38758
  11   27032.1    369.9   0.092679162   1.12870  -0.87475  -0.24588  -0.55049
  12   27230.2    367.2   0.182788939   2.20991  -0.10765  -1.13039  -0.95946
  13   27958.6    357.7   0.319004412   3.75627  -1.41818  -0.13946  -1.31362
  14   28610.1    349.5   0.007805137   0.08981  -0.00178  -0.28393   0.09589
  15   29354.1    340.7   0.093275974   1.04611  -0.21416  -0.45755  -0.88932
  16   29718.8    336.5   0.106953270   1.18478   0.81815  -0.52178   0.49310
  17   30028.2    333.0   0.159568477   1.74942  -0.40705   1.08544   0.63683
  18   30506.6    327.8   0.273770818   2.95440   0.03942   1.53289  -0.77658
  19   30866.5    324.0   0.105754308   1.12794  -0.20981  -0.85804  -0.58965
  20   31078.8    321.8   0.034698371   0.36755   0.28722  -0.14106   0.51494
  21   31672.4    315.7   0.117500048   1.22133   0.30448  -1.00164  -0.35403
  22   32410.8    308.5   0.000748563   0.00760   0.02731   0.06924   0.04542
  23   32604.4    306.7   0.021773948   0.21986   0.37692  -0.23410   0.15160
  24   32714.9    305.7   0.488258037   4.91337  -0.77505  -1.21981  -1.68069
  25   32962.4    303.4   0.393525492   3.93034  -0.31311  -1.81272   0.73914
  26   33361.6    299.7   0.125448033   1.23792  -0.51578   0.77052  -0.61496
  27   33880.5    295.2   0.019303993   0.18757  -0.13588  -0.01574  -0.41093
  28   34145.4    292.9   0.183853335   1.77262   0.64431   1.08900   0.41419
  29   34296.9    291.6   0.067705604   0.64990  -0.70532  -0.30572  -0.24282
  30   34632.8    288.7   0.023453672   0.22295   0.43635  -0.07171  -0.16555
  31   34685.1    288.3   0.004560054   0.04328   0.19572  -0.03047   0.06362
  32   34990.3    285.8   0.564667949   5.31277  -1.50443   1.40509  -1.03692
  33   35201.4    284.1   0.247002328   2.31003  -0.73520   0.58465  -1.19486
  34   35670.2    280.3   0.085458055   0.78872   0.68826   0.49762   0.25961
  35   36374.6    274.9   0.013746317   0.12441  -0.24966   0.23011  -0.09556
  36   36565.5    273.5   0.367489334   3.30864  -1.41192  -0.27133  -1.11423
  37   36724.3    272.3   0.101374292   0.90876  -0.15837   0.92433   0.17114
  38   37251.3    268.4   0.061114825   0.54011   0.43915  -0.55441  -0.19972
  39   37624.5    265.8   0.022654829   0.19823  -0.24661  -0.26545  -0.25874
  40   37785.1    264.7   0.002754168   0.02400  -0.06702  -0.12201   0.06796
  41   37923.7    263.7   0.035325244   0.30665   0.38781  -0.05150   0.39193
  42   38012.9    263.1   0.061698378   0.53434   0.49814  -0.53330   0.04231
  43   38171.6    262.0   0.006474072   0.05584  -0.17671   0.04155  -0.15128
  44   38280.0    261.2   0.025621287   0.22035   0.07209  -0.40478  -0.22650
  45   38434.9    260.2   0.118431437   1.01442  -0.43321   0.75820  -0.50187
  46   38624.9    258.9   0.169480986   1.44454  -0.94854   0.35829  -0.64532
  47   39061.0    256.0   0.010153912   0.08558   0.22383  -0.07438   0.17305
  48   39157.4    255.4   0.013265753   0.11153   0.02990  -0.32985  -0.04288
  49   39196.4    255.1   0.017580331   0.14766  -0.02469  -0.38102  -0.04330
  50   39300.4    254.5   0.084716652   0.70966   0.67605   0.21561   0.45401
  51   39619.8    252.4   0.023398497   0.19442  -0.42273   0.07403  -0.10122
  52   39919.7    250.5   0.070966553   0.58525  -0.01776  -0.76469   0.01372
  53   39982.7    250.1   0.016345424   0.13459  -0.26616   0.19322  -0.16251
  54   40215.1    248.7   0.058295588   0.47722   0.10323   0.66546   0.15405

FINAL SINGLE POINT ENERGY     -5504.851075680492

DIPOLE MOMENT
-------------
                                X             Y             Z
Electronic contribution:    -16.38952       1.10868     -11.13775
Nuclear contribution   :     15.10665      -4.79413       7.45975
                        -----------------------------------------
Total Dipole Moment    :     -1.28287      -3.68545      -3.67800
                        -----------------------------------------
Magnitude (a.u.)       :      5.36246
Magnitude (Debye)      :     13.63029

Rotational constants in cm-1:     0.000771     0.000330     0.000263
Rotational constants in MHz :    23.104317     9.890548     7.885623

                             ****ORCA TERMINATED NORMALLY****
TOTAL RUN TIME: 0 days 0 hours 13 minutes 29 seconds 957 msec
