                         Program Version 4.2.0 -  RELEASE  -
|  1> # ORCA input file
|  2> # SCF done       -213.460692206917          0.000852650285
|  3> ! CAM-B3LYP def2-SVP def2/J RIJCOSX Grid4 TightSCF
|  4> %maxcore 5000
|  5> %tddft
|  6>     Mode sTDDFT
|  7>     Ethresh 5.0
|  8>     maxcore 5000
|  9> end
| 10>
| 11> %pal
| 12>   nprocs 6
| 13>   end
| 14> * xyz 0 1
| 15>    C       -0.80510        -3.26823        -4.33591
| 16>    C        0.05966        -4.32757        -4.25542
| 17>    C        0.45892        -5.10176        -5.36414
| 18>    N        0.79614        -5.77317        -6.23118
| 19>    C        0.71929        -4.69071        -3.06275
| 20>    N        1.30078        -4.98068        -2.11651
| 21>    C       -1.26660        -2.64690        -5.57508
| 22>    C       -1.65795        -1.32357        -5.29830
| 23>    C       -2.09803        -0.47689        -6.29522
| 24>    C       -2.16088        -0.96494        -7.59500
| 25>    C       -1.78568        -2.28495        -7.87459
| 26>    C       -1.33154        -3.13244        -6.86946
| 27>   Cl       -1.88516        -2.87685        -9.48204
| 28>   Cl       -2.70436         0.05739        -8.86184
| 29>    C       -1.52973        -1.06176        -3.84787
| 30>    O       -1.72514        -0.02792        -3.25591
| 31>    C       -1.17032        -2.37994        -3.25343
| 32>    C       -1.33386        -2.56685        -1.91440
| 33>    C       -1.49592        -3.75459        -1.16943
| 34>    C       -1.46847        -3.83704         0.21697
| 35>    C       -1.75381        -5.11575         0.67797
| 36>    C       -2.03232        -6.02206        -0.36751
| 37>    S       -1.92918        -5.29971        -1.90292
| 38>    C       -2.33935        -7.28223         0.19641
| 39>    C       -2.25941        -7.17884         1.59688
| 40>    C       -1.88250        -5.81583         1.94472
| 41>    C       -1.69796        -5.30857         3.19646
| 42>    C       -1.86071        -6.09965         4.35396
| 43>    N       -1.99479        -6.74757         5.28997
| 44>    C       -1.34223        -3.96051         3.41756
| 45>    N       -1.06117        -2.86499         3.60292
| 46>    C       -2.56502        -8.37169         2.24721
| 47>    C       -2.87027        -9.38394         1.35236
| 48>    S       -2.77516        -8.85264        -0.31838
| 49>    C       -3.24923       -10.71532         1.65623
| 50>    C       -3.47939       -11.75066         0.76739
| 51>    C       -3.86547       -12.91999         1.41965
| 52>    C       -3.93597       -12.77005         2.81639
| 53>    S       -3.51176       -11.19746         3.32664
| 54>    C       -4.36182       -13.99779         3.38189
| 55>    C       -4.55115       -14.92782         2.34395
| 56>    C       -4.24252       -14.28266         1.07710
| 57>    C       -4.30362       -14.83507        -0.16771
| 58>    C       -4.69082       -16.17681        -0.37181
| 59>    N       -5.00613       -17.26744        -0.53035
| 60>    C       -3.99020       -14.09732        -1.32934
| 61>    N       -3.73711       -13.49323        -2.27007
| 62>    C       -4.99365       -16.16774         2.80067
| 63>    C       -5.15225       -16.18527         4.17528
| 64>    S       -4.73359       -14.64679         4.91630
| 65>    C       -5.61606       -17.25833         4.97656
| 66>    C       -5.86993       -17.24233         6.33786
| 67>    C       -6.34903       -18.46893         6.79158
| 68>    C       -6.45128       -19.42885         5.76837
| 69>    S       -5.96325       -18.81757         4.24806
| 70>    C       -6.95058       -20.63062         6.32189
| 71>    C       -7.17819       -20.42804         7.70312
| 72>    C       -6.79129       -19.06870         8.04284
| 73>    C       -6.81759       -18.47606         9.26979
| 74>    C       -7.22207       -19.15167        10.44247
| 75>    N       -7.52412       -19.68114        11.41271
| 76>    C       -6.41443       -17.13558         9.45337
| 77>    N       -6.09275       -16.04504         9.60052
| 78>    C       -7.70542       -21.54280         8.33876
| 79>    C       -7.87889       -22.61079         7.46599
| 80>    S       -7.35401       -22.20293         5.82417
| 81>    C       -8.32655       -23.93141         7.66342
| 82>    C       -8.98949       -24.49155         8.72179
| 83>    C       -9.29467       -25.90847         8.83418
| 84>    C       -8.74862       -26.92793         8.09984
| 85>    C       -9.07650       -28.29012         8.27443
| 86>    N       -9.30128       -29.41203         8.36034
| 87>    C       -7.76367       -26.78265         7.09899
| 88>    N       -6.95085       -26.75022         6.28846
| 89>    C      -10.23100       -26.07389         9.94178
| 90>    C      -10.44515       -24.82219        10.54275
| 91>    C       -9.66828       -23.78368         9.83457
| 92>    O       -9.65571       -22.60177        10.09824
| 93>    C      -11.28229       -24.66684        11.62869
| 94>    C      -11.92574       -25.79167        12.12937
| 95>    C      -11.72231       -27.04304        11.53447
| 96>    C      -10.87618       -27.19381        10.44125
| 97>   Cl      -12.52944       -28.42360        12.15777
| 98>   Cl      -12.97397       -25.64436        13.47975
| 99>    H       -2.38457         0.53801        -6.06924
|100>    H       -1.05308        -4.14440        -7.11559
|101>    H       -1.45263        -1.65182        -1.34057
|102>    H       -1.23010        -2.99310         0.83898
|103>    H       -2.56937        -8.51561         3.31279
|104>    H       -3.36654       -11.64078        -0.29629
|105>    H       -5.20304       -17.01996         2.17929
|106>    H       -5.71565       -16.37077         6.94836
|107>    H       -7.96352       -21.59622         9.38016
|108>    H       -8.11994       -24.58474         6.82348
|109>    H      -11.42839       -23.69575        12.07478
|110>    H      -10.74810       -28.17226        10.00843
|111> *
|112>
|113>                          ****END OF INPUT****

CARTESIAN COORDINATES (ANGSTROEM)
---------------------------------
  C     -0.805100   -3.268230   -4.335910
  C      0.059660   -4.327570   -4.255420
  C      0.458920   -5.101760   -5.364140
  N      0.796140   -5.773170   -6.231180
  C      0.719290   -4.690710   -3.062750
  N      1.300780   -4.980680   -2.116510
  C     -1.266600   -2.646900   -5.575080
  C     -1.657950   -1.323570   -5.298300
  C     -2.098030   -0.476890   -6.295220
  C     -2.160880   -0.964940   -7.595000
  C     -1.785680   -2.284950   -7.874590
  C     -1.331540   -3.132440   -6.869460
  Cl    -1.885160   -2.876850   -9.482040
  Cl    -2.704360    0.057390   -8.861840
  C     -1.529730   -1.061760   -3.847870
  O     -1.725140   -0.027920   -3.255910
  C     -1.170320   -2.379940   -3.253430
  C     -1.333860   -2.566850   -1.914400
  C     -1.495920   -3.754590   -1.169430
  C     -1.468470   -3.837040    0.216970
  C     -1.753810   -5.115750    0.677970
  C     -2.032320   -6.022060   -0.367510
  S     -1.929180   -5.299710   -1.902920
  C     -2.339350   -7.282230    0.196410
  C     -2.259410   -7.178840    1.596880
  C     -1.882500   -5.815830    1.944720
  C     -1.697960   -5.308570    3.196460
  C     -1.860710   -6.099650    4.353960
  N     -1.994790   -6.747570    5.289970
  C     -1.342230   -3.960510    3.417560
  N     -1.061170   -2.864990    3.602920
  C     -2.565020   -8.371690    2.247210
  C     -2.870270   -9.383940    1.352360
  S     -2.775160   -8.852640   -0.318380
  C     -3.249230  -10.715320    1.656230
  C     -3.479390  -11.750660    0.767390
  C     -3.865470  -12.919990    1.419650
  C     -3.935970  -12.770050    2.816390
  S     -3.511760  -11.197460    3.326640
  C     -4.361820  -13.997790    3.381890
  C     -4.551150  -14.927820    2.343950
  C     -4.242520  -14.282660    1.077100
  C     -4.303620  -14.835070   -0.167710
  C     -4.690820  -16.176810   -0.371810
  N     -5.006130  -17.267440   -0.530350
  C     -3.990200  -14.097320   -1.329340
  N     -3.737110  -13.493230   -2.270070
  C     -4.993650  -16.167740    2.800670
  C     -5.152250  -16.185270    4.175280
  S     -4.733590  -14.646790    4.916300
  C     -5.616060  -17.258330    4.976560
  C     -5.869930  -17.242330    6.337860
  C     -6.349030  -18.468930    6.791580
  C     -6.451280  -19.428850    5.768370
  S     -5.963250  -18.817570    4.248060
  C     -6.950580  -20.630620    6.321890
  C     -7.178190  -20.428040    7.703120
  C     -6.791290  -19.068700    8.042840
  C     -6.817590  -18.476060    9.269790
  C     -7.222070  -19.151670   10.442470
  N     -7.524120  -19.681140   11.412710
  C     -6.414430  -17.135580    9.453370
  N     -6.092750  -16.045040    9.600520
  C     -7.705420  -21.542800    8.338760
  C     -7.878890  -22.610790    7.465990
  S     -7.354010  -22.202930    5.824170
  C     -8.326550  -23.931410    7.663420
  C     -8.989490  -24.491550    8.721790
  C     -9.294670  -25.908470    8.834180
  C     -8.748620  -26.927930    8.099840
  C     -9.076500  -28.290120    8.274430
  N     -9.301280  -29.412030    8.360340
  C     -7.763670  -26.782650    7.098990
  N     -6.950850  -26.750220    6.288460
  C    -10.231000  -26.073890    9.941780
  C    -10.445150  -24.822190   10.542750
  C     -9.668280  -23.783680    9.834570
  O     -9.655710  -22.601770   10.098240
  C    -11.282290  -24.666840   11.628690
  C    -11.925740  -25.791670   12.129370
  C    -11.722310  -27.043040   11.534470
  C    -10.876180  -27.193810   10.441250
  Cl   -12.529440  -28.423600   12.157770
  Cl   -12.973970  -25.644360   13.479750
  H     -2.384570    0.538010   -6.069240
  H     -1.053080   -4.144400   -7.115590
  H     -1.452630   -1.651820   -1.340570
  H     -1.230100   -2.993100    0.838980
  H     -2.569370   -8.515610    3.312790
  H     -3.366540  -11.640780   -0.296290
  H     -5.203040  -17.019960    2.179290
  H     -5.715650  -16.370770    6.948360
  H     -7.963520  -21.596220    9.380160
  H     -8.119940  -24.584740    6.823480
  H    -11.428390  -23.695750   12.074780
  H    -10.748100  -28.172260   10.008430

 Total Charge           Charge          ....    0
 Multiplicity           Mult            ....    1
 Number of Electrons    NEL             ....  634
 Basis Dimension        Dim             .... 1276

ORBITAL ENERGIES
----------------

  NO   OCC          E(Eh)            E(eV)
   0   2.0000    -101.606363     -2764.8497
   1   2.0000    -101.605814     -2764.8347
   2   2.0000    -101.604072     -2764.7874
   3   2.0000    -101.602751     -2764.7514
   4   2.0000     -89.009359     -2422.0678
   5   2.0000     -89.009231     -2422.0643
   6   2.0000     -89.008977     -2422.0574
   7   2.0000     -89.008966     -2422.0571
   8   2.0000     -89.006968     -2422.0027
   9   2.0000     -89.005802     -2421.9710
  10   2.0000     -19.230120      -523.2782
  11   2.0000     -19.227934      -523.2187
  12   2.0000     -14.445805      -393.0903
  13   2.0000     -14.445619      -393.0853
  14   2.0000     -14.443910      -393.0388
  15   2.0000     -14.443235      -393.0204
  16   2.0000     -14.442584      -393.0027
  17   2.0000     -14.438970      -392.9044
  18   2.0000     -14.427361      -392.5884
  19   2.0000     -14.426997      -392.5785
  20   2.0000     -14.426058      -392.5530
  21   2.0000     -14.422662      -392.4606
  22   2.0000     -10.381974      -282.5079
  23   2.0000     -10.381911      -282.5062
  24   2.0000     -10.380075      -282.4562
  25   2.0000     -10.380023      -282.4548
  26   2.0000     -10.379223      -282.4330
  27   2.0000     -10.368487      -282.1409
  28   2.0000     -10.367002      -282.1005
  29   2.0000     -10.365414      -282.0572
  30   2.0000     -10.363905      -282.0162
  31   2.0000     -10.363043      -281.9927
  32   2.0000     -10.360906      -281.9346
  33   2.0000     -10.360522      -281.9241
  34   2.0000     -10.357981      -281.8550
  35   2.0000     -10.356895      -281.8254
  36   2.0000     -10.356865      -281.8246
  37   2.0000     -10.356364      -281.8110
  38   2.0000     -10.353366      -281.7294
  39   2.0000     -10.352120      -281.6955
  40   2.0000     -10.351609      -281.6816
  41   2.0000     -10.351171      -281.6697
  42   2.0000     -10.351012      -281.6654
  43   2.0000     -10.350746      -281.6581
  44   2.0000     -10.348075      -281.5854
  45   2.0000     -10.348068      -281.5852
  46   2.0000     -10.347779      -281.5774
  47   2.0000     -10.347645      -281.5737
  48   2.0000     -10.345723      -281.5214
  49   2.0000     -10.345507      -281.5156
  50   2.0000     -10.343908      -281.4720
  51   2.0000     -10.343158      -281.4516
  52   2.0000     -10.342150      -281.4242
  53   2.0000     -10.338895      -281.3356
  54   2.0000     -10.337904      -281.3087
  55   2.0000     -10.337638      -281.3014
  56   2.0000     -10.337335      -281.2932
  57   2.0000     -10.335696      -281.2486
  58   2.0000     -10.329123      -281.0697
  59   2.0000     -10.328603      -281.0556
  60   2.0000     -10.328385      -281.0496
  61   2.0000     -10.325428      -280.9692
  62   2.0000     -10.325178      -280.9624
  63   2.0000     -10.325089      -280.9600
  64   2.0000     -10.325046      -280.9588
  65   2.0000     -10.325036      -280.9585
  66   2.0000     -10.321885      -280.8728
  67   2.0000     -10.321845      -280.8717
  68   2.0000     -10.321242      -280.8553
  69   2.0000     -10.321190      -280.8539
  70   2.0000     -10.321098      -280.8514
  71   2.0000     -10.320055      -280.8230
  72   2.0000     -10.319853      -280.8175
  73   2.0000     -10.319117      -280.7974
  74   2.0000     -10.318356      -280.7767
  75   2.0000     -10.317520      -280.7540
  76   2.0000     -10.317464      -280.7525
  77   2.0000     -10.317212      -280.7456
  78   2.0000     -10.313966      -280.6573
  79   2.0000     -10.313806      -280.6529
  80   2.0000     -10.311178      -280.5814
  81   2.0000     -10.310527      -280.5637
  82   2.0000     -10.309824      -280.5446
  83   2.0000     -10.306933      -280.4659
  84   2.0000      -9.561378      -260.1783
  85   2.0000      -9.560825      -260.1633
  86   2.0000      -9.559085      -260.1159
  87   2.0000      -9.557781      -260.0805
  88   2.0000      -8.103655      -220.5117
  89   2.0000      -8.103528      -220.5082
  90   2.0000      -8.103329      -220.5028
  91   2.0000      -8.103287      -220.5016
  92   2.0000      -8.101158      -220.4437
  93   2.0000      -8.100469      -220.4250
  94   2.0000      -7.331787      -199.5081
  95   2.0000      -7.331253      -199.4935
  96   2.0000      -7.329466      -199.4449
  97   2.0000      -7.328193      -199.4103
  98   2.0000      -7.321625      -199.2316
  99   2.0000      -7.321068      -199.2164
 100   2.0000      -7.320896      -199.2117
 101   2.0000      -7.320329      -199.1963
 102   2.0000      -7.319366      -199.1701
 103   2.0000      -7.318598      -199.1492
 104   2.0000      -7.318031      -199.1337
 105   2.0000      -7.317288      -199.1135
 106   2.0000      -6.072953      -165.2534
 107   2.0000      -6.072842      -165.2504
 108   2.0000      -6.072645      -165.2451
 109   2.0000      -6.072617      -165.2443
 110   2.0000      -6.070409      -165.1842
 111   2.0000      -6.069589      -165.1619
 112   2.0000      -6.068753      -165.1392
 113   2.0000      -6.068643      -165.1362
 114   2.0000      -6.068454      -165.1310
 115   2.0000      -6.068426      -165.1303
 116   2.0000      -6.066148      -165.0683
 117   2.0000      -6.065952      -165.0630
 118   2.0000      -6.065846      -165.0601
 119   2.0000      -6.065584      -165.0529
 120   2.0000      -6.065537      -165.0516
 121   2.0000      -6.065429      -165.0487
 122   2.0000      -6.063591      -164.9987
 123   2.0000      -6.063047      -164.9839
 124   2.0000      -1.146167       -31.1888
 125   2.0000      -1.144135       -31.1335
 126   2.0000      -1.064857       -28.9762
 127   2.0000      -1.062469       -28.9113
 128   2.0000      -1.060273       -28.8515
 129   2.0000      -1.039933       -28.2980
 130   2.0000      -1.038083       -28.2477
 131   2.0000      -1.036724       -28.2107
 132   2.0000      -1.035784       -28.1851
 133   2.0000      -1.034049       -28.1379
 134   2.0000      -1.027832       -27.9687
 135   2.0000      -1.025194       -27.8970
 136   2.0000      -1.023529       -27.8516
 137   2.0000      -1.022859       -27.8334
 138   2.0000      -1.020752       -27.7761
 139   2.0000      -1.018135       -27.7049
 140   2.0000      -1.016110       -27.6497
 141   2.0000      -1.007519       -27.4160
 142   2.0000      -1.004537       -27.3349
 143   2.0000      -1.002933       -27.2912
 144   2.0000      -1.000464       -27.2240
 145   2.0000      -0.997844       -27.1527
 146   2.0000      -0.981375       -26.7046
 147   2.0000      -0.973552       -26.4917
 148   2.0000      -0.969533       -26.3823
 149   2.0000      -0.968645       -26.3582
 150   2.0000      -0.965897       -26.2834
 151   2.0000      -0.945183       -25.7197
 152   2.0000      -0.943392       -25.6710
 153   2.0000      -0.937592       -25.5132
 154   2.0000      -0.931486       -25.3470
 155   2.0000      -0.923112       -25.1192
 156   2.0000      -0.910760       -24.7830
 157   2.0000      -0.907261       -24.6878
 158   2.0000      -0.891193       -24.2506
 159   2.0000      -0.890204       -24.2237
 160   2.0000      -0.887255       -24.1434
 161   2.0000      -0.881542       -23.9880
 162   2.0000      -0.878494       -23.9050
 163   2.0000      -0.874050       -23.7841
 164   2.0000      -0.872065       -23.7301
 165   2.0000      -0.869051       -23.6481
 166   2.0000      -0.867434       -23.6041
 167   2.0000      -0.865904       -23.5624
 168   2.0000      -0.849848       -23.1255
 169   2.0000      -0.827208       -22.5095
 170   2.0000      -0.809537       -22.0286
 171   2.0000      -0.799642       -21.7594
 172   2.0000      -0.797101       -21.6902
 173   2.0000      -0.791397       -21.5350
 174   2.0000      -0.785641       -21.3784
 175   2.0000      -0.778722       -21.1901
 176   2.0000      -0.774532       -21.0761
 177   2.0000      -0.768239       -20.9048
 178   2.0000      -0.752845       -20.4859
 179   2.0000      -0.737336       -20.0639
 180   2.0000      -0.726467       -19.7682
 181   2.0000      -0.721399       -19.6303
 182   2.0000      -0.717293       -19.5185
 183   2.0000      -0.712370       -19.3846
 184   2.0000      -0.707669       -19.2567
 185   2.0000      -0.706106       -19.2141
 186   2.0000      -0.703340       -19.1389
 187   2.0000      -0.699010       -19.0210
 188   2.0000      -0.698348       -19.0030
 189   2.0000      -0.692811       -18.8523
 190   2.0000      -0.691184       -18.8081
 191   2.0000      -0.686114       -18.6701
 192   2.0000      -0.669660       -18.2224
 193   2.0000      -0.665425       -18.1071
 194   2.0000      -0.652472       -17.7547
 195   2.0000      -0.649397       -17.6710
 196   2.0000      -0.647206       -17.6114
 197   2.0000      -0.643515       -17.5109
 198   2.0000      -0.637558       -17.3488
 199   2.0000      -0.636591       -17.3225
 200   2.0000      -0.635408       -17.2903
 201   2.0000      -0.631289       -17.1782
 202   2.0000      -0.628572       -17.1043
 203   2.0000      -0.624624       -16.9969
 204   2.0000      -0.623448       -16.9649
 205   2.0000      -0.617271       -16.7968
 206   2.0000      -0.606034       -16.4910
 207   2.0000      -0.599414       -16.3109
 208   2.0000      -0.595215       -16.1966
 209   2.0000      -0.588749       -16.0207
 210   2.0000      -0.583591       -15.8803
 211   2.0000      -0.572194       -15.5702
 212   2.0000      -0.568978       -15.4827
 213   2.0000      -0.567614       -15.4456
 214   2.0000      -0.564761       -15.3679
 215   2.0000      -0.562158       -15.2971
 216   2.0000      -0.561483       -15.2787
 217   2.0000      -0.558861       -15.2074
 218   2.0000      -0.556282       -15.1372
 219   2.0000      -0.553799       -15.0696
 220   2.0000      -0.552301       -15.0289
 221   2.0000      -0.551120       -14.9967
 222   2.0000      -0.545964       -14.8564
 223   2.0000      -0.542870       -14.7722
 224   2.0000      -0.541917       -14.7463
 225   2.0000      -0.536291       -14.5932
 226   2.0000      -0.532770       -14.4974
 227   2.0000      -0.530282       -14.4297
 228   2.0000      -0.524582       -14.2746
 229   2.0000      -0.523863       -14.2550
 230   2.0000      -0.522486       -14.2176
 231   2.0000      -0.521536       -14.1917
 232   2.0000      -0.520151       -14.1540
 233   2.0000      -0.518207       -14.1011
 234   2.0000      -0.517224       -14.0744
 235   2.0000      -0.515919       -14.0389
 236   2.0000      -0.515663       -14.0319
 237   2.0000      -0.512805       -13.9541
 238   2.0000      -0.511269       -13.9123
 239   2.0000      -0.508459       -13.8359
 240   2.0000      -0.506698       -13.7880
 241   2.0000      -0.506049       -13.7703
 242   2.0000      -0.503630       -13.7045
 243   2.0000      -0.501546       -13.6478
 244   2.0000      -0.499159       -13.5828
 245   2.0000      -0.497416       -13.5354
 246   2.0000      -0.496606       -13.5133
 247   2.0000      -0.490078       -13.3357
 248   2.0000      -0.489128       -13.3098
 249   2.0000      -0.487278       -13.2595
 250   2.0000      -0.482743       -13.1361
 251   2.0000      -0.476730       -12.9725
 252   2.0000      -0.476038       -12.9537
 253   2.0000      -0.473989       -12.8979
 254   2.0000      -0.473696       -12.8899
 255   2.0000      -0.472819       -12.8661
 256   2.0000      -0.472519       -12.8579
 257   2.0000      -0.471829       -12.8391
 258   2.0000      -0.469593       -12.7783
 259   2.0000      -0.466431       -12.6922
 260   2.0000      -0.463840       -12.6217
 261   2.0000      -0.460572       -12.5328
 262   2.0000      -0.458645       -12.4804
 263   2.0000      -0.457471       -12.4484
 264   2.0000      -0.457124       -12.4390
 265   2.0000      -0.456885       -12.4325
 266   2.0000      -0.456208       -12.4141
 267   2.0000      -0.455653       -12.3990
 268   2.0000      -0.454933       -12.3794
 269   2.0000      -0.452985       -12.3263
 270   2.0000      -0.452767       -12.3204
 271   2.0000      -0.452130       -12.3031
 272   2.0000      -0.451261       -12.2794
 273   2.0000      -0.450931       -12.2705
 274   2.0000      -0.450454       -12.2575
 275   2.0000      -0.449270       -12.2253
 276   2.0000      -0.444422       -12.0933
 277   2.0000      -0.443729       -12.0745
 278   2.0000      -0.441516       -12.0143
 279   2.0000      -0.441307       -12.0086
 280   2.0000      -0.439643       -11.9633
 281   2.0000      -0.438517       -11.9327
 282   2.0000      -0.436822       -11.8865
 283   2.0000      -0.435896       -11.8613
 284   2.0000      -0.435214       -11.8428
 285   2.0000      -0.434131       -11.8133
 286   2.0000      -0.433115       -11.7857
 287   2.0000      -0.432837       -11.7781
 288   2.0000      -0.425842       -11.5877
 289   2.0000      -0.420329       -11.4377
 290   2.0000      -0.419330       -11.4106
 291   2.0000      -0.415658       -11.3106
 292   2.0000      -0.414030       -11.2663
 293   2.0000      -0.411975       -11.2104
 294   2.0000      -0.410847       -11.1797
 295   2.0000      -0.405497       -11.0341
 296   2.0000      -0.393946       -10.7198
 297   2.0000      -0.387908       -10.5555
 298   2.0000      -0.385322       -10.4851
 299   2.0000      -0.381463       -10.3801
 300   2.0000      -0.369909       -10.0657
 301   2.0000      -0.366099        -9.9621
 302   2.0000      -0.365904        -9.9567
 303   2.0000      -0.362047        -9.8518
 304   2.0000      -0.353660        -9.6236
 305   2.0000      -0.351257        -9.5582
 306   2.0000      -0.348966        -9.4958
 307   2.0000      -0.344803        -9.3826
 308   2.0000      -0.341249        -9.2859
 309   2.0000      -0.337159        -9.1746
 310   2.0000      -0.336392        -9.1537
 311   2.0000      -0.331928        -9.0322
 312   2.0000      -0.319867        -8.7040
 313   2.0000      -0.317390        -8.6366
 314   2.0000      -0.306951        -8.3526
 315   2.0000      -0.280878        -7.6431
 316   2.0000      -0.255943        -6.9646
 317   0.0000      -0.130250        -3.5443
 318   0.0000      -0.122605        -3.3362
 319   0.0000      -0.118240        -3.2175
 320   0.0000      -0.098122        -2.6700
 321   0.0000      -0.097255        -2.6464

MULLIKEN ATOMIC CHARGES
-----------------------
   0 C :    0.244556
   1 C :   -0.314567
   2 C :   -0.176636
   3 N :    0.162580
   4 C :   -0.210453
   5 N :    0.175837
   6 C :    0.017416
   7 C :    0.000247
   8 C :   -0.027900
   9 C :    0.059945
  10 C :    0.052055
  11 C :   -0.014763
  12 Cl:   -0.033496
  13 Cl:   -0.039869
  14 C :    0.142810
  15 O :   -0.132189
  16 C :   -0.138420
  17 C :    0.039778
  18 C :   -0.082874
  19 C :    0.001844
  20 C :    0.022289
  21 C :   -0.075221
  22 S :    0.211001
  23 C :   -0.105107
  24 C :    0.029037
  25 C :    0.296601
  26 C :   -0.286678
  27 C :   -0.188421
  28 N :    0.175810
  29 C :   -0.189465
  30 N :    0.185691
  31 C :   -0.071924
  32 C :   -0.043401
  33 S :    0.210711
  34 C :   -0.052964
  35 C :   -0.064171
  36 C :    0.019724
  37 C :   -0.095743
  38 S :    0.207277
  39 C :   -0.095391
  40 C :    0.015930
  41 C :    0.295715
  42 C :   -0.288710
  43 C :   -0.186498
  44 N :    0.178866
  45 C :   -0.187165
  46 N :    0.177263
  47 C :   -0.059406
  48 C :   -0.056213
  49 S :    0.207206
  50 C :   -0.043179
  51 C :   -0.069185
  52 C :    0.026520
  53 C :   -0.104056
  54 S :    0.207216
  55 C :   -0.076677
  56 C :   -0.015572
  57 C :    0.304724
  58 C :   -0.292339
  59 C :   -0.187706
  60 N :    0.194500
  61 C :   -0.189804
  62 N :    0.176272
  63 C :    0.015445
  64 C :   -0.114655
  65 S :    0.212446
  66 C :    0.033203
  67 C :   -0.091149
  68 C :    0.298155
  69 C :   -0.339795
  70 C :   -0.190156
  71 N :    0.161321
  72 C :   -0.201838
  73 N :    0.162870
  74 C :    0.031836
  75 C :   -0.019478
  76 C :    0.154991
  77 O :   -0.144749
  78 C :   -0.025970
  79 C :    0.060009
  80 C :    0.047631
  81 C :   -0.010619
  82 Cl:   -0.032296
  83 Cl:   -0.038896
  84 H :    0.002289
  85 H :    0.004565
  86 H :    0.035181
  87 H :    0.021492
  88 H :    0.016458
  89 H :    0.016405
  90 H :    0.015417
  91 H :    0.015674
  92 H :    0.037749
  93 H :    0.017837
  94 H :    0.003522
  95 H :    0.001843
Sum of atomic charges:   -0.0000000

LOEWDIN ATOMIC CHARGES
----------------------
   0 C :    0.059317
   1 C :   -0.140254
   2 C :   -0.023210
   3 N :   -0.040625
   4 C :   -0.038745
   5 N :   -0.042462
   6 C :   -0.011760
   7 C :   -0.045289
   8 C :    0.002894
   9 C :   -0.134376
  10 C :   -0.129212
  11 C :   -0.014552
  12 Cl:    0.165331
  13 Cl:    0.161603
  14 C :    0.084060
  15 O :   -0.134045
  16 C :   -0.104586
  17 C :    0.052550
  18 C :   -0.179505
  19 C :    0.016997
  20 C :   -0.075339
  21 C :   -0.149084
  22 S :    0.515919
  23 C :   -0.188860
  24 C :   -0.050145
  25 C :    0.078708
  26 C :   -0.093622
  27 C :   -0.015815
  28 N :   -0.027844
  29 C :   -0.018168
  30 N :   -0.022011
  31 C :   -0.039975
  32 C :   -0.168207
  33 S :    0.494249
  34 C :   -0.181268
  35 C :   -0.032529
  36 C :   -0.065534
  37 C :   -0.177498
  38 S :    0.493357
  39 C :   -0.177126
  40 C :   -0.065922
  41 C :    0.080152
  42 C :   -0.095356
  43 C :   -0.016471
  44 N :   -0.026838
  45 C :   -0.016665
  46 N :   -0.026204
  47 C :   -0.032153
  48 C :   -0.181831
  49 S :    0.493551
  50 C :   -0.167470
  51 C :   -0.041008
  52 C :   -0.049563
  53 C :   -0.190759
  54 S :    0.491830
  55 C :   -0.157077
  56 C :   -0.075426
  57 C :    0.075392
  58 C :   -0.090581
  59 C :   -0.021474
  60 N :   -0.012866
  61 C :   -0.015102
  62 N :   -0.028966
  63 C :    0.022690
  64 C :   -0.178291
  65 S :    0.499501
  66 C :    0.044124
  67 C :   -0.098415
  68 C :    0.074371
  69 C :   -0.135719
  70 C :   -0.020682
  71 N :   -0.043934
  72 C :   -0.024594
  73 N :   -0.047331
  74 C :   -0.014510
  75 C :   -0.043456
  76 C :    0.085789
  77 O :   -0.132176
  78 C :    0.002649
  79 C :   -0.133677
  80 C :   -0.129865
  81 C :   -0.012007
  82 Cl:    0.164384
  83 Cl:    0.162272
  84 H :    0.047095
  85 H :    0.044658
  86 H :    0.056483
  87 H :    0.048207
  88 H :    0.037194
  89 H :    0.037547
  90 H :    0.037189
  91 H :    0.036907
  92 H :    0.044990
  93 H :    0.043860
  94 H :    0.047448
  95 H :    0.044763

  Mayer bond orders larger than 0.100000
B(  0-C ,  1-C ) :   1.6580 B(  0-C ,  6-C ) :   1.0043 B(  0-C , 16-C ) :   1.0402
B(  1-C ,  2-C ) :   1.1277 B(  1-C ,  4-C ) :   1.1520 B(  2-C ,  3-N ) :   2.9947
B(  4-C ,  5-N ) :   3.0232 B(  6-C ,  7-C ) :   1.3304 B(  6-C , 11-C ) :   1.3510
B(  7-C ,  8-C ) :   1.3524 B(  7-C , 14-C ) :   0.9205 B(  8-C ,  9-C ) :   1.3455
B(  8-C , 84-H ) :   1.0157 B(  9-C , 10-C ) :   1.4059 B(  9-C , 13-Cl) :   1.0501
B( 10-C , 11-C ) :   1.3578 B( 10-C , 12-Cl) :   1.0706 B( 11-C , 85-H ) :   0.9898
B( 14-C , 15-O ) :   2.2751 B( 14-C , 16-C ) :   0.9437 B( 16-C , 17-C ) :   1.6212
B( 17-C , 18-C ) :   1.1662 B( 17-C , 86-H ) :   0.9457 B( 18-C , 19-C ) :   1.3892
B( 18-C , 22-S ) :   1.0774 B( 19-C , 20-C ) :   1.3096 B( 19-C , 87-H ) :   1.0017
B( 20-C , 21-C ) :   1.3891 B( 20-C , 25-C ) :   0.9950 B( 21-C , 22-S ) :   1.1670
B( 21-C , 23-C ) :   1.2133 B( 23-C , 24-C ) :   1.4351 B( 23-C , 33-S ) :   1.1089
B( 24-C , 25-C ) :   0.9920 B( 24-C , 31-C ) :   1.3126 B( 25-C , 26-C ) :   1.7211
B( 26-C , 27-C ) :   1.1348 B( 26-C , 29-C ) :   1.1318 B( 27-C , 28-N ) :   2.9886
B( 29-C , 30-N ) :   2.9949 B( 31-C , 32-C ) :   1.4421 B( 31-C , 88-H ) :   0.9874
B( 32-C , 33-S ) :   1.1232 B( 32-C , 34-C ) :   1.1724 B( 34-C , 35-C ) :   1.4504
B( 34-C , 38-S ) :   1.1089 B( 35-C , 36-C ) :   1.3072 B( 35-C , 89-H ) :   0.9873
B( 36-C , 37-C ) :   1.4399 B( 36-C , 41-C ) :   0.9927 B( 37-C , 38-S ) :   1.1252
B( 37-C , 39-C ) :   1.1888 B( 39-C , 40-C ) :   1.4409 B( 39-C , 49-S ) :   1.1254
B( 40-C , 41-C ) :   0.9938 B( 40-C , 47-C ) :   1.3097 B( 41-C , 42-C ) :   1.7214
B( 42-C , 43-C ) :   1.1312 B( 42-C , 45-C ) :   1.1322 B( 43-C , 44-N ) :   2.9915
B( 45-C , 46-N ) :   2.9907 B( 47-C , 48-C ) :   1.4497 B( 47-C , 90-H ) :   0.9860
B( 48-C , 49-S ) :   1.1089 B( 48-C , 50-C ) :   1.1747 B( 50-C , 51-C ) :   1.4412
B( 50-C , 54-S ) :   1.1228 B( 51-C , 52-C ) :   1.3136 B( 51-C , 91-H ) :   0.9864
B( 52-C , 53-C ) :   1.4375 B( 52-C , 57-C ) :   0.9915 B( 53-C , 54-S ) :   1.1070
B( 53-C , 55-C ) :   1.2056 B( 55-C , 56-C ) :   1.3769 B( 55-C , 65-S ) :   1.1695
B( 56-C , 57-C ) :   0.9959 B( 56-C , 63-C ) :   1.3336 B( 57-C , 58-C ) :   1.7219
B( 58-C , 59-C ) :   1.1345 B( 58-C , 61-C ) :   1.1355 B( 59-C , 60-N ) :   2.9954
B( 61-C , 62-N ) :   2.9879 B( 63-C , 64-C ) :   1.3973 B( 63-C , 92-H ) :   0.9728
B( 64-C , 65-S ) :   1.0741 B( 64-C , 66-C ) :   1.2117 B( 66-C , 67-C ) :   1.5916
B( 66-C , 93-H ) :   0.9191 B( 67-C , 68-C ) :   1.0791 B( 67-C , 76-C ) :   0.9460
B( 68-C , 69-C ) :   1.6389 B( 68-C , 74-C ) :   0.9929 B( 69-C , 70-C ) :   1.1408
B( 69-C , 72-C ) :   1.1410 B( 70-C , 71-N ) :   2.9757 B( 72-C , 73-N ) :   2.9876
B( 74-C , 75-C ) :   1.3298 B( 74-C , 81-C ) :   1.3400 B( 75-C , 76-C ) :   0.9470
B( 75-C , 78-C ) :   1.3486 B( 76-C , 77-O ) :   2.1918 B( 78-C , 79-C ) :   1.3390
B( 78-C , 94-H ) :   1.0168 B( 79-C , 80-C ) :   1.4052 B( 79-C , 83-Cl) :   1.0511
B( 80-C , 81-C ) :   1.3600 B( 80-C , 82-Cl) :   1.0784 B( 81-C , 95-H ) :   0.9866

-----------------------------------------------------------------------------
         ABSORPTION SPECTRUM VIA TRANSITION ELECTRIC DIPOLE MOMENTS
-----------------------------------------------------------------------------
State   Energy  Wavelength   fosc         T2         TX        TY        TZ
        (cm-1)    (nm)                  (au**2)     (au)      (au)      (au)
-----------------------------------------------------------------------------
   0   11328.5    882.7   0.755218490  21.94706  -1.42941  -3.92820   2.11496
   1   12732.2    785.4   0.130551887   3.37563  -0.50296  -1.50450   0.92690
   2   13250.8    754.7   0.101265647   2.51591   0.61836   1.29816  -0.66957
   3   19650.0    508.9   1.556161635  26.07167   1.58933   3.90494  -2.88048
   4   20202.9    495.0   0.041101820   0.66977  -0.27643  -0.77028  -0.00490
   5   20738.7    482.2   0.325714015   5.17047  -0.74247  -2.14727   0.09193
   6   22041.0    453.7   0.143764006   2.14731  -0.64331  -0.96898   0.89136
   7   22756.7    439.4   0.095203090   1.37726   0.31302   1.12122  -0.14883
   8   25517.7    391.9   0.305419888   3.94032  -0.68426  -1.66789   0.83081
   9   26269.5    380.7   0.007217617   0.09045  -0.13751   0.10670   0.24527
  10   26754.4    373.8   0.126800106   1.56027   0.31223   1.06484  -0.57350
  11   27076.6    369.3   0.194600483   2.36606  -0.33584   1.46401  -0.33159
  12   27568.9    362.7   0.090556262   1.08137   0.38142   0.41065  -0.87593
  13   28084.8    356.1   0.011205324   0.13135   0.19623  -0.20311  -0.22714
  14   28295.6    353.4   0.042942879   0.49963  -0.46696   0.36596   0.38426
  15   28842.0    346.7   0.046176129   0.52707   0.61706   0.06429  -0.37705
  16   28969.9    345.2   0.148939645   1.69254   0.20163  -0.73679   1.05310
  17   29488.7    339.1   0.177713860   1.98400   0.54086   1.29886   0.06658
  18   30083.9    332.4   0.118541201   1.29721  -0.68046  -0.86600   0.29024
  19   30175.8    331.4   0.132998920   1.45099   0.08230  -0.32550   1.15684
  20   30427.6    328.6   0.372644110   4.03183   0.04617   0.22331  -1.99495
  21   30907.0    323.6   0.197708156   2.10592  -0.04341   1.18274   0.83975
  22   31308.3    319.4   0.045361777   0.47699   0.30903  -0.39318  -0.47634
  23   31586.9    316.6   1.284724136  13.38996   0.27014   1.37653   3.37967
  24   31970.7    312.8   0.056547983   0.58229   0.28322   0.39823  -0.58608
  25   32453.7    308.1   0.147489302   1.49614  -0.33927   0.53836   1.04461
  26   32670.9    306.1   0.110863394   1.11713  -0.51132   0.90517   0.19066
  27   32776.7    305.1   0.026062726   0.26178  -0.13444  -0.47265   0.14248
  28   32938.3    303.6   0.016344828   0.16336   0.06969   0.01004   0.39800
  29   33027.1    302.8   0.188331559   1.87728  -0.25572  -0.46869  -1.26183
  30   33234.9    300.9   0.031369011   0.31073  -0.17246   0.48262   0.21924
  31   33357.5    299.8   0.241605829   2.38445   0.60435   1.33264  -0.49323
  32   33820.8    295.7   0.044078650   0.42906   0.20374  -0.54134   0.30741
  33   33861.1    295.3   0.069247367   0.67325   0.42695   0.67174  -0.19933
  34   33971.9    294.4   0.114537193   1.10995   0.41079  -0.47120   0.84804
  35   34048.6    293.7   0.045227256   0.43730   0.14506   0.11534  -0.63478
  36   34224.1    292.2   0.094880315   0.91268  -0.22509   0.88639   0.27627
  37   34446.0    290.3   0.082032474   0.78401   0.66847  -0.25923  -0.51957
  38   34505.0    289.8   0.330097152   3.14945   0.07986   0.75760  -1.60285
  39   34602.7    289.0   0.142092980   1.35188  -0.69875  -0.84053   0.39642
  40   34850.3    286.9   0.094935264   0.89680   0.53310  -0.68087  -0.38603
  41   34923.2    286.3   0.075876453   0.71527   0.21578   0.59568   0.56024
  42   35120.6    284.7   0.081941394   0.76810  -0.42894  -0.37897   0.66369
  43   35306.6    283.2   0.182825698   1.70473  -0.08789   0.02787  -1.30240
  44   35634.7    280.6   0.042436351   0.39205  -0.48057   0.39076  -0.09171
  45   35817.1    279.2   0.111528024   1.02511  -0.23172   0.82189   0.54397
  46   35888.0    278.6   0.215316330   1.97516  -0.71106   0.93849   0.76732
  47   36146.0    276.7   0.135652375   1.23550  -0.41194   0.54100   0.87927
  48   36468.0    274.2   0.180522131   1.62965  -0.66824   1.08186  -0.11268
  49   36579.1    273.4   0.141816491   1.27635  -0.58421   0.89342  -0.36993
  50   37099.1    269.5   0.025415788   0.22554   0.19366  -0.07061   0.42784
  51   37215.6    268.7   0.084408288   0.74668  -0.08303   0.64315   0.57109
  52   37403.2    267.4   0.044963612   0.39576   0.17061  -0.44107  -0.41486
  53   37768.0    264.8   0.003028089   0.02639  -0.04425  -0.14292   0.06332
  54   37999.2    263.2   0.007050972   0.06109  -0.01442  -0.22765  -0.09516
  55   38285.5    261.2   0.062803761   0.54004  -0.17173  -0.71435  -0.01616
  56   38471.4    259.9   0.020247464   0.17326   0.01143   0.41083  -0.06594
  57   38688.2    258.5   0.027583989   0.23472   0.06344   0.47994  -0.01880
  58   38918.7    256.9   0.004984297   0.04216  -0.11725   0.16748  -0.01916
  59   39208.1    255.0   0.044039213   0.36978   0.09583  -0.28570  -0.52817
  60   39257.7    254.7   0.019489704   0.16344  -0.00052  -0.40199  -0.04289
  61   39353.7    254.1   0.013992798   0.11706  -0.02176   0.33921  -0.03897
  62   39672.4    252.1   0.057716766   0.47895  -0.01735  -0.44346   0.53103
  63   39760.5    251.5   0.044961335   0.37227   0.39877   0.44099   0.13708
  64   39966.6    250.2   0.007338418   0.06045   0.04459   0.16732   0.17453

FINAL SINGLE POINT ENERGY     -7292.313138150149

DIPOLE MOMENT
-------------
                                X             Y             Z
Electronic contribution:    -13.89903      -5.47542      -8.51280
Nuclear contribution   :     12.17868       6.86739       7.84498
                        -----------------------------------------
Total Dipole Moment    :     -1.72035       1.39196      -0.66782
                        -----------------------------------------
Magnitude (a.u.)       :      2.31153
Magnitude (Debye)      :      5.87543

Rotational constants in cm-1:     0.001683     0.000106     0.000102
Rotational constants in MHz :    50.451799     3.174081     3.056701

                             ****ORCA TERMINATED NORMALLY****
TOTAL RUN TIME: 0 days 0 hours 16 minutes 27 seconds 57 msec
