                         Program Version 4.2.0 -  RELEASE  -
|  1> # ORCA input file
|  2> # SCF done       -169.246380027297          0.000863185890
|  3> ! CAM-B3LYP def2-SVP def2/J RIJCOSX Grid4 TightSCF
|  4> %maxcore 5000
|  5> %tddft
|  6>     Mode sTDDFT
|  7>     Ethresh 5.0
|  8>     maxcore 5000
|  9> end
| 10>
| 11> %pal
| 12>   nprocs 6
| 13>   end
| 14> * xyz 0 1
| 15>    C      -17.65387        10.57742         0.51456
| 16>    C      -16.83577        10.93394        -0.51226
| 17>    C      -15.51614        11.14832        -0.06760
| 18>    C      -15.37747        10.94602         1.31227
| 19>    S      -16.84988        10.49685         2.05022
| 20>    C      -14.02129        11.18134         1.67332
| 21>    C      -13.31181        11.53012         0.51734
| 22>    C      -14.23501        11.54781        -0.61065
| 23>    C      -13.94114        11.91902        -1.89205
| 24>    C      -12.66341        12.39339        -2.25512
| 25>    N      -11.63590        12.80901        -2.55054
| 26>    C      -14.89888        11.88316        -2.92476
| 27>    N      -15.66776        11.84102        -3.77537
| 28>    C      -11.95477        11.74772         0.75215
| 29>    C      -11.62985        11.58703         2.08535
| 30>    S      -13.02404        11.15245         3.06270
| 31>    C      -10.34855        11.74006         2.67281
| 32>    C      -10.00994        11.80652         4.00748
| 33>    C       -8.64533        11.98751         4.22298
| 34>    C       -7.90525        12.04200         3.05912
| 35>    S       -8.93809        11.88143         1.66288
| 36>    C       -6.49767        12.20588         2.90895
| 37>    C       -5.85688        12.01480         1.70833
| 38>    C       -4.48697        12.15075         1.49549
| 39>    C       -3.60536        12.55510         2.60171
| 40>    C       -4.01806        12.79412         3.86450
| 41>    S       -5.64929        12.66591         4.37997
| 42>    C       -2.29423        12.59613         2.05343
| 43>    C       -2.33977        12.22294         0.71323
| 44>    C       -1.06096        12.23334         0.11400
| 45>    C       -0.09966        12.60681         0.99861
| 46>    S       -0.70009        12.95771         2.58483
| 47>    C       -3.70527        11.93670         0.34027
| 48>    C       -4.01886        11.48346        -0.95763
| 49>    C       -5.21930        11.21266        -1.54416
| 50>    C       -5.31324        10.69077        -2.84994
| 51>    S       -3.90327        10.28428        -3.80347
| 52>    C       -4.83827         9.69698        -5.15736
| 53>    C       -6.20431         9.82926        -4.87590
| 54>    C       -6.44642        10.37985        -3.58736
| 55>    S       -8.13975        10.53001        -3.23491
| 56>    C       -8.51399         9.86151        -4.80392
| 57>    C       -9.89292         9.67365        -5.25459
| 58>    O      -10.17835         9.22124        -6.33841
| 59>    O      -10.78253        10.04214        -4.32664
| 60>    C      -12.15725         9.93911        -4.69271
| 61>    C      -12.59171        11.10138        -5.57347
| 62>    C       -7.41408         9.54547        -5.54734
| 63>    C       -4.13326         9.18013        -6.25952
| 64>    C       -4.67480         8.65861        -7.39548
| 65>    C       -3.92103         8.11706        -8.46106
| 66>    C       -2.54483         7.97562        -8.59225
| 67>    C       -2.19105         7.37253        -9.79421
| 68>    C       -3.29613         7.04792       -10.59767
| 69>    S       -4.77493         7.48753        -9.86588
| 70>    C       -2.82033         6.43916       -11.78903
| 71>    C       -1.41987         6.37903       -11.73636
| 72>    C       -0.97403         6.95880       -10.48869
| 73>    C        0.30962         7.09263       -10.04112
| 74>    C        1.41793         6.65353       -10.79358
| 75>    N        2.32478         6.29855       -11.39958
| 76>    C        0.61263         7.67392        -8.79352
| 77>    N        0.86475         8.15258        -7.78177
| 78>    C       -0.86433         5.78315       -12.88612
| 79>    C       -1.83009         5.41088       -13.76875
| 80>    S       -3.44144         5.77223       -13.23300
| 81>    H      -18.70030        10.35065         0.47473
| 82>    H      -17.16397        11.03364        -1.53078
| 83>    H      -11.22679        12.01451         0.00731
| 84>    H      -10.74070        11.73510         4.79360
| 85>    H       -8.19980        12.06721         5.19857
| 86>    H       -6.48771        11.72223         0.88186
| 87>    H       -3.33801        13.07856         4.65177
| 88>    H       -0.85493        11.98204        -0.91059
| 89>    H        0.95378        12.70348         0.82228
| 90>    H       -3.14626        11.31587        -1.58079
| 91>    H       -6.16353        11.38264        -1.04977
| 92>    H      -12.69931         9.93199        -3.74469
| 93>    H      -12.31464         8.98911        -5.21480
| 94>    H      -12.32335        12.04516        -5.10386
| 95>    H      -13.66796        11.06845        -5.71741
| 96>    H      -12.10064        11.03591        -6.54105
| 97>    H       -7.51286         9.13021        -6.53241
| 98>    H       -3.05646         9.20281        -6.16002
| 99>    H       -5.74623         8.63618        -7.51796
|100>    H       -1.84650         8.29616        -7.84186
|101>    H        0.18697         5.63618       -13.05396
|102>    H       -1.70423         4.93729       -14.72163
|103> *
|104>
|105>                          ****END OF INPUT****

CARTESIAN COORDINATES (ANGSTROEM)
---------------------------------
  C    -17.653870   10.577420    0.514560
  C    -16.835770   10.933940   -0.512260
  C    -15.516140   11.148320   -0.067600
  C    -15.377470   10.946020    1.312270
  S    -16.849880   10.496850    2.050220
  C    -14.021290   11.181340    1.673320
  C    -13.311810   11.530120    0.517340
  C    -14.235010   11.547810   -0.610650
  C    -13.941140   11.919020   -1.892050
  C    -12.663410   12.393390   -2.255120
  N    -11.635900   12.809010   -2.550540
  C    -14.898880   11.883160   -2.924760
  N    -15.667760   11.841020   -3.775370
  C    -11.954770   11.747720    0.752150
  C    -11.629850   11.587030    2.085350
  S    -13.024040   11.152450    3.062700
  C    -10.348550   11.740060    2.672810
  C    -10.009940   11.806520    4.007480
  C     -8.645330   11.987510    4.222980
  C     -7.905250   12.042000    3.059120
  S     -8.938090   11.881430    1.662880
  C     -6.497670   12.205880    2.908950
  C     -5.856880   12.014800    1.708330
  C     -4.486970   12.150750    1.495490
  C     -3.605360   12.555100    2.601710
  C     -4.018060   12.794120    3.864500
  S     -5.649290   12.665910    4.379970
  C     -2.294230   12.596130    2.053430
  C     -2.339770   12.222940    0.713230
  C     -1.060960   12.233340    0.114000
  C     -0.099660   12.606810    0.998610
  S     -0.700090   12.957710    2.584830
  C     -3.705270   11.936700    0.340270
  C     -4.018860   11.483460   -0.957630
  C     -5.219300   11.212660   -1.544160
  C     -5.313240   10.690770   -2.849940
  S     -3.903270   10.284280   -3.803470
  C     -4.838270    9.696980   -5.157360
  C     -6.204310    9.829260   -4.875900
  C     -6.446420   10.379850   -3.587360
  S     -8.139750   10.530010   -3.234910
  C     -8.513990    9.861510   -4.803920
  C     -9.892920    9.673650   -5.254590
  O    -10.178350    9.221240   -6.338410
  O    -10.782530   10.042140   -4.326640
  C    -12.157250    9.939110   -4.692710
  C    -12.591710   11.101380   -5.573470
  C     -7.414080    9.545470   -5.547340
  C     -4.133260    9.180130   -6.259520
  C     -4.674800    8.658610   -7.395480
  C     -3.921030    8.117060   -8.461060
  C     -2.544830    7.975620   -8.592250
  C     -2.191050    7.372530   -9.794210
  C     -3.296130    7.047920  -10.597670
  S     -4.774930    7.487530   -9.865880
  C     -2.820330    6.439160  -11.789030
  C     -1.419870    6.379030  -11.736360
  C     -0.974030    6.958800  -10.488690
  C      0.309620    7.092630  -10.041120
  C      1.417930    6.653530  -10.793580
  N      2.324780    6.298550  -11.399580
  C      0.612630    7.673920   -8.793520
  N      0.864750    8.152580   -7.781770
  C     -0.864330    5.783150  -12.886120
  C     -1.830090    5.410880  -13.768750
  S     -3.441440    5.772230  -13.233000
  H    -18.700300   10.350650    0.474730
  H    -17.163970   11.033640   -1.530780
  H    -11.226790   12.014510    0.007310
  H    -10.740700   11.735100    4.793600
  H     -8.199800   12.067210    5.198570
  H     -6.487710   11.722230    0.881860
  H     -3.338010   13.078560    4.651770
  H     -0.854930   11.982040   -0.910590
  H      0.953780   12.703480    0.822280
  H     -3.146260   11.315870   -1.580790
  H     -6.163530   11.382640   -1.049770
  H    -12.699310    9.931990   -3.744690
  H    -12.314640    8.989110   -5.214800
  H    -12.323350   12.045160   -5.103860
  H    -13.667960   11.068450   -5.717410
  H    -12.100640   11.035910   -6.541050
  H     -7.512860    9.130210   -6.532410
  H     -3.056460    9.202810   -6.160020
  H     -5.746230    8.636180   -7.517960
  H     -1.846500    8.296160   -7.841860
  H      0.186970    5.636180  -13.053960
  H     -1.704230    4.937290  -14.721630

 Total Charge           Charge          ....    0
 Multiplicity           Mult            ....    1
 Number of Electrons    NEL             ....  516
 Basis Dimension        Dim             .... 1070

ORBITAL ENERGIES
----------------

  NO   OCC          E(Eh)            E(eV)
   0   2.0000     -88.989480     -2421.5269
   1   2.0000     -88.987757     -2421.4800
   2   2.0000     -88.977687     -2421.2059
   3   2.0000     -88.976159     -2421.1644
   4   2.0000     -88.973085     -2421.0807
   5   2.0000     -88.967710     -2420.9345
   6   2.0000     -88.955470     -2420.6014
   7   2.0000     -88.952357     -2420.5167
   8   2.0000     -88.948997     -2420.4253
   9   2.0000     -19.253205      -523.9063
  10   2.0000     -19.195579      -522.3383
  11   2.0000     -14.431975      -392.7140
  12   2.0000     -14.429985      -392.6599
  13   2.0000     -14.420752      -392.4086
  14   2.0000     -14.420152      -392.3923
  15   2.0000     -10.396979      -282.9162
  16   2.0000     -10.363394      -282.0023
  17   2.0000     -10.352614      -281.7090
  18   2.0000     -10.351466      -281.6777
  19   2.0000     -10.341063      -281.3946
  20   2.0000     -10.332379      -281.1583
  21   2.0000     -10.330260      -281.1007
  22   2.0000     -10.330090      -281.0960
  23   2.0000     -10.328768      -281.0601
  24   2.0000     -10.326065      -280.9865
  25   2.0000     -10.324332      -280.9393
  26   2.0000     -10.323699      -280.9221
  27   2.0000     -10.321739      -280.8688
  28   2.0000     -10.320876      -280.8453
  29   2.0000     -10.320474      -280.8344
  30   2.0000     -10.318109      -280.7700
  31   2.0000     -10.316839      -280.7354
  32   2.0000     -10.316475      -280.7256
  33   2.0000     -10.315563      -280.7007
  34   2.0000     -10.311222      -280.5826
  35   2.0000     -10.311182      -280.5815
  36   2.0000     -10.304863      -280.4096
  37   2.0000     -10.303218      -280.3648
  38   2.0000     -10.301228      -280.3107
  39   2.0000     -10.300705      -280.2964
  40   2.0000     -10.300677      -280.2957
  41   2.0000     -10.298365      -280.2328
  42   2.0000     -10.298052      -280.2242
  43   2.0000     -10.297819      -280.2179
  44   2.0000     -10.296815      -280.1906
  45   2.0000     -10.294923      -280.1391
  46   2.0000     -10.293894      -280.1111
  47   2.0000     -10.292248      -280.0663
  48   2.0000     -10.291179      -280.0372
  49   2.0000     -10.288121      -279.9540
  50   2.0000     -10.287488      -279.9368
  51   2.0000     -10.286929      -279.9216
  52   2.0000     -10.286394      -279.9070
  53   2.0000     -10.286140      -279.9001
  54   2.0000     -10.285289      -279.8770
  55   2.0000     -10.284310      -279.8503
  56   2.0000     -10.283524      -279.8289
  57   2.0000     -10.282166      -279.7920
  58   2.0000     -10.282050      -279.7888
  59   2.0000     -10.281320      -279.7689
  60   2.0000     -10.277400      -279.6623
  61   2.0000     -10.275152      -279.6011
  62   2.0000     -10.272161      -279.5197
  63   2.0000     -10.270342      -279.4702
  64   2.0000     -10.267804      -279.4012
  65   2.0000     -10.246640      -278.8253
  66   2.0000      -8.083885      -219.9737
  67   2.0000      -8.082717      -219.9419
  68   2.0000      -8.072624      -219.6673
  69   2.0000      -8.070811      -219.6179
  70   2.0000      -8.068477      -219.5544
  71   2.0000      -8.062748      -219.3985
  72   2.0000      -8.050531      -219.0661
  73   2.0000      -8.047658      -218.9879
  74   2.0000      -8.044135      -218.8920
  75   2.0000      -6.053208      -164.7162
  76   2.0000      -6.051989      -164.6830
  77   2.0000      -6.049014      -164.6020
  78   2.0000      -6.047515      -164.5613
  79   2.0000      -6.046181      -164.5250
  80   2.0000      -6.045342      -164.5021
  81   2.0000      -6.041914      -164.4088
  82   2.0000      -6.039973      -164.3560
  83   2.0000      -6.038103      -164.3051
  84   2.0000      -6.037453      -164.2874
  85   2.0000      -6.035923      -164.2458
  86   2.0000      -6.035226      -164.2268
  87   2.0000      -6.033538      -164.1809
  88   2.0000      -6.033271      -164.1737
  89   2.0000      -6.032164      -164.1435
  90   2.0000      -6.030254      -164.0915
  91   2.0000      -6.028118      -164.0334
  92   2.0000      -6.024608      -163.9379
  93   2.0000      -6.019742      -163.8055
  94   2.0000      -6.017114      -163.7340
  95   2.0000      -6.015811      -163.6985
  96   2.0000      -6.013872      -163.6458
  97   2.0000      -6.012899      -163.6193
  98   2.0000      -6.012674      -163.6132
  99   2.0000      -6.009686      -163.5319
 100   2.0000      -6.009683      -163.5318
 101   2.0000      -6.005366      -163.4143
 102   2.0000      -1.185012       -32.2458
 103   2.0000      -1.089988       -29.6601
 104   2.0000      -1.042692       -28.3731
 105   2.0000      -1.031288       -28.0628
 106   2.0000      -1.022358       -27.8198
 107   2.0000      -1.011414       -27.5220
 108   2.0000      -1.008593       -27.4452
 109   2.0000      -1.007318       -27.4105
 110   2.0000      -1.002224       -27.2719
 111   2.0000      -0.999524       -27.1984
 112   2.0000      -0.998082       -27.1592
 113   2.0000      -0.987827       -26.8801
 114   2.0000      -0.982473       -26.7345
 115   2.0000      -0.964865       -26.2553
 116   2.0000      -0.954533       -25.9742
 117   2.0000      -0.947298       -25.7773
 118   2.0000      -0.944603       -25.7039
 119   2.0000      -0.924098       -25.1460
 120   2.0000      -0.912395       -24.8275
 121   2.0000      -0.909032       -24.7360
 122   2.0000      -0.896712       -24.4008
 123   2.0000      -0.889599       -24.2072
 124   2.0000      -0.871166       -23.7056
 125   2.0000      -0.868557       -23.6346
 126   2.0000      -0.856428       -23.3046
 127   2.0000      -0.854099       -23.2412
 128   2.0000      -0.852291       -23.1920
 129   2.0000      -0.847268       -23.0553
 130   2.0000      -0.843256       -22.9462
 131   2.0000      -0.840581       -22.8734
 132   2.0000      -0.835388       -22.7321
 133   2.0000      -0.830694       -22.6043
 134   2.0000      -0.813858       -22.1462
 135   2.0000      -0.806245       -21.9390
 136   2.0000      -0.801862       -21.8198
 137   2.0000      -0.785368       -21.3710
 138   2.0000      -0.778214       -21.1763
 139   2.0000      -0.772245       -21.0139
 140   2.0000      -0.766285       -20.8517
 141   2.0000      -0.755839       -20.5674
 142   2.0000      -0.746958       -20.3258
 143   2.0000      -0.736910       -20.0523
 144   2.0000      -0.729935       -19.8625
 145   2.0000      -0.708298       -19.2738
 146   2.0000      -0.704603       -19.1732
 147   2.0000      -0.698752       -19.0140
 148   2.0000      -0.692780       -18.8515
 149   2.0000      -0.687552       -18.7092
 150   2.0000      -0.680285       -18.5115
 151   2.0000      -0.672395       -18.2968
 152   2.0000      -0.665630       -18.1127
 153   2.0000      -0.662719       -18.0335
 154   2.0000      -0.657777       -17.8990
 155   2.0000      -0.644646       -17.5417
 156   2.0000      -0.638540       -17.3756
 157   2.0000      -0.632803       -17.2194
 158   2.0000      -0.625220       -17.0131
 159   2.0000      -0.621952       -16.9242
 160   2.0000      -0.620339       -16.8803
 161   2.0000      -0.619366       -16.8538
 162   2.0000      -0.617057       -16.7910
 163   2.0000      -0.614764       -16.7286
 164   2.0000      -0.610149       -16.6030
 165   2.0000      -0.604122       -16.4390
 166   2.0000      -0.600092       -16.3293
 167   2.0000      -0.595266       -16.1980
 168   2.0000      -0.578415       -15.7395
 169   2.0000      -0.576094       -15.6763
 170   2.0000      -0.568542       -15.4708
 171   2.0000      -0.567738       -15.4489
 172   2.0000      -0.558830       -15.2065
 173   2.0000      -0.555327       -15.1112
 174   2.0000      -0.552678       -15.0391
 175   2.0000      -0.547701       -14.9037
 176   2.0000      -0.544963       -14.8292
 177   2.0000      -0.540740       -14.7143
 178   2.0000      -0.539146       -14.6709
 179   2.0000      -0.534082       -14.5331
 180   2.0000      -0.532254       -14.4834
 181   2.0000      -0.524631       -14.2759
 182   2.0000      -0.516440       -14.0531
 183   2.0000      -0.515508       -14.0277
 184   2.0000      -0.513037       -13.9604
 185   2.0000      -0.511685       -13.9237
 186   2.0000      -0.505175       -13.7465
 187   2.0000      -0.503631       -13.7045
 188   2.0000      -0.502783       -13.6814
 189   2.0000      -0.501047       -13.6342
 190   2.0000      -0.500051       -13.6071
 191   2.0000      -0.494850       -13.4656
 192   2.0000      -0.494000       -13.4424
 193   2.0000      -0.493384       -13.4257
 194   2.0000      -0.492645       -13.4056
 195   2.0000      -0.487010       -13.2522
 196   2.0000      -0.482274       -13.1233
 197   2.0000      -0.480420       -13.0729
 198   2.0000      -0.477612       -12.9965
 199   2.0000      -0.475881       -12.9494
 200   2.0000      -0.474511       -12.9121
 201   2.0000      -0.472315       -12.8523
 202   2.0000      -0.470465       -12.8020
 203   2.0000      -0.465813       -12.6754
 204   2.0000      -0.463193       -12.6041
 205   2.0000      -0.462874       -12.5954
 206   2.0000      -0.457881       -12.4596
 207   2.0000      -0.455588       -12.3972
 208   2.0000      -0.454242       -12.3605
 209   2.0000      -0.452530       -12.3140
 210   2.0000      -0.452135       -12.3032
 211   2.0000      -0.451556       -12.2875
 212   2.0000      -0.448419       -12.2021
 213   2.0000      -0.447623       -12.1805
 214   2.0000      -0.445785       -12.1304
 215   2.0000      -0.443802       -12.0765
 216   2.0000      -0.441610       -12.0168
 217   2.0000      -0.440401       -11.9839
 218   2.0000      -0.438922       -11.9437
 219   2.0000      -0.436674       -11.8825
 220   2.0000      -0.434734       -11.8297
 221   2.0000      -0.431320       -11.7368
 222   2.0000      -0.431162       -11.7325
 223   2.0000      -0.429755       -11.6942
 224   2.0000      -0.429438       -11.6856
 225   2.0000      -0.427476       -11.6322
 226   2.0000      -0.425492       -11.5782
 227   2.0000      -0.425102       -11.5676
 228   2.0000      -0.422957       -11.5092
 229   2.0000      -0.419889       -11.4258
 230   2.0000      -0.415869       -11.3164
 231   2.0000      -0.414928       -11.2908
 232   2.0000      -0.413726       -11.2580
 233   2.0000      -0.407966       -11.1013
 234   2.0000      -0.404989       -11.0203
 235   2.0000      -0.401757       -10.9324
 236   2.0000      -0.396982       -10.8024
 237   2.0000      -0.395538       -10.7631
 238   2.0000      -0.393474       -10.7070
 239   2.0000      -0.373006       -10.1500
 240   2.0000      -0.369890       -10.0652
 241   2.0000      -0.367934       -10.0120
 242   2.0000      -0.348346        -9.4790
 243   2.0000      -0.347469        -9.4551
 244   2.0000      -0.346515        -9.4292
 245   2.0000      -0.335918        -9.1408
 246   2.0000      -0.334273        -9.0960
 247   2.0000      -0.328333        -8.9344
 248   2.0000      -0.323986        -8.8161
 249   2.0000      -0.320981        -8.7343
 250   2.0000      -0.318166        -8.6577
 251   2.0000      -0.310483        -8.4487
 252   2.0000      -0.303566        -8.2604
 253   2.0000      -0.283413        -7.7121
 254   2.0000      -0.278050        -7.5661
 255   2.0000      -0.260454        -7.0873
 256   2.0000      -0.241392        -6.5686
 257   2.0000      -0.205841        -5.6012
 258   0.0000      -0.103237        -2.8092
 259   0.0000      -0.093514        -2.5447
 260   0.0000      -0.073235        -1.9928
 261   0.0000      -0.048770        -1.3271
 262   0.0000      -0.033692        -0.9168

MULLIKEN ATOMIC CHARGES
-----------------------
   0 C :   -0.083011
   1 C :    0.037565
   2 C :   -0.032926
   3 C :   -0.119766
   4 S :    0.180296
   5 C :   -0.106514
   6 C :    0.014304
   7 C :    0.298753
   8 C :   -0.313787
   9 C :   -0.182135
  10 N :    0.177087
  11 C :   -0.190552
  12 N :    0.175969
  13 C :   -0.060247
  14 C :   -0.034378
  15 S :    0.187634
  16 C :   -0.050475
  17 C :   -0.002061
  18 C :   -0.002590
  19 C :   -0.062235
  20 S :    0.113054
  21 C :   -0.010872
  22 C :   -0.086384
  23 C :    0.056690
  24 C :    0.056595
  25 C :   -0.126455
  26 S :    0.122891
  27 C :   -0.108533
  28 C :    0.042247
  29 C :    0.009166
  30 C :   -0.069817
  31 S :    0.124809
  32 C :    0.110437
  33 C :   -0.041995
  34 C :   -0.008155
  35 C :   -0.120655
  36 S :    0.119348
  37 C :   -0.112617
  38 C :    0.147414
  39 C :   -0.047976
  40 S :    0.163502
  41 C :   -0.120487
  42 C :    0.208589
  43 O :   -0.210863
  44 O :   -0.302709
  45 C :    0.178276
  46 C :   -0.037006
  47 C :   -0.028287
  48 C :    0.058285
  49 C :    0.034818
  50 C :   -0.076691
  51 C :   -0.039712
  52 C :    0.005789
  53 C :   -0.109220
  54 S :    0.182176
  55 C :   -0.114896
  56 C :   -0.039761
  57 C :    0.303073
  58 C :   -0.303210
  59 C :   -0.191505
  60 N :    0.169321
  61 C :   -0.183430
  62 N :    0.163216
  63 C :    0.037602
  64 C :   -0.083716
  65 S :    0.174276
  66 H :    0.035778
  67 H :    0.010719
  68 H :    0.015515
  69 H :   -0.012173
  70 H :   -0.003002
  71 H :   -0.015891
  72 H :    0.033144
  73 H :   -0.012615
  74 H :    0.027222
  75 H :   -0.020433
  76 H :   -0.026383
  77 H :    0.010997
  78 H :    0.027161
  79 H :    0.030473
  80 H :    0.031896
  81 H :    0.034528
  82 H :    0.003456
  83 H :   -0.016018
  84 H :   -0.038520
  85 H :    0.004913
  86 H :    0.009927
  87 H :    0.031754
Sum of atomic charges:    0.0000000

LOEWDIN ATOMIC CHARGES
----------------------
   0 C :   -0.179562
   1 C :   -0.033714
   2 C :   -0.081661
   3 C :   -0.179739
   4 S :    0.476034
   5 C :   -0.184861
   6 C :   -0.068774
   7 C :    0.086760
   8 C :   -0.109950
   9 C :   -0.016999
  10 N :   -0.028960
  11 C :   -0.015432
  12 N :   -0.036101
  13 C :   -0.037441
  14 C :   -0.176496
  15 S :    0.474711
  16 C :   -0.183307
  17 C :   -0.059564
  18 C :   -0.062897
  19 C :   -0.181039
  20 S :    0.447329
  21 C :   -0.179664
  22 C :   -0.028274
  23 C :   -0.023428
  24 C :   -0.043696
  25 C :   -0.144533
  26 S :    0.450513
  27 C :   -0.205362
  28 C :   -0.037997
  29 C :   -0.063561
  30 C :   -0.164433
  31 S :    0.418383
  32 C :   -0.050329
  33 C :   -0.021968
  34 C :   -0.054603
  35 C :   -0.182631
  36 S :    0.449736
  37 C :   -0.167498
  38 C :   -0.074702
  39 C :   -0.187114
  40 S :    0.419638
  41 C :   -0.199342
  42 C :    0.071906
  43 O :   -0.183995
  44 O :   -0.088727
  45 C :    0.084450
  46 C :   -0.072953
  47 C :   -0.012214
  48 C :   -0.034497
  49 C :   -0.052792
  50 C :   -0.158142
  51 C :   -0.033498
  52 C :   -0.065185
  53 C :   -0.195458
  54 S :    0.472333
  55 C :   -0.176876
  56 C :   -0.084269
  57 C :    0.086021
  58 C :   -0.109028
  59 C :   -0.016663
  60 N :   -0.038026
  61 C :   -0.015079
  62 N :   -0.041150
  63 C :   -0.034301
  64 C :   -0.182970
  65 S :    0.471289
  66 H :    0.027385
  67 H :    0.042136
  68 H :    0.036565
  69 H :    0.027494
  70 H :    0.027238
  71 H :    0.026455
  72 H :    0.035624
  73 H :    0.031066
  74 H :    0.023547
  75 H :    0.021358
  76 H :    0.025946
  77 H :    0.015762
  78 H :    0.022277
  79 H :    0.027076
  80 H :    0.034055
  81 H :    0.031259
  82 H :    0.035154
  83 H :    0.030645
  84 H :    0.026575
  85 H :    0.037260
  86 H :    0.041666
  87 H :    0.025810

  Mayer bond orders larger than 0.100000
B(  0-C ,  1-C ) :   1.5544 B(  0-C ,  4-S ) :   1.1448 B(  0-C , 66-H ) :   0.9642
B(  1-C ,  2-C ) :   1.2727 B(  1-C , 67-H ) :   0.9965 B(  2-C ,  3-C ) :   1.4537
B(  2-C ,  7-C ) :   1.0214 B(  3-C ,  4-S ) :   1.1399 B(  3-C ,  5-C ) :   1.1864
B(  5-C ,  6-C ) :   1.4632 B(  5-C , 15-S ) :   1.1188 B(  6-C ,  7-C ) :   0.9954
B(  6-C , 13-C ) :   1.2926 B(  7-C ,  8-C ) :   1.7016 B(  8-C ,  9-C ) :   1.1461
B(  8-C , 11-C ) :   1.1416 B(  9-C , 10-N ) :   2.9270 B( 11-C , 12-N ) :   2.9608
B( 13-C , 14-C ) :   1.4669 B( 13-C , 68-H ) :   0.9867 B( 14-C , 15-S ) :   1.1060
B( 14-C , 16-C ) :   1.1494 B( 16-C , 17-C ) :   1.5015 B( 16-C , 20-S ) :   1.1291
B( 17-C , 18-C ) :   1.2703 B( 17-C , 69-H ) :   0.9941 B( 18-C , 19-C ) :   1.5009
B( 18-C , 70-H ) :   0.9862 B( 19-C , 20-S ) :   1.1198 B( 19-C , 21-C ) :   1.1466
B( 21-C , 22-C ) :   1.5340 B( 21-C , 26-S ) :   1.0523 B( 22-C , 23-C ) :   1.2402
B( 22-C , 71-H ) :   0.9707 B( 23-C , 24-C ) :   1.0508 B( 23-C , 32-C ) :   1.3711
B( 24-C , 25-C ) :   1.6195 B( 24-C , 27-C ) :   1.1751 B( 25-C , 26-S ) :   1.1265
B( 25-C , 72-H ) :   0.9397 B( 27-C , 28-C ) :   1.4482 B( 27-C , 31-S ) :   1.0725
B( 28-C , 29-C ) :   1.2213 B( 28-C , 32-C ) :   1.0955 B( 29-C , 30-C ) :   1.5884
B( 29-C , 73-H ) :   0.9953 B( 30-C , 31-S ) :   1.1543 B( 30-C , 74-H ) :   0.9656
B( 32-C , 33-C ) :   1.1838 B( 33-C , 34-C ) :   1.5734 B( 33-C , 75-H ) :   0.9566
B( 34-C , 35-C ) :   1.2020 B( 34-C , 76-H ) :   0.9781 B( 35-C , 36-S ) :   1.1124
B( 35-C , 39-C ) :   1.4535 B( 36-S , 37-C ) :   1.1209 B( 37-C , 38-C ) :   1.3402
B( 37-C , 48-C ) :   1.1950 B( 38-C , 39-C ) :   1.2535 B( 38-C , 47-C ) :   1.1329
B( 39-C , 40-S ) :   1.0411 B( 40-S , 41-C ) :   1.0672 B( 41-C , 42-C ) :   0.9596
B( 41-C , 47-C ) :   1.6324 B( 42-C , 43-O ) :   2.0963 B( 42-C , 44-O ) :   1.2434
B( 44-O , 45-C ) :   0.8981 B( 45-C , 46-C ) :   1.1221 B( 45-C , 77-H ) :   0.9578
B( 45-C , 78-H ) :   0.9452 B( 46-C , 79-H ) :   0.9643 B( 46-C , 80-H ) :   0.9591
B( 46-C , 81-H ) :   0.9604 B( 47-C , 82-H ) :   0.9998 B( 48-C , 49-C ) :   1.6387
B( 48-C , 83-H ) :   0.9497 B( 49-C , 50-C ) :   1.1530 B( 49-C , 84-H ) :   0.9588
B( 50-C , 51-C ) :   1.4366 B( 50-C , 54-S ) :   1.1110 B( 51-C , 52-C ) :   1.3134
B( 51-C , 85-H ) :   0.9890 B( 52-C , 53-C ) :   1.4456 B( 52-C , 57-C ) :   0.9925
B( 53-C , 54-S ) :   1.1152 B( 53-C , 55-C ) :   1.1942 B( 55-C , 56-C ) :   1.4484
B( 55-C , 65-S ) :   1.1397 B( 56-C , 57-C ) :   1.0240 B( 56-C , 63-C ) :   1.2720
B( 57-C , 58-C ) :   1.7018 B( 58-C , 59-C ) :   1.1307 B( 58-C , 61-C ) :   1.1354
B( 59-C , 60-N ) :   3.0025 B( 61-C , 62-N ) :   2.9863 B( 63-C , 64-C ) :   1.5562
B( 63-C , 86-H ) :   0.9959 B( 64-C , 65-S ) :   1.1394 B( 64-C , 87-H ) :   0.9641

-----------------------------------------------------------------------------
         ABSORPTION SPECTRUM VIA TRANSITION ELECTRIC DIPOLE MOMENTS
-----------------------------------------------------------------------------
State   Energy  Wavelength   fosc         T2         TX        TY        TZ
        (cm-1)    (nm)                  (au**2)     (au)      (au)      (au)
-----------------------------------------------------------------------------
   0   10305.3    970.4   0.332052346  10.60772   1.86565  -0.99895  -2.47572
   1   10713.8    933.4   0.056964811   1.75041   0.65663   0.53335   1.01724
   2   14587.1    685.5   0.387321689   8.74137   0.58034  -0.97727  -2.72938
   3   14720.0    679.3   0.617233791  13.80439   1.93550  -1.04708  -2.99363
   4   18816.4    531.5   0.011428805   0.19996  -0.38463  -0.14359  -0.17719
   5   19987.4    500.3   0.186721765   3.07549   0.36362   0.84890   1.49085
   6   20540.9    486.8   0.054181529   0.86837   0.15039  -0.46479  -0.79355
   7   21341.4    468.6   0.096764501   1.49269  -0.82378  -0.45183  -0.78097
   8   22315.1    448.1   0.208397535   3.07446  -1.02432  -0.63669  -1.27273
   9   25471.5    392.6   0.003998048   0.05167  -0.07800   0.12570   0.17259
  10   26016.1    384.4   0.463585192   5.86628   2.41474   0.01427   0.18742
  11   26831.3    372.7   0.111155617   1.36385  -1.15472   0.07717  -0.15658
  12   27963.5    357.6   0.524640190   6.17655   2.00667   0.52360   1.36955
  13   28816.6    347.0   0.151892275   1.73528   0.44936  -0.46579  -1.14734
  14   29114.7    343.5   0.146069565   1.65167   1.17953   0.08253   0.50355
  15   29246.1    341.9   0.089134323   1.00335   0.98593   0.03690   0.17302
  16   29803.8    335.5   0.231096122   2.55268   1.58185  -0.15257  -0.16476
  17   30151.5    331.7   0.053490785   0.58404  -0.16592   0.13537   0.73361
  18   30651.5    326.2   0.123782390   1.32948   1.12930  -0.07847   0.21913
  19   31232.5    320.2   0.087030620   0.91736   0.56600  -0.15959   0.75600
  20   31265.5    319.8   0.131563376   1.38531   1.14520  -0.19420   0.19004
  21   31604.5    316.4   0.269771614   2.81011  -1.30733  -0.55726  -0.88907
  22   31855.2    313.9   0.374402901   3.86932   1.45975   0.70950  -1.11133
  23   32019.1    312.3   0.543001716   5.58299  -0.48656  -0.25145   2.29848
  24   32752.8    305.3   0.105031058   1.05571  -0.69901   0.28739   0.69606
  25   32893.1    304.0   0.287710886   2.87957   1.01526   0.57920   1.23018
  26   33202.4    301.2   0.074262257   0.73633   0.83281  -0.17806   0.10517
  27   33482.7    298.7   0.114923526   1.12996   0.95528   0.16930   0.43444
  28   33577.8    297.8   0.033831356   0.33170  -0.11532  -0.33055  -0.45731
  29   34555.0    289.4   0.004130645   0.03935  -0.02184  -0.17028  -0.09940
  30   34654.7    288.6   0.031450238   0.29877  -0.54624   0.00961   0.01728
  31   34956.6    286.1   0.090231954   0.84978   0.27452   0.16108  -0.86514
  32   35298.9    283.3   0.331117023   3.08813   1.72059   0.05377   0.35328
  33   35785.9    279.4   0.131725125   1.21180  -0.87548  -0.17773  -0.64324
  34   36097.6    277.0   0.133839870   1.22063  -0.76039  -0.28474  -0.74924
  35   37106.5    269.5   0.051710094   0.45878  -0.56519  -0.16956  -0.33255
  36   37291.9    268.2   0.001442899   0.01274  -0.04982  -0.01897   0.09948
  37   37436.7    267.1   0.168599710   1.48264   0.36728  -0.14283  -1.15210
  38   38194.3    261.8   0.010233124   0.08820  -0.29145  -0.04980   0.02794
  39   38424.9    260.2   0.036947988   0.31656  -0.55507  -0.00586   0.09179
  40   38461.1    260.0   0.004488253   0.03842   0.15567  -0.03175  -0.11479
  41   38609.8    259.0   0.292197755   2.49146   1.42761   0.07272  -0.66941
  42   39036.8    256.2   0.002040015   0.01720  -0.05042  -0.04348   0.11301
  43   39235.0    254.9   0.002850876   0.02392  -0.10513   0.01615  -0.11229
  44   39733.7    251.7   0.024440440   0.20250  -0.20105   0.06177  -0.39782
  45   39820.7    251.1   0.015570629   0.12873   0.34446   0.06964   0.07227
  46   40179.0    248.9   0.022199914   0.18190  -0.29921  -0.03627   0.30175

FINAL SINGLE POINT ENERGY     -5905.651567813640

DIPOLE MOMENT
-------------
                                X             Y             Z
Electronic contribution:      8.63652      -3.04674       7.84936
Nuclear contribution   :    -11.25698       2.88590      -5.07500
                        -----------------------------------------
Total Dipole Moment    :     -2.62046      -0.16085       2.77436
                        -----------------------------------------
Magnitude (a.u.)       :      3.81965
Magnitude (Debye)      :      9.70878

Rotational constants in cm-1:     0.000989     0.000381     0.000280
Rotational constants in MHz :    29.642404    11.425813     8.398500

                             ****ORCA TERMINATED NORMALLY****
TOTAL RUN TIME: 0 days 0 hours 7 minutes 25 seconds 833 msec
