                         Program Version 4.2.0 -  RELEASE  -
|  1> # ORCA input file
|  2> # SCF done       -201.913704390798          0.000500952946
|  3> ! CAM-B3LYP def2-SVP def2/J RIJCOSX Grid4 TightSCF
|  4> %maxcore 5000
|  5> %tddft
|  6>     Mode sTDDFT
|  7>     Ethresh 5.0
|  8>     maxcore 5000
|  9> end
| 10>
| 11> %pal
| 12>   nprocs 6
| 13>   end
| 14> * xyz 0 1
| 15>    C       -1.60890         1.80195        -3.09841
| 16>    C       -2.87932         1.28306        -3.15430
| 17>    N       -3.99303         2.17106        -3.23442
| 18>    O       -3.77973         3.33715        -2.97085
| 19>    O       -5.07434         1.73154        -3.56700
| 20>    C       -2.92120        -0.14154        -3.12322
| 21>    C       -4.15696        -0.97141        -3.13244
| 22>    C       -1.64642        -0.66512        -3.04705
| 23>    S       -0.42591         0.59156        -3.02387
| 24>    C       -1.21187        -2.02270        -2.99496
| 25>    C        0.10171        -2.44534        -2.91646
| 26>    C        0.20991        -3.83625        -2.89241
| 27>    C       -1.03442        -4.48023        -2.95199
| 28>    S       -2.33128        -3.37663        -3.03809
| 29>    C       -0.81992        -5.88482        -2.92487
| 30>    C        0.56030        -6.12413        -2.85265
| 31>    C        1.25519        -4.84674        -2.82387
| 32>    C        2.59980        -4.63753        -2.74130
| 33>    C        3.15428        -3.34033        -2.71324
| 34>    N        3.60267        -2.28540        -2.68910
| 35>    C        3.52445        -5.70151        -2.67380
| 36>    N        4.28051        -6.56133        -2.61710
| 37>    C        0.87443        -7.48530        -2.82671
| 38>    C       -0.25473        -8.27629        -2.87222
| 39>    S       -1.73177        -7.32850        -2.95322
| 40>    C       -0.31909        -9.69670        -2.86195
| 41>    C       -1.43466       -10.48328        -2.83243
| 42>    C       -1.15366       -11.87006        -2.82868
| 43>    C       -2.06886       -12.94278        -2.81767
| 44>    C       -3.50313       -12.74700        -2.87089
| 45>    C       -4.47343       -13.46578        -2.23205
| 46>    C       -5.77780       -13.03876        -2.56069
| 47>    C       -5.82735       -12.01105        -3.45743
| 48>    S       -4.22419       -11.53863        -3.90254
| 49>    C       -7.01815       -11.31625        -4.00806
| 50>   Cl       -7.18355       -13.76541        -1.88419
| 51>    C       -1.52046       -14.22110        -2.78031
| 52>    C       -0.12591       -14.47450        -2.79856
| 53>    C        0.78881       -13.40252        -2.83897
| 54>    C        0.24076       -12.12408        -2.82928
| 55>    S        1.15500       -10.64149        -2.87271
| 56>    C        2.22162       -13.59934        -2.91999
| 57>    C        3.20573       -12.86584        -2.32062
| 58>    C        4.50244       -13.29527        -2.67602
| 59>    C        4.53153       -14.34221        -3.55113
| 60>    S        2.91842       -14.82640        -3.94626
| 61>    C        5.70778       -15.02644        -4.14383
| 62>   Cl        5.92142       -12.54986        -2.04904
| 63>    C        0.15799       -15.85974        -2.76425
| 64>    C       -0.95626       -16.64902        -2.75014
| 65>    S       -2.43189       -15.70637        -2.76267
| 66>    C       -1.01286       -18.06934        -2.71945
| 67>    C       -2.13828       -18.86661        -2.66538
| 68>    C       -1.81372       -20.22486        -2.65363
| 69>    C       -0.42931       -20.45685        -2.70196
| 70>    S        0.47158       -19.00794        -2.75785
| 71>    C       -0.19255       -21.85660        -2.68692
| 72>    C       -1.44186       -22.50578        -2.63142
| 73>    C       -2.49868       -21.50605        -2.60561
| 74>    C       -3.84351       -21.72519        -2.54774
| 75>    C       -4.77763       -20.66802        -2.52349
| 76>    N       -5.53999       -19.81199        -2.50282
| 77>    C       -4.38823       -23.02579        -2.50797
| 78>    N       -4.83284       -24.08241        -2.47693
| 79>    C       -1.31718       -23.88611        -2.61676
| 80>    C        0.01136       -24.30272        -2.66857
| 81>    S        1.12161       -22.93888        -2.72858
| 82>    C        0.39002       -25.67155        -2.65972
| 83>    C        1.60231       -26.34385        -2.86444
| 84>    N        2.82330       -25.70759        -3.10633
| 85>    O        2.89481       -24.49447        -2.91168
| 86>    O        3.77118       -26.36259        -3.49400
| 87>    C        1.48634       -27.77314        -2.81089
| 88>    C        2.60313       -28.74190        -2.98009
| 89>    C        0.21045       -28.15421        -2.56044
| 90>    S       -0.87826       -26.83288        -2.40123
| 91>    H       -1.34612         2.84145        -3.11357
| 92>    H       -5.04109        -0.34243        -3.14778
| 93>    H       -4.18927        -1.61365        -2.25223
| 94>    H       -4.17623        -1.61194        -4.01430
| 95>    H        0.93146        -1.76254        -2.88017
| 96>    H        1.86726        -7.89473        -2.77566
| 97>    H       -2.42640       -10.07068        -2.80147
| 98>    H       -4.27883       -14.24800        -1.52251
| 99>    H       -7.88853       -11.96371        -3.93103
|100>    H       -6.85882       -11.04763        -5.05008
|101>    H       -7.22029       -10.40130        -3.44933
|102>    H        3.02742       -12.07170        -1.62001
|103>    H        5.85085       -14.71463        -5.17910
|104>    H        5.57070       -16.10599        -4.13385
|105>    H        6.60178       -14.77176        -3.57980
|106>    H        1.15119       -16.26904        -2.73901
|107>    H       -3.13455       -18.46318        -2.63630
|108>    H       -2.14169       -24.57565        -2.57903
|109>    H        3.42183       -28.50863        -2.30218
|110>    H        3.00143       -28.68972        -3.99163
|111>    H        2.24914       -29.75079        -2.78476
|112>    H       -0.16392       -29.15298        -2.45877
|113> *
|114>
|115>                          ****END OF INPUT****

CARTESIAN COORDINATES (ANGSTROEM)
---------------------------------
  C     -1.608900    1.801950   -3.098410
  C     -2.879320    1.283060   -3.154300
  N     -3.993030    2.171060   -3.234420
  O     -3.779730    3.337150   -2.970850
  O     -5.074340    1.731540   -3.567000
  C     -2.921200   -0.141540   -3.123220
  C     -4.156960   -0.971410   -3.132440
  C     -1.646420   -0.665120   -3.047050
  S     -0.425910    0.591560   -3.023870
  C     -1.211870   -2.022700   -2.994960
  C      0.101710   -2.445340   -2.916460
  C      0.209910   -3.836250   -2.892410
  C     -1.034420   -4.480230   -2.951990
  S     -2.331280   -3.376630   -3.038090
  C     -0.819920   -5.884820   -2.924870
  C      0.560300   -6.124130   -2.852650
  C      1.255190   -4.846740   -2.823870
  C      2.599800   -4.637530   -2.741300
  C      3.154280   -3.340330   -2.713240
  N      3.602670   -2.285400   -2.689100
  C      3.524450   -5.701510   -2.673800
  N      4.280510   -6.561330   -2.617100
  C      0.874430   -7.485300   -2.826710
  C     -0.254730   -8.276290   -2.872220
  S     -1.731770   -7.328500   -2.953220
  C     -0.319090   -9.696700   -2.861950
  C     -1.434660  -10.483280   -2.832430
  C     -1.153660  -11.870060   -2.828680
  C     -2.068860  -12.942780   -2.817670
  C     -3.503130  -12.747000   -2.870890
  C     -4.473430  -13.465780   -2.232050
  C     -5.777800  -13.038760   -2.560690
  C     -5.827350  -12.011050   -3.457430
  S     -4.224190  -11.538630   -3.902540
  C     -7.018150  -11.316250   -4.008060
  Cl    -7.183550  -13.765410   -1.884190
  C     -1.520460  -14.221100   -2.780310
  C     -0.125910  -14.474500   -2.798560
  C      0.788810  -13.402520   -2.838970
  C      0.240760  -12.124080   -2.829280
  S      1.155000  -10.641490   -2.872710
  C      2.221620  -13.599340   -2.919990
  C      3.205730  -12.865840   -2.320620
  C      4.502440  -13.295270   -2.676020
  C      4.531530  -14.342210   -3.551130
  S      2.918420  -14.826400   -3.946260
  C      5.707780  -15.026440   -4.143830
  Cl     5.921420  -12.549860   -2.049040
  C      0.157990  -15.859740   -2.764250
  C     -0.956260  -16.649020   -2.750140
  S     -2.431890  -15.706370   -2.762670
  C     -1.012860  -18.069340   -2.719450
  C     -2.138280  -18.866610   -2.665380
  C     -1.813720  -20.224860   -2.653630
  C     -0.429310  -20.456850   -2.701960
  S      0.471580  -19.007940   -2.757850
  C     -0.192550  -21.856600   -2.686920
  C     -1.441860  -22.505780   -2.631420
  C     -2.498680  -21.506050   -2.605610
  C     -3.843510  -21.725190   -2.547740
  C     -4.777630  -20.668020   -2.523490
  N     -5.539990  -19.811990   -2.502820
  C     -4.388230  -23.025790   -2.507970
  N     -4.832840  -24.082410   -2.476930
  C     -1.317180  -23.886110   -2.616760
  C      0.011360  -24.302720   -2.668570
  S      1.121610  -22.938880   -2.728580
  C      0.390020  -25.671550   -2.659720
  C      1.602310  -26.343850   -2.864440
  N      2.823300  -25.707590   -3.106330
  O      2.894810  -24.494470   -2.911680
  O      3.771180  -26.362590   -3.494000
  C      1.486340  -27.773140   -2.810890
  C      2.603130  -28.741900   -2.980090
  C      0.210450  -28.154210   -2.560440
  S     -0.878260  -26.832880   -2.401230
  H     -1.346120    2.841450   -3.113570
  H     -5.041090   -0.342430   -3.147780
  H     -4.189270   -1.613650   -2.252230
  H     -4.176230   -1.611940   -4.014300
  H      0.931460   -1.762540   -2.880170
  H      1.867260   -7.894730   -2.775660
  H     -2.426400  -10.070680   -2.801470
  H     -4.278830  -14.248000   -1.522510
  H     -7.888530  -11.963710   -3.931030
  H     -6.858820  -11.047630   -5.050080
  H     -7.220290  -10.401300   -3.449330
  H      3.027420  -12.071700   -1.620010
  H      5.850850  -14.714630   -5.179100
  H      5.570700  -16.105990   -4.133850
  H      6.601780  -14.771760   -3.579800
  H      1.151190  -16.269040   -2.739010
  H     -3.134550  -18.463180   -2.636300
  H     -2.141690  -24.575650   -2.579030
  H      3.421830  -28.508630   -2.302180
  H      3.001430  -28.689720   -3.991630
  H      2.249140  -29.750790   -2.784760
  H     -0.163920  -29.152980   -2.458770

 Total Charge           Charge          ....    0
 Multiplicity           Mult            ....    1
 Number of Electrons    NEL             ....  614
 Basis Dimension        Dim             .... 1222

ORBITAL ENERGIES
----------------

  NO   OCC          E(Eh)            E(eV)
   0   2.0000    -101.584201     -2764.2467
   1   2.0000    -101.583420     -2764.2254
   2   2.0000     -88.997403     -2421.7425
   3   2.0000     -88.992565     -2421.6108
   4   2.0000     -88.990249     -2421.5478
   5   2.0000     -88.989820     -2421.5361
   6   2.0000     -88.987122     -2421.4627
   7   2.0000     -88.980564     -2421.2842
   8   2.0000     -88.962584     -2420.7950
   9   2.0000     -88.961529     -2420.7663
  10   2.0000     -88.960586     -2420.7406
  11   2.0000     -88.960494     -2420.7381
  12   2.0000     -19.247204      -523.7430
  13   2.0000     -19.247131      -523.7411
  14   2.0000     -19.246136      -523.7140
  15   2.0000     -19.243037      -523.6296
  16   2.0000     -14.655501      -398.7965
  17   2.0000     -14.653975      -398.7549
  18   2.0000     -14.433425      -392.7535
  19   2.0000     -14.432134      -392.7183
  20   2.0000     -14.430619      -392.6771
  21   2.0000     -14.429224      -392.6391
  22   2.0000     -10.367661      -282.1184
  23   2.0000     -10.363671      -282.0098
  24   2.0000     -10.354718      -281.7662
  25   2.0000     -10.352011      -281.6925
  26   2.0000     -10.350871      -281.6615
  27   2.0000     -10.335971      -281.2561
  28   2.0000     -10.335296      -281.2377
  29   2.0000     -10.335189      -281.2348
  30   2.0000     -10.335090      -281.2321
  31   2.0000     -10.333720      -281.1948
  32   2.0000     -10.333445      -281.1873
  33   2.0000     -10.332191      -281.1532
  34   2.0000     -10.332022      -281.1486
  35   2.0000     -10.331132      -281.1244
  36   2.0000     -10.330750      -281.1140
  37   2.0000     -10.329586      -281.0823
  38   2.0000     -10.329242      -281.0730
  39   2.0000     -10.328283      -281.0469
  40   2.0000     -10.328074      -281.0412
  41   2.0000     -10.328009      -281.0394
  42   2.0000     -10.325063      -280.9592
  43   2.0000     -10.320739      -280.8416
  44   2.0000     -10.320332      -280.8305
  45   2.0000     -10.320279      -280.8291
  46   2.0000     -10.319716      -280.8138
  47   2.0000     -10.313204      -280.6366
  48   2.0000     -10.312857      -280.6271
  49   2.0000     -10.312678      -280.6222
  50   2.0000     -10.310831      -280.5720
  51   2.0000     -10.310212      -280.5551
  52   2.0000     -10.307110      -280.4707
  53   2.0000     -10.307013      -280.4681
  54   2.0000     -10.306933      -280.4659
  55   2.0000     -10.306293      -280.4485
  56   2.0000     -10.306140      -280.4443
  57   2.0000     -10.305369      -280.4233
  58   2.0000     -10.305198      -280.4187
  59   2.0000     -10.304906      -280.4107
  60   2.0000     -10.304586      -280.4020
  61   2.0000     -10.304432      -280.3979
  62   2.0000     -10.304321      -280.3948
  63   2.0000     -10.302926      -280.3569
  64   2.0000     -10.301681      -280.3230
  65   2.0000     -10.301650      -280.3222
  66   2.0000     -10.296097      -280.1711
  67   2.0000     -10.295735      -280.1612
  68   2.0000     -10.284767      -279.8627
  69   2.0000     -10.284591      -279.8579
  70   2.0000     -10.282392      -279.7981
  71   2.0000     -10.281855      -279.7835
  72   2.0000     -10.279934      -279.7312
  73   2.0000     -10.278119      -279.6818
  74   2.0000     -10.278007      -279.6788
  75   2.0000     -10.271983      -279.5149
  76   2.0000      -9.539002      -259.5694
  77   2.0000      -9.538208      -259.5478
  78   2.0000      -8.091060      -220.1689
  79   2.0000      -8.087003      -220.0585
  80   2.0000      -8.084728      -219.9966
  81   2.0000      -8.082559      -219.9376
  82   2.0000      -8.081739      -219.9153
  83   2.0000      -8.076243      -219.7657
  84   2.0000      -8.058071      -219.2713
  85   2.0000      -8.057040      -219.2432
  86   2.0000      -8.055637      -219.2050
  87   2.0000      -8.055533      -219.2022
  88   2.0000      -7.309264      -198.8952
  89   2.0000      -7.308466      -198.8735
  90   2.0000      -7.299123      -198.6192
  91   2.0000      -7.298911      -198.6135
  92   2.0000      -7.298291      -198.5966
  93   2.0000      -7.298158      -198.5930
  94   2.0000      -6.060443      -164.9130
  95   2.0000      -6.056277      -164.7997
  96   2.0000      -6.056019      -164.7927
  97   2.0000      -6.053967      -164.7368
  98   2.0000      -6.053535      -164.7251
  99   2.0000      -6.052117      -164.6865
 100   2.0000      -6.051735      -164.6761
 101   2.0000      -6.051300      -164.6642
 102   2.0000      -6.049811      -164.6237
 103   2.0000      -6.049326      -164.6105
 104   2.0000      -6.047515      -164.5613
 105   2.0000      -6.047090      -164.5497
 106   2.0000      -6.046447      -164.5322
 107   2.0000      -6.045702      -164.5119
 108   2.0000      -6.044984      -164.4924
 109   2.0000      -6.044264      -164.4728
 110   2.0000      -6.041153      -164.3881
 111   2.0000      -6.038348      -164.3118
 112   2.0000      -6.027359      -164.0128
 113   2.0000      -6.026340      -163.9851
 114   2.0000      -6.025377      -163.9588
 115   2.0000      -6.025269      -163.9559
 116   2.0000      -6.023236      -163.9006
 117   2.0000      -6.022202      -163.8725
 118   2.0000      -6.021167      -163.8443
 119   2.0000      -6.021062      -163.8414
 120   2.0000      -6.020195      -163.8178
 121   2.0000      -6.019145      -163.7893
 122   2.0000      -6.016872      -163.7274
 123   2.0000      -6.016780      -163.7249
 124   2.0000      -1.326735       -36.1023
 125   2.0000      -1.326424       -36.0938
 126   2.0000      -1.144353       -31.1394
 127   2.0000      -1.142550       -31.0904
 128   2.0000      -1.048254       -28.5244
 129   2.0000      -1.044525       -28.4230
 130   2.0000      -1.025704       -27.9108
 131   2.0000      -1.022712       -27.8294
 132   2.0000      -1.021944       -27.8085
 133   2.0000      -1.019740       -27.7485
 134   2.0000      -1.017166       -27.6785
 135   2.0000      -1.010350       -27.4930
 136   2.0000      -1.007570       -27.4174
 137   2.0000      -1.004733       -27.3402
 138   2.0000      -1.002322       -27.2746
 139   2.0000      -1.000260       -27.2184
 140   2.0000      -0.993246       -27.0276
 141   2.0000      -0.982349       -26.7311
 142   2.0000      -0.961952       -26.1761
 143   2.0000      -0.957069       -26.0432
 144   2.0000      -0.946716       -25.7615
 145   2.0000      -0.942625       -25.6501
 146   2.0000      -0.927284       -25.2327
 147   2.0000      -0.919916       -25.0322
 148   2.0000      -0.914925       -24.8964
 149   2.0000      -0.910095       -24.7649
 150   2.0000      -0.904566       -24.6145
 151   2.0000      -0.903801       -24.5937
 152   2.0000      -0.884918       -24.0798
 153   2.0000      -0.883402       -24.0386
 154   2.0000      -0.873220       -23.7615
 155   2.0000      -0.868181       -23.6244
 156   2.0000      -0.863846       -23.5064
 157   2.0000      -0.858876       -23.3712
 158   2.0000      -0.857546       -23.3350
 159   2.0000      -0.852042       -23.1853
 160   2.0000      -0.846721       -23.0404
 161   2.0000      -0.844524       -22.9807
 162   2.0000      -0.826010       -22.4769
 163   2.0000      -0.813875       -22.1467
 164   2.0000      -0.810535       -22.0558
 165   2.0000      -0.809093       -22.0165
 166   2.0000      -0.803564       -21.8661
 167   2.0000      -0.794371       -21.6159
 168   2.0000      -0.779658       -21.2156
 169   2.0000      -0.778900       -21.1949
 170   2.0000      -0.776550       -21.1310
 171   2.0000      -0.770973       -20.9792
 172   2.0000      -0.764036       -20.7905
 173   2.0000      -0.759396       -20.6642
 174   2.0000      -0.749025       -20.3820
 175   2.0000      -0.739835       -20.1319
 176   2.0000      -0.722661       -19.6646
 177   2.0000      -0.711500       -19.3609
 178   2.0000      -0.705127       -19.1875
 179   2.0000      -0.701667       -19.0933
 180   2.0000      -0.690033       -18.7767
 181   2.0000      -0.688029       -18.7222
 182   2.0000      -0.684400       -18.6235
 183   2.0000      -0.679250       -18.4833
 184   2.0000      -0.670178       -18.2365
 185   2.0000      -0.659721       -17.9519
 186   2.0000      -0.655765       -17.8443
 187   2.0000      -0.652499       -17.7554
 188   2.0000      -0.650096       -17.6900
 189   2.0000      -0.644029       -17.5249
 190   2.0000      -0.637608       -17.3502
 191   2.0000      -0.637318       -17.3423
 192   2.0000      -0.636337       -17.3156
 193   2.0000      -0.631605       -17.1868
 194   2.0000      -0.628364       -17.0987
 195   2.0000      -0.623786       -16.9741
 196   2.0000      -0.620203       -16.8766
 197   2.0000      -0.618880       -16.8406
 198   2.0000      -0.617163       -16.7939
 199   2.0000      -0.613988       -16.7075
 200   2.0000      -0.609592       -16.5878
 201   2.0000      -0.607251       -16.5241
 202   2.0000      -0.599398       -16.3105
 203   2.0000      -0.591178       -16.0868
 204   2.0000      -0.587422       -15.9846
 205   2.0000      -0.586398       -15.9567
 206   2.0000      -0.582008       -15.8372
 207   2.0000      -0.580330       -15.7916
 208   2.0000      -0.565522       -15.3886
 209   2.0000      -0.563066       -15.3218
 210   2.0000      -0.553491       -15.0613
 211   2.0000      -0.551617       -15.0103
 212   2.0000      -0.549001       -14.9391
 213   2.0000      -0.547309       -14.8930
 214   2.0000      -0.543002       -14.7758
 215   2.0000      -0.535815       -14.5803
 216   2.0000      -0.531734       -14.4692
 217   2.0000      -0.531483       -14.4624
 218   2.0000      -0.526639       -14.3306
 219   2.0000      -0.525285       -14.2937
 220   2.0000      -0.523565       -14.2469
 221   2.0000      -0.521115       -14.1802
 222   2.0000      -0.518385       -14.1060
 223   2.0000      -0.517693       -14.0871
 224   2.0000      -0.515997       -14.0410
 225   2.0000      -0.512250       -13.9390
 226   2.0000      -0.510169       -13.8824
 227   2.0000      -0.507786       -13.8176
 228   2.0000      -0.505691       -13.7605
 229   2.0000      -0.504455       -13.7269
 230   2.0000      -0.502838       -13.6829
 231   2.0000      -0.501155       -13.6371
 232   2.0000      -0.498068       -13.5531
 233   2.0000      -0.497385       -13.5345
 234   2.0000      -0.496388       -13.5074
 235   2.0000      -0.493342       -13.4245
 236   2.0000      -0.491474       -13.3737
 237   2.0000      -0.490830       -13.3562
 238   2.0000      -0.486996       -13.2518
 239   2.0000      -0.481910       -13.1134
 240   2.0000      -0.481168       -13.0933
 241   2.0000      -0.479162       -13.0387
 242   2.0000      -0.477767       -13.0007
 243   2.0000      -0.476220       -12.9586
 244   2.0000      -0.473145       -12.8749
 245   2.0000      -0.473085       -12.8733
 246   2.0000      -0.470812       -12.8115
 247   2.0000      -0.467513       -12.7217
 248   2.0000      -0.467102       -12.7105
 249   2.0000      -0.465754       -12.6738
 250   2.0000      -0.464008       -12.6263
 251   2.0000      -0.463339       -12.6081
 252   2.0000      -0.461275       -12.5519
 253   2.0000      -0.459059       -12.4916
 254   2.0000      -0.458527       -12.4772
 255   2.0000      -0.457370       -12.4457
 256   2.0000      -0.454384       -12.3644
 257   2.0000      -0.452571       -12.3151
 258   2.0000      -0.446424       -12.1478
 259   2.0000      -0.444121       -12.0851
 260   2.0000      -0.442907       -12.0521
 261   2.0000      -0.441581       -12.0160
 262   2.0000      -0.440407       -11.9841
 263   2.0000      -0.440283       -11.9807
 264   2.0000      -0.439510       -11.9597
 265   2.0000      -0.437807       -11.9133
 266   2.0000      -0.433591       -11.7986
 267   2.0000      -0.432766       -11.7761
 268   2.0000      -0.429200       -11.6791
 269   2.0000      -0.427516       -11.6333
 270   2.0000      -0.425844       -11.5878
 271   2.0000      -0.425143       -11.5687
 272   2.0000      -0.424282       -11.5453
 273   2.0000      -0.422475       -11.4961
 274   2.0000      -0.417639       -11.3645
 275   2.0000      -0.415175       -11.2975
 276   2.0000      -0.414150       -11.2696
 277   2.0000      -0.405642       -11.0381
 278   2.0000      -0.398460       -10.8426
 279   2.0000      -0.394142       -10.7252
 280   2.0000      -0.390994       -10.6395
 281   2.0000      -0.388154       -10.5622
 282   2.0000      -0.387258       -10.5378
 283   2.0000      -0.383722       -10.4416
 284   2.0000      -0.383134       -10.4256
 285   2.0000      -0.379708       -10.3324
 286   2.0000      -0.377879       -10.2826
 287   2.0000      -0.376614       -10.2482
 288   2.0000      -0.370310       -10.0767
 289   2.0000      -0.364801        -9.9268
 290   2.0000      -0.353981        -9.6323
 291   2.0000      -0.349366        -9.5067
 292   2.0000      -0.346958        -9.4412
 293   2.0000      -0.344779        -9.3819
 294   2.0000      -0.342604        -9.3227
 295   2.0000      -0.339385        -9.2351
 296   2.0000      -0.327345        -8.9075
 297   2.0000      -0.323806        -8.8112
 298   2.0000      -0.321451        -8.7471
 299   2.0000      -0.318014        -8.6536
 300   2.0000      -0.315826        -8.5941
 301   2.0000      -0.305191        -8.3047
 302   2.0000      -0.296965        -8.0808
 303   2.0000      -0.295457        -8.0398
 304   2.0000      -0.262373        -7.1395
 305   2.0000      -0.261461        -7.1147
 306   2.0000      -0.239424        -6.5151
 307   0.0000      -0.107417        -2.9230
 308   0.0000      -0.103793        -2.8244
 309   0.0000      -0.073169        -1.9910
 310   0.0000      -0.058957        -1.6043
 311   0.0000      -0.050006        -1.3607

MULLIKEN ATOMIC CHARGES
-----------------------
   0 C :   -0.077703
   1 C :    0.105912
   2 N :    0.262211
   3 O :   -0.242638
   4 O :   -0.236152
   5 C :   -0.099028
   6 C :    0.112557
   7 C :   -0.133000
   8 S :    0.171638
   9 C :   -0.056811
  10 C :   -0.069510
  11 C :    0.024408
  12 C :   -0.092407
  13 S :    0.159482
  14 C :   -0.095001
  15 C :    0.011722
  16 C :    0.298146
  17 C :   -0.292141
  18 C :   -0.188002
  19 N :    0.170095
  20 C :   -0.191548
  21 N :    0.181725
  22 C :   -0.055710
  23 C :   -0.048722
  24 S :    0.186528
  25 C :   -0.011737
  26 C :   -0.094289
  27 C :    0.084224
  28 C :    0.143577
  29 C :   -0.209924
  30 C :    0.032945
  31 C :    0.086477
  32 C :   -0.265273
  33 S :    0.130769
  34 C :    0.120434
  35 Cl:   -0.082123
  36 C :   -0.137923
  37 C :    0.085234
  38 C :    0.142086
  39 C :   -0.137611
  40 S :    0.117973
  41 C :   -0.210496
  42 C :    0.033558
  43 C :    0.085987
  44 C :   -0.267310
  45 S :    0.133075
  46 C :    0.123989
  47 Cl:   -0.082240
  48 C :   -0.093353
  49 C :   -0.012696
  50 S :    0.119106
  51 C :   -0.046526
  52 C :   -0.058065
  53 C :    0.014843
  54 C :   -0.102823
  55 S :    0.192368
  56 C :   -0.077762
  57 C :    0.036516
  58 C :    0.301634
  59 C :   -0.295925
  60 C :   -0.193057
  61 N :    0.179428
  62 C :   -0.189419
  63 N :    0.167587
  64 C :   -0.085219
  65 C :   -0.065333
  66 S :    0.245014
  67 C :   -0.144020
  68 C :    0.128132
  69 N :    0.287904
  70 O :   -0.290547
  71 O :   -0.240797
  72 C :   -0.102281
  73 C :    0.164284
  74 C :   -0.116566
  75 S :    0.148165
  76 H :    0.047271
  77 H :    0.046158
  78 H :    0.032168
  79 H :    0.034523
  80 H :    0.016492
  81 H :    0.016087
  82 H :   -0.009617
  83 H :   -0.003670
  84 H :    0.032397
  85 H :    0.025140
  86 H :    0.040980
  87 H :   -0.004151
  88 H :    0.042813
  89 H :    0.026839
  90 H :    0.028343
  91 H :   -0.007736
  92 H :    0.015823
  93 H :    0.023986
  94 H :    0.029859
  95 H :    0.038342
  96 H :    0.001138
  97 H :    0.028766
Sum of atomic charges:    0.0000000

LOEWDIN ATOMIC CHARGES
----------------------
   0 C :   -0.149114
   1 C :   -0.077428
   2 N :    0.287636
   3 O :   -0.205256
   4 O :   -0.199026
   5 C :   -0.047038
   6 C :   -0.065917
   7 C :   -0.186536
   8 S :    0.493965
   9 C :   -0.178859
  10 C :   -0.040714
  11 C :   -0.066138
  12 C :   -0.188621
  13 S :    0.499503
  14 C :   -0.177820
  15 C :   -0.071398
  16 C :    0.082358
  17 C :   -0.099911
  18 C :   -0.015898
  19 N :   -0.032623
  20 C :   -0.018019
  21 N :   -0.027935
  22 C :   -0.032168
  23 C :   -0.176868
  24 S :    0.480175
  25 C :   -0.168621
  26 C :   -0.072756
  27 C :   -0.039871
  28 C :   -0.054300
  29 C :   -0.174021
  30 C :   -0.074262
  31 C :   -0.176847
  32 C :   -0.198887
  33 S :    0.446197
  34 C :   -0.060516
  35 Cl:    0.132440
  36 C :   -0.140790
  37 C :   -0.040121
  38 C :   -0.053900
  39 C :   -0.140970
  40 S :    0.427526
  41 C :   -0.174269
  42 C :   -0.074529
  43 C :   -0.176882
  44 C :   -0.197742
  45 S :    0.446115
  46 C :   -0.060590
  47 Cl:    0.132827
  48 C :   -0.070418
  49 C :   -0.169180
  50 S :    0.427519
  51 C :   -0.173670
  52 C :   -0.033634
  53 C :   -0.066315
  54 C :   -0.178575
  55 S :    0.485384
  56 C :   -0.185953
  57 C :   -0.073657
  58 C :    0.082351
  59 C :   -0.104771
  60 C :   -0.018202
  61 N :   -0.031441
  62 C :   -0.016034
  63 N :   -0.035626
  64 C :   -0.024003
  65 C :   -0.203763
  66 S :    0.543934
  67 C :   -0.139147
  68 C :   -0.090973
  69 N :    0.292948
  70 O :   -0.248786
  71 O :   -0.192088
  72 C :   -0.043227
  73 C :   -0.043528
  74 C :   -0.190348
  75 S :    0.479850
  76 H :    0.039986
  77 H :    0.038490
  78 H :    0.030088
  79 H :    0.034615
  80 H :    0.033903
  81 H :    0.037953
  82 H :    0.011598
  83 H :    0.027062
  84 H :    0.037318
  85 H :    0.035737
  86 H :    0.041051
  87 H :    0.027092
  88 H :    0.042179
  89 H :    0.036393
  90 H :    0.035691
  91 H :    0.012536
  92 H :    0.037988
  93 H :    0.031909
  94 H :    0.038928
  95 H :    0.042209
  96 H :    0.028494
  97 H :    0.028552

  Mayer bond orders larger than 0.100000
B(  0-C ,  1-C ) :   1.5287 B(  0-C ,  8-S ) :   1.2015 B(  0-C , 76-H ) :   0.9553
B(  1-C ,  2-N ) :   0.9158 B(  1-C ,  5-C ) :   1.2495 B(  2-N ,  3-O ) :   1.5522
B(  2-N ,  4-O ) :   1.5243 B(  3-O ,  4-O ) :   0.2646 B(  5-C ,  6-C ) :   1.1182
B(  5-C ,  7-C ) :   1.5283 B(  6-C , 77-H ) :   0.9173 B(  6-C , 78-H ) :   0.9309
B(  6-C , 79-H ) :   0.9290 B(  7-C ,  8-S ) :   1.1347 B(  7-C ,  9-C ) :   1.1461
B(  9-C , 10-C ) :   1.4608 B(  9-C , 13-S ) :   1.1069 B( 10-C , 11-C ) :   1.3081
B( 10-C , 80-H ) :   0.9844 B( 11-C , 12-C ) :   1.4465 B( 11-C , 16-C ) :   0.9909
B( 12-C , 13-S ) :   1.1151 B( 12-C , 14-C ) :   1.1726 B( 14-C , 15-C ) :   1.4535
B( 14-C , 24-S ) :   1.1225 B( 15-C , 16-C ) :   0.9976 B( 15-C , 22-C ) :   1.2815
B( 16-C , 17-C ) :   1.7169 B( 17-C , 18-C ) :   1.1323 B( 17-C , 20-C ) :   1.1312
B( 18-C , 19-N ) :   2.9890 B( 20-C , 21-N ) :   2.9968 B( 22-C , 23-C ) :   1.4711
B( 22-C , 81-H ) :   0.9912 B( 23-C , 24-S ) :   1.1023 B( 23-C , 25-C ) :   1.1522
B( 25-C , 26-C ) :   1.5704 B( 25-C , 40-S ) :   1.0700 B( 26-C , 27-C ) :   1.1873
B( 26-C , 82-H ) :   0.9685 B( 27-C , 28-C ) :   1.2939 B( 27-C , 39-C ) :   1.2748
B( 28-C , 29-C ) :   0.9928 B( 28-C , 36-C ) :   1.4178 B( 29-C , 30-C ) :   1.5457
B( 29-C , 33-S ) :   1.1274 B( 30-C , 31-C ) :   1.2265 B( 30-C , 83-H ) :   0.9947
B( 31-C , 32-C ) :   1.5984 B( 31-C , 35-Cl) :   1.0221 B( 32-C , 33-S ) :   1.1298
B( 32-C , 34-C ) :   1.0846 B( 34-C , 84-H ) :   0.9455 B( 34-C , 85-H ) :   0.9469
B( 34-C , 86-H ) :   0.9496 B( 36-C , 37-C ) :   1.2744 B( 36-C , 50-S ) :   1.0553
B( 37-C , 38-C ) :   1.2941 B( 37-C , 48-C ) :   1.1888 B( 38-C , 39-C ) :   1.4194
B( 38-C , 41-C ) :   0.9914 B( 39-C , 40-S ) :   1.0547 B( 41-C , 42-C ) :   1.5471
B( 41-C , 45-S ) :   1.1271 B( 42-C , 43-C ) :   1.2243 B( 42-C , 87-H ) :   0.9949
B( 43-C , 44-C ) :   1.6007 B( 43-C , 47-Cl) :   1.0169 B( 44-C , 45-S ) :   1.1296
B( 44-C , 46-C ) :   1.0839 B( 46-C , 88-H ) :   0.9491 B( 46-C , 89-H ) :   0.9470
B( 46-C , 90-H ) :   0.9442 B( 48-C , 49-C ) :   1.5686 B( 48-C , 91-H ) :   0.9687
B( 49-C , 50-S ) :   1.0696 B( 49-C , 51-C ) :   1.1542 B( 51-C , 52-C ) :   1.4654
B( 51-C , 55-S ) :   1.1072 B( 52-C , 53-C ) :   1.2839 B( 52-C , 92-H ) :   0.9916
B( 53-C , 54-C ) :   1.4484 B( 53-C , 58-C ) :   0.9967 B( 54-C , 55-S ) :   1.1230
B( 54-C , 56-C ) :   1.1812 B( 56-C , 57-C ) :   1.3975 B( 56-C , 66-S ) :   1.1133
B( 57-C , 58-C ) :   0.9883 B( 57-C , 64-C ) :   1.3505 B( 58-C , 59-C ) :   1.7119
B( 59-C , 60-C ) :   1.1315 B( 59-C , 62-C ) :   1.1354 B( 60-C , 61-N ) :   2.9971
B( 62-C , 63-N ) :   2.9865 B( 64-C , 65-C ) :   1.3901 B( 64-C , 93-H ) :   0.9790
B( 65-C , 66-S ) :   1.1012 B( 65-C , 67-C ) :   1.2069 B( 67-C , 68-C ) :   1.4057
B( 67-C , 75-S ) :   1.2147 B( 68-C , 69-N ) :   0.9966 B( 68-C , 72-C ) :   1.2123
B( 69-N , 70-O ) :   1.4127 B( 69-N , 71-O ) :   1.5267 B( 70-O , 71-O ) :   0.2369
B( 72-C , 73-C ) :   1.1005 B( 72-C , 74-C ) :   1.6333 B( 73-C , 94-H ) :   0.9382
B( 73-C , 95-H ) :   0.9364 B( 73-C , 96-H ) :   0.9398 B( 74-C , 75-S ) :   1.0995
B( 74-C , 97-H ) :   0.9654

-----------------------------------------------------------------------------
         ABSORPTION SPECTRUM VIA TRANSITION ELECTRIC DIPOLE MOMENTS
-----------------------------------------------------------------------------
State   Energy  Wavelength   fosc         T2         TX        TY        TZ
        (cm-1)    (nm)                  (au**2)     (au)      (au)      (au)
-----------------------------------------------------------------------------
   0   12401.4    806.4   0.210296091   5.58258  -0.20274   2.35369  -0.04034
   1   13099.2    763.4   0.099954846   2.51209   0.13325  -1.57931   0.01024
   2   19204.8    520.7   0.089369296   1.53198  -0.50576  -1.12964   0.01026
   3   19851.0    503.8   0.089627028   1.48639  -0.15030  -1.20986   0.00619
   4   21814.7    458.4   1.726356477  26.05300   0.59393  -5.06953  -0.01123
   5   23973.8    417.1   0.007479761   0.10271   0.09698  -0.30466   0.02209
   6   24535.5    407.6   0.159882556   2.14527  -0.32198  -1.42801   0.04874
   7   24825.1    402.8   0.755746466  10.02214   1.91493   2.51863  -0.10814
   8   27093.6    369.1   0.010208324   0.12404  -0.31672   0.15046  -0.03307
   9   27329.8    365.9   0.443735372   5.34520  -1.17539   1.99089   0.00165
  10   27893.7    358.5   0.047862124   0.56489   0.20226   0.72189  -0.05338
  11   28821.3    347.0   0.146145258   1.66935   1.11581  -0.65051  -0.03388
  12   29298.7    341.3   0.008184227   0.09196  -0.29342   0.07613  -0.00848
  13   29750.1    336.1   0.037329536   0.41309   0.53662  -0.33694  -0.10770
  14   30459.8    328.3   0.319777579   3.45618  -0.87891   1.63818  -0.00808
  15   30534.6    327.5   0.066891011   0.72119   0.49596   0.68923  -0.01338
  16   30782.7    324.9   0.336803288   3.60201   0.78745  -1.72441   0.09139
  17   30990.0    322.7   0.068373360   0.72634   0.48729   0.69920   0.00348
  18   31485.0    317.6   0.057787508   0.60424   0.75614  -0.15852  -0.08581
  19   32207.7    310.5   0.143064759   1.46234  -0.83423  -0.86093  -0.15875
  20   32269.7    309.9   1.233155964  12.58054   3.47785  -0.69194   0.07953
  21   32576.6    307.0   0.223741430   2.26108   0.10028  -1.49903   0.06286
  22   32753.6    305.3   0.049936548   0.50192   0.38342  -0.59302   0.05697
  23   33085.3    302.2   0.234362472   2.33200  -1.51070  -0.22304   0.00621
  24   33607.3    297.6   0.049524769   0.48514  -0.07057   0.69293   0.00248
  25   33755.4    296.2   0.006344377   0.06188   0.06192   0.24092   0.00119
  26   34315.4    291.4   0.006437003   0.06175   0.23219  -0.03734   0.08031
  27   34552.5    289.4   0.019399889   0.18484   0.10624   0.41648  -0.00978
  28   34792.6    287.4   0.124228633   1.17547   0.86124   0.64561  -0.13003
  29   35121.3    284.7   0.100191499   0.93915  -0.10829   0.96147  -0.05473
  30   35201.0    284.1   0.040643020   0.38011   0.58572  -0.17960  -0.06916
  31   35545.1    281.3   0.049562143   0.45903  -0.45304   0.49626  -0.08670
  32   35634.4    280.6   0.010116588   0.09346   0.03987   0.30219  -0.02353
  33   35885.6    278.7   0.006698824   0.06145   0.24191   0.01900   0.05074
  34   36018.8    277.6   0.041460191   0.37895   0.10659  -0.60217  -0.07057
  35   36139.5    276.7   0.009854908   0.08977  -0.11476  -0.27351  -0.04236
  36   36321.0    275.3   0.064757794   0.58696  -0.67866  -0.35534   0.01080
  37   36591.6    273.3   0.011915990   0.10721  -0.06177   0.31923  -0.03850
  38   36852.5    271.4   0.240421428   2.14774  -0.67624   1.30014   0.00804
  39   37269.6    268.3   0.028650115   0.25307   0.49238  -0.07808   0.06736
  40   37527.7    266.5   0.009851601   0.08642  -0.08257   0.28131   0.02167
  41   37791.3    264.6   0.009459875   0.08241   0.27090  -0.05958  -0.07398
  42   38138.7    262.2   0.084558206   0.72990  -0.63041  -0.57653  -0.01033
  43   38260.2    261.4   0.088100689   0.75807   0.77632  -0.39412   0.00782
  44   38409.4    260.4   0.044453983   0.38102  -0.61686   0.01263   0.01849
  45   38763.5    258.0   0.016462672   0.13981   0.29947  -0.20901  -0.08033
  46   39326.9    254.3   0.046092550   0.38585   0.29900   0.53557  -0.09804
  47   39597.9    252.5   0.025270296   0.21009  -0.00762  -0.37679  -0.26089
  48   39800.8    251.3   0.006839818   0.05658   0.08365   0.21977  -0.03575
  49   39958.5    250.3   0.017138060   0.14120  -0.36915  -0.06640   0.02265
  50   40149.6    249.1   0.013329019   0.10929   0.10116   0.29990  -0.09549
  51   40296.8    248.2   0.033344888   0.27242   0.42839   0.19302  -0.22725

FINAL SINGLE POINT ENERGY     -7597.565336899941

DIPOLE MOMENT
-------------
                                X             Y             Z
Electronic contribution:      1.16957      10.42864       7.55251
Nuclear contribution   :     -1.18865     -12.05885      -7.85221
                        -----------------------------------------
Total Dipole Moment    :     -0.01908      -1.63021      -0.29970
                        -----------------------------------------
Magnitude (a.u.)       :      1.65764
Magnitude (Debye)      :      4.21337

Rotational constants in cm-1:     0.001419     0.000186     0.000165
Rotational constants in MHz :    42.528969     5.576203     4.952954

                             ****ORCA TERMINATED NORMALLY****
TOTAL RUN TIME: 0 days 0 hours 23 minutes 37 seconds 417 msec
