                         Program Version 4.2.0 -  RELEASE  -
|  1> # ORCA input file
|  2> # SCF done       -193.040372597538          0.000494796937
|  3> ! CAM-B3LYP def2-SVP def2/J RIJCOSX Grid4 TightSCF
|  4> %maxcore 5000
|  5> %tddft
|  6>     Mode sTDDFT
|  7>     Ethresh 5.0
|  8>     maxcore 5000
|  9> end
| 10>
| 11> %pal
| 12>   nprocs 6
| 13>   end
| 14> * xyz 0 1
| 15>    C        1.09738        -0.24056        -0.40478
| 16>    N        2.51322        -0.28400        -0.15773
| 17>    C        3.34642         0.84431        -0.22610
| 18>    O        2.94403         1.95109        -0.47823
| 19>    C        4.74077         0.39009         0.06122
| 20>    C        5.85283         1.31552         0.03641
| 21>    C        5.73060         2.57823         0.58631
| 22>    C        6.80118         3.46862         0.61751
| 23>    C        8.03737         3.13830         0.09193
| 24>    C        9.14445         4.06329         0.18934
| 25>    C       10.46553         3.89676         0.45661
| 26>    C       11.11909         5.20138         0.44578
| 27>    C       12.40823         5.07274         0.86922
| 28>    C       13.41072         6.06139         1.06334
| 29>    C       14.46378         6.01800         1.91563
| 30>    C       15.61044         6.95375         1.72236
| 31>    O       15.60574         7.94366         1.02336
| 32>    C       16.70986         6.38109         2.51614
| 33>    C       16.23777         5.28496         3.24100
| 34>    C       17.10290         4.53665         4.04924
| 35>    C       18.41976         4.90852         4.12359
| 36>    C       18.92535         6.02503         3.42131
| 37>    C       20.27789         6.40999         3.51808
| 38>    C       20.74558         7.49462         2.82796
| 39>    C       19.88533         8.24290         2.00864
| 40>    C       18.56685         7.89985         1.88715
| 41>    C       18.05647         6.78889         2.58869
| 42>    C       14.80566         5.13428         3.01188
| 43>    C       13.93013         4.48124         3.83528
| 44>    C       12.53095         4.56513         3.70033
| 45>    N       11.38599         4.63564         3.63968
| 46>    C       14.31057         3.70416         4.94868
| 47>    N       14.55304         3.05759         5.86535
| 48>    C       12.59931         3.60714         1.10526
| 49>    O       13.60620         3.02517         1.43490
| 50>    N       11.38969         2.97275         0.84090
| 51>    C       11.18543         1.57574         1.10646
| 52>    N       10.20060         6.14863         0.14809
| 53>    C       10.40480         7.56924         0.06707
| 54>    C        8.94706         5.53453         0.00674
| 55>    O        7.93281         6.14308        -0.21972
| 56>    C        8.16077         1.90218        -0.60386
| 57>    N        9.27966         1.63710        -1.30559
| 58>    C        9.31555         0.53668        -2.01202
| 59>    C        8.24518        -0.37412        -2.01851
| 60>    N        7.15690        -0.15743        -1.32783
| 61>    C        7.07021         0.98631        -0.62361
| 62>    C        4.65521        -0.94446         0.29612
| 63>    C        3.26145        -1.35903         0.17924
| 64>    C        3.15687        -2.69525         0.43503
| 65>    C        2.00155        -3.51949         0.48905
| 66>    C        1.92700        -4.87104         0.41042
| 67>    C        0.71163        -5.56770         0.92526
| 68>    O       -0.35217        -5.04411         1.17687
| 69>    C        1.12041        -6.97130         1.09554
| 70>    C        2.40518        -7.14759         0.57776
| 71>    C        3.03648        -8.39608         0.64347
| 72>    C        2.36752        -9.44158         1.22451
| 73>    C        1.06437        -9.29961         1.75102
| 74>    C        0.38319       -10.38196         2.34394
| 75>    C       -0.87574       -10.21902         2.85388
| 76>    C       -1.51215        -8.96897         2.79468
| 77>    C       -0.88462        -7.89500         2.22581
| 78>    C        0.41247        -8.03353         1.69182
| 79>    C        2.87420        -5.89004         0.00794
| 80>    C        3.86822        -5.74702        -0.92003
| 81>    C        4.11902        -4.53373        -1.59137
| 82>    N        4.32368        -3.56776        -2.17731
| 83>    C        4.70436        -6.79242        -1.36120
| 84>    N        5.41453        -7.60144        -1.75917
| 85>    C        4.53961        -3.13268         0.80462
| 86>    O        4.90444        -4.21142         1.20998
| 87>    N        5.37864        -2.02775         0.69222
| 88>    C        6.77242        -2.08197         1.03562
| 89>    H        0.86604         0.74661        -0.80398
| 90>    H        0.53495        -0.39286         0.51885
| 91>    H        0.81854        -1.00663        -1.12906
| 92>    H        4.79067         2.87169         1.02637
| 93>    H        6.67003         4.43090         1.08598
| 94>    H       13.37278         6.93189         0.41567
| 95>    H       16.74400         3.67573         4.58927
| 96>    H       19.10330         4.33874         4.73648
| 97>    H       20.93788         5.83272         4.14937
| 98>    H       21.78318         7.78306         2.90886
| 99>    H       20.27521         9.09545         1.47286
|100>    H       17.89694         8.46677         1.26018
|101>    H       12.12941         1.17496         1.47449
|102>    H       10.89361         1.05677         0.19461
|103>    H       10.41073         1.44564         1.86453
|104>    H       10.90156         7.93074         0.96887
|105>    H        9.42410         8.03502        -0.02548
|106>    H       11.00788         7.82606        -0.80583
|107>    H       10.21290         0.36121        -2.59029
|108>    H        8.27903        -1.28814        -2.59567
|109>    H        1.06209        -3.01948         0.70421
|110>    H        4.03491        -8.52802         0.25943
|111>    H        2.84163       -10.41032         1.29040
|112>    H        0.87490       -11.34301         2.38853
|113>    H       -1.38958       -11.05346         3.30785
|114>    H       -2.50544        -8.86196         3.20444
|115>    H       -1.36338        -6.92983         2.17540
|116>    H        6.96760        -3.07435         1.44126
|117>    H        7.00953        -1.32304         1.78333
|118>    H        7.38404        -1.92020         0.14858
|119> *
|120>
|121>                          ****END OF INPUT****

CARTESIAN COORDINATES (ANGSTROEM)
---------------------------------
  C      1.097380   -0.240560   -0.404780
  N      2.513220   -0.284000   -0.157730
  C      3.346420    0.844310   -0.226100
  O      2.944030    1.951090   -0.478230
  C      4.740770    0.390090    0.061220
  C      5.852830    1.315520    0.036410
  C      5.730600    2.578230    0.586310
  C      6.801180    3.468620    0.617510
  C      8.037370    3.138300    0.091930
  C      9.144450    4.063290    0.189340
  C     10.465530    3.896760    0.456610
  C     11.119090    5.201380    0.445780
  C     12.408230    5.072740    0.869220
  C     13.410720    6.061390    1.063340
  C     14.463780    6.018000    1.915630
  C     15.610440    6.953750    1.722360
  O     15.605740    7.943660    1.023360
  C     16.709860    6.381090    2.516140
  C     16.237770    5.284960    3.241000
  C     17.102900    4.536650    4.049240
  C     18.419760    4.908520    4.123590
  C     18.925350    6.025030    3.421310
  C     20.277890    6.409990    3.518080
  C     20.745580    7.494620    2.827960
  C     19.885330    8.242900    2.008640
  C     18.566850    7.899850    1.887150
  C     18.056470    6.788890    2.588690
  C     14.805660    5.134280    3.011880
  C     13.930130    4.481240    3.835280
  C     12.530950    4.565130    3.700330
  N     11.385990    4.635640    3.639680
  C     14.310570    3.704160    4.948680
  N     14.553040    3.057590    5.865350
  C     12.599310    3.607140    1.105260
  O     13.606200    3.025170    1.434900
  N     11.389690    2.972750    0.840900
  C     11.185430    1.575740    1.106460
  N     10.200600    6.148630    0.148090
  C     10.404800    7.569240    0.067070
  C      8.947060    5.534530    0.006740
  O      7.932810    6.143080   -0.219720
  C      8.160770    1.902180   -0.603860
  N      9.279660    1.637100   -1.305590
  C      9.315550    0.536680   -2.012020
  C      8.245180   -0.374120   -2.018510
  N      7.156900   -0.157430   -1.327830
  C      7.070210    0.986310   -0.623610
  C      4.655210   -0.944460    0.296120
  C      3.261450   -1.359030    0.179240
  C      3.156870   -2.695250    0.435030
  C      2.001550   -3.519490    0.489050
  C      1.927000   -4.871040    0.410420
  C      0.711630   -5.567700    0.925260
  O     -0.352170   -5.044110    1.176870
  C      1.120410   -6.971300    1.095540
  C      2.405180   -7.147590    0.577760
  C      3.036480   -8.396080    0.643470
  C      2.367520   -9.441580    1.224510
  C      1.064370   -9.299610    1.751020
  C      0.383190  -10.381960    2.343940
  C     -0.875740  -10.219020    2.853880
  C     -1.512150   -8.968970    2.794680
  C     -0.884620   -7.895000    2.225810
  C      0.412470   -8.033530    1.691820
  C      2.874200   -5.890040    0.007940
  C      3.868220   -5.747020   -0.920030
  C      4.119020   -4.533730   -1.591370
  N      4.323680   -3.567760   -2.177310
  C      4.704360   -6.792420   -1.361200
  N      5.414530   -7.601440   -1.759170
  C      4.539610   -3.132680    0.804620
  O      4.904440   -4.211420    1.209980
  N      5.378640   -2.027750    0.692220
  C      6.772420   -2.081970    1.035620
  H      0.866040    0.746610   -0.803980
  H      0.534950   -0.392860    0.518850
  H      0.818540   -1.006630   -1.129060
  H      4.790670    2.871690    1.026370
  H      6.670030    4.430900    1.085980
  H     13.372780    6.931890    0.415670
  H     16.744000    3.675730    4.589270
  H     19.103300    4.338740    4.736480
  H     20.937880    5.832720    4.149370
  H     21.783180    7.783060    2.908860
  H     20.275210    9.095450    1.472860
  H     17.896940    8.466770    1.260180
  H     12.129410    1.174960    1.474490
  H     10.893610    1.056770    0.194610
  H     10.410730    1.445640    1.864530
  H     10.901560    7.930740    0.968870
  H      9.424100    8.035020   -0.025480
  H     11.007880    7.826060   -0.805830
  H     10.212900    0.361210   -2.590290
  H      8.279030   -1.288140   -2.595670
  H      1.062090   -3.019480    0.704210
  H      4.034910   -8.528020    0.259430
  H      2.841630  -10.410320    1.290400
  H      0.874900  -11.343010    2.388530
  H     -1.389580  -11.053460    3.307850
  H     -2.505440   -8.861960    3.204440
  H     -1.363380   -6.929830    2.175400
  H      6.967600   -3.074350    1.441260
  H      7.009530   -1.323040    1.783330
  H      7.384040   -1.920200    0.148580

 Total Charge           Charge          ....    0
 Multiplicity           Mult            ....    1
 Number of Electrons    NEL             ....  496
 Basis Dimension        Dim             .... 1186

ORBITAL ENERGIES
----------------

  NO   OCC          E(Eh)            E(eV)
   0   2.0000     -19.221426      -523.0416
   1   2.0000     -19.220773      -523.0238
   2   2.0000     -19.216316      -522.9025
   3   2.0000     -19.214830      -522.8621
   4   2.0000     -19.212488      -522.7984
   5   2.0000     -19.212006      -522.7853
   6   2.0000     -14.474718      -393.8771
   7   2.0000     -14.473702      -393.8495
   8   2.0000     -14.465745      -393.6329
   9   2.0000     -14.465017      -393.6131
  10   2.0000     -14.434473      -392.7820
  11   2.0000     -14.432890      -392.7389
  12   2.0000     -14.415785      -392.2735
  13   2.0000     -14.411761      -392.1640
  14   2.0000     -14.410253      -392.1229
  15   2.0000     -14.408715      -392.0811
  16   2.0000     -10.398644      -282.9615
  17   2.0000     -10.398209      -282.9496
  18   2.0000     -10.392793      -282.8023
  19   2.0000     -10.392774      -282.8017
  20   2.0000     -10.366135      -282.0769
  21   2.0000     -10.364856      -282.0421
  22   2.0000     -10.352933      -281.7176
  23   2.0000     -10.352126      -281.6957
  24   2.0000     -10.345058      -281.5034
  25   2.0000     -10.344355      -281.4842
  26   2.0000     -10.338040      -281.3124
  27   2.0000     -10.335884      -281.2537
  28   2.0000     -10.335502      -281.2433
  29   2.0000     -10.332912      -281.1728
  30   2.0000     -10.326835      -281.0075
  31   2.0000     -10.326414      -280.9960
  32   2.0000     -10.326302      -280.9930
  33   2.0000     -10.325275      -280.9650
  34   2.0000     -10.319425      -280.8058
  35   2.0000     -10.319061      -280.7959
  36   2.0000     -10.318235      -280.7735
  37   2.0000     -10.315545      -280.7003
  38   2.0000     -10.314192      -280.6634
  39   2.0000     -10.313820      -280.6533
  40   2.0000     -10.313117      -280.6342
  41   2.0000     -10.311553      -280.5916
  42   2.0000     -10.305455      -280.4257
  43   2.0000     -10.305443      -280.4254
  44   2.0000     -10.304177      -280.3909
  45   2.0000     -10.304045      -280.3873
  46   2.0000     -10.300471      -280.2901
  47   2.0000     -10.300362      -280.2871
  48   2.0000     -10.300278      -280.2848
  49   2.0000     -10.299999      -280.2772
  50   2.0000     -10.298885      -280.2469
  51   2.0000     -10.298646      -280.2404
  52   2.0000     -10.294279      -280.1216
  53   2.0000     -10.293888      -280.1109
  54   2.0000     -10.292789      -280.0810
  55   2.0000     -10.292713      -280.0790
  56   2.0000     -10.292661      -280.0775
  57   2.0000     -10.292217      -280.0655
  58   2.0000     -10.291881      -280.0563
  59   2.0000     -10.291586      -280.0483
  60   2.0000     -10.291038      -280.0334
  61   2.0000     -10.290429      -280.0168
  62   2.0000     -10.287601      -279.9398
  63   2.0000     -10.287195      -279.9288
  64   2.0000     -10.286404      -279.9073
  65   2.0000     -10.286237      -279.9027
  66   2.0000     -10.281418      -279.7716
  67   2.0000     -10.280837      -279.7558
  68   2.0000     -10.280371      -279.7431
  69   2.0000     -10.279833      -279.7285
  70   2.0000     -10.279166      -279.7103
  71   2.0000     -10.278132      -279.6822
  72   2.0000     -10.275194      -279.6023
  73   2.0000     -10.274092      -279.5723
  74   2.0000      -1.161136       -31.5961
  75   2.0000      -1.160738       -31.5853
  76   2.0000      -1.151255       -31.3272
  77   2.0000      -1.151213       -31.3261
  78   2.0000      -1.130610       -30.7655
  79   2.0000      -1.129182       -30.7266
  80   2.0000      -1.094509       -29.7831
  81   2.0000      -1.093942       -29.7677
  82   2.0000      -1.089295       -29.6412
  83   2.0000      -1.060411       -28.8552
  84   2.0000      -1.059945       -28.8426
  85   2.0000      -1.015686       -27.6382
  86   2.0000      -1.013178       -27.5700
  87   2.0000      -1.012739       -27.5580
  88   2.0000      -0.997154       -27.1339
  89   2.0000      -0.994760       -27.0688
  90   2.0000      -0.990954       -26.9652
  91   2.0000      -0.988853       -26.9081
  92   2.0000      -0.967873       -26.3372
  93   2.0000      -0.965959       -26.2851
  94   2.0000      -0.964540       -26.2465
  95   2.0000      -0.934498       -25.4290
  96   2.0000      -0.933668       -25.4064
  97   2.0000      -0.930626       -25.3236
  98   2.0000      -0.917999       -24.9800
  99   2.0000      -0.915192       -24.9036
 100   2.0000      -0.911896       -24.8140
 101   2.0000      -0.897456       -24.4210
 102   2.0000      -0.895611       -24.3708
 103   2.0000      -0.878351       -23.9011
 104   2.0000      -0.871807       -23.7231
 105   2.0000      -0.863820       -23.5057
 106   2.0000      -0.860968       -23.4281
 107   2.0000      -0.850976       -23.1562
 108   2.0000      -0.848525       -23.0895
 109   2.0000      -0.834738       -22.7144
 110   2.0000      -0.833575       -22.6827
 111   2.0000      -0.819728       -22.3059
 112   2.0000      -0.811669       -22.0866
 113   2.0000      -0.799697       -21.7609
 114   2.0000      -0.787816       -21.4376
 115   2.0000      -0.775306       -21.0972
 116   2.0000      -0.774512       -21.0755
 117   2.0000      -0.769026       -20.9263
 118   2.0000      -0.766827       -20.8664
 119   2.0000      -0.763468       -20.7750
 120   2.0000      -0.756410       -20.5830
 121   2.0000      -0.753931       -20.5155
 122   2.0000      -0.741444       -20.1757
 123   2.0000      -0.722148       -19.6506
 124   2.0000      -0.711165       -19.3518
 125   2.0000      -0.709945       -19.3186
 126   2.0000      -0.706129       -19.2148
 127   2.0000      -0.705094       -19.1866
 128   2.0000      -0.700890       -19.0722
 129   2.0000      -0.699466       -19.0334
 130   2.0000      -0.687578       -18.7100
 131   2.0000      -0.682366       -18.5681
 132   2.0000      -0.673135       -18.3169
 133   2.0000      -0.671119       -18.2621
 134   2.0000      -0.658082       -17.9073
 135   2.0000      -0.652937       -17.7673
 136   2.0000      -0.642014       -17.4701
 137   2.0000      -0.639802       -17.4099
 138   2.0000      -0.633707       -17.2440
 139   2.0000      -0.628645       -17.1063
 140   2.0000      -0.626239       -17.0408
 141   2.0000      -0.625302       -17.0153
 142   2.0000      -0.623588       -16.9687
 143   2.0000      -0.619646       -16.8614
 144   2.0000      -0.605854       -16.4861
 145   2.0000      -0.603320       -16.4172
 146   2.0000      -0.597747       -16.2655
 147   2.0000      -0.594504       -16.1773
 148   2.0000      -0.591559       -16.0971
 149   2.0000      -0.589815       -16.0497
 150   2.0000      -0.587877       -15.9969
 151   2.0000      -0.585639       -15.9360
 152   2.0000      -0.584555       -15.9066
 153   2.0000      -0.583405       -15.8753
 154   2.0000      -0.581205       -15.8154
 155   2.0000      -0.564456       -15.3596
 156   2.0000      -0.562757       -15.3134
 157   2.0000      -0.562193       -15.2980
 158   2.0000      -0.561327       -15.2745
 159   2.0000      -0.559134       -15.2148
 160   2.0000      -0.558814       -15.2061
 161   2.0000      -0.556917       -15.1545
 162   2.0000      -0.546739       -14.8775
 163   2.0000      -0.543585       -14.7917
 164   2.0000      -0.537020       -14.6131
 165   2.0000      -0.536602       -14.6017
 166   2.0000      -0.535486       -14.5713
 167   2.0000      -0.533292       -14.5116
 168   2.0000      -0.532100       -14.4792
 169   2.0000      -0.527242       -14.3470
 170   2.0000      -0.525782       -14.3073
 171   2.0000      -0.522872       -14.2281
 172   2.0000      -0.521342       -14.1864
 173   2.0000      -0.518397       -14.1063
 174   2.0000      -0.516282       -14.0487
 175   2.0000      -0.515551       -14.0289
 176   2.0000      -0.510258       -13.8848
 177   2.0000      -0.509112       -13.8537
 178   2.0000      -0.507289       -13.8040
 179   2.0000      -0.505843       -13.7647
 180   2.0000      -0.504288       -13.7224
 181   2.0000      -0.503675       -13.7057
 182   2.0000      -0.503339       -13.6966
 183   2.0000      -0.502545       -13.6749
 184   2.0000      -0.501862       -13.6564
 185   2.0000      -0.499943       -13.6042
 186   2.0000      -0.496804       -13.5187
 187   2.0000      -0.495224       -13.4757
 188   2.0000      -0.490302       -13.3418
 189   2.0000      -0.486163       -13.2292
 190   2.0000      -0.485913       -13.2224
 191   2.0000      -0.484272       -13.1777
 192   2.0000      -0.479143       -13.0381
 193   2.0000      -0.478434       -13.0188
 194   2.0000      -0.474456       -12.9106
 195   2.0000      -0.474259       -12.9052
 196   2.0000      -0.472022       -12.8444
 197   2.0000      -0.467659       -12.7256
 198   2.0000      -0.464060       -12.6277
 199   2.0000      -0.462442       -12.5837
 200   2.0000      -0.456120       -12.4117
 201   2.0000      -0.454917       -12.3789
 202   2.0000      -0.451521       -12.2865
 203   2.0000      -0.447658       -12.1814
 204   2.0000      -0.445176       -12.1139
 205   2.0000      -0.443861       -12.0781
 206   2.0000      -0.442335       -12.0365
 207   2.0000      -0.438471       -11.9314
 208   2.0000      -0.438119       -11.9218
 209   2.0000      -0.435943       -11.8626
 210   2.0000      -0.434606       -11.8262
 211   2.0000      -0.431814       -11.7503
 212   2.0000      -0.430652       -11.7186
 213   2.0000      -0.428986       -11.6733
 214   2.0000      -0.427732       -11.6392
 215   2.0000      -0.426541       -11.6068
 216   2.0000      -0.422607       -11.4997
 217   2.0000      -0.421965       -11.4822
 218   2.0000      -0.420415       -11.4401
 219   2.0000      -0.419490       -11.4149
 220   2.0000      -0.411448       -11.1961
 221   2.0000      -0.410241       -11.1632
 222   2.0000      -0.400256       -10.8915
 223   2.0000      -0.399829       -10.8799
 224   2.0000      -0.395711       -10.7678
 225   2.0000      -0.392733       -10.6868
 226   2.0000      -0.390496       -10.6259
 227   2.0000      -0.374435       -10.1889
 228   2.0000      -0.373574       -10.1655
 229   2.0000      -0.371359       -10.1052
 230   2.0000      -0.370500       -10.0818
 231   2.0000      -0.360134        -9.7997
 232   2.0000      -0.359281        -9.7765
 233   2.0000      -0.350669        -9.5422
 234   2.0000      -0.346130        -9.4187
 235   2.0000      -0.345218        -9.3939
 236   2.0000      -0.336850        -9.1662
 237   2.0000      -0.333123        -9.0647
 238   2.0000      -0.332048        -9.0355
 239   2.0000      -0.331234        -9.0133
 240   2.0000      -0.312989        -8.5169
 241   2.0000      -0.311918        -8.4877
 242   2.0000      -0.310701        -8.4546
 243   2.0000      -0.291690        -7.9373
 244   2.0000      -0.289341        -7.8734
 245   2.0000      -0.284989        -7.7549
 246   2.0000      -0.283648        -7.7184
 247   2.0000      -0.269968        -7.3462
 248   0.0000      -0.093948        -2.5565
 249   0.0000      -0.087062        -2.3691
 250   0.0000      -0.070151        -1.9089
 251   0.0000      -0.067953        -1.8491
 252   0.0000      -0.053666        -1.4603

MULLIKEN ATOMIC CHARGES
-----------------------
   0 C :    0.117415
   1 N :   -0.230281
   2 C :    0.155198
   3 O :   -0.148485
   4 C :   -0.154082
   5 C :    0.053145
   6 C :   -0.010052
   7 C :   -0.006677
   8 C :    0.054197
   9 C :   -0.143961
  10 C :    0.203268
  11 C :    0.198676
  12 C :   -0.147097
  13 C :   -0.022816
  14 C :   -0.112966
  15 C :    0.113606
  16 O :   -0.155031
  17 C :    0.009011
  18 C :   -0.011308
  19 C :   -0.016039
  20 C :    0.003299
  21 C :    0.080943
  22 C :   -0.021166
  23 C :    0.037057
  24 C :    0.037566
  25 C :   -0.026457
  26 C :    0.035448
  27 C :    0.307056
  28 C :   -0.310125
  29 C :   -0.193139
  30 N :    0.141389
  31 C :   -0.186167
  32 N :    0.156908
  33 C :    0.144142
  34 O :   -0.167560
  35 N :   -0.225192
  36 C :    0.134588
  37 N :   -0.231565
  38 C :    0.116861
  39 C :    0.159362
  40 O :   -0.150287
  41 C :   -0.069319
  42 N :   -0.035860
  43 C :    0.036648
  44 C :    0.036296
  45 N :   -0.026558
  46 C :   -0.067511
  47 C :    0.211535
  48 C :    0.197349
  49 C :   -0.139665
  50 C :   -0.026665
  51 C :   -0.117078
  52 C :    0.113761
  53 O :   -0.156110
  54 C :    0.010406
  55 C :   -0.008881
  56 C :   -0.015678
  57 C :    0.005629
  58 C :    0.076725
  59 C :   -0.022224
  60 C :    0.039580
  61 C :    0.039570
  62 C :   -0.028829
  63 C :    0.036287
  64 C :    0.309006
  65 C :   -0.300490
  66 C :   -0.201239
  67 N :    0.146348
  68 C :   -0.188593
  69 N :    0.155259
  70 C :    0.149086
  71 O :   -0.170365
  72 N :   -0.225260
  73 C :    0.133908
  74 H :    0.060190
  75 H :    0.048518
  76 H :    0.050181
  77 H :   -0.005291
  78 H :   -0.001484
  79 H :    0.009593
  80 H :    0.003258
  81 H :   -0.012415
  82 H :   -0.021305
  83 H :   -0.007255
  84 H :   -0.008115
  85 H :   -0.001074
  86 H :    0.052266
  87 H :    0.036378
  88 H :    0.036567
  89 H :    0.048648
  90 H :    0.060314
  91 H :    0.046534
  92 H :    0.017437
  93 H :    0.024369
  94 H :    0.003247
  95 H :    0.001725
  96 H :   -0.014225
  97 H :   -0.022318
  98 H :   -0.008192
  99 H :   -0.008782
 100 H :   -0.001816
 101 H :    0.052867
 102 H :    0.030673
 103 H :    0.043758
Sum of atomic charges:    0.0000000

LOEWDIN ATOMIC CHARGES
----------------------
   0 C :    0.036912
   1 N :   -0.012614
   2 C :    0.107166
   3 O :   -0.145597
   4 C :   -0.095803
   5 C :   -0.022723
   6 C :    0.009528
   7 C :    0.010758
   8 C :   -0.020926
   9 C :   -0.092596
  10 C :    0.070593
  11 C :    0.087391
  12 C :   -0.125088
  13 C :    0.054998
  14 C :   -0.076264
  15 C :    0.088604
  16 O :   -0.145907
  17 C :   -0.035188
  18 C :    0.001923
  19 C :   -0.014641
  20 C :    0.019521
  21 C :   -0.010008
  22 C :   -0.012323
  23 C :   -0.014160
  24 C :   -0.012993
  25 C :   -0.003183
  26 C :   -0.002706
  27 C :    0.080905
  28 C :   -0.128980
  29 C :   -0.009703
  30 N :   -0.066314
  31 C :   -0.018234
  32 N :   -0.052806
  33 C :    0.097473
  34 O :   -0.164053
  35 N :   -0.002318
  36 C :    0.032545
  37 N :   -0.011683
  38 C :    0.037033
  39 C :    0.108495
  40 O :   -0.146089
  41 C :   -0.006565
  42 N :   -0.039941
  43 C :    0.002559
  44 C :    0.005423
  45 N :   -0.033092
  46 C :   -0.006312
  47 C :    0.070176
  48 C :    0.088628
  49 C :   -0.122714
  50 C :    0.053832
  51 C :   -0.076517
  52 C :    0.088739
  53 O :   -0.147318
  54 C :   -0.035373
  55 C :    0.001960
  56 C :   -0.014500
  57 C :    0.019153
  58 C :   -0.010274
  59 C :   -0.012459
  60 C :   -0.014331
  61 C :   -0.013209
  62 C :   -0.003501
  63 C :   -0.002639
  64 C :    0.078930
  65 C :   -0.126922
  66 C :   -0.012893
  67 N :   -0.061282
  68 C :   -0.017929
  69 N :   -0.054075
  70 C :    0.099563
  71 O :   -0.163896
  72 N :   -0.002826
  73 C :    0.032767
  74 H :    0.043423
  75 H :    0.030265
  76 H :    0.035601
  77 H :    0.037422
  78 H :    0.038515
  79 H :    0.044306
  80 H :    0.040635
  81 H :    0.035471
  82 H :    0.030157
  83 H :    0.031626
  84 H :    0.032050
  85 H :    0.034864
  86 H :    0.038703
  87 H :    0.024857
  88 H :    0.029955
  89 H :    0.034264
  90 H :    0.043336
  91 H :    0.030703
  92 H :    0.027991
  93 H :    0.031111
  94 H :    0.043283
  95 H :    0.040418
  96 H :    0.035128
  97 H :    0.029961
  98 H :    0.031327
  99 H :    0.031877
 100 H :    0.034730
 101 H :    0.038780
 102 H :    0.027627
 103 H :    0.027505

  Mayer bond orders larger than 0.100000
B(  0-C ,  1-N ) :   0.9480 B(  0-C , 74-H ) :   0.9573 B(  0-C , 75-H ) :   0.9734
B(  0-C , 76-H ) :   0.9723 B(  1-N ,  2-C ) :   1.0003 B(  1-N , 48-C ) :   1.2009
B(  2-C ,  3-O ) :   2.1871 B(  2-C ,  4-C ) :   0.9439 B(  4-C ,  5-C ) :   0.9647
B(  4-C , 47-C ) :   1.6201 B(  5-C ,  6-C ) :   1.4596 B(  5-C ,  8-C ) :   0.1158
B(  5-C , 46-C ) :   1.2705 B(  6-C ,  7-C ) :   1.2234 B(  6-C , 77-H ) :   0.9996
B(  7-C ,  8-C ) :   1.4599 B(  7-C , 78-H ) :   0.9972 B(  8-C ,  9-C ) :   0.9700
B(  8-C , 41-C ) :   1.2668 B(  9-C , 10-C ) :   1.6211 B(  9-C , 39-C ) :   0.9435
B( 10-C , 11-C ) :   1.0431 B( 10-C , 35-N ) :   1.1601 B( 11-C , 12-C ) :   1.5219
B( 11-C , 37-N ) :   1.2011 B( 12-C , 13-C ) :   1.0823 B( 12-C , 33-C ) :   0.9087
B( 13-C , 14-C ) :   1.7108 B( 13-C , 79-H ) :   0.9504 B( 14-C , 15-C ) :   0.9548
B( 14-C , 27-C ) :   1.0125 B( 15-C , 16-O ) :   2.1885 B( 15-C , 17-C ) :   0.9440
B( 17-C , 18-C ) :   1.4105 B( 17-C , 26-C ) :   1.2336 B( 18-C , 19-C ) :   1.2625
B( 18-C , 27-C ) :   1.0077 B( 19-C , 20-C ) :   1.4674 B( 19-C , 80-H ) :   0.9860
B( 20-C , 21-C ) :   1.2220 B( 20-C , 81-H ) :   0.9946 B( 21-C , 22-C ) :   1.2404
B( 21-C , 26-C ) :   1.2426 B( 22-C , 23-C ) :   1.4950 B( 22-C , 82-H ) :   0.9977
B( 23-C , 24-C ) :   1.2549 B( 23-C , 83-H ) :   0.9892 B( 24-C , 25-C ) :   1.4741
B( 24-C , 84-H ) :   0.9879 B( 25-C , 26-C ) :   1.2756 B( 25-C , 85-H ) :   0.9870
B( 27-C , 28-C ) :   1.6575 B( 28-C , 29-C ) :   1.1690 B( 28-C , 31-C ) :   1.1344
B( 29-C , 30-N ) :   2.9879 B( 31-C , 32-N ) :   2.9968 B( 33-C , 34-O ) :   2.1447
B( 33-C , 35-N ) :   1.0615 B( 35-N , 36-C ) :   0.9522 B( 36-C , 86-H ) :   0.9535
B( 36-C , 87-H ) :   0.9662 B( 36-C , 88-H ) :   0.9717 B( 37-N , 38-C ) :   0.9494
B( 37-N , 39-C ) :   1.0046 B( 38-C , 89-H ) :   0.9710 B( 38-C , 90-H ) :   0.9571
B( 38-C , 91-H ) :   0.9752 B( 39-C , 40-O ) :   2.1814 B( 41-C , 42-N ) :   1.4537
B( 41-C , 46-C ) :   1.2196 B( 42-N , 43-C ) :   1.6162 B( 43-C , 44-C ) :   1.2316
B( 43-C , 92-H ) :   0.9742 B( 44-C , 45-N ) :   1.6211 B( 44-C , 93-H ) :   0.9751
B( 45-N , 46-C ) :   1.4589 B( 47-C , 48-C ) :   1.0465 B( 47-C , 72-N ) :   1.1606
B( 48-C , 49-C ) :   1.5163 B( 49-C , 50-C ) :   1.0971 B( 49-C , 70-C ) :   0.9021
B( 50-C , 51-C ) :   1.7048 B( 50-C , 94-H ) :   0.9500 B( 51-C , 52-C ) :   0.9541
B( 51-C , 64-C ) :   1.0123 B( 52-C , 53-O ) :   2.1840 B( 52-C , 54-C ) :   0.9446
B( 54-C , 55-C ) :   1.4121 B( 54-C , 63-C ) :   1.2325 B( 55-C , 56-C ) :   1.2633
B( 55-C , 64-C ) :   1.0045 B( 56-C , 57-C ) :   1.4673 B( 56-C , 95-H ) :   0.9855
B( 57-C , 58-C ) :   1.2232 B( 57-C , 96-H ) :   0.9937 B( 58-C , 59-C ) :   1.2397
B( 58-C , 63-C ) :   1.2442 B( 59-C , 60-C ) :   1.4947 B( 59-C , 97-H ) :   0.9976
B( 60-C , 61-C ) :   1.2568 B( 60-C , 98-H ) :   0.9889 B( 61-C , 62-C ) :   1.4744
B( 61-C , 99-H ) :   0.9868 B( 62-C , 63-C ) :   1.2762 B( 62-C ,100-H ) :   0.9863
B( 64-C , 65-C ) :   1.6630 B( 65-C , 66-C ) :   1.1612 B( 65-C , 68-C ) :   1.1357
B( 66-C , 67-N ) :   2.9976 B( 68-C , 69-N ) :   2.9955 B( 70-C , 71-O ) :   2.1420
B( 70-C , 72-N ) :   1.0597 B( 72-N , 73-C ) :   0.9520 B( 73-C ,101-H ) :   0.9535
B( 73-C ,102-H ) :   0.9729 B( 73-C ,103-H ) :   0.9662

-----------------------------------------------------------------------------
         ABSORPTION SPECTRUM VIA TRANSITION ELECTRIC DIPOLE MOMENTS
-----------------------------------------------------------------------------
State   Energy  Wavelength   fosc         T2         TX        TY        TZ
        (cm-1)    (nm)                  (au**2)     (au)      (au)      (au)
-----------------------------------------------------------------------------
   0   20418.5    489.8   0.191670005   3.09033  -1.39615  -1.05061   0.19319
   1   21284.9    469.8   0.011461826   0.17728  -0.19228   0.37004  -0.05814
   2   23988.3    416.9   1.263031305  17.33364   2.93723   2.84272   0.79074
   3   25020.3    399.7   0.374596669   4.92887  -1.29224   1.50198  -1.00153
   4   26205.7    381.6   0.013209173   0.16594  -0.17103  -0.03603   0.36796
   5   26437.2    378.3   0.011922843   0.14847   0.20586   0.00745   0.32564
   6   27525.7    363.3   0.140722869   1.68307   0.92161   0.88541  -0.22308
   7   27679.8    361.3   0.152907117   1.81861  -1.32188  -0.25556  -0.07710
   8   27765.3    360.2   0.102191478   1.21168  -0.33789  -0.95013   0.44131
   9   29619.2    337.6   0.016445681   0.18279   0.34644  -0.23100   0.09700
  10   29707.9    336.6   0.150820377   1.67134   0.05819   0.62338  -1.13108
  11   29918.9    334.2   0.150348689   1.65436   0.92832  -0.84971   0.26564
  12   30064.1    332.6   0.003090281   0.03384  -0.15719  -0.08240  -0.04839
  13   30411.7    328.8   0.042166593   0.45646  -0.18559   0.43970  -0.47821
  14   30416.2    328.8   0.063689097   0.68934   0.66641   0.46221  -0.17778
  15   30600.4    326.8   0.060111493   0.64670  -0.37787   0.70984  -0.00740
  16   31083.2    321.7   0.306155197   3.24259  -0.94157   1.37837  -0.67538
  17   31754.1    314.9   0.088694621   0.91954  -0.77126  -0.30314   0.48251
  18   31987.0    312.6   0.107427593   1.10565   0.77766   0.15981  -0.68946
  19   32068.3    311.8   0.015318340   0.15726  -0.22060   0.32136  -0.07296
  20   32284.3    309.7   0.119599701   1.21959  -0.65067   0.09660   0.88707
  21   32432.7    308.3   0.048307422   0.49035   0.03951   0.34486  -0.60816
  22   32927.4    303.7   0.058413004   0.58402  -0.33290  -0.38590   0.56946
  23   33063.1    302.5   1.163223121  11.58229   2.84201   1.79947  -0.51691
  24   33206.9    301.1   0.043287262   0.42915  -0.40340   0.05513  -0.51320
  25   33389.9    299.5   0.170752924   1.68356   0.77646   1.02802  -0.15440
  26   33706.8    296.7   0.040812679   0.39861   0.27793   0.43366  -0.36512
  27   33899.2    295.0   0.001470042   0.01428  -0.11288   0.02477   0.03034
  28   34085.0    293.4   0.020861571   0.20149  -0.37451  -0.14236   0.20241
  29   34202.0    292.4   0.037684870   0.36274  -0.11767  -0.57666   0.12786
  30   34391.6    290.8   0.023411580   0.22411   0.13348   0.20929   0.40310
  31   35036.7    285.4   0.025856244   0.24295  -0.38010   0.30012   0.09166
  32   35684.1    280.2   0.088747262   0.81876  -0.42832  -0.69147   0.39645
  33   35840.6    279.0   0.124979374   1.14799  -0.99364  -0.32539   0.23407
  34   35963.3    278.1   0.035711129   0.32690  -0.43500  -0.03570   0.36933
  35   36002.3    277.8   0.055433902   0.50690  -0.05090   0.46691  -0.53507
  36   36321.7    275.3   0.010232152   0.09274   0.20243  -0.22707  -0.01426
  37   36589.2    273.3   0.028308287   0.25470  -0.33967  -0.27387  -0.25362
  38   36762.8    272.0   0.037784477   0.33836  -0.13788  -0.43202   0.36429
  39   36955.0    270.6   0.010779691   0.09603  -0.14240  -0.23006  -0.15108
  40   37266.6    268.3   0.057629868   0.50910   0.50471   0.24245  -0.44225
  41   37479.1    266.8   0.033102743   0.29077  -0.38498   0.23040  -0.29913
  42   37656.1    265.6   0.160182322   1.40041   0.85297   0.55258  -0.60622
  43   38112.4    262.4   0.022286972   0.19251   0.32396  -0.28617  -0.07529
  44   38351.9    260.7   0.008886757   0.07628   0.14525  -0.22586  -0.06460
  45   38712.9    258.3   0.013271316   0.11286   0.03742  -0.18906   0.27517
  46   39319.6    254.3   0.003984134   0.03336   0.14592   0.08916  -0.06417
  47   39824.1    251.1   0.021875522   0.18084  -0.36204  -0.21956   0.03949
  48   39852.5    250.9   0.112435019   0.92880  -0.90056  -0.31652  -0.13270
  49   40094.3    249.4   0.006111927   0.05018   0.10782  -0.04656  -0.19077
  50   40323.9    248.0   0.013162263   0.10746  -0.14816  -0.26193   0.13000

FINAL SINGLE POINT ENERGY     -3223.078854350218

DIPOLE MOMENT
-------------
                                X             Y             Z
Electronic contribution:     -2.58265       1.30096      -4.26864
Nuclear contribution   :      3.01523      -1.11649       4.47328
                        -----------------------------------------
Total Dipole Moment    :      0.43259       0.18447       0.20465
                        -----------------------------------------
Magnitude (a.u.)       :      0.51288
Magnitude (Debye)      :      1.30363

Rotational constants in cm-1:     0.002426     0.000280     0.000265
Rotational constants in MHz :    72.731177     8.408248     7.938761

                             ****ORCA TERMINATED NORMALLY****
TOTAL RUN TIME: 0 days 0 hours 10 minutes 48 seconds 721 msec
