                         Program Version 4.2.0 -  RELEASE  -
|  1> # ORCA input file
|  2> # SCF done       -163.252201205326          0.000296776655
|  3> ! CAM-B3LYP def2-SVP def2/J RIJCOSX Grid4 TightSCF
|  4> %maxcore 5000
|  5> %tddft
|  6>     Mode sTDDFT
|  7>     Ethresh 5.0
|  8>     maxcore 5000
|  9> end
| 10>
| 11> %pal
| 12>   nprocs 6
| 13>   end
| 14> * xyz 0 1
| 15>    N       23.47896        -1.95914        -4.61006
| 16>    C       22.34258        -1.96075        -4.76811
| 17>    C       20.94556        -1.98695        -4.96430
| 18>    C       20.44404        -3.29527        -5.10695
| 19>    N       20.10136        -4.38613        -5.21647
| 20>    C       20.21328        -0.82934        -5.00579
| 21>    C       18.78200        -0.66191        -5.20004
| 22>    C       17.88395        -1.68414        -5.35658
| 23>    C       16.49289        -1.66054        -5.55066
| 24>    C       15.75681        -2.83954        -5.68106
| 25>    C       14.40851        -2.60061        -5.86855
| 26>    S       13.02061        -3.63513        -6.08811
| 27>    C       12.00787        -2.22709        -6.20522
| 28>    C       10.63305        -2.04908        -6.39940
| 29>    C       10.29054        -0.71876        -6.42574
| 30>    C        8.96580        -0.14942        -6.53585
| 31>    C        8.60745         1.00836        -5.90149
| 32>    S        6.94616         1.37131        -6.06438
| 33>    C        6.66927        -0.07035        -7.00753
| 34>    C        5.34103        -0.32190        -7.46421
| 35>    C        4.33421         0.62681        -7.47391
| 36>    C        3.12200         0.09778        -7.90544
| 37>    S        1.53178         0.76753        -8.13585
| 38>    C        0.95598        -0.79533        -8.64463
| 39>    C       -0.27881        -1.27184        -9.07302
| 40>    C       -0.24880        -2.62794        -9.34370
| 41>    C       -1.32416        -3.39520        -9.85352
| 42>    C       -1.49131        -4.74483        -9.84864
| 43>    C       -2.41234        -5.37113       -10.84713
| 44>    O       -3.22876        -4.80213       -11.53073
| 45>    C       -2.04407        -6.79340       -10.83297
| 46>    C       -1.07800        -7.03408        -9.80017
| 47>    C       -0.68464        -8.33188        -9.72192
| 48>    S       -1.47748        -9.29515       -10.91620
| 49>    C       -2.36950        -7.92046       -11.52598
| 50>   Cl       -3.46561        -8.08080       -12.80781
| 51>    C       -0.83601        -5.79303        -9.08902
| 52>    C       -0.33391        -5.70823        -7.81756
| 53>    C        0.18739        -6.83801        -7.15575
| 54>    N        0.62224        -7.75087        -6.61361
| 55>    C       -0.38507        -4.54016        -7.03143
| 56>    N       -0.46518        -3.61947        -6.35063
| 57>    S        1.36113        -3.30524        -9.11990
| 58>    C        1.96131        -1.77347        -8.62767
| 59>    C        3.19585        -1.26820        -8.20972
| 60>    S        4.78465        -1.89852        -7.98656
| 61>    C        7.85245        -0.76170        -7.20105
| 62>    C        7.95359        -1.92696        -8.09988
| 63>    O        7.10809        -2.77977        -8.18949
| 64>    O        9.04624        -1.97807        -8.87921
| 65>    S       11.67190         0.33703        -6.19675
| 66>    C       12.71854        -1.02932        -6.07965
| 67>    C       14.08933        -1.22985        -5.88646
| 68>    S       15.47207        -0.23096        -5.66479
| 69>    C       18.45085         0.77591        -5.19064
| 70>    O       17.35215         1.27816        -5.33321
| 71>    C       19.72440         1.46515        -4.97266
| 72>    C       20.77723         0.49994        -4.86176
| 73>    C       21.99821         1.06227        -4.65644
| 74>    S       21.89048         2.78435        -4.59376
| 75>    C       20.16129         2.74976        -4.85008
| 76>   Cl       19.25029         4.17614        -4.91947
| 77>    H       18.28649        -2.68995        -5.32861
| 78>    H       16.20747        -3.81449        -5.63773
| 79>    H        9.92912        -2.85573        -6.49221
| 80>    H        9.24215         1.64830        -5.32128
| 81>    H        4.48397         1.65184        -7.18686
| 82>    H       -1.16978        -0.67686        -9.15394
| 83>    H       -2.08038        -2.83653       -10.39731
| 84>    H        0.02143        -8.78899        -9.05747
| 85>    H        9.65796        -1.24522        -8.72328
| 86>    H       22.95403         0.59220        -4.53666
| 87> *
| 88>
| 89>                          ****END OF INPUT****

CARTESIAN COORDINATES (ANGSTROEM)
---------------------------------
  N     23.478960   -1.959140   -4.610060
  C     22.342580   -1.960750   -4.768110
  C     20.945560   -1.986950   -4.964300
  C     20.444040   -3.295270   -5.106950
  N     20.101360   -4.386130   -5.216470
  C     20.213280   -0.829340   -5.005790
  C     18.782000   -0.661910   -5.200040
  C     17.883950   -1.684140   -5.356580
  C     16.492890   -1.660540   -5.550660
  C     15.756810   -2.839540   -5.681060
  C     14.408510   -2.600610   -5.868550
  S     13.020610   -3.635130   -6.088110
  C     12.007870   -2.227090   -6.205220
  C     10.633050   -2.049080   -6.399400
  C     10.290540   -0.718760   -6.425740
  C      8.965800   -0.149420   -6.535850
  C      8.607450    1.008360   -5.901490
  S      6.946160    1.371310   -6.064380
  C      6.669270   -0.070350   -7.007530
  C      5.341030   -0.321900   -7.464210
  C      4.334210    0.626810   -7.473910
  C      3.122000    0.097780   -7.905440
  S      1.531780    0.767530   -8.135850
  C      0.955980   -0.795330   -8.644630
  C     -0.278810   -1.271840   -9.073020
  C     -0.248800   -2.627940   -9.343700
  C     -1.324160   -3.395200   -9.853520
  C     -1.491310   -4.744830   -9.848640
  C     -2.412340   -5.371130  -10.847130
  O     -3.228760   -4.802130  -11.530730
  C     -2.044070   -6.793400  -10.832970
  C     -1.078000   -7.034080   -9.800170
  C     -0.684640   -8.331880   -9.721920
  S     -1.477480   -9.295150  -10.916200
  C     -2.369500   -7.920460  -11.525980
  Cl    -3.465610   -8.080800  -12.807810
  C     -0.836010   -5.793030   -9.089020
  C     -0.333910   -5.708230   -7.817560
  C      0.187390   -6.838010   -7.155750
  N      0.622240   -7.750870   -6.613610
  C     -0.385070   -4.540160   -7.031430
  N     -0.465180   -3.619470   -6.350630
  S      1.361130   -3.305240   -9.119900
  C      1.961310   -1.773470   -8.627670
  C      3.195850   -1.268200   -8.209720
  S      4.784650   -1.898520   -7.986560
  C      7.852450   -0.761700   -7.201050
  C      7.953590   -1.926960   -8.099880
  O      7.108090   -2.779770   -8.189490
  O      9.046240   -1.978070   -8.879210
  S     11.671900    0.337030   -6.196750
  C     12.718540   -1.029320   -6.079650
  C     14.089330   -1.229850   -5.886460
  S     15.472070   -0.230960   -5.664790
  C     18.450850    0.775910   -5.190640
  O     17.352150    1.278160   -5.333210
  C     19.724400    1.465150   -4.972660
  C     20.777230    0.499940   -4.861760
  C     21.998210    1.062270   -4.656440
  S     21.890480    2.784350   -4.593760
  C     20.161290    2.749760   -4.850080
  Cl    19.250290    4.176140   -4.919470
  H     18.286490   -2.689950   -5.328610
  H     16.207470   -3.814490   -5.637730
  H      9.929120   -2.855730   -6.492210
  H      9.242150    1.648300   -5.321280
  H      4.483970    1.651840   -7.186860
  H     -1.169780   -0.676860   -9.153940
  H     -2.080380   -2.836530  -10.397310
  H      0.021430   -8.788990   -9.057470
  H      9.657960   -1.245220   -8.723280
  H     22.954030    0.592200   -4.536660

 Total Charge           Charge          ....    0
 Multiplicity           Mult            ....    1
 Number of Electrons    NEL             ....  506
 Basis Dimension        Dim             ....  962

ORBITAL ENERGIES
----------------

  NO   OCC          E(Eh)            E(eV)
   0   2.0000    -101.619127     -2765.1970
   1   2.0000    -101.612730     -2765.0230
   2   2.0000     -88.993634     -2421.6399
   3   2.0000     -88.987694     -2421.4783
   4   2.0000     -88.986278     -2421.4397
   5   2.0000     -88.983728     -2421.3703
   6   2.0000     -88.975186     -2421.1379
   7   2.0000     -88.974329     -2421.1146
   8   2.0000     -88.972798     -2421.0729
   9   2.0000     -88.970152     -2421.0009
  10   2.0000     -88.967125     -2420.9185
  11   2.0000     -19.271846      -524.4136
  12   2.0000     -19.227026      -523.1940
  13   2.0000     -19.217652      -522.9389
  14   2.0000     -19.213251      -522.8191
  15   2.0000     -14.422220      -392.4486
  16   2.0000     -14.418005      -392.3339
  17   2.0000     -14.414704      -392.2440
  18   2.0000     -14.411170      -392.1479
  19   2.0000     -10.421230      -283.5761
  20   2.0000     -10.381077      -282.4835
  21   2.0000     -10.377367      -282.3825
  22   2.0000     -10.371027      -282.2100
  23   2.0000     -10.370626      -282.1991
  24   2.0000     -10.349013      -281.6110
  25   2.0000     -10.345470      -281.5145
  26   2.0000     -10.344071      -281.4765
  27   2.0000     -10.343419      -281.4587
  28   2.0000     -10.341977      -281.4195
  29   2.0000     -10.335894      -281.2540
  30   2.0000     -10.330406      -281.1046
  31   2.0000     -10.329978      -281.0930
  32   2.0000     -10.327372      -281.0221
  33   2.0000     -10.326307      -280.9931
  34   2.0000     -10.325678      -280.9760
  35   2.0000     -10.325059      -280.9591
  36   2.0000     -10.324970      -280.9567
  37   2.0000     -10.323693      -280.9220
  38   2.0000     -10.323444      -280.9152
  39   2.0000     -10.322512      -280.8898
  40   2.0000     -10.322336      -280.8850
  41   2.0000     -10.321941      -280.8743
  42   2.0000     -10.320762      -280.8422
  43   2.0000     -10.320698      -280.8405
  44   2.0000     -10.320465      -280.8341
  45   2.0000     -10.319319      -280.8030
  46   2.0000     -10.316734      -280.7326
  47   2.0000     -10.314262      -280.6653
  48   2.0000     -10.314080      -280.6604
  49   2.0000     -10.313375      -280.6412
  50   2.0000     -10.312773      -280.6248
  51   2.0000     -10.311631      -280.5937
  52   2.0000     -10.311393      -280.5873
  53   2.0000     -10.310336      -280.5585
  54   2.0000     -10.307759      -280.4884
  55   2.0000     -10.306734      -280.4605
  56   2.0000     -10.305835      -280.4360
  57   2.0000     -10.305042      -280.4144
  58   2.0000     -10.300903      -280.3018
  59   2.0000     -10.298578      -280.2385
  60   2.0000     -10.298431      -280.2346
  61   2.0000     -10.295302      -280.1494
  62   2.0000      -9.573913      -260.5194
  63   2.0000      -9.567516      -260.3454
  64   2.0000      -8.089354      -220.1225
  65   2.0000      -8.083418      -219.9610
  66   2.0000      -8.082179      -219.9273
  67   2.0000      -8.078709      -219.8329
  68   2.0000      -8.069530      -219.5831
  69   2.0000      -8.068146      -219.5454
  70   2.0000      -8.067461      -219.5268
  71   2.0000      -8.063532      -219.4199
  72   2.0000      -8.062331      -219.3872
  73   2.0000      -7.344544      -199.8552
  74   2.0000      -7.338123      -199.6805
  75   2.0000      -7.333944      -199.5668
  76   2.0000      -7.333425      -199.5526
  77   2.0000      -7.327572      -199.3934
  78   2.0000      -7.327036      -199.3788
  79   2.0000      -6.058771      -164.8675
  80   2.0000      -6.054155      -164.7419
  81   2.0000      -6.052826      -164.7058
  82   2.0000      -6.051552      -164.6711
  83   2.0000      -6.051530      -164.6705
  84   2.0000      -6.048270      -164.5818
  85   2.0000      -6.048241      -164.5810
  86   2.0000      -6.047073      -164.5492
  87   2.0000      -6.045599      -164.5091
  88   2.0000      -6.044350      -164.4751
  89   2.0000      -6.044104      -164.4684
  90   2.0000      -6.040373      -164.3669
  91   2.0000      -6.039299      -164.3377
  92   2.0000      -6.037920      -164.3002
  93   2.0000      -6.037034      -164.2760
  94   2.0000      -6.035422      -164.2322
  95   2.0000      -6.033292      -164.1742
  96   2.0000      -6.033264      -164.1735
  97   2.0000      -6.032925      -164.1642
  98   2.0000      -6.032116      -164.1422
  99   2.0000      -6.030406      -164.0957
 100   2.0000      -6.029786      -164.0788
 101   2.0000      -6.029048      -164.0587
 102   2.0000      -6.028719      -164.0498
 103   2.0000      -6.028239      -164.0367
 104   2.0000      -6.025108      -163.9515
 105   2.0000      -6.023223      -163.9002
 106   2.0000      -1.198414       -32.6105
 107   2.0000      -1.144322       -31.1386
 108   2.0000      -1.130459       -30.7613
 109   2.0000      -1.114282       -30.3211
 110   2.0000      -1.039125       -28.2760
 111   2.0000      -1.038068       -28.2473
 112   2.0000      -1.033332       -28.1184
 113   2.0000      -1.030574       -28.0433
 114   2.0000      -1.019110       -27.7314
 115   2.0000      -1.017889       -27.6982
 116   2.0000      -1.010790       -27.5050
 117   2.0000      -0.999050       -27.1855
 118   2.0000      -0.997994       -27.1568
 119   2.0000      -0.992553       -27.0087
 120   2.0000      -0.988931       -26.9102
 121   2.0000      -0.986554       -26.8455
 122   2.0000      -0.981648       -26.7120
 123   2.0000      -0.956999       -26.0413
 124   2.0000      -0.950837       -25.8736
 125   2.0000      -0.945391       -25.7254
 126   2.0000      -0.935671       -25.4609
 127   2.0000      -0.909219       -24.7411
 128   2.0000      -0.902867       -24.5683
 129   2.0000      -0.896521       -24.3956
 130   2.0000      -0.893000       -24.2998
 131   2.0000      -0.886852       -24.1325
 132   2.0000      -0.878202       -23.8971
 133   2.0000      -0.866550       -23.5800
 134   2.0000      -0.856045       -23.2942
 135   2.0000      -0.851542       -23.1716
 136   2.0000      -0.845229       -22.9998
 137   2.0000      -0.833525       -22.6814
 138   2.0000      -0.827208       -22.5095
 139   2.0000      -0.818737       -22.2790
 140   2.0000      -0.810811       -22.0633
 141   2.0000      -0.802248       -21.8303
 142   2.0000      -0.796303       -21.6685
 143   2.0000      -0.779271       -21.2050
 144   2.0000      -0.763857       -20.7856
 145   2.0000      -0.756649       -20.5895
 146   2.0000      -0.749039       -20.3824
 147   2.0000      -0.734421       -19.9846
 148   2.0000      -0.723584       -19.6897
 149   2.0000      -0.717835       -19.5333
 150   2.0000      -0.694811       -18.9068
 151   2.0000      -0.691911       -18.8279
 152   2.0000      -0.688484       -18.7346
 153   2.0000      -0.680900       -18.5282
 154   2.0000      -0.677890       -18.4463
 155   2.0000      -0.673311       -18.3217
 156   2.0000      -0.669643       -18.2219
 157   2.0000      -0.663481       -18.0542
 158   2.0000      -0.661532       -18.0012
 159   2.0000      -0.643345       -17.5063
 160   2.0000      -0.640769       -17.4362
 161   2.0000      -0.640299       -17.4234
 162   2.0000      -0.630231       -17.1495
 163   2.0000      -0.620381       -16.8814
 164   2.0000      -0.617012       -16.7897
 165   2.0000      -0.613332       -16.6896
 166   2.0000      -0.608645       -16.5621
 167   2.0000      -0.601642       -16.3715
 168   2.0000      -0.597969       -16.2716
 169   2.0000      -0.585912       -15.9435
 170   2.0000      -0.578002       -15.7282
 171   2.0000      -0.569857       -15.5066
 172   2.0000      -0.561144       -15.2695
 173   2.0000      -0.560531       -15.2528
 174   2.0000      -0.553503       -15.0616
 175   2.0000      -0.553164       -15.0523
 176   2.0000      -0.550642       -14.9837
 177   2.0000      -0.545730       -14.8501
 178   2.0000      -0.542155       -14.7528
 179   2.0000      -0.540262       -14.7013
 180   2.0000      -0.536730       -14.6052
 181   2.0000      -0.535956       -14.5841
 182   2.0000      -0.531104       -14.4521
 183   2.0000      -0.529369       -14.4049
 184   2.0000      -0.526947       -14.3390
 185   2.0000      -0.523811       -14.2536
 186   2.0000      -0.520542       -14.1647
 187   2.0000      -0.520426       -14.1615
 188   2.0000      -0.518108       -14.0984
 189   2.0000      -0.513044       -13.9606
 190   2.0000      -0.506711       -13.7883
 191   2.0000      -0.506288       -13.7768
 192   2.0000      -0.502123       -13.6635
 193   2.0000      -0.500964       -13.6319
 194   2.0000      -0.498227       -13.5575
 195   2.0000      -0.496784       -13.5182
 196   2.0000      -0.496299       -13.5050
 197   2.0000      -0.493471       -13.4280
 198   2.0000      -0.488366       -13.2891
 199   2.0000      -0.485228       -13.2037
 200   2.0000      -0.482747       -13.1362
 201   2.0000      -0.477001       -12.9799
 202   2.0000      -0.476432       -12.9644
 203   2.0000      -0.473550       -12.8860
 204   2.0000      -0.471219       -12.8225
 205   2.0000      -0.468689       -12.7537
 206   2.0000      -0.461671       -12.5627
 207   2.0000      -0.457078       -12.4377
 208   2.0000      -0.455583       -12.3970
 209   2.0000      -0.453574       -12.3424
 210   2.0000      -0.450544       -12.2599
 211   2.0000      -0.447049       -12.1648
 212   2.0000      -0.446810       -12.1583
 213   2.0000      -0.446444       -12.1484
 214   2.0000      -0.445029       -12.1099
 215   2.0000      -0.440288       -11.9808
 216   2.0000      -0.439938       -11.9713
 217   2.0000      -0.438279       -11.9262
 218   2.0000      -0.434363       -11.8196
 219   2.0000      -0.432939       -11.7809
 220   2.0000      -0.431363       -11.7380
 221   2.0000      -0.429240       -11.6802
 222   2.0000      -0.428108       -11.6494
 223   2.0000      -0.423642       -11.5279
 224   2.0000      -0.422659       -11.5011
 225   2.0000      -0.419297       -11.4096
 226   2.0000      -0.418844       -11.3973
 227   2.0000      -0.412816       -11.2333
 228   2.0000      -0.410928       -11.1819
 229   2.0000      -0.406833       -11.0705
 230   2.0000      -0.403795       -10.9878
 231   2.0000      -0.403496       -10.9797
 232   2.0000      -0.399423       -10.8689
 233   2.0000      -0.395237       -10.7550
 234   2.0000      -0.389560       -10.6005
 235   2.0000      -0.383377       -10.4322
 236   2.0000      -0.367754       -10.0071
 237   2.0000      -0.365791        -9.9537
 238   2.0000      -0.356404        -9.6982
 239   2.0000      -0.351145        -9.5551
 240   2.0000      -0.342483        -9.3194
 241   2.0000      -0.340151        -9.2560
 242   2.0000      -0.339892        -9.2489
 243   2.0000      -0.338773        -9.2185
 244   2.0000      -0.333913        -9.0862
 245   2.0000      -0.328852        -8.9485
 246   2.0000      -0.319642        -8.6979
 247   2.0000      -0.311144        -8.4666
 248   2.0000      -0.304475        -8.2852
 249   2.0000      -0.299849        -8.1593
 250   2.0000      -0.290869        -7.9150
 251   2.0000      -0.271767        -7.3952
 252   2.0000      -0.257835        -7.0161
 253   0.0000      -0.100801        -2.7429
 254   0.0000      -0.095971        -2.6115
 255   0.0000      -0.056436        -1.5357
 256   0.0000      -0.052810        -1.4370
 257   0.0000      -0.040894        -1.1128

MULLIKEN ATOMIC CHARGES
-----------------------
   0 N :    0.152911
   1 C :   -0.196704
   2 C :   -0.338409
   3 C :   -0.182644
   4 N :    0.146483
   5 C :    0.308791
   6 C :   -0.111357
   7 C :   -0.024072
   8 C :   -0.054089
   9 C :   -0.048332
  10 C :   -0.000445
  11 S :    0.178420
  12 C :   -0.026802
  13 C :   -0.029734
  14 C :   -0.179358
  15 C :    0.104461
  16 C :   -0.116450
  17 S :    0.156110
  18 C :   -0.109002
  19 C :   -0.062717
  20 C :   -0.073057
  21 C :   -0.008959
  22 S :    0.163411
  23 C :   -0.014923
  24 C :    0.011201
  25 C :   -0.094964
  26 C :    0.047695
  27 C :   -0.148559
  28 C :    0.134868
  29 O :   -0.132093
  30 C :    0.089236
  31 C :    0.018318
  32 C :   -0.126896
  33 S :    0.179119
  34 C :   -0.173740
  35 Cl:   -0.003056
  36 C :    0.241889
  37 C :   -0.306541
  38 C :   -0.180729
  39 N :    0.154900
  40 C :   -0.207576
  41 N :    0.175361
  42 S :    0.175241
  43 C :   -0.066580
  44 C :   -0.064437
  45 S :    0.221080
  46 C :   -0.016942
  47 C :    0.144302
  48 O :   -0.188962
  49 O :   -0.149891
  50 S :    0.168639
  51 C :   -0.086278
  52 C :   -0.052308
  53 S :    0.212015
  54 C :    0.170364
  55 O :   -0.169266
  56 C :    0.081643
  57 C :    0.026473
  58 C :   -0.128847
  59 S :    0.183090
  60 C :   -0.174093
  61 Cl:   -0.003364
  62 H :    0.011526
  63 H :    0.012106
  64 H :    0.017251
  65 H :    0.036903
  66 H :   -0.003459
  67 H :   -0.000151
  68 H :    0.030629
  69 H :    0.052544
  70 H :    0.195216
  71 H :    0.053590
Sum of atomic charges:   -0.0000000

LOEWDIN ATOMIC CHARGES
----------------------
   0 N :   -0.055497
   1 C :   -0.015771
   2 C :   -0.144669
   3 C :   -0.022568
   4 N :   -0.052926
   5 C :    0.076928
   6 C :   -0.109916
   7 C :    0.058799
   8 C :   -0.179124
   9 C :   -0.019663
  10 C :   -0.196912
  11 S :    0.416699
  12 C :   -0.179013
  13 C :   -0.062558
  14 C :   -0.174226
  15 C :   -0.083135
  16 C :   -0.180992
  17 S :    0.478482
  18 C :   -0.139646
  19 C :   -0.186893
  20 C :   -0.069597
  21 C :   -0.183196
  22 S :    0.409366
  23 C :   -0.192069
  24 C :   -0.016894
  25 C :   -0.175797
  26 C :    0.053340
  27 C :   -0.099807
  28 C :    0.080033
  29 O :   -0.137902
  30 C :   -0.117425
  31 C :   -0.055811
  32 C :   -0.153188
  33 S :    0.469027
  34 C :   -0.273613
  35 Cl:    0.189093
  36 C :    0.059139
  37 C :   -0.140549
  38 C :   -0.017304
  39 N :   -0.052303
  40 C :   -0.036750
  41 N :   -0.045861
  42 S :    0.464121
  43 C :   -0.191946
  44 C :   -0.224106
  45 S :    0.504614
  46 C :   -0.122311
  47 C :    0.079220
  48 O :   -0.164208
  49 O :   -0.018567
  50 S :    0.438486
  51 C :   -0.222928
  52 C :   -0.202429
  53 S :    0.497442
  54 C :    0.082509
  55 O :   -0.161197
  56 C :   -0.115727
  57 C :   -0.058276
  58 C :   -0.147533
  59 S :    0.471965
  60 C :   -0.273125
  61 Cl:    0.189506
  62 H :    0.052269
  63 H :    0.043445
  64 H :    0.041901
  65 H :    0.026135
  66 H :    0.028075
  67 H :    0.041015
  68 H :    0.052678
  69 H :    0.037527
  70 H :    0.094281
  71 H :    0.037836

  Mayer bond orders larger than 0.100000
B(  0-N ,  1-C ) :   2.9885 B(  1-C ,  2-C ) :   1.1508 B(  2-C ,  3-C ) :   1.1403
B(  2-C ,  5-C ) :   1.6342 B(  3-C ,  4-N ) :   2.9586 B(  5-C ,  6-C ) :   1.0897
B(  5-C , 57-C ) :   0.9908 B(  6-C ,  7-C ) :   1.5042 B(  6-C , 54-C ) :   0.9744
B(  7-C ,  8-C ) :   1.2693 B(  7-C , 62-H ) :   0.9411 B(  8-C ,  9-C ) :   1.3723
B(  8-C , 53-S ) :   1.0700 B(  9-C , 10-C ) :   1.3251 B(  9-C , 63-H ) :   1.0128
B( 10-C , 11-S ) :   1.0355 B( 10-C , 52-C ) :   1.3859 B( 11-S , 12-C ) :   1.0595
B( 12-C , 13-C ) :   1.2581 B( 12-C , 51-C ) :   1.4631 B( 13-C , 14-C ) :   1.5418
B( 13-C , 64-H ) :   0.9919 B( 14-C , 15-C ) :   1.0329 B( 14-C , 50-S ) :   1.1081
B( 15-C , 16-C ) :   1.5685 B( 15-C , 46-C ) :   1.2091 B( 16-C , 17-S ) :   1.1493
B( 16-C , 65-H ) :   0.9667 B( 17-S , 18-C ) :   1.1765 B( 18-C , 19-C ) :   1.1461
B( 18-C , 46-C ) :   1.5247 B( 19-C , 20-C ) :   1.4713 B( 19-C , 45-S ) :   1.1256
B( 20-C , 21-C ) :   1.3036 B( 20-C , 66-H ) :   0.9934 B( 21-C , 22-S ) :   1.0520
B( 21-C , 44-C ) :   1.4279 B( 22-S , 23-C ) :   1.0404 B( 23-C , 24-C ) :   1.2953
B( 23-C , 43-C ) :   1.4260 B( 24-C , 25-C ) :   1.4429 B( 24-C , 67-H ) :   1.0049
B( 25-C , 26-C ) :   1.1448 B( 25-C , 42-S ) :   1.0840 B( 26-C , 27-C ) :   1.6477
B( 26-C , 68-H ) :   0.9468 B( 27-C , 28-C ) :   0.9405 B( 27-C , 36-C ) :   1.0401
B( 28-C , 29-O ) :   2.2785 B( 28-C , 30-C ) :   0.9248 B( 30-C , 31-C ) :   1.2224
B( 30-C , 34-C ) :   1.4882 B( 31-C , 32-C ) :   1.5580 B( 31-C , 36-C ) :   1.0111
B( 32-C , 33-S ) :   1.1534 B( 32-C , 69-H ) :   0.9570 B( 33-S , 34-C ) :   1.1496
B( 34-C , 35-Cl) :   1.1262 B( 36-C , 37-C ) :   1.6688 B( 37-C , 38-C ) :   1.1372
B( 37-C , 40-C ) :   1.1472 B( 38-C , 39-N ) :   3.0031 B( 40-C , 41-N ) :   3.0267
B( 42-S , 43-C ) :   1.0982 B( 43-C , 44-C ) :   1.3143 B( 44-C , 45-S ) :   1.0475
B( 46-C , 47-C ) :   0.9211 B( 47-C , 48-O ) :   2.0811 B( 47-C , 49-O ) :   1.2514
B( 49-O , 70-H ) :   0.9442 B( 50-S , 51-C ) :   1.0610 B( 51-C , 52-C ) :   1.3139
B( 52-C , 53-S ) :   1.0632 B( 54-C , 55-O ) :   2.1396 B( 54-C , 56-C ) :   0.9681
B( 56-C , 57-C ) :   1.2253 B( 56-C , 60-C ) :   1.4759 B( 57-C , 58-C ) :   1.5507
B( 58-C , 59-S ) :   1.1577 B( 58-C , 71-H ) :   0.9542 B( 59-S , 60-C ) :   1.1471
B( 60-C , 61-Cl) :   1.1255

-----------------------------------------------------------------------------
         ABSORPTION SPECTRUM VIA TRANSITION ELECTRIC DIPOLE MOMENTS
-----------------------------------------------------------------------------
State   Energy  Wavelength   fosc         T2         TX        TY        TZ
        (cm-1)    (nm)                  (au**2)     (au)      (au)      (au)
-----------------------------------------------------------------------------
   0   18976.7    527.0   1.363479481  23.65399  -4.12637  -2.48171  -0.68424
   1   20999.1    476.2   1.146360142  17.97196   4.17290  -0.40431   0.62882
   2   24917.4    401.3   0.065674719   0.86770   0.18036   0.83902   0.36224
   3   26008.0    384.5   0.023047867   0.29174  -0.51181   0.12223  -0.12188
   4   26597.6    376.0   0.041307595   0.51128   0.08660   0.70876   0.03800
   5   27818.0    359.5   0.049752006   0.58879   0.76043   0.06356  -0.08059
   6   28279.0    353.6   0.348049086   4.05184  -1.69616   0.06462  -1.08199
   7   28867.8    346.4   0.026192319   0.29870   0.29156  -0.45561   0.07818
   8   28985.8    345.0   0.001472350   0.01672   0.01978  -0.07094  -0.10630
   9   29337.2    340.9   0.274991473   3.08586   1.52891   0.43966   0.74497
  10   29738.8    336.3   0.188367182   2.08525   1.15581   0.62389   0.60010
  11   30272.6    330.3   0.063005219   0.68518  -0.33246  -0.74990   0.11088
  12   31650.0    316.0   0.027813092   0.28930   0.13247  -0.36331  -0.37384
  13   32599.4    306.8   0.183819550   1.85634   1.05030  -0.35659   0.79123
  14   33287.9    300.4   0.012181243   0.12047   0.19623  -0.26696   0.10343
  15   33536.4    298.2   0.026186759   0.25706   0.05712   0.49924   0.06755
  16   33802.1    295.8   0.119090198   1.15987  -0.07273   1.03483   0.28931
  17   34332.7    291.3   0.340288648   3.26298  -1.49796   1.00860   0.04253
  18   34764.8    287.6   0.001311158   0.01242  -0.03520  -0.09716   0.04167
  19   34799.4    287.4   0.031127085   0.29447  -0.21516  -0.48471   0.11504
  20   35148.1    284.5   0.047989907   0.44949  -0.65032  -0.08212  -0.14082
  21   35582.1    281.0   0.082533038   0.76361   0.19378   0.70117   0.48417
  22   35635.8    280.6   0.089046071   0.82263  -0.18313  -0.84370  -0.27796
  23   35712.6    280.0   0.022840357   0.21055   0.09562  -0.15894   0.41970
  24   36087.3    277.1   0.064014485   0.58398  -0.04730   0.74980   0.13982
  25   36628.6    273.0   0.081489096   0.73241  -0.29174  -0.79777  -0.10425
  26   37047.2    269.9   0.045310605   0.40264   0.10818  -0.62512   0.01289
  27   37194.3    268.9   0.070592159   0.62482   0.22020   0.75592   0.07016
  28   37810.7    264.5   0.520257546   4.52981  -0.52935   2.06031   0.06874
  29   38217.1    261.7   0.077009519   0.66338  -0.33339   0.70808  -0.22552
  30   38333.8    260.9   0.499834959   4.29260  -0.71713  -1.28505  -1.45842
  31   38475.3    259.9   0.026905092   0.23021   0.18056   0.36095   0.25946
  32   38892.9    257.1   0.141333482   1.19633  -0.20595  -0.82658  -0.68606
  33   39651.2    252.2   0.035742947   0.29676  -0.34919  -0.09153   0.40799
  34   40147.5    249.1   0.039628882   0.32496  -0.25898   0.47687   0.17461

FINAL SINGLE POINT ENERGY     -6664.439414504013

DIPOLE MOMENT
-------------
                                X             Y             Z
Electronic contribution:     -3.16046       1.71844      -5.74001
Nuclear contribution   :      3.43343       1.07881       5.19825
                        -----------------------------------------
Total Dipole Moment    :      0.27297       2.79725      -0.54177
                        -----------------------------------------
Magnitude (a.u.)       :      2.86228
Magnitude (Debye)      :      7.27533

Rotational constants in cm-1:     0.002453     0.000204     0.000192
Rotational constants in MHz :    73.529783     6.130464     5.765423

                             ****ORCA TERMINATED NORMALLY****
TOTAL RUN TIME: 0 days 0 hours 7 minutes 49 seconds 599 msec
