                         Program Version 4.2.0 -  RELEASE  -
|  1> # ORCA input file
|  2> # SCF done       -159.012149799499          0.000596907333
|  3> ! CAM-B3LYP def2-SVP def2/J RIJCOSX Grid4 TightSCF
|  4> %maxcore 5000
|  5> %tddft
|  6>     Mode sTDDFT
|  7>     Ethresh 5.0
|  8>     maxcore 5000
|  9> end
| 10>
| 11> %pal
| 12>   nprocs 6
| 13>   end
| 14> * xyz 0 1
| 15>    C        4.93735        -1.08819         3.23400
| 16>   Ge        5.81375        -1.32411         1.46965
| 17>    C        5.68024         0.28332         0.31447
| 18>    C        7.64215        -2.05530         1.60127
| 19>    C        8.89303        -1.70173         2.10947
| 20>    C        9.86214        -2.66349         1.92065
| 21>    C       11.24787        -2.64282         2.32666
| 22>    C       12.13470        -3.64243         1.87992
| 23>    C       13.45364        -3.65468         2.25532
| 24>    C       13.95037        -2.66102         3.10402
| 25>    N       15.25603        -2.64719         3.50001
| 26>    C       15.85191        -1.72290         4.33938
| 27>    O       17.02628        -1.81874         4.62074
| 28>    C       14.92915        -0.68190         4.81058
| 29>    C       15.44090         0.30875         5.67751
| 30>    N       15.82422         1.12745         6.38183
| 31>    C       13.62212        -0.65965         4.43557
| 32>    C       13.08218        -1.64937         3.56629
| 33>    C       11.74253        -1.65624         3.16906
| 34>    S        9.20879        -4.05107         1.08434
| 35>    C        7.65638        -3.31342         1.01675
| 36>    C        6.44527        -3.81483         0.47758
| 37>    S        6.12429        -5.32975        -0.27232
| 38>    C        4.45417        -4.88321        -0.46829
| 39>    C        3.51933        -5.79196        -1.04430
| 40>    N        2.25130        -5.41818        -1.16316
| 41>    N        1.32113        -6.19640        -1.62646
| 42>    C        1.54650        -7.44416        -2.01872
| 43>    C        0.44653        -8.23836        -2.45614
| 44>    C       -0.87626        -7.84845        -2.56791
| 45>    C       -1.71312        -8.87582        -2.98559
| 46>    C       -1.01366       -10.06299        -3.18934
| 47>    S        0.67203        -9.91023        -2.88136
| 48>    C       -1.75821       -11.20144        -3.58730
| 49>    S       -1.21932       -12.80691        -3.88722
| 50>    C       -2.85251       -13.31943        -4.23951
| 51>    C       -3.12115       -14.69524        -4.58559
| 52>    C       -4.42275       -15.12132        -4.91797
| 53>    C       -4.68654       -16.42873        -5.24100
| 54>    C       -3.65839       -17.37579        -5.24783
| 55>    N       -3.89127       -18.68288        -5.56354
| 56>    C       -2.95313       -19.69894        -5.60308
| 57>    O       -3.28356       -20.82564        -5.90139
| 58>    C       -1.59565       -19.25623        -5.25739
| 59>    C       -0.56765       -20.22496        -5.26647
| 60>    N        0.28540       -20.98991        -5.26837
| 61>    C       -1.32340       -17.96314        -4.93708
| 62>    C       -2.34650       -16.97308        -4.92079
| 63>    C       -2.10174       -15.63779        -4.59536
| 64>    C       -3.73363       -12.26607        -4.12170
| 65>    C       -3.12861       -11.06361        -3.75204
| 66>   Ge       -3.61968        -9.19167        -3.36649
| 67>    C       -4.79497        -8.99082        -1.78060
| 68>    C       -4.28822        -8.21593        -4.95978
| 69>    C        2.87484        -7.95618        -1.97023
| 70>    N        3.34399        -9.14548        -2.32787
| 71>    S        4.93363        -9.17388        -2.05904
| 72>    N        5.09249        -7.67924        -1.47464
| 73>    C        3.89941        -7.09712        -1.47006
| 74>    C        4.19444        -3.61717         0.02584
| 75>    C        5.31703        -3.00270         0.56636
| 76>    H        5.38560        -0.25791         3.77103
| 77>    H        5.04234        -1.98823         3.83150
| 78>    H        3.88027        -0.88183         3.09856
| 79>    H        4.63721         0.51758         0.12578
| 80>    H        6.17565         0.10994        -0.63547
| 81>    H        6.14382         1.13651         0.80011
| 82>    H        9.08127        -0.75962         2.59345
| 83>    H       11.76124        -4.41449         1.22397
| 84>    H       14.11619        -4.43001         1.90006
| 85>    H       15.87098        -3.37913         3.16184
| 86>    H       12.97004         0.12183         4.80165
| 87>    H       11.09409        -0.87971         3.54274
| 88>    H       -1.18504        -6.84407        -2.34067
| 89>    H       -5.23057       -14.40756        -4.92143
| 90>    H       -5.69100       -16.73605        -5.49284
| 91>    H       -4.83749       -18.96233        -5.79733
| 92>    H       -0.31313       -17.66879        -4.68736
| 93>    H       -1.09355       -15.34225        -4.34511
| 94>    H       -4.79230       -12.35599        -4.29022
| 95>    H       -4.39884        -9.55572        -0.94278
| 96>    H       -5.79529        -9.34956        -2.00268
| 97>    H       -4.85790        -7.94505        -1.49641
| 98>    H       -3.61723        -8.36136        -5.80044
| 99>    H       -4.35300        -7.15376        -4.74564
|100>    H       -5.27556        -8.57410        -5.23484
|101>    H        3.20839        -3.19098        -0.01696
|102> *
|103>
|104>                          ****END OF INPUT****

CARTESIAN COORDINATES (ANGSTROEM)
---------------------------------
  C      4.937350   -1.088190    3.234000
  Ge     5.813750   -1.324110    1.469650
  C      5.680240    0.283320    0.314470
  C      7.642150   -2.055300    1.601270
  C      8.893030   -1.701730    2.109470
  C      9.862140   -2.663490    1.920650
  C     11.247870   -2.642820    2.326660
  C     12.134700   -3.642430    1.879920
  C     13.453640   -3.654680    2.255320
  C     13.950370   -2.661020    3.104020
  N     15.256030   -2.647190    3.500010
  C     15.851910   -1.722900    4.339380
  O     17.026280   -1.818740    4.620740
  C     14.929150   -0.681900    4.810580
  C     15.440900    0.308750    5.677510
  N     15.824220    1.127450    6.381830
  C     13.622120   -0.659650    4.435570
  C     13.082180   -1.649370    3.566290
  C     11.742530   -1.656240    3.169060
  S      9.208790   -4.051070    1.084340
  C      7.656380   -3.313420    1.016750
  C      6.445270   -3.814830    0.477580
  S      6.124290   -5.329750   -0.272320
  C      4.454170   -4.883210   -0.468290
  C      3.519330   -5.791960   -1.044300
  N      2.251300   -5.418180   -1.163160
  N      1.321130   -6.196400   -1.626460
  C      1.546500   -7.444160   -2.018720
  C      0.446530   -8.238360   -2.456140
  C     -0.876260   -7.848450   -2.567910
  C     -1.713120   -8.875820   -2.985590
  C     -1.013660  -10.062990   -3.189340
  S      0.672030   -9.910230   -2.881360
  C     -1.758210  -11.201440   -3.587300
  S     -1.219320  -12.806910   -3.887220
  C     -2.852510  -13.319430   -4.239510
  C     -3.121150  -14.695240   -4.585590
  C     -4.422750  -15.121320   -4.917970
  C     -4.686540  -16.428730   -5.241000
  C     -3.658390  -17.375790   -5.247830
  N     -3.891270  -18.682880   -5.563540
  C     -2.953130  -19.698940   -5.603080
  O     -3.283560  -20.825640   -5.901390
  C     -1.595650  -19.256230   -5.257390
  C     -0.567650  -20.224960   -5.266470
  N      0.285400  -20.989910   -5.268370
  C     -1.323400  -17.963140   -4.937080
  C     -2.346500  -16.973080   -4.920790
  C     -2.101740  -15.637790   -4.595360
  C     -3.733630  -12.266070   -4.121700
  C     -3.128610  -11.063610   -3.752040
  Ge    -3.619680   -9.191670   -3.366490
  C     -4.794970   -8.990820   -1.780600
  C     -4.288220   -8.215930   -4.959780
  C      2.874840   -7.956180   -1.970230
  N      3.343990   -9.145480   -2.327870
  S      4.933630   -9.173880   -2.059040
  N      5.092490   -7.679240   -1.474640
  C      3.899410   -7.097120   -1.470060
  C      4.194440   -3.617170    0.025840
  C      5.317030   -3.002700    0.566360
  H      5.385600   -0.257910    3.771030
  H      5.042340   -1.988230    3.831500
  H      3.880270   -0.881830    3.098560
  H      4.637210    0.517580    0.125780
  H      6.175650    0.109940   -0.635470
  H      6.143820    1.136510    0.800110
  H      9.081270   -0.759620    2.593450
  H     11.761240   -4.414490    1.223970
  H     14.116190   -4.430010    1.900060
  H     15.870980   -3.379130    3.161840
  H     12.970040    0.121830    4.801650
  H     11.094090   -0.879710    3.542740
  H     -1.185040   -6.844070   -2.340670
  H     -5.230570  -14.407560   -4.921430
  H     -5.691000  -16.736050   -5.492840
  H     -4.837490  -18.962330   -5.797330
  H     -0.313130  -17.668790   -4.687360
  H     -1.093550  -15.342250   -4.345110
  H     -4.792300  -12.355990   -4.290220
  H     -4.398840   -9.555720   -0.942780
  H     -5.795290   -9.349560   -2.002680
  H     -4.857900   -7.945050   -1.496410
  H     -3.617230   -8.361360   -5.800440
  H     -4.353000   -7.153760   -4.745640
  H     -5.275560   -8.574100   -5.234840
  H      3.208390   -3.190980   -0.016960

 Total Charge           Charge          ....    0
 Multiplicity           Mult            ....    1
 Number of Electrons    NEL             ....  506
 Basis Dimension        Dim             .... 1040

ORBITAL ENERGIES
----------------

  NO   OCC          E(Eh)            E(eV)
   0   2.0000    -398.774576    -10851.2079
   1   2.0000    -398.774106    -10851.1951
   2   2.0000     -89.042936     -2422.9815
   3   2.0000     -88.963656     -2420.8242
   4   2.0000     -88.963643     -2420.8238
   5   2.0000     -88.959802     -2420.7193
   6   2.0000     -88.959447     -2420.7096
   7   2.0000     -49.834075     -1356.0541
   8   2.0000     -49.833617     -1356.0416
   9   2.0000     -44.371305     -1207.4046
  10   2.0000     -44.370842     -1207.3920
  11   2.0000     -44.370583     -1207.3849
  12   2.0000     -44.370212     -1207.3749
  13   2.0000     -44.370124     -1207.3725
  14   2.0000     -44.369755     -1207.3624
  15   2.0000     -19.189109      -522.1622
  16   2.0000     -19.189027      -522.1600
  17   2.0000     -14.473529      -393.8447
  18   2.0000     -14.473051      -393.8317
  19   2.0000     -14.459078      -393.4515
  20   2.0000     -14.458958      -393.4482
  21   2.0000     -14.434558      -392.7843
  22   2.0000     -14.434376      -392.7793
  23   2.0000     -14.399775      -391.8378
  24   2.0000     -14.399482      -391.8298
  25   2.0000     -10.390637      -282.7436
  26   2.0000     -10.390501      -282.7399
  27   2.0000     -10.347057      -281.5577
  28   2.0000     -10.346926      -281.5542
  29   2.0000     -10.338189      -281.3164
  30   2.0000     -10.337857      -281.3074
  31   2.0000     -10.329990      -281.0933
  32   2.0000     -10.329858      -281.0897
  33   2.0000     -10.324323      -280.9391
  34   2.0000     -10.324128      -280.9338
  35   2.0000     -10.320647      -280.8391
  36   2.0000     -10.320500      -280.8351
  37   2.0000     -10.307624      -280.4847
  38   2.0000     -10.307224      -280.4738
  39   2.0000     -10.306993      -280.4675
  40   2.0000     -10.306473      -280.4534
  41   2.0000     -10.305077      -280.4154
  42   2.0000     -10.304890      -280.4103
  43   2.0000     -10.304161      -280.3905
  44   2.0000     -10.303958      -280.3850
  45   2.0000     -10.302145      -280.3356
  46   2.0000     -10.301873      -280.3282
  47   2.0000     -10.301147      -280.3085
  48   2.0000     -10.300228      -280.2834
  49   2.0000     -10.300180      -280.2822
  50   2.0000     -10.299915      -280.2749
  51   2.0000     -10.299116      -280.2532
  52   2.0000     -10.298772      -280.2438
  53   2.0000     -10.298579      -280.2386
  54   2.0000     -10.298425      -280.2344
  55   2.0000     -10.297489      -280.2089
  56   2.0000     -10.296937      -280.1939
  57   2.0000     -10.281228      -279.7664
  58   2.0000     -10.280312      -279.7415
  59   2.0000     -10.275801      -279.6188
  60   2.0000     -10.275483      -279.6101
  61   2.0000     -10.265987      -279.3517
  62   2.0000     -10.265945      -279.3506
  63   2.0000     -10.263386      -279.2809
  64   2.0000     -10.263263      -279.2776
  65   2.0000     -10.262865      -279.2668
  66   2.0000     -10.262526      -279.2575
  67   2.0000     -10.262490      -279.2566
  68   2.0000     -10.262025      -279.2439
  69   2.0000      -8.134476      -221.3504
  70   2.0000      -8.059089      -219.2989
  71   2.0000      -8.058954      -219.2953
  72   2.0000      -8.054487      -219.1737
  73   2.0000      -8.054184      -219.1655
  74   2.0000      -6.293931      -171.2666
  75   2.0000      -6.293484      -171.2544
  76   2.0000      -6.105702      -166.1446
  77   2.0000      -6.097941      -165.9334
  78   2.0000      -6.096840      -165.9035
  79   2.0000      -6.028228      -164.0364
  80   2.0000      -6.028104      -164.0330
  81   2.0000      -6.024307      -163.9297
  82   2.0000      -6.024189      -163.9265
  83   2.0000      -6.023716      -163.9136
  84   2.0000      -6.023443      -163.9062
  85   2.0000      -6.021323      -163.8485
  86   2.0000      -6.021213      -163.8455
  87   2.0000      -6.019538      -163.8000
  88   2.0000      -6.019221      -163.7913
  89   2.0000      -6.016786      -163.7251
  90   2.0000      -6.016455      -163.7161
  91   2.0000      -4.470178      -121.6397
  92   2.0000      -4.469751      -121.6281
  93   2.0000      -4.469079      -121.6098
  94   2.0000      -4.468630      -121.5976
  95   2.0000      -4.468068      -121.5823
  96   2.0000      -4.467610      -121.5698
  97   2.0000      -1.294214       -35.2173
  98   2.0000      -1.293753       -35.2048
  99   2.0000      -1.292258       -35.1641
 100   2.0000      -1.291859       -35.1533
 101   2.0000      -1.291814       -35.1521
 102   2.0000      -1.291410       -35.1410
 103   2.0000      -1.290913       -35.1275
 104   2.0000      -1.290484       -35.1159
 105   2.0000      -1.290389       -35.1133
 106   2.0000      -1.289978       -35.1021
 107   2.0000      -1.145578       -31.1728
 108   2.0000      -1.137994       -30.9664
 109   2.0000      -1.137817       -30.9616
 110   2.0000      -1.111395       -30.2426
 111   2.0000      -1.059967       -28.8432
 112   2.0000      -1.059727       -28.8366
 113   2.0000      -1.007245       -27.4085
 114   2.0000      -0.999956       -27.2102
 115   2.0000      -0.996877       -27.1264
 116   2.0000      -0.985962       -26.8294
 117   2.0000      -0.985766       -26.8241
 118   2.0000      -0.980096       -26.6698
 119   2.0000      -0.978991       -26.6397
 120   2.0000      -0.963755       -26.2251
 121   2.0000      -0.963028       -26.2053
 122   2.0000      -0.934156       -25.4197
 123   2.0000      -0.933363       -25.3981
 124   2.0000      -0.928349       -25.2617
 125   2.0000      -0.917837       -24.9756
 126   2.0000      -0.886339       -24.1185
 127   2.0000      -0.882441       -24.0124
 128   2.0000      -0.864639       -23.5280
 129   2.0000      -0.864321       -23.5194
 130   2.0000      -0.854275       -23.2460
 131   2.0000      -0.844731       -22.9863
 132   2.0000      -0.840863       -22.8810
 133   2.0000      -0.839368       -22.8404
 134   2.0000      -0.822749       -22.3881
 135   2.0000      -0.822452       -22.3801
 136   2.0000      -0.809216       -22.0199
 137   2.0000      -0.791746       -21.5445
 138   2.0000      -0.791132       -21.5278
 139   2.0000      -0.778222       -21.1765
 140   2.0000      -0.770967       -20.9791
 141   2.0000      -0.769018       -20.9260
 142   2.0000      -0.768409       -20.9095
 143   2.0000      -0.768105       -20.9012
 144   2.0000      -0.766213       -20.8497
 145   2.0000      -0.751678       -20.4542
 146   2.0000      -0.751066       -20.4375
 147   2.0000      -0.745907       -20.2971
 148   2.0000      -0.739955       -20.1352
 149   2.0000      -0.727016       -19.7831
 150   2.0000      -0.705775       -19.2051
 151   2.0000      -0.688874       -18.7452
 152   2.0000      -0.681492       -18.5443
 153   2.0000      -0.675761       -18.3884
 154   2.0000      -0.663905       -18.0658
 155   2.0000      -0.660094       -17.9621
 156   2.0000      -0.656969       -17.8770
 157   2.0000      -0.656699       -17.8697
 158   2.0000      -0.646750       -17.5990
 159   2.0000      -0.640102       -17.4181
 160   2.0000      -0.632253       -17.2045
 161   2.0000      -0.621568       -16.9137
 162   2.0000      -0.611796       -16.6478
 163   2.0000      -0.610989       -16.6259
 164   2.0000      -0.606166       -16.4946
 165   2.0000      -0.604107       -16.4386
 166   2.0000      -0.601233       -16.3604
 167   2.0000      -0.589286       -16.0353
 168   2.0000      -0.589008       -16.0277
 169   2.0000      -0.577788       -15.7224
 170   2.0000      -0.577293       -15.7089
 171   2.0000      -0.571519       -15.5518
 172   2.0000      -0.565762       -15.3952
 173   2.0000      -0.564814       -15.3694
 174   2.0000      -0.552903       -15.0453
 175   2.0000      -0.552734       -15.0407
 176   2.0000      -0.552588       -15.0367
 177   2.0000      -0.549262       -14.9462
 178   2.0000      -0.544413       -14.8142
 179   2.0000      -0.539261       -14.6740
 180   2.0000      -0.534066       -14.5327
 181   2.0000      -0.529605       -14.4113
 182   2.0000      -0.519459       -14.1352
 183   2.0000      -0.518781       -14.1168
 184   2.0000      -0.515192       -14.0191
 185   2.0000      -0.514008       -13.9869
 186   2.0000      -0.510827       -13.9003
 187   2.0000      -0.506082       -13.7712
 188   2.0000      -0.501568       -13.6484
 189   2.0000      -0.499578       -13.5942
 190   2.0000      -0.497046       -13.5253
 191   2.0000      -0.495680       -13.4881
 192   2.0000      -0.491422       -13.3723
 193   2.0000      -0.490566       -13.3490
 194   2.0000      -0.489724       -13.3261
 195   2.0000      -0.489351       -13.3159
 196   2.0000      -0.488678       -13.2976
 197   2.0000      -0.485433       -13.2093
 198   2.0000      -0.483801       -13.1649
 199   2.0000      -0.480071       -13.0634
 200   2.0000      -0.478210       -13.0128
 201   2.0000      -0.477621       -12.9967
 202   2.0000      -0.477103       -12.9826
 203   2.0000      -0.474786       -12.9196
 204   2.0000      -0.471553       -12.8316
 205   2.0000      -0.470877       -12.8132
 206   2.0000      -0.468424       -12.7465
 207   2.0000      -0.460871       -12.5409
 208   2.0000      -0.457493       -12.4490
 209   2.0000      -0.456891       -12.4326
 210   2.0000      -0.454413       -12.3652
 211   2.0000      -0.454027       -12.3547
 212   2.0000      -0.451649       -12.2900
 213   2.0000      -0.451317       -12.2810
 214   2.0000      -0.445043       -12.1102
 215   2.0000      -0.437699       -11.9104
 216   2.0000      -0.433577       -11.7982
 217   2.0000      -0.429469       -11.6864
 218   2.0000      -0.428946       -11.6722
 219   2.0000      -0.426299       -11.6002
 220   2.0000      -0.424309       -11.5460
 221   2.0000      -0.415721       -11.3124
 222   2.0000      -0.412062       -11.2128
 223   2.0000      -0.409399       -11.1403
 224   2.0000      -0.405753       -11.0411
 225   2.0000      -0.405677       -11.0390
 226   2.0000      -0.394543       -10.7361
 227   2.0000      -0.394520       -10.7354
 228   2.0000      -0.392534       -10.6814
 229   2.0000      -0.388275       -10.5655
 230   2.0000      -0.384152       -10.4533
 231   2.0000      -0.383351       -10.4315
 232   2.0000      -0.375108       -10.2072
 233   2.0000      -0.374331       -10.1861
 234   2.0000      -0.372969       -10.1490
 235   2.0000      -0.372060       -10.1243
 236   2.0000      -0.365696        -9.9511
 237   2.0000      -0.359232        -9.7752
 238   2.0000      -0.355530        -9.6745
 239   2.0000      -0.346068        -9.4170
 240   2.0000      -0.345929        -9.4132
 241   2.0000      -0.339692        -9.2435
 242   2.0000      -0.329697        -8.9715
 243   2.0000      -0.327348        -8.9076
 244   2.0000      -0.323517        -8.8033
 245   2.0000      -0.322032        -8.7629
 246   2.0000      -0.321474        -8.7477
 247   2.0000      -0.317802        -8.6478
 248   2.0000      -0.303067        -8.2469
 249   2.0000      -0.296539        -8.0692
 250   2.0000      -0.287792        -7.8312
 251   2.0000      -0.253920        -6.9095
 252   2.0000      -0.230662        -6.2766
 253   0.0000      -0.091952        -2.5021
 254   0.0000      -0.053751        -1.4626
 255   0.0000      -0.053560        -1.4574
 256   0.0000      -0.039990        -1.0882
 257   0.0000      -0.038442        -1.0461

MULLIKEN ATOMIC CHARGES
-----------------------
   0 C :   -0.193083
   1 Ge:    0.445124
   2 C :   -0.189812
   3 C :   -0.082937
   4 C :   -0.046223
   5 C :   -0.069531
   6 C :    0.175945
   7 C :   -0.033564
   8 C :   -0.015042
   9 C :    0.086232
  10 N :   -0.029113
  11 C :    0.126655
  12 O :   -0.168144
  13 C :   -0.226606
  14 C :   -0.138996
  15 N :    0.121372
  16 C :    0.087991
  17 C :    0.044812
  18 C :   -0.102569
  19 S :    0.121359
  20 C :   -0.090405
  21 C :   -0.065780
  22 S :    0.170146
  23 C :   -0.120975
  24 C :    0.024669
  25 N :   -0.054090
  26 N :   -0.054902
  27 C :    0.025315
  28 C :   -0.122892
  29 C :   -0.049826
  30 C :   -0.072923
  31 C :   -0.067965
  32 S :    0.171055
  33 C :   -0.086218
  34 S :    0.118588
  35 C :   -0.062945
  36 C :    0.178283
  37 C :   -0.023757
  38 C :   -0.013510
  39 C :    0.089194
  40 N :   -0.024650
  41 C :    0.124221
  42 O :   -0.168180
  43 C :   -0.229151
  44 C :   -0.139913
  45 N :    0.123284
  46 C :    0.089312
  47 C :    0.041972
  48 C :   -0.120732
  49 C :   -0.052325
  50 C :   -0.084998
  51 Ge:    0.447918
  52 C :   -0.192202
  53 C :   -0.193781
  54 C :    0.015973
  55 N :   -0.279496
  56 S :    0.534483
  57 N :   -0.280990
  58 C :    0.017345
  59 C :   -0.050401
  60 C :   -0.074302
  61 H :    0.042894
  62 H :    0.056615
  63 H :    0.047797
  64 H :    0.047539
  65 H :    0.055413
  66 H :    0.042762
  67 H :   -0.026687
  68 H :    0.000300
  69 H :   -0.028687
  70 H :    0.133903
  71 H :    0.008307
  72 H :   -0.027966
  73 H :   -0.006066
  74 H :   -0.015133
  75 H :   -0.031110
  76 H :    0.133420
  77 H :    0.008995
  78 H :   -0.009640
  79 H :   -0.027351
  80 H :    0.056249
  81 H :    0.041628
  82 H :    0.047497
  83 H :    0.057003
  84 H :    0.048054
  85 H :    0.042154
  86 H :   -0.006210
Sum of atomic charges:   -0.0000000

LOEWDIN ATOMIC CHARGES
----------------------
   0 C :   -0.201297
   1 Ge:    0.514248
   2 C :   -0.200781
   3 C :   -0.164532
   4 C :   -0.057248
   5 C :   -0.167438
   6 C :   -0.047740
   7 C :    0.003118
   8 C :   -0.044820
   9 C :    0.048620
  10 N :    0.048049
  11 C :    0.069660
  12 O :   -0.193837
  13 C :   -0.112358
  14 C :   -0.024297
  15 N :   -0.045042
  16 C :    0.067490
  17 C :   -0.059744
  18 C :    0.010018
  19 S :    0.435173
  20 C :   -0.192543
  21 C :   -0.186809
  22 S :    0.465762
  23 C :   -0.191362
  24 C :   -0.033195
  25 N :   -0.056459
  26 N :   -0.056072
  27 C :   -0.033669
  28 C :   -0.190720
  29 C :   -0.019920
  30 C :   -0.171201
  31 C :   -0.187697
  32 S :    0.466457
  33 C :   -0.190796
  34 S :    0.434666
  35 C :   -0.167038
  36 C :   -0.047457
  37 C :    0.015136
  38 C :   -0.045454
  39 C :    0.048353
  40 N :    0.048498
  41 C :    0.069429
  42 O :   -0.193880
  43 C :   -0.112498
  44 C :   -0.024366
  45 N :   -0.044663
  46 C :    0.068209
  47 C :   -0.059854
  48 C :   -0.002930
  49 C :   -0.058138
  50 C :   -0.165687
  51 Ge:    0.514086
  52 C :   -0.201211
  53 C :   -0.201339
  54 C :   -0.064816
  55 N :   -0.281457
  56 S :    0.660803
  57 N :   -0.281668
  58 C :   -0.064680
  59 C :   -0.019519
  60 C :   -0.171910
  61 H :    0.035491
  62 H :    0.041150
  63 H :    0.037635
  64 H :    0.037616
  65 H :    0.041008
  66 H :    0.035580
  67 H :    0.025443
  68 H :    0.026551
  69 H :    0.032693
  70 H :    0.099580
  71 H :    0.046692
  72 H :    0.031018
  73 H :    0.035419
  74 H :    0.033309
  75 H :    0.031932
  76 H :    0.099314
  77 H :    0.047290
  78 H :    0.024027
  79 H :    0.025234
  80 H :    0.041093
  81 H :    0.035162
  82 H :    0.037642
  83 H :    0.041271
  84 H :    0.037542
  85 H :    0.035202
  86 H :    0.035474

  Mayer bond orders larger than 0.100000
B(  0-C ,  1-Ge) :   1.0149 B(  0-C , 61-H ) :   0.9607 B(  0-C , 62-H ) :   0.9582
B(  0-C , 63-H ) :   0.9607 B(  1-Ge,  2-C ) :   1.0142 B(  1-Ge,  3-C ) :   0.8757
B(  1-Ge, 60-C ) :   0.8861 B(  2-C , 64-H ) :   0.9601 B(  2-C , 65-H ) :   0.9597
B(  2-C , 66-H ) :   0.9602 B(  3-C ,  4-C ) :   1.2442 B(  3-C , 20-C ) :   1.5309
B(  4-C ,  5-C ) :   1.5164 B(  4-C , 67-H ) :   0.9930 B(  5-C ,  6-C ) :   1.0548
B(  5-C , 19-S ) :   1.1132 B(  5-C , 20-C ) :   0.1027 B(  6-C ,  7-C ) :   1.2714
B(  6-C , 18-C ) :   1.3819 B(  7-C ,  8-C ) :   1.4470 B(  7-C , 68-H ) :   0.9809
B(  8-C ,  9-C ) :   1.2918 B(  8-C , 69-H ) :   0.9915 B(  9-C , 10-N ) :   1.1974
B(  9-C , 17-C ) :   1.2972 B( 10-N , 11-C ) :   1.0884 B( 10-N , 70-H ) :   0.9019
B( 11-C , 12-O ) :   2.2427 B( 11-C , 13-C ) :   0.9508 B( 13-C , 14-C ) :   1.1092
B( 13-C , 16-C ) :   1.6426 B( 14-C , 15-N ) :   3.0430 B( 16-C , 17-C ) :   1.1275
B( 16-C , 71-H ) :   0.9853 B( 17-C , 18-C ) :   1.2795 B( 18-C , 72-H ) :   1.0029
B( 19-S , 20-C ) :   1.1024 B( 20-C , 21-C ) :   1.1507 B( 21-C , 22-S ) :   1.1016
B( 21-C , 23-C ) :   0.1023 B( 21-C , 60-C ) :   1.4856 B( 22-S , 23-C ) :   1.1184
B( 23-C , 24-C ) :   1.1567 B( 23-C , 59-C ) :   1.4452 B( 24-C , 25-N ) :   1.6989
B( 24-C , 27-C ) :   0.1056 B( 24-C , 58-C ) :   1.0870 B( 25-N , 26-N ) :   1.2106
B( 26-N , 27-C ) :   1.7003 B( 27-C , 28-C ) :   1.1538 B( 27-C , 54-C ) :   1.0880
B( 28-C , 29-C ) :   1.4471 B( 28-C , 31-C ) :   0.1024 B( 28-C , 32-S ) :   1.1192
B( 29-C , 30-C ) :   1.2382 B( 29-C , 73-H ) :   1.0147 B( 30-C , 31-C ) :   1.4836
B( 30-C , 51-Ge) :   0.8856 B( 31-C , 32-S ) :   1.1023 B( 31-C , 33-C ) :   1.1513
B( 33-C , 34-S ) :   1.1012 B( 33-C , 35-C ) :   0.1021 B( 33-C , 50-C ) :   1.5342
B( 34-S , 35-C ) :   1.1135 B( 35-C , 36-C ) :   1.0632 B( 35-C , 49-C ) :   1.5139
B( 36-C , 37-C ) :   1.2915 B( 36-C , 48-C ) :   1.3566 B( 37-C , 38-C ) :   1.4400
B( 37-C , 74-H ) :   0.9907 B( 38-C , 39-C ) :   1.2885 B( 38-C , 75-H ) :   0.9910
B( 39-C , 40-N ) :   1.1983 B( 39-C , 47-C ) :   1.2987 B( 40-N , 41-C ) :   1.0910
B( 40-N , 76-H ) :   0.9018 B( 41-C , 42-O ) :   2.2426 B( 41-C , 43-C ) :   0.9498
B( 43-C , 44-C ) :   1.1118 B( 43-C , 46-C ) :   1.6415 B( 44-C , 45-N ) :   3.0446
B( 46-C , 47-C ) :   1.1299 B( 46-C , 77-H ) :   0.9861 B( 47-C , 48-C ) :   1.2924
B( 48-C , 78-H ) :   0.9922 B( 49-C , 50-C ) :   1.2423 B( 49-C , 79-H ) :   0.9937
B( 50-C , 51-Ge) :   0.8762 B( 51-Ge, 52-C ) :   1.0136 B( 51-Ge, 53-C ) :   1.0142
B( 52-C , 80-H ) :   0.9589 B( 52-C , 81-H ) :   0.9610 B( 52-C , 82-H ) :   0.9605
B( 53-C , 83-H ) :   0.9591 B( 53-C , 84-H ) :   0.9603 B( 53-C , 85-H ) :   0.9605
B( 54-C , 55-N ) :   1.5331 B( 54-C , 58-C ) :   1.2065 B( 55-N , 56-S ) :   1.2646
B( 55-N , 57-N ) :   0.1459 B( 56-S , 57-N ) :   1.2641 B( 57-N , 58-C ) :   1.5313
B( 59-C , 60-C ) :   1.2349 B( 59-C , 86-H ) :   1.0158

-----------------------------------------------------------------------------
         ABSORPTION SPECTRUM VIA TRANSITION ELECTRIC DIPOLE MOMENTS
-----------------------------------------------------------------------------
State   Energy  Wavelength   fosc         T2         TX        TY        TZ
        (cm-1)    (nm)                  (au**2)     (au)      (au)      (au)
-----------------------------------------------------------------------------
   0   14757.9    677.6   1.287366977  28.71796   3.75806   3.31259   1.90308
   1   19488.3    513.1   0.002049649   0.03462   0.13584   0.10931   0.06500
   2   21532.4    464.4   0.015151974   0.23166   0.21047  -0.32170   0.28962
   3   25398.3    393.7   0.316816405   4.10657   0.24928   1.91838   0.60352
   4   25613.3    390.4   0.137212673   1.76362  -0.80971  -0.73196  -0.75645
   5   26474.2    377.7   1.379441844  17.15363   3.16352   2.28170   1.39271
   6   27642.6    361.8   0.277330047   3.30289  -1.25606   1.28423  -0.27562
   7   30047.2    332.8   0.001380828   0.01513  -0.11482  -0.00306  -0.04400
   8   31735.4    315.1   0.016348362   0.16959   0.24089  -0.32577  -0.07376
   9   31770.2    314.8   0.004176547   0.04328  -0.18922   0.07844  -0.03633
  10   33187.5    301.3   0.229301353   2.27461   0.83890  -1.25097  -0.07698
  11   33728.9    296.5   0.077070248   0.75225  -0.64559  -0.34981  -0.46162
  12   33899.6    295.0   0.051390032   0.49907   0.11400   0.57501   0.39426
  13   34023.0    293.9   0.010440328   0.10102  -0.05044  -0.13328   0.28410
  14   34420.8    290.5   0.009424961   0.09014  -0.14677   0.26136   0.01708
  15   34514.4    289.7   0.102452261   0.97723   0.87345   0.38226   0.26113
  16   35298.5    283.3   0.000062583   0.00058   0.01115   0.01148   0.01810
  17   35936.7    278.3   0.006324124   0.05793   0.11006  -0.19285  -0.09290
  18   36271.8    275.7   0.014270447   0.12952   0.31967   0.10541   0.12737
  19   36848.1    271.4   0.000338823   0.00303   0.02309  -0.04682   0.01739
  20   36902.9    271.0   0.000057837   0.00052  -0.01582   0.01539   0.00537
  21   37424.4    267.2   0.014899209   0.13106  -0.33854  -0.00307  -0.12824
  22   37601.1    265.9   0.001134978   0.00994   0.01743   0.02132  -0.09581
  23   37628.8    265.8   0.001021317   0.00894  -0.02723  -0.05479   0.07205
  24   38248.5    261.4   0.254532167   2.19080  -0.95599   1.12919   0.04284
  25   38482.7    259.9   0.055428796   0.47418  -0.04597   0.65845   0.19624
  26   38625.6    258.9   0.167526421   1.42785  -0.71982  -0.64367  -0.70385
  27   38656.7    258.7   0.118179937   1.00645   0.42233  -0.88319  -0.21923
  28   40014.0    249.9   0.221408728   1.82162   1.30086  -0.19254   0.30384
  29   40148.4    249.1   0.031991317   0.26232  -0.00547   0.51212   0.00563

FINAL SINGLE POINT ENERGY     -8422.033321660860

DIPOLE MOMENT
-------------
                                X             Y             Z
Electronic contribution:    -11.08219      13.97621      -3.03173
Nuclear contribution   :      7.34569     -12.33775       1.84068
                        -----------------------------------------
Total Dipole Moment    :     -3.73650       1.63847      -1.19106
                        -----------------------------------------
Magnitude (a.u.)       :      4.25025
Magnitude (Debye)      :     10.80328

Rotational constants in cm-1:     0.001913     0.000220     0.000199
Rotational constants in MHz :    57.347490     6.595156     5.966470

                             ****ORCA TERMINATED NORMALLY****
TOTAL RUN TIME: 0 days 0 hours 10 minutes 12 seconds 640 msec
