                         Program Version 4.2.0 -  RELEASE  -
|  1> # ORCA input file
|  2> # SCF done       -125.940975157980          0.000299317028
|  3> ! CAM-B3LYP def2-SVP def2/J RIJCOSX Grid4 TightSCF
|  4> %maxcore 5000
|  5> %tddft
|  6>     Mode sTDDFT
|  7>     Ethresh 5.0
|  8>     maxcore 5000
|  9> end
| 10>
| 11> %pal
| 12>   nprocs 6
| 13>   end
| 14> * xyz 0 1
| 15>    C        5.83577         1.74397        -1.41762
| 16>    O        5.51393         0.55879        -0.72144
| 17>    C        4.48688        -0.18586        -1.18120
| 18>    C        3.65754         0.05478        -2.28118
| 19>    C        2.69320        -0.91974        -2.46140
| 20>    C        1.66517        -0.97426        -3.47322
| 21>    C        0.73029        -2.02416        -3.52596
| 22>    F        0.78968        -3.01686        -2.62701
| 23>    C       -0.27126        -2.07839        -4.48374
| 24>    F       -1.12961        -3.10360        -4.47566
| 25>    C       -0.40118        -1.09356        -5.44582
| 26>    C        0.50741        -0.05164        -5.41907
| 27>    F        0.41617         0.92100        -6.33386
| 28>    C        1.51242         0.01161        -4.46533
| 29>    F        2.34572         1.06299        -4.52236
| 30>    S        2.82899        -2.16273        -1.24784
| 31>    C        4.16329        -1.36037        -0.50598
| 32>    C        4.82054        -1.82276         0.66092
| 33>    S        6.08449        -0.89166         1.40287
| 34>    C        6.28033        -2.04472         2.69067
| 35>    C        7.21266        -1.83552         3.74738
| 36>    C        7.47982        -2.66183         4.81567
| 37>    C        8.44804        -2.13554         5.69121
| 38>    O        8.86507        -2.67270         6.85292
| 39>    C        8.36075        -3.94248         7.20507
| 40>    C        8.92511        -0.89753         5.28021
| 41>    C        9.92044        -0.08022         5.94077
| 42>    C       11.06320        -0.64230         6.52484
| 43>    F       11.30153        -1.95241         6.39957
| 44>    C       11.99159         0.14632         7.19064
| 45>    F       13.07073        -0.42448         7.74151
| 46>    C       11.83433         1.51745         7.28258
| 47>    C       10.72620         2.09079         6.68423
| 48>    F       10.55833         3.41771         6.75267
| 49>    C        9.78706         1.31196         6.02553
| 50>    F        8.71562         1.90549         5.47805
| 51>    S        8.14764        -0.37995         3.81779
| 52>    C        5.40619        -3.10010         2.51735
| 53>    F        5.32964        -4.14568         3.35253
| 54>    C        4.58978        -2.97514         1.38599
| 55>    F        3.66735        -3.88131         1.03781
| 56>    H        4.99769         2.44638        -1.41317
| 57>    H        6.12806         1.52904        -2.44947
| 58>    H        6.67783         2.17775        -0.88227
| 59>    H        3.76350         0.91445        -2.91223
| 60>    H       -1.18013        -1.13613        -6.18763
| 61>    H        6.99065        -3.60665         4.95574
| 62>    H        8.84257        -4.19615         8.14717
| 63>    H        8.61590        -4.69356         6.45262
| 64>    H        7.27582        -3.91533         7.34402
| 65>    H       12.55970         2.12372         7.79836
| 66> *
| 67>
| 68>                          ****END OF INPUT****

CARTESIAN COORDINATES (ANGSTROEM)
---------------------------------
  C      5.835770    1.743970   -1.417620
  O      5.513930    0.558790   -0.721440
  C      4.486880   -0.185860   -1.181200
  C      3.657540    0.054780   -2.281180
  C      2.693200   -0.919740   -2.461400
  C      1.665170   -0.974260   -3.473220
  C      0.730290   -2.024160   -3.525960
  F      0.789680   -3.016860   -2.627010
  C     -0.271260   -2.078390   -4.483740
  F     -1.129610   -3.103600   -4.475660
  C     -0.401180   -1.093560   -5.445820
  C      0.507410   -0.051640   -5.419070
  F      0.416170    0.921000   -6.333860
  C      1.512420    0.011610   -4.465330
  F      2.345720    1.062990   -4.522360
  S      2.828990   -2.162730   -1.247840
  C      4.163290   -1.360370   -0.505980
  C      4.820540   -1.822760    0.660920
  S      6.084490   -0.891660    1.402870
  C      6.280330   -2.044720    2.690670
  C      7.212660   -1.835520    3.747380
  C      7.479820   -2.661830    4.815670
  C      8.448040   -2.135540    5.691210
  O      8.865070   -2.672700    6.852920
  C      8.360750   -3.942480    7.205070
  C      8.925110   -0.897530    5.280210
  C      9.920440   -0.080220    5.940770
  C     11.063200   -0.642300    6.524840
  F     11.301530   -1.952410    6.399570
  C     11.991590    0.146320    7.190640
  F     13.070730   -0.424480    7.741510
  C     11.834330    1.517450    7.282580
  C     10.726200    2.090790    6.684230
  F     10.558330    3.417710    6.752670
  C      9.787060    1.311960    6.025530
  F      8.715620    1.905490    5.478050
  S      8.147640   -0.379950    3.817790
  C      5.406190   -3.100100    2.517350
  F      5.329640   -4.145680    3.352530
  C      4.589780   -2.975140    1.385990
  F      3.667350   -3.881310    1.037810
  H      4.997690    2.446380   -1.413170
  H      6.128060    1.529040   -2.449470
  H      6.677830    2.177750   -0.882270
  H      3.763500    0.914450   -2.912230
  H     -1.180130   -1.136130   -6.187630
  H      6.990650   -3.606650    4.955740
  H      8.842570   -4.196150    8.147170
  H      8.615900   -4.693560    6.452620
  H      7.275820   -3.915330    7.344020
  H     12.559700    2.123720    7.798360

 Total Charge           Charge          ....    0
 Multiplicity           Mult            ....    1
 Number of Electrons    NEL             ....  320
 Basis Dimension        Dim             ....  636

ORBITAL ENERGIES
----------------

  NO   OCC          E(Eh)            E(eV)
   0   2.0000     -88.965244     -2420.8674
   1   2.0000     -88.964877     -2420.8574
   2   2.0000     -88.955464     -2420.6012
   3   2.0000     -24.807051      -675.0342
   4   2.0000     -24.806288      -675.0134
   5   2.0000     -24.797915      -674.7856
   6   2.0000     -24.797367      -674.7707
   7   2.0000     -24.794994      -674.7061
   8   2.0000     -24.794225      -674.6852
   9   2.0000     -24.789685      -674.5616
  10   2.0000     -24.785813      -674.4563
  11   2.0000     -24.784512      -674.4209
  12   2.0000     -24.781585      -674.3412
  13   2.0000     -19.263758      -524.1935
  14   2.0000     -19.246017      -523.7108
  15   2.0000     -10.381876      -282.5052
  16   2.0000     -10.381102      -282.4841
  17   2.0000     -10.380897      -282.4786
  18   2.0000     -10.380678      -282.4726
  19   2.0000     -10.367025      -282.1011
  20   2.0000     -10.366093      -282.0757
  21   2.0000     -10.365664      -282.0641
  22   2.0000     -10.364587      -282.0348
  23   2.0000     -10.363604      -282.0080
  24   2.0000     -10.361916      -281.9621
  25   2.0000     -10.340763      -281.3865
  26   2.0000     -10.334938      -281.2280
  27   2.0000     -10.334713      -281.2218
  28   2.0000     -10.328815      -281.0613
  29   2.0000     -10.322225      -280.8820
  30   2.0000     -10.320762      -280.8422
  31   2.0000     -10.316841      -280.7355
  32   2.0000     -10.312834      -280.6265
  33   2.0000     -10.309876      -280.5460
  34   2.0000     -10.309103      -280.5249
  35   2.0000     -10.306870      -280.4642
  36   2.0000     -10.303624      -280.3759
  37   2.0000     -10.294765      -280.1348
  38   2.0000     -10.290838      -280.0279
  39   2.0000     -10.284993      -279.8689
  40   2.0000     -10.272024      -279.5160
  41   2.0000      -8.059527      -219.3109
  42   2.0000      -8.059390      -219.3071
  43   2.0000      -8.050984      -219.0784
  44   2.0000      -6.029143      -164.0613
  45   2.0000      -6.028896      -164.0546
  46   2.0000      -6.025083      -163.9508
  47   2.0000      -6.024519      -163.9355
  48   2.0000      -6.021224      -163.8458
  49   2.0000      -6.020885      -163.8366
  50   2.0000      -6.020366      -163.8225
  51   2.0000      -6.016298      -163.7118
  52   2.0000      -6.012777      -163.6160
  53   2.0000      -1.328146       -36.1407
  54   2.0000      -1.326666       -36.1004
  55   2.0000      -1.312771       -35.7223
  56   2.0000      -1.311118       -35.6773
  57   2.0000      -1.309523       -35.6339
  58   2.0000      -1.308661       -35.6105
  59   2.0000      -1.307145       -35.5692
  60   2.0000      -1.301463       -35.4146
  61   2.0000      -1.295515       -35.2527
  62   2.0000      -1.291330       -35.1389
  63   2.0000      -1.168838       -31.8057
  64   2.0000      -1.153099       -31.3774
  65   2.0000      -1.006743       -27.3949
  66   2.0000      -0.997346       -27.1392
  67   2.0000      -0.985208       -26.8089
  68   2.0000      -0.977560       -26.6008
  69   2.0000      -0.966322       -26.2949
  70   2.0000      -0.903003       -24.5720
  71   2.0000      -0.887569       -24.1520
  72   2.0000      -0.863969       -23.5098
  73   2.0000      -0.854530       -23.2529
  74   2.0000      -0.851065       -23.1587
  75   2.0000      -0.844516       -22.9805
  76   2.0000      -0.839709       -22.8496
  77   2.0000      -0.828656       -22.5489
  78   2.0000      -0.825727       -22.4692
  79   2.0000      -0.805927       -21.9304
  80   2.0000      -0.790528       -21.5114
  81   2.0000      -0.770896       -20.9771
  82   2.0000      -0.755295       -20.5526
  83   2.0000      -0.734587       -19.9891
  84   2.0000      -0.732022       -19.9193
  85   2.0000      -0.717635       -19.5278
  86   2.0000      -0.702869       -19.1260
  87   2.0000      -0.694788       -18.9061
  88   2.0000      -0.677492       -18.4355
  89   2.0000      -0.672025       -18.2867
  90   2.0000      -0.663989       -18.0681
  91   2.0000      -0.660027       -17.9602
  92   2.0000      -0.653280       -17.7767
  93   2.0000      -0.649597       -17.6764
  94   2.0000      -0.645705       -17.5705
  95   2.0000      -0.641008       -17.4427
  96   2.0000      -0.634557       -17.2672
  97   2.0000      -0.631641       -17.1878
  98   2.0000      -0.623785       -16.9741
  99   2.0000      -0.620604       -16.8875
 100   2.0000      -0.606524       -16.5044
 101   2.0000      -0.604841       -16.4586
 102   2.0000      -0.600353       -16.3364
 103   2.0000      -0.599971       -16.3260
 104   2.0000      -0.585457       -15.9311
 105   2.0000      -0.583553       -15.8793
 106   2.0000      -0.579619       -15.7722
 107   2.0000      -0.579293       -15.7634
 108   2.0000      -0.578971       -15.7546
 109   2.0000      -0.570656       -15.5283
 110   2.0000      -0.567835       -15.4516
 111   2.0000      -0.565888       -15.3986
 112   2.0000      -0.562383       -15.3032
 113   2.0000      -0.556043       -15.1307
 114   2.0000      -0.553855       -15.0712
 115   2.0000      -0.553324       -15.0567
 116   2.0000      -0.548202       -14.9173
 117   2.0000      -0.546826       -14.8799
 118   2.0000      -0.543846       -14.7988
 119   2.0000      -0.542710       -14.7679
 120   2.0000      -0.538939       -14.6653
 121   2.0000      -0.536145       -14.5892
 122   2.0000      -0.531166       -14.4538
 123   2.0000      -0.523771       -14.2525
 124   2.0000      -0.518881       -14.1195
 125   2.0000      -0.512049       -13.9336
 126   2.0000      -0.505644       -13.7593
 127   2.0000      -0.502559       -13.6753
 128   2.0000      -0.501342       -13.6422
 129   2.0000      -0.495988       -13.4965
 130   2.0000      -0.493254       -13.4221
 131   2.0000      -0.486191       -13.2299
 132   2.0000      -0.483441       -13.1551
 133   2.0000      -0.481133       -13.0923
 134   2.0000      -0.477414       -12.9911
 135   2.0000      -0.472347       -12.8532
 136   2.0000      -0.464282       -12.6338
 137   2.0000      -0.457907       -12.4603
 138   2.0000      -0.456231       -12.4147
 139   2.0000      -0.453846       -12.3498
 140   2.0000      -0.451148       -12.2764
 141   2.0000      -0.447125       -12.1669
 142   2.0000      -0.444053       -12.0833
 143   2.0000      -0.428459       -11.6590
 144   2.0000      -0.420655       -11.4466
 145   2.0000      -0.417346       -11.3566
 146   2.0000      -0.414813       -11.2876
 147   2.0000      -0.410832       -11.1793
 148   2.0000      -0.404721       -11.0130
 149   2.0000      -0.393615       -10.7108
 150   2.0000      -0.377554       -10.2738
 151   2.0000      -0.356564        -9.7026
 152   2.0000      -0.330832        -9.0024
 153   2.0000      -0.320377        -8.7179
 154   2.0000      -0.317526        -8.6403
 155   2.0000      -0.314662        -8.5624
 156   2.0000      -0.305404        -8.3105
 157   2.0000      -0.303296        -8.2531
 158   2.0000      -0.277284        -7.5453
 159   2.0000      -0.235835        -6.4174
 160   0.0000      -0.055606        -1.5131
 161   0.0000      -0.019756        -0.5376
 162   0.0000       0.014990         0.4079
 163   0.0000       0.023741         0.6460
 164   0.0000       0.036729         0.9994

MULLIKEN ATOMIC CHARGES
-----------------------
   0 C :    0.176725
   1 O :   -0.328215
   2 C :    0.230943
   3 C :   -0.113424
   4 C :   -0.087985
   5 C :    0.060884
   6 C :    0.136108
   7 F :   -0.171379
   8 C :    0.251909
   9 F :   -0.173556
  10 C :   -0.154571
  11 C :    0.249076
  12 F :   -0.176076
  13 C :    0.145528
  14 F :   -0.176032
  15 S :    0.185008
  16 C :   -0.101519
  17 C :   -0.144230
  18 S :    0.184612
  19 C :   -0.100672
  20 C :   -0.024453
  21 C :   -0.141397
  22 C :    0.260995
  23 O :   -0.299171
  24 C :    0.178052
  25 C :   -0.180854
  26 C :   -0.063412
  27 C :    0.189540
  28 F :   -0.164264
  29 C :    0.239560
  30 F :   -0.180689
  31 C :   -0.151708
  32 C :    0.243813
  33 F :   -0.179833
  34 C :    0.172264
  35 F :   -0.173018
  36 S :    0.155807
  37 C :    0.186848
  38 F :   -0.177545
  39 C :    0.183081
  40 F :   -0.175067
  41 H :    0.032415
  42 H :    0.030909
  43 H :    0.046767
  44 H :   -0.009080
  45 H :    0.017112
  46 H :   -0.015890
  47 H :    0.041034
  48 H :    0.027260
  49 H :    0.026446
  50 H :    0.011344
Sum of atomic charges:   -0.0000000

LOEWDIN ATOMIC CHARGES
----------------------
   0 C :    0.083979
   1 O :   -0.103454
   2 C :    0.010533
   3 C :   -0.083618
   4 C :   -0.173888
   5 C :   -0.067907
   6 C :    0.046657
   7 F :   -0.045727
   8 C :    0.060295
   9 F :   -0.048185
  10 C :   -0.066027
  11 C :    0.060032
  12 F :   -0.050453
  13 C :    0.055205
  14 F :   -0.045442
  15 S :    0.480502
  16 C :   -0.225297
  17 C :   -0.207415
  18 S :    0.476471
  19 C :   -0.228130
  20 C :   -0.173939
  21 C :   -0.097251
  22 C :    0.029347
  23 O :   -0.092184
  24 C :    0.081177
  25 C :   -0.225747
  26 C :   -0.073184
  27 C :    0.056789
  28 F :   -0.041910
  29 C :    0.056269
  30 F :   -0.054723
  31 C :   -0.068929
  32 C :    0.054306
  33 F :   -0.054770
  34 C :    0.046971
  35 F :   -0.053827
  36 S :    0.448968
  37 C :    0.025586
  38 F :   -0.050434
  39 C :    0.012561
  40 F :   -0.052862
  41 H :    0.019859
  42 H :    0.019683
  43 H :    0.033163
  44 H :    0.027567
  45 H :    0.054240
  46 H :    0.027984
  47 H :    0.030809
  48 H :    0.018044
  49 H :    0.016907
  50 H :    0.051400

  Mayer bond orders larger than 0.100000
B(  0-C ,  1-O ) :   0.9439 B(  0-C , 41-H ) :   0.9718 B(  0-C , 42-H ) :   0.9719
B(  0-C , 43-H ) :   0.9794 B(  1-O ,  2-C ) :   1.1396 B(  2-C ,  3-C ) :   1.2198
B(  2-C , 16-C ) :   1.4472 B(  3-C ,  4-C ) :   1.4617 B(  3-C , 44-H ) :   1.0020
B(  4-C ,  5-C ) :   1.1168 B(  4-C , 15-S ) :   1.1211 B(  4-C , 16-C ) :   0.1113
B(  5-C ,  6-C ) :   1.2627 B(  5-C , 10-C ) :   0.1178 B(  5-C , 13-C ) :   1.2681
B(  6-C ,  7-F ) :   1.1309 B(  6-C ,  8-C ) :   1.3216 B(  8-C ,  9-F ) :   1.1219
B(  8-C , 10-C ) :   1.3198 B( 10-C , 11-C ) :   1.3209 B( 10-C , 45-H ) :   1.0220
B( 11-C , 12-F ) :   1.1172 B( 11-C , 13-C ) :   1.3214 B( 13-C , 14-F ) :   1.1189
B( 15-S , 16-C ) :   1.1002 B( 16-C , 17-C ) :   1.1814 B( 17-C , 18-S ) :   1.1172
B( 17-C , 19-C ) :   0.1355 B( 17-C , 39-C ) :   1.4503 B( 18-S , 19-C ) :   1.0729
B( 19-C , 20-C ) :   1.1244 B( 19-C , 37-C ) :   1.4800 B( 20-C , 21-C ) :   1.4901
B( 20-C , 25-C ) :   0.1176 B( 20-C , 36-S ) :   1.1449 B( 21-C , 22-C ) :   1.1853
B( 21-C , 46-H ) :   1.0048 B( 22-C , 23-O ) :   1.1854 B( 22-C , 25-C ) :   1.5270
B( 23-O , 24-C ) :   0.9558 B( 24-C , 47-H ) :   0.9795 B( 24-C , 48-H ) :   0.9705
B( 24-C , 49-H ) :   0.9703 B( 25-C , 26-C ) :   0.9994 B( 25-C , 36-S ) :   1.1004
B( 26-C , 27-C ) :   1.3129 B( 26-C , 31-C ) :   0.1215 B( 26-C , 34-C ) :   1.3032
B( 27-C , 28-F ) :   1.1748 B( 27-C , 29-C ) :   1.2988 B( 29-C , 30-F ) :   1.1139
B( 29-C , 31-C ) :   1.3239 B( 31-C , 32-C ) :   1.3146 B( 31-C , 50-H ) :   1.0204
B( 32-C , 33-F ) :   1.1168 B( 32-C , 34-C ) :   1.3083 B( 34-C , 35-F ) :   1.1613
B( 37-C , 38-F ) :   1.1304 B( 37-C , 39-C ) :   1.2236 B( 39-C , 40-F ) :   1.1556

-----------------------------------------------------------------------------
         ABSORPTION SPECTRUM VIA TRANSITION ELECTRIC DIPOLE MOMENTS
-----------------------------------------------------------------------------
State   Energy  Wavelength   fosc         T2         TX        TY        TZ
        (cm-1)    (nm)                  (au**2)     (au)      (au)      (au)
-----------------------------------------------------------------------------
   0   23598.8    423.8   1.625931811  22.68236  -3.01315   0.03669  -3.68808
   1   31361.0    318.9   0.117129662   1.22957   0.53288   0.96007   0.15448
   2   32713.8    305.7   0.191654493   1.92870  -0.01280   1.18175  -0.72938
   3   38486.6    259.8   0.135734991   1.16107   0.70906   0.79989   0.13597
   4   39274.2    254.6   0.090064589   0.75496  -0.61715   0.14803  -0.59344

FINAL SINGLE POINT ENERGY     -3337.348408957624

DIPOLE MOMENT
-------------
                                X             Y             Z
Electronic contribution:     -9.32007      -0.41017      -8.38520
Nuclear contribution   :      9.03000       0.82512       7.58848
                        -----------------------------------------
Total Dipole Moment    :     -0.29007       0.41495      -0.79672
                        -----------------------------------------
Magnitude (a.u.)       :      0.94398
Magnitude (Debye)      :      2.39940

Rotational constants in cm-1:     0.006466     0.000777     0.000706
Rotational constants in MHz :   193.839853    23.303656    21.156661

                             ****ORCA TERMINATED NORMALLY****
TOTAL RUN TIME: 0 days 0 hours 3 minutes 41 seconds 662 msec
