                         Program Version 4.2.0 -  RELEASE  -
|  1> # ORCA input file
|  2> # SCF done       -157.793172685041          0.000455583658
|  3> ! CAM-B3LYP def2-SVP def2/J RIJCOSX Grid4 TightSCF
|  4> %maxcore 5000
|  5> %tddft
|  6>     Mode sTDDFT
|  7>     Ethresh 5.0
|  8>     maxcore 5000
|  9> end
| 10>
| 11> %pal
| 12>   nprocs 6
| 13>   end
| 14> * xyz 0 1
| 15>    C        2.17634         0.22888         1.76992
| 16>    N        1.71147         1.33008         0.98383
| 17>    N        0.44471         1.49371         0.72502
| 18>    C        0.39984         2.60730        -0.02158
| 19>    C       -0.68496         3.27890        -0.59591
| 20>    C       -0.37482         4.40600        -1.30707
| 21>    F       -1.35807         5.11058        -1.89240
| 22>    C        0.94387         4.87688        -1.46143
| 23>    F        1.10982         6.00021        -2.18564
| 24>    C        2.05106         4.24503        -0.91205
| 25>    C        3.39604         4.71788        -1.05885
| 26>    C        4.53590         4.11486        -0.55995
| 27>    C        5.69957         4.81612        -0.86354
| 28>    C        5.45391         5.96810        -1.59646
| 29>    S        3.77822         6.18733        -1.91839
| 30>    C        6.53573         6.82556        -1.90672
| 31>    S        6.55127         8.26153        -2.86364
| 32>    C        8.21711         8.53100        -2.45313
| 33>    C        8.86351         9.68763        -2.97489
| 34>    N        8.14447        10.48117        -3.75700
| 35>    N        8.60237        11.57268        -4.27511
| 36>    C        9.83761        12.01290        -4.07233
| 37>    C       10.19663        13.24668        -4.68218
| 38>    C       11.39513        13.93246        -4.61839
| 39>    C       11.36472        15.12406        -5.33532
| 40>    C       10.13625        15.34889        -5.94724
| 41>    S        9.00751        14.08237        -5.63855
| 42>    C        9.93974        16.56876        -6.63625
| 43>    S        8.58400        17.09130        -7.56121
| 44>    C        9.29528        18.66732        -7.77059
| 45>    C        8.63846        19.71135        -8.50280
| 46>    C        7.42796        19.55122        -9.16279
| 47>    F        6.81042        18.35547        -9.14067
| 48>    C        6.78996        20.58687        -9.87433
| 49>    F        5.62192        20.30018       -10.47347
| 50>    C        7.30683        21.85004        -9.97432
| 51>    C        8.52625        22.06035        -9.32109
| 52>    N        9.28724        23.16045        -9.21759
| 53>    N       10.30400        22.78197        -8.49554
| 54>    C       11.35613        23.68883        -8.15294
| 55>    N       10.31435        21.53884        -8.09821
| 56>    C        9.18650        21.01600        -8.60065
| 57>    C       10.52743        18.75736        -7.15430
| 58>    C       10.90288        17.56934        -6.52165
| 59>    O       12.04750        17.43043        -5.81335
| 60>    C       12.48387        16.10092        -5.54417
| 61>    C       10.72345        11.24797        -3.25711
| 62>    N       11.98791        11.47216        -2.91856
| 63>    S       12.49065        10.26471        -1.97315
| 64>    N       11.12610         9.40628        -1.95169
| 65>    C       10.21659        10.03379        -2.68789
| 66>    C        8.72695         7.55022        -1.62682
| 67>    C        7.77726         6.57311        -1.32026
| 68>    O        8.01425         5.53489        -0.48451
| 69>    C        7.11376         4.43218        -0.54363
| 70>    C        1.74318         3.07357        -0.17333
| 71>    N        2.53318         2.21668         0.49022
| 72>    H        1.30893        -0.34622         2.08429
| 73>    H        2.71998         0.59827         2.63972
| 74>    H        2.84567        -0.39488         1.17651
| 75>    H       -1.69786         2.93400        -0.48680
| 76>    H        4.49839         3.19865        -0.00128
| 77>    H       12.24143        13.56182        -4.06950
| 78>    H        6.80518        22.62976       -10.51967
| 79>    H       11.12108        24.65488        -8.59270
| 80>    H       12.30575        23.31882        -8.54060
| 81>    H       11.43091        23.77606        -7.06860
| 82>    H       11.12062        19.65126        -7.16357
| 83>    H       13.11435        16.17323        -4.65393
| 84>    H       13.11263        15.76241        -6.38685
| 85>    H        9.73739         7.55308        -1.26383
| 86>    H        7.17817         3.94826         0.43474
| 87>    H        7.48082         3.72162        -1.30541
| 88> *
| 89>
| 90>                          ****END OF INPUT****

CARTESIAN COORDINATES (ANGSTROEM)
---------------------------------
  C      2.176340    0.228880    1.769920
  N      1.711470    1.330080    0.983830
  N      0.444710    1.493710    0.725020
  C      0.399840    2.607300   -0.021580
  C     -0.684960    3.278900   -0.595910
  C     -0.374820    4.406000   -1.307070
  F     -1.358070    5.110580   -1.892400
  C      0.943870    4.876880   -1.461430
  F      1.109820    6.000210   -2.185640
  C      2.051060    4.245030   -0.912050
  C      3.396040    4.717880   -1.058850
  C      4.535900    4.114860   -0.559950
  C      5.699570    4.816120   -0.863540
  C      5.453910    5.968100   -1.596460
  S      3.778220    6.187330   -1.918390
  C      6.535730    6.825560   -1.906720
  S      6.551270    8.261530   -2.863640
  C      8.217110    8.531000   -2.453130
  C      8.863510    9.687630   -2.974890
  N      8.144470   10.481170   -3.757000
  N      8.602370   11.572680   -4.275110
  C      9.837610   12.012900   -4.072330
  C     10.196630   13.246680   -4.682180
  C     11.395130   13.932460   -4.618390
  C     11.364720   15.124060   -5.335320
  C     10.136250   15.348890   -5.947240
  S      9.007510   14.082370   -5.638550
  C      9.939740   16.568760   -6.636250
  S      8.584000   17.091300   -7.561210
  C      9.295280   18.667320   -7.770590
  C      8.638460   19.711350   -8.502800
  C      7.427960   19.551220   -9.162790
  F      6.810420   18.355470   -9.140670
  C      6.789960   20.586870   -9.874330
  F      5.621920   20.300180  -10.473470
  C      7.306830   21.850040   -9.974320
  C      8.526250   22.060350   -9.321090
  N      9.287240   23.160450   -9.217590
  N     10.304000   22.781970   -8.495540
  C     11.356130   23.688830   -8.152940
  N     10.314350   21.538840   -8.098210
  C      9.186500   21.016000   -8.600650
  C     10.527430   18.757360   -7.154300
  C     10.902880   17.569340   -6.521650
  O     12.047500   17.430430   -5.813350
  C     12.483870   16.100920   -5.544170
  C     10.723450   11.247970   -3.257110
  N     11.987910   11.472160   -2.918560
  S     12.490650   10.264710   -1.973150
  N     11.126100    9.406280   -1.951690
  C     10.216590   10.033790   -2.687890
  C      8.726950    7.550220   -1.626820
  C      7.777260    6.573110   -1.320260
  O      8.014250    5.534890   -0.484510
  C      7.113760    4.432180   -0.543630
  C      1.743180    3.073570   -0.173330
  N      2.533180    2.216680    0.490220
  H      1.308930   -0.346220    2.084290
  H      2.719980    0.598270    2.639720
  H      2.845670   -0.394880    1.176510
  H     -1.697860    2.934000   -0.486800
  H      4.498390    3.198650   -0.001280
  H     12.241430   13.561820   -4.069500
  H      6.805180   22.629760  -10.519670
  H     11.121080   24.654880   -8.592700
  H     12.305750   23.318820   -8.540600
  H     11.430910   23.776060   -7.068600
  H     11.120620   19.651260   -7.163570
  H     13.114350   16.173230   -4.653930
  H     13.112630   15.762410   -6.386850
  H      9.737390    7.553080   -1.263830
  H      7.178170    3.948260    0.434740
  H      7.480820    3.721620   -1.305410

 Total Charge           Charge          ....    0
 Multiplicity           Mult            ....    1
 Number of Electrons    NEL             ....  434
 Basis Dimension        Dim             ....  898

ORBITAL ENERGIES
----------------

  NO   OCC          E(Eh)            E(eV)
   0   2.0000     -89.037690     -2422.8387
   1   2.0000     -88.952779     -2420.5282
   2   2.0000     -88.952287     -2420.5148
   3   2.0000     -88.952073     -2420.5090
   4   2.0000     -88.949293     -2420.4333
   5   2.0000     -24.793103      -674.6546
   6   2.0000     -24.790989      -674.5971
   7   2.0000     -24.782037      -674.3535
   8   2.0000     -24.780682      -674.3166
   9   2.0000     -19.244257      -523.6629
  10   2.0000     -19.242198      -523.6068
  11   2.0000     -14.543083      -395.7374
  12   2.0000     -14.542621      -395.7248
  13   2.0000     -14.454875      -393.3372
  14   2.0000     -14.454341      -393.3226
  15   2.0000     -14.443816      -393.0362
  16   2.0000     -14.443792      -393.0356
  17   2.0000     -14.443295      -393.0220
  18   2.0000     -14.442823      -393.0092
  19   2.0000     -14.432746      -392.7350
  20   2.0000     -14.431474      -392.7004
  21   2.0000     -10.368079      -282.1298
  22   2.0000     -10.367018      -282.1009
  23   2.0000     -10.365623      -282.0629
  24   2.0000     -10.365175      -282.0508
  25   2.0000     -10.335987      -281.2565
  26   2.0000     -10.335659      -281.2476
  27   2.0000     -10.330599      -281.1099
  28   2.0000     -10.329393      -281.0771
  29   2.0000     -10.328083      -281.0414
  30   2.0000     -10.326769      -281.0057
  31   2.0000     -10.326376      -280.9950
  32   2.0000     -10.325820      -280.9799
  33   2.0000     -10.324975      -280.9569
  34   2.0000     -10.324188      -280.9354
  35   2.0000     -10.309593      -280.5383
  36   2.0000     -10.308649      -280.5126
  37   2.0000     -10.307527      -280.4821
  38   2.0000     -10.307245      -280.4744
  39   2.0000     -10.306324      -280.4493
  40   2.0000     -10.306056      -280.4420
  41   2.0000     -10.305783      -280.4346
  42   2.0000     -10.303123      -280.3622
  43   2.0000     -10.300446      -280.2894
  44   2.0000     -10.298583      -280.2387
  45   2.0000     -10.296875      -280.1922
  46   2.0000     -10.294135      -280.1177
  47   2.0000     -10.292551      -280.0746
  48   2.0000     -10.291073      -280.0343
  49   2.0000     -10.287041      -279.9246
  50   2.0000     -10.284604      -279.8583
  51   2.0000     -10.274132      -279.5733
  52   2.0000     -10.273120      -279.5458
  53   2.0000     -10.271935      -279.5135
  54   2.0000     -10.268545      -279.4213
  55   2.0000     -10.267733      -279.3992
  56   2.0000     -10.265003      -279.3249
  57   2.0000      -8.129481      -221.2144
  58   2.0000      -8.047695      -218.9889
  59   2.0000      -8.047133      -218.9736
  60   2.0000      -8.046699      -218.9618
  61   2.0000      -8.043857      -218.8845
  62   2.0000      -6.100737      -166.0095
  63   2.0000      -6.092843      -165.7947
  64   2.0000      -6.091869      -165.7682
  65   2.0000      -6.017039      -163.7320
  66   2.0000      -6.016593      -163.7198
  67   2.0000      -6.016077      -163.7058
  68   2.0000      -6.013315      -163.6306
  69   2.0000      -6.012789      -163.6163
  70   2.0000      -6.012376      -163.6051
  71   2.0000      -6.011830      -163.5902
  72   2.0000      -6.009798      -163.5349
  73   2.0000      -6.009142      -163.5171
  74   2.0000      -6.008969      -163.5124
  75   2.0000      -6.008825      -163.5084
  76   2.0000      -6.005742      -163.4245
  77   2.0000      -1.311690       -35.6929
  78   2.0000      -1.309628       -35.6368
  79   2.0000      -1.292219       -35.1631
  80   2.0000      -1.290634       -35.1199
  81   2.0000      -1.220672       -33.2162
  82   2.0000      -1.220159       -33.2022
  83   2.0000      -1.150601       -31.3094
  84   2.0000      -1.148631       -31.2558
  85   2.0000      -1.140666       -31.0391
  86   2.0000      -1.111362       -30.2417
  87   2.0000      -0.999684       -27.2028
  88   2.0000      -0.996345       -27.1119
  89   2.0000      -0.995967       -27.1017
  90   2.0000      -0.988889       -26.9090
  91   2.0000      -0.988420       -26.8963
  92   2.0000      -0.983325       -26.7576
  93   2.0000      -0.980410       -26.6783
  94   2.0000      -0.969741       -26.3880
  95   2.0000      -0.968094       -26.3432
  96   2.0000      -0.928037       -25.2532
  97   2.0000      -0.924694       -25.1622
  98   2.0000      -0.923672       -25.1344
  99   2.0000      -0.913038       -24.8450
 100   2.0000      -0.884634       -24.0721
 101   2.0000      -0.880578       -23.9617
 102   2.0000      -0.864354       -23.5203
 103   2.0000      -0.851293       -23.1649
 104   2.0000      -0.844220       -22.9724
 105   2.0000      -0.841410       -22.8959
 106   2.0000      -0.829131       -22.5618
 107   2.0000      -0.823140       -22.3988
 108   2.0000      -0.815931       -22.2026
 109   2.0000      -0.814909       -22.1748
 110   2.0000      -0.802020       -21.8241
 111   2.0000      -0.794191       -21.6110
 112   2.0000      -0.782126       -21.2827
 113   2.0000      -0.756065       -20.5736
 114   2.0000      -0.755149       -20.5487
 115   2.0000      -0.741996       -20.1907
 116   2.0000      -0.737456       -20.0672
 117   2.0000      -0.731773       -19.9126
 118   2.0000      -0.730695       -19.8832
 119   2.0000      -0.722415       -19.6579
 120   2.0000      -0.711385       -19.3578
 121   2.0000      -0.697583       -18.9822
 122   2.0000      -0.681417       -18.5423
 123   2.0000      -0.676244       -18.4015
 124   2.0000      -0.672885       -18.3101
 125   2.0000      -0.657768       -17.8988
 126   2.0000      -0.653497       -17.7825
 127   2.0000      -0.647620       -17.6226
 128   2.0000      -0.643142       -17.5008
 129   2.0000      -0.639923       -17.4132
 130   2.0000      -0.632866       -17.2212
 131   2.0000      -0.631282       -17.1781
 132   2.0000      -0.628118       -17.0920
 133   2.0000      -0.621661       -16.9163
 134   2.0000      -0.618149       -16.8207
 135   2.0000      -0.614029       -16.7086
 136   2.0000      -0.611866       -16.6497
 137   2.0000      -0.608732       -16.5644
 138   2.0000      -0.606445       -16.5022
 139   2.0000      -0.606360       -16.4999
 140   2.0000      -0.596192       -16.2232
 141   2.0000      -0.577853       -15.7242
 142   2.0000      -0.575737       -15.6666
 143   2.0000      -0.574586       -15.6353
 144   2.0000      -0.572758       -15.5855
 145   2.0000      -0.570917       -15.5354
 146   2.0000      -0.567119       -15.4321
 147   2.0000      -0.565714       -15.3939
 148   2.0000      -0.561520       -15.2797
 149   2.0000      -0.556577       -15.1452
 150   2.0000      -0.553128       -15.0514
 151   2.0000      -0.550893       -14.9906
 152   2.0000      -0.545435       -14.8420
 153   2.0000      -0.543274       -14.7833
 154   2.0000      -0.535700       -14.5771
 155   2.0000      -0.533964       -14.5299
 156   2.0000      -0.529484       -14.4080
 157   2.0000      -0.526511       -14.3271
 158   2.0000      -0.519584       -14.1386
 159   2.0000      -0.519022       -14.1233
 160   2.0000      -0.515697       -14.0328
 161   2.0000      -0.514207       -13.9923
 162   2.0000      -0.507827       -13.8187
 163   2.0000      -0.507106       -13.7991
 164   2.0000      -0.506883       -13.7930
 165   2.0000      -0.506686       -13.7876
 166   2.0000      -0.506553       -13.7840
 167   2.0000      -0.492137       -13.3917
 168   2.0000      -0.488921       -13.3042
 169   2.0000      -0.488211       -13.2849
 170   2.0000      -0.485138       -13.2013
 171   2.0000      -0.483655       -13.1609
 172   2.0000      -0.481784       -13.1100
 173   2.0000      -0.479317       -13.0429
 174   2.0000      -0.478018       -13.0075
 175   2.0000      -0.476246       -12.9593
 176   2.0000      -0.470884       -12.8134
 177   2.0000      -0.464585       -12.6420
 178   2.0000      -0.459647       -12.5076
 179   2.0000      -0.457499       -12.4492
 180   2.0000      -0.457072       -12.4376
 181   2.0000      -0.454579       -12.3697
 182   2.0000      -0.435661       -11.8549
 183   2.0000      -0.435107       -11.8399
 184   2.0000      -0.432846       -11.7783
 185   2.0000      -0.427249       -11.6260
 186   2.0000      -0.425105       -11.5677
 187   2.0000      -0.423001       -11.5104
 188   2.0000      -0.420963       -11.4550
 189   2.0000      -0.417512       -11.3611
 190   2.0000      -0.408375       -11.1124
 191   2.0000      -0.404034       -10.9943
 192   2.0000      -0.396723       -10.7954
 193   2.0000      -0.394048       -10.7226
 194   2.0000      -0.393418       -10.7055
 195   2.0000      -0.393096       -10.6967
 196   2.0000      -0.388251       -10.5648
 197   2.0000      -0.385862       -10.4998
 198   2.0000      -0.380761       -10.3610
 199   2.0000      -0.378920       -10.3109
 200   2.0000      -0.374556       -10.1922
 201   2.0000      -0.374027       -10.1778
 202   2.0000      -0.369336       -10.0501
 203   2.0000      -0.366736        -9.9794
 204   2.0000      -0.350304        -9.5323
 205   2.0000      -0.328926        -8.9505
 206   2.0000      -0.316903        -8.6234
 207   2.0000      -0.316654        -8.6166
 208   2.0000      -0.315372        -8.5817
 209   2.0000      -0.314422        -8.5559
 210   2.0000      -0.307431        -8.3656
 211   2.0000      -0.295536        -8.0419
 212   2.0000      -0.293960        -7.9991
 213   2.0000      -0.292494        -7.9592
 214   2.0000      -0.284868        -7.7517
 215   2.0000      -0.241027        -6.5587
 216   2.0000      -0.219579        -5.9751
 217   0.0000      -0.087564        -2.3828
 218   0.0000      -0.045181        -1.2294
 219   0.0000      -0.041906        -1.1403
 220   0.0000      -0.008784        -0.2390
 221   0.0000      -0.002014        -0.0548

MULLIKEN ATOMIC CHARGES
-----------------------
   0 C :    0.147422
   1 N :   -0.075127
   2 N :   -0.047891
   3 C :    0.029818
   4 C :   -0.149708
   5 C :    0.260069
   6 F :   -0.183857
   7 C :    0.100390
   8 F :   -0.179483
   9 C :    0.140524
  10 C :   -0.142971
  11 C :   -0.036983
  12 C :   -0.120523
  13 C :   -0.053645
  14 S :    0.173262
  15 C :   -0.161620
  16 S :    0.200838
  17 C :   -0.110887
  18 C :    0.023513
  19 N :   -0.059287
  20 N :   -0.065339
  21 C :    0.031308
  22 C :   -0.132250
  23 C :   -0.040550
  24 C :   -0.133361
  25 C :   -0.045071
  26 S :    0.203772
  27 C :   -0.169488
  28 S :    0.171772
  29 C :   -0.120051
  30 C :    0.131788
  31 C :    0.105169
  32 F :   -0.177211
  33 C :    0.258000
  34 F :   -0.183292
  35 C :   -0.145768
  36 C :    0.029535
  37 N :   -0.047518
  38 N :   -0.075847
  39 C :    0.148137
  40 N :   -0.075926
  41 C :   -0.052086
  42 C :   -0.067501
  43 C :    0.220050
  44 O :   -0.302890
  45 C :    0.357525
  46 C :    0.026656
  47 N :   -0.265657
  48 S :    0.526870
  49 N :   -0.257710
  50 C :    0.021538
  51 C :   -0.069760
  52 C :    0.205924
  53 O :   -0.306296
  54 C :    0.360591
  55 C :   -0.055065
  56 N :   -0.077511
  57 H :    0.053224
  58 H :    0.053131
  59 H :    0.052933
  60 H :   -0.013891
  61 H :   -0.019758
  62 H :   -0.016178
  63 H :   -0.011603
  64 H :    0.052495
  65 H :    0.053226
  66 H :    0.055475
  67 H :   -0.011666
  68 H :    0.018337
  69 H :    0.021964
  70 H :   -0.012364
  71 H :    0.016878
  72 H :    0.021456
Sum of atomic charges:   -0.0000000

LOEWDIN ATOMIC CHARGES
----------------------
   0 C :    0.033321
   1 N :    0.152799
   2 N :   -0.088761
   3 C :   -0.055223
   4 C :   -0.053988
   5 C :    0.064824
   6 F :   -0.057712
   7 C :    0.050528
   8 F :   -0.054696
   9 C :   -0.057938
  10 C :   -0.175206
  11 C :   -0.041750
  12 C :   -0.085229
  13 C :   -0.190404
  14 S :    0.459599
  15 C :   -0.234880
  16 S :    0.475820
  17 C :   -0.176805
  18 C :   -0.034111
  19 N :   -0.061612
  20 N :   -0.068011
  21 C :   -0.030188
  22 C :   -0.188023
  23 C :   -0.034176
  24 C :   -0.090792
  25 C :   -0.175666
  26 S :    0.481521
  27 C :   -0.248202
  28 S :    0.453388
  29 C :   -0.162700
  30 C :   -0.059525
  31 C :    0.054669
  32 F :   -0.052538
  33 C :    0.063808
  34 F :   -0.057358
  35 C :   -0.049942
  36 C :   -0.055558
  37 N :   -0.088517
  38 N :    0.154074
  39 C :    0.033820
  40 N :   -0.092751
  41 C :   -0.044515
  42 C :   -0.059752
  43 C :    0.029715
  44 O :   -0.099920
  45 C :    0.105252
  46 C :   -0.053780
  47 N :   -0.270330
  48 S :    0.654251
  49 N :   -0.266720
  50 C :   -0.053368
  51 C :   -0.054443
  52 C :    0.024025
  53 O :   -0.102463
  54 C :    0.105820
  55 C :   -0.045507
  56 N :   -0.095969
  57 H :    0.043115
  58 H :    0.040671
  59 H :    0.040387
  60 H :    0.045905
  61 H :    0.027021
  62 H :    0.030123
  63 H :    0.046638
  64 H :    0.042791
  65 H :    0.040981
  66 H :    0.041702
  67 H :    0.033047
  68 H :    0.031237
  69 H :    0.021094
  70 H :    0.035261
  71 H :    0.030833
  72 H :    0.020988

  Mayer bond orders larger than 0.100000
B(  0-C ,  1-N ) :   0.9535 B(  0-C , 57-H ) :   0.9665 B(  0-C , 58-H ) :   0.9703
B(  0-C , 59-H ) :   0.9706 B(  1-N ,  2-N ) :   1.2513 B(  1-N , 56-N ) :   1.2049
B(  2-N ,  3-C ) :   1.4644 B(  2-N , 56-N ) :   0.1642 B(  3-C ,  4-C ) :   1.1378
B(  3-C , 55-C ) :   1.2305 B(  4-C ,  5-C ) :   1.4467 B(  4-C ,  9-C ) :   0.1281
B(  4-C , 60-H ) :   1.0494 B(  5-C ,  6-F ) :   1.1009 B(  5-C ,  7-C ) :   1.1831
B(  7-C ,  8-F ) :   1.1299 B(  7-C ,  9-C ) :   1.3710 B(  9-C , 10-C ) :   1.1209
B(  9-C , 55-C ) :   1.1759 B( 10-C , 11-C ) :   1.5019 B( 10-C , 14-S ) :   1.1083
B( 11-C , 12-C ) :   1.2624 B( 11-C , 61-H ) :   0.9863 B( 12-C , 13-C ) :   1.5267
B( 12-C , 54-C ) :   1.0269 B( 13-C , 14-S ) :   1.1070 B( 13-C , 15-C ) :   1.1455
B( 15-C , 16-S ) :   1.0767 B( 15-C , 17-C ) :   0.1101 B( 15-C , 52-C ) :   1.4546
B( 16-S , 17-C ) :   1.1036 B( 17-C , 18-C ) :   1.1719 B( 17-C , 51-C ) :   1.4635
B( 18-C , 19-N ) :   1.7050 B( 18-C , 21-C ) :   0.1162 B( 18-C , 50-C ) :   1.1159
B( 19-N , 20-N ) :   1.2360 B( 20-N , 21-C ) :   1.6978 B( 21-C , 22-C ) :   1.1756
B( 21-C , 46-C ) :   1.1137 B( 22-C , 23-C ) :   1.4891 B( 22-C , 25-C ) :   0.1035
B( 22-C , 26-S ) :   1.0943 B( 23-C , 24-C ) :   1.2750 B( 23-C , 62-H ) :   0.9901
B( 24-C , 25-C ) :   1.5189 B( 24-C , 45-C ) :   1.0250 B( 25-C , 26-S ) :   1.1210
B( 25-C , 27-C ) :   1.1533 B( 27-C , 28-S ) :   1.0622 B( 27-C , 29-C ) :   0.1022
B( 27-C , 43-C ) :   1.4466 B( 28-S , 29-C ) :   1.1162 B( 29-C , 30-C ) :   1.1242
B( 29-C , 42-C ) :   1.4745 B( 30-C , 31-C ) :   1.3734 B( 30-C , 35-C ) :   0.1288
B( 30-C , 41-C ) :   1.1764 B( 31-C , 32-F ) :   1.1325 B( 31-C , 33-C ) :   1.1822
B( 33-C , 34-F ) :   1.1007 B( 33-C , 35-C ) :   1.4474 B( 35-C , 36-C ) :   1.1400
B( 35-C , 63-H ) :   1.0480 B( 36-C , 37-N ) :   1.4636 B( 36-C , 41-C ) :   1.2285
B( 37-N , 38-N ) :   1.2519 B( 37-N , 40-N ) :   0.1635 B( 38-N , 39-C ) :   0.9526
B( 38-N , 40-N ) :   1.2073 B( 39-C , 64-H ) :   0.9665 B( 39-C , 65-H ) :   0.9705
B( 39-C , 66-H ) :   0.9700 B( 40-N , 41-C ) :   1.4700 B( 42-C , 43-C ) :   1.2312
B( 42-C , 67-H ) :   1.0014 B( 43-C , 44-O ) :   1.1588 B( 44-O , 45-C ) :   0.9507
B( 45-C , 68-H ) :   0.9373 B( 45-C , 69-H ) :   0.9316 B( 46-C , 47-N ) :   1.5552
B( 46-C , 50-C ) :   1.1864 B( 47-N , 48-S ) :   1.2617 B( 47-N , 49-N ) :   0.1431
B( 48-S , 49-N ) :   1.2640 B( 49-N , 50-C ) :   1.5600 B( 51-C , 52-C ) :   1.2425
B( 51-C , 70-H ) :   1.0055 B( 52-C , 53-O ) :   1.1494 B( 53-O , 54-C ) :   0.9532
B( 54-C , 71-H ) :   0.9356 B( 54-C , 72-H ) :   0.9309 B( 55-C , 56-N ) :   1.4684

-----------------------------------------------------------------------------
         ABSORPTION SPECTRUM VIA TRANSITION ELECTRIC DIPOLE MOMENTS
-----------------------------------------------------------------------------
State   Energy  Wavelength   fosc         T2         TX        TY        TZ
        (cm-1)    (nm)                  (au**2)     (au)      (au)      (au)
-----------------------------------------------------------------------------
   0   13550.8    738.0   1.099244543  26.70577  -1.94088  -4.33760   2.03076
   1   19492.7    513.0   0.232427224   3.92546  -1.71360   0.69501  -0.71134
   2   20007.3    499.8   0.010846723   0.17848   0.34684  -0.17551   0.16547
   3   23913.7    418.2   0.875371935  12.05094  -1.48377  -2.84185   1.33163
   4   24616.3    406.2   0.475028247   6.35290  -2.29558   0.80009  -0.66564
   5   27990.5    357.3   0.026790792   0.31510  -0.32475  -0.37390   0.26426
   6   29280.9    341.5   0.039790050   0.44737  -0.44342  -0.48108   0.13896
   7   30613.4    326.7   0.047303684   0.50870   0.05514   0.61846  -0.35094
   8   31018.0    322.4   0.014507292   0.15397   0.24482  -0.21603   0.21765
   9   31388.2    318.6   0.068997331   0.72367   0.34254  -0.69981   0.34147
  10   32371.4    308.9   0.066924200   0.68061  -0.46769   0.56375  -0.37955
  11   32549.1    307.2   0.083624046   0.84580   0.35473   0.74186  -0.41184
  12   33214.8    301.1   0.087013961   0.86245   0.85173   0.32913   0.16933
  13   34553.5    289.4   0.006621975   0.06309   0.21049   0.05345  -0.12622
  14   36084.2    277.1   0.040210428   0.36686   0.60347  -0.01828   0.04847
  15   36298.1    275.5   0.016853783   0.15286  -0.20602   0.21214  -0.25575
  16   36706.4    272.4   0.000319504   0.00287   0.05019   0.01523   0.01069
  17   37746.0    264.9   0.168200128   1.46700  -0.46279  -1.07983   0.29462
  18   37939.1    263.6   0.102706745   0.89123   0.26531   0.71085  -0.56172
  19   38251.1    261.4   0.071073743   0.61170  -0.74687  -0.22564  -0.05453
  20   38564.8    259.3   0.059568265   0.50851   0.60691  -0.28559   0.24209
  21   38625.3    258.9   0.052368087   0.44635   0.47345   0.13900   0.45040
  22   38981.5    256.5   0.067434600   0.56951   0.63252  -0.17812   0.37109
  23   39427.4    253.6   0.015646689   0.13065  -0.32788  -0.11555  -0.09894
  24   39605.7    252.5   0.000393080   0.00327   0.03121  -0.03764   0.02960

FINAL SINGLE POINT ENERGY     -4466.064342285672

DIPOLE MOMENT
-------------
                                X             Y             Z
Electronic contribution:    -22.88829       6.04770     -16.31169
Nuclear contribution   :     25.43367      -6.63580      17.80580
                        -----------------------------------------
Total Dipole Moment    :      2.54538      -0.58810       1.49411
                        -----------------------------------------
Magnitude (a.u.)       :      3.00952
Magnitude (Debye)      :      7.64958

Rotational constants in cm-1:     0.002352     0.000316     0.000281
Rotational constants in MHz :    70.498192     9.482868     8.411415

                             ****ORCA TERMINATED NORMALLY****
TOTAL RUN TIME: 0 days 0 hours 5 minutes 38 seconds 432 msec
