                         Program Version 4.2.0 -  RELEASE  -
|  1> # ORCA input file
|  2> # SCF done       -146.362656177796          0.000387103287
|  3> ! CAM-B3LYP def2-SVP def2/J RIJCOSX Grid4 TightSCF
|  4> %maxcore 5000
|  5> %tddft
|  6>     Mode sTDDFT
|  7>     Ethresh 5.0
|  8>     maxcore 5000
|  9> end
| 10>
| 11> %pal
| 12>   nprocs 6
| 13>   end
| 14> * xyz 0 1
| 15>    C        4.99247         5.62340         0.39764
| 16>    O        3.93333         4.72596         0.16865
| 17>    C        4.03023         3.85103        -0.85841
| 18>    C        5.18141         3.64655        -1.60960
| 19>    C        5.25426         2.66896        -2.59223
| 20>    C        6.48451         2.53172        -3.38769
| 21>    C        6.40578         2.46901        -4.78873
| 22>    C        7.52356         2.37434        -5.58554
| 23>    C        8.76053         2.33003        -4.95127
| 24>    N       10.03389         2.23139        -5.43639
| 25>    C       10.80411         2.22361        -4.38488
| 26>    C       12.24155         2.12275        -4.44414
| 27>    C       12.82896         2.12695        -5.71018
| 28>    C       14.19750         2.02042        -5.87594
| 29>    O       14.81380         2.02475        -7.08080
| 30>    C       14.03184         2.16096        -8.24507
| 31>    C       15.02371         1.89077        -4.72456
| 32>    C       16.43470         1.76083        -4.92513
| 33>    C       17.49004         1.55638        -4.09149
| 34>    C       18.83899         1.44678        -4.71235
| 35>    O       19.09919         1.54987        -5.89029
| 36>    C       19.78764         1.18347        -3.60795
| 37>    C       21.15555         0.98643        -3.64201
| 38>    C       21.81213         0.74935        -2.44144
| 39>    C       21.11570         0.71175        -1.24081
| 40>    C       19.74192         0.91011        -1.20451
| 41>    C       19.08584         1.14538        -2.39896
| 42>    C       17.64036         1.38367        -2.63400
| 43>    O       16.79701         1.42147        -1.75849
| 44>    C       14.42184         1.89346        -3.46256
| 45>    C       13.05185         2.01051        -3.29459
| 46>    O       12.43373         2.01579        -2.09221
| 47>    C       13.22010         1.87629        -0.92940
| 48>    O       10.14503         2.31470        -3.20230
| 49>    C        8.83724         2.38572        -3.54165
| 50>    C        7.71670         2.49601        -2.74389
| 51>    C        4.15563         1.81332        -2.79867
| 52>    O        4.31516         0.82540        -3.72485
| 53>    C        3.27050        -0.09694        -3.91191
| 54>    C        3.01129         2.00285        -2.04568
| 55>    C        2.90622         3.04285        -1.11736
| 56>    C        1.64135         3.23719        -0.45062
| 57>    C        1.02494         4.40715        -0.17772
| 58>    C       -0.24956         4.45571         0.57810
| 59>    O       -0.87036         3.51190         1.01511
| 60>    C       -0.59844         5.89117         0.68961
| 61>    C       -1.66450         6.49042         1.33544
| 62>    C       -1.76666         7.87426         1.28679
| 63>    C       -0.82703         8.63636         0.60543
| 64>    C        0.24151         8.03691        -0.04793
| 65>    C        0.35021         6.65938         0.00374
| 66>    C        1.37906         5.77823        -0.60615
| 67>    O        2.26330         6.12726        -1.35604
| 68>    H        4.66492         6.25780         1.21991
| 69>    H        5.18238         6.24301        -0.48295
| 70>    H        5.90924         5.09967         0.68867
| 71>    H        6.04516         4.27546        -1.46520
| 72>    H        5.43038         2.51219        -5.24645
| 73>    H        7.45521         2.33541        -6.66031
| 74>    H       12.15673         2.21483        -6.54694
| 75>    H       14.73980         2.14788        -9.07215
| 76>    H       13.48279         3.10698        -8.24973
| 77>    H       13.32803         1.33089        -8.35420
| 78>    H       16.72858         1.82471        -5.97035
| 79>    H       21.68799         1.01708        -4.58021
| 80>    H       22.88059         0.59124        -2.43999
| 81>    H       21.65205         0.52504        -0.32206
| 82>    H       19.19212         0.88218        -0.27611
| 83>    H       15.06512         1.79656        -2.60537
| 84>    H       12.51491         1.89194        -0.10006
| 85>    H       13.92911         2.70188        -0.82172
| 86>    H       13.76900         0.93064        -0.92553
| 87>    H        7.79407         2.52656        -1.66886
| 88>    H        3.63379        -0.80004        -4.65984
| 89>    H        2.36317         0.38971        -4.28494
| 90>    H        3.03988        -0.63857        -2.98889
| 91>    H        2.14420         1.37855        -2.19401
| 92>    H        1.09790         2.33798        -0.17244
| 93>    H       -2.39217         5.88943         1.85907
| 94>    H       -2.59006         8.36645         1.78315
| 95>    H       -0.93118         9.71129         0.58318
| 96>    H        0.97506         8.62155        -0.58202
| 97> *
| 98>
| 99>                          ****END OF INPUT****

CARTESIAN COORDINATES (ANGSTROEM)
---------------------------------
  C      4.992470    5.623400    0.397640
  O      3.933330    4.725960    0.168650
  C      4.030230    3.851030   -0.858410
  C      5.181410    3.646550   -1.609600
  C      5.254260    2.668960   -2.592230
  C      6.484510    2.531720   -3.387690
  C      6.405780    2.469010   -4.788730
  C      7.523560    2.374340   -5.585540
  C      8.760530    2.330030   -4.951270
  N     10.033890    2.231390   -5.436390
  C     10.804110    2.223610   -4.384880
  C     12.241550    2.122750   -4.444140
  C     12.828960    2.126950   -5.710180
  C     14.197500    2.020420   -5.875940
  O     14.813800    2.024750   -7.080800
  C     14.031840    2.160960   -8.245070
  C     15.023710    1.890770   -4.724560
  C     16.434700    1.760830   -4.925130
  C     17.490040    1.556380   -4.091490
  C     18.838990    1.446780   -4.712350
  O     19.099190    1.549870   -5.890290
  C     19.787640    1.183470   -3.607950
  C     21.155550    0.986430   -3.642010
  C     21.812130    0.749350   -2.441440
  C     21.115700    0.711750   -1.240810
  C     19.741920    0.910110   -1.204510
  C     19.085840    1.145380   -2.398960
  C     17.640360    1.383670   -2.634000
  O     16.797010    1.421470   -1.758490
  C     14.421840    1.893460   -3.462560
  C     13.051850    2.010510   -3.294590
  O     12.433730    2.015790   -2.092210
  C     13.220100    1.876290   -0.929400
  O     10.145030    2.314700   -3.202300
  C      8.837240    2.385720   -3.541650
  C      7.716700    2.496010   -2.743890
  C      4.155630    1.813320   -2.798670
  O      4.315160    0.825400   -3.724850
  C      3.270500   -0.096940   -3.911910
  C      3.011290    2.002850   -2.045680
  C      2.906220    3.042850   -1.117360
  C      1.641350    3.237190   -0.450620
  C      1.024940    4.407150   -0.177720
  C     -0.249560    4.455710    0.578100
  O     -0.870360    3.511900    1.015110
  C     -0.598440    5.891170    0.689610
  C     -1.664500    6.490420    1.335440
  C     -1.766660    7.874260    1.286790
  C     -0.827030    8.636360    0.605430
  C      0.241510    8.036910   -0.047930
  C      0.350210    6.659380    0.003740
  C      1.379060    5.778230   -0.606150
  O      2.263300    6.127260   -1.356040
  H      4.664920    6.257800    1.219910
  H      5.182380    6.243010   -0.482950
  H      5.909240    5.099670    0.688670
  H      6.045160    4.275460   -1.465200
  H      5.430380    2.512190   -5.246450
  H      7.455210    2.335410   -6.660310
  H     12.156730    2.214830   -6.546940
  H     14.739800    2.147880   -9.072150
  H     13.482790    3.106980   -8.249730
  H     13.328030    1.330890   -8.354200
  H     16.728580    1.824710   -5.970350
  H     21.687990    1.017080   -4.580210
  H     22.880590    0.591240   -2.439990
  H     21.652050    0.525040   -0.322060
  H     19.192120    0.882180   -0.276110
  H     15.065120    1.796560   -2.605370
  H     12.514910    1.891940   -0.100060
  H     13.929110    2.701880   -0.821720
  H     13.769000    0.930640   -0.925530
  H      7.794070    2.526560   -1.668860
  H      3.633790   -0.800040   -4.659840
  H      2.363170    0.389710   -4.284940
  H      3.039880   -0.638570   -2.988890
  H      2.144200    1.378550   -2.194010
  H      1.097900    2.337980   -0.172440
  H     -2.392170    5.889430    1.859070
  H     -2.590060    8.366450    1.783150
  H     -0.931180    9.711290    0.583180
  H      0.975060    8.621550   -0.582020

 Total Charge           Charge          ....    0
 Multiplicity           Mult            ....    1
 Number of Electrons    NEL             ....  366
 Basis Dimension        Dim             ....  887

ORBITAL ENERGIES
----------------

  NO   OCC          E(Eh)            E(eV)
   0   2.0000     -19.284097      -524.7470
   1   2.0000     -19.247232      -523.7438
   2   2.0000     -19.238141      -523.4964
   3   2.0000     -19.237206      -523.4710
   4   2.0000     -19.236412      -523.4494
   5   2.0000     -19.208365      -522.6862
   6   2.0000     -19.198773      -522.4252
   7   2.0000     -19.197486      -522.3901
   8   2.0000     -19.197175      -522.3817
   9   2.0000     -14.395583      -391.7237
  10   2.0000     -10.360663      -281.9280
  11   2.0000     -10.359450      -281.8950
  12   2.0000     -10.348516      -281.5974
  13   2.0000     -10.347982      -281.5829
  14   2.0000     -10.347533      -281.5707
  15   2.0000     -10.334552      -281.2175
  16   2.0000     -10.330231      -281.0999
  17   2.0000     -10.327427      -281.0236
  18   2.0000     -10.323116      -280.9063
  19   2.0000     -10.320967      -280.8478
  20   2.0000     -10.319742      -280.8145
  21   2.0000     -10.318674      -280.7854
  22   2.0000     -10.314545      -280.6730
  23   2.0000     -10.311195      -280.5819
  24   2.0000     -10.294995      -280.1411
  25   2.0000     -10.294923      -280.1391
  26   2.0000     -10.290012      -280.0054
  27   2.0000     -10.288883      -279.9747
  28   2.0000     -10.285179      -279.8739
  29   2.0000     -10.284816      -279.8641
  30   2.0000     -10.284254      -279.8488
  31   2.0000     -10.283741      -279.8348
  32   2.0000     -10.282722      -279.8071
  33   2.0000     -10.282212      -279.7932
  34   2.0000     -10.281874      -279.7840
  35   2.0000     -10.281415      -279.7715
  36   2.0000     -10.281104      -279.7631
  37   2.0000     -10.279895      -279.7302
  38   2.0000     -10.278827      -279.7011
  39   2.0000     -10.277649      -279.6691
  40   2.0000     -10.276442      -279.6362
  41   2.0000     -10.276081      -279.6264
  42   2.0000     -10.275233      -279.6033
  43   2.0000     -10.274869      -279.5934
  44   2.0000     -10.271557      -279.5033
  45   2.0000     -10.271115      -279.4913
  46   2.0000     -10.270233      -279.4672
  47   2.0000     -10.268957      -279.4325
  48   2.0000     -10.265433      -279.3366
  49   2.0000     -10.264327      -279.3065
  50   2.0000     -10.263489      -279.2837
  51   2.0000     -10.263466      -279.2831
  52   2.0000     -10.260862      -279.2122
  53   2.0000      -1.215622       -33.0787
  54   2.0000      -1.153163       -31.3792
  55   2.0000      -1.144861       -31.1532
  56   2.0000      -1.143816       -31.1248
  57   2.0000      -1.142801       -31.0972
  58   2.0000      -1.122265       -30.5384
  59   2.0000      -1.113377       -30.2965
  60   2.0000      -1.112592       -30.2752
  61   2.0000      -1.107919       -30.1480
  62   2.0000      -1.007790       -27.4234
  63   2.0000      -0.971843       -26.4452
  64   2.0000      -0.968475       -26.3535
  65   2.0000      -0.959589       -26.1117
  66   2.0000      -0.953300       -25.9406
  67   2.0000      -0.937132       -25.5007
  68   2.0000      -0.914055       -24.8727
  69   2.0000      -0.909243       -24.7418
  70   2.0000      -0.891031       -24.2462
  71   2.0000      -0.878061       -23.8932
  72   2.0000      -0.847891       -23.0723
  73   2.0000      -0.847554       -23.0631
  74   2.0000      -0.844724       -22.9861
  75   2.0000      -0.842629       -22.9291
  76   2.0000      -0.839859       -22.8537
  77   2.0000      -0.835195       -22.7268
  78   2.0000      -0.827842       -22.5267
  79   2.0000      -0.807072       -21.9616
  80   2.0000      -0.802029       -21.8243
  81   2.0000      -0.799729       -21.7617
  82   2.0000      -0.774077       -21.0637
  83   2.0000      -0.767436       -20.8830
  84   2.0000      -0.761210       -20.7136
  85   2.0000      -0.742002       -20.1909
  86   2.0000      -0.729524       -19.8514
  87   2.0000      -0.725426       -19.7398
  88   2.0000      -0.723098       -19.6765
  89   2.0000      -0.710153       -19.3242
  90   2.0000      -0.702067       -19.1042
  91   2.0000      -0.685227       -18.6460
  92   2.0000      -0.680740       -18.5239
  93   2.0000      -0.671596       -18.2751
  94   2.0000      -0.667910       -18.1747
  95   2.0000      -0.661244       -17.9934
  96   2.0000      -0.651582       -17.7305
  97   2.0000      -0.642755       -17.4903
  98   2.0000      -0.641702       -17.4616
  99   2.0000      -0.633269       -17.2321
 100   2.0000      -0.630500       -17.1568
 101   2.0000      -0.617583       -16.8053
 102   2.0000      -0.612189       -16.6585
 103   2.0000      -0.600941       -16.3524
 104   2.0000      -0.594317       -16.1722
 105   2.0000      -0.592698       -16.1281
 106   2.0000      -0.590603       -16.0711
 107   2.0000      -0.579979       -15.7820
 108   2.0000      -0.577584       -15.7169
 109   2.0000      -0.566933       -15.4270
 110   2.0000      -0.565647       -15.3920
 111   2.0000      -0.560437       -15.2503
 112   2.0000      -0.557441       -15.1687
 113   2.0000      -0.555519       -15.1165
 114   2.0000      -0.553792       -15.0694
 115   2.0000      -0.553147       -15.0519
 116   2.0000      -0.549383       -14.9495
 117   2.0000      -0.545255       -14.8371
 118   2.0000      -0.542136       -14.7523
 119   2.0000      -0.541580       -14.7371
 120   2.0000      -0.533875       -14.5275
 121   2.0000      -0.527350       -14.3499
 122   2.0000      -0.523380       -14.2419
 123   2.0000      -0.521865       -14.2007
 124   2.0000      -0.521294       -14.1851
 125   2.0000      -0.518429       -14.1072
 126   2.0000      -0.518050       -14.0968
 127   2.0000      -0.516022       -14.0417
 128   2.0000      -0.513528       -13.9738
 129   2.0000      -0.512438       -13.9441
 130   2.0000      -0.510800       -13.8996
 131   2.0000      -0.506188       -13.7741
 132   2.0000      -0.504251       -13.7214
 133   2.0000      -0.501948       -13.6587
 134   2.0000      -0.500885       -13.6298
 135   2.0000      -0.494234       -13.4488
 136   2.0000      -0.491537       -13.3754
 137   2.0000      -0.483490       -13.1564
 138   2.0000      -0.478146       -13.0110
 139   2.0000      -0.475627       -12.9425
 140   2.0000      -0.473874       -12.8948
 141   2.0000      -0.473400       -12.8819
 142   2.0000      -0.464833       -12.6487
 143   2.0000      -0.464715       -12.6455
 144   2.0000      -0.462695       -12.5906
 145   2.0000      -0.456811       -12.4305
 146   2.0000      -0.452317       -12.3082
 147   2.0000      -0.450425       -12.2567
 148   2.0000      -0.447203       -12.1690
 149   2.0000      -0.447106       -12.1664
 150   2.0000      -0.444864       -12.1054
 151   2.0000      -0.441027       -12.0010
 152   2.0000      -0.434221       -11.8157
 153   2.0000      -0.433466       -11.7952
 154   2.0000      -0.431330       -11.7371
 155   2.0000      -0.430576       -11.7166
 156   2.0000      -0.425847       -11.5879
 157   2.0000      -0.423730       -11.5303
 158   2.0000      -0.419395       -11.4123
 159   2.0000      -0.409857       -11.1528
 160   2.0000      -0.407485       -11.0882
 161   2.0000      -0.406263       -11.0550
 162   2.0000      -0.391162       -10.6441
 163   2.0000      -0.390388       -10.6230
 164   2.0000      -0.382259       -10.4018
 165   2.0000      -0.367897       -10.0110
 166   2.0000      -0.364739        -9.9250
 167   2.0000      -0.354631        -9.6500
 168   2.0000      -0.350097        -9.5266
 169   2.0000      -0.339193        -9.2299
 170   2.0000      -0.334463        -9.1012
 171   2.0000      -0.334032        -9.0895
 172   2.0000      -0.332013        -9.0345
 173   2.0000      -0.329550        -8.9675
 174   2.0000      -0.327818        -8.9204
 175   2.0000      -0.313834        -8.5399
 176   2.0000      -0.312845        -8.5129
 177   2.0000      -0.306985        -8.3535
 178   2.0000      -0.305149        -8.3035
 179   2.0000      -0.302137        -8.2216
 180   2.0000      -0.284021        -7.7286
 181   2.0000      -0.261834        -7.1249
 182   2.0000      -0.248618        -6.7652
 183   0.0000      -0.067403        -1.8341
 184   0.0000      -0.049744        -1.3536
 185   0.0000      -0.033374        -0.9082
 186   0.0000      -0.028460        -0.7744
 187   0.0000      -0.005336        -0.1452

MULLIKEN ATOMIC CHARGES
-----------------------
   0 C :    0.183393
   1 O :   -0.303346
   2 C :    0.255778
   3 C :   -0.150865
   4 C :    0.046555
   5 C :    0.057584
   6 C :    0.039302
   7 C :   -0.061490
   8 C :    0.034887
   9 N :   -0.056478
  10 C :    0.096182
  11 C :    0.012086
  12 C :   -0.153457
  13 C :    0.257346
  14 O :   -0.309101
  15 C :    0.179256
  16 C :    0.030614
  17 C :    0.001085
  18 C :   -0.140207
  19 C :    0.137725
  20 O :   -0.151776
  21 C :    0.016475
  22 C :   -0.023844
  23 C :    0.036904
  24 C :    0.039734
  25 C :   -0.024592
  26 C :   -0.002504
  27 C :    0.194042
  28 O :   -0.167738
  29 C :   -0.148980
  30 C :    0.229869
  31 O :   -0.297758
  32 C :    0.186549
  33 O :   -0.170241
  34 C :    0.229402
  35 C :   -0.135224
  36 C :    0.212162
  37 O :   -0.310061
  38 C :    0.181747
  39 C :   -0.148342
  40 C :    0.052247
  41 C :   -0.015022
  42 C :   -0.129377
  43 C :    0.141761
  44 O :   -0.151438
  45 C :    0.009530
  46 C :   -0.023861
  47 C :    0.036864
  48 C :    0.037090
  49 C :   -0.026243
  50 C :   -0.016924
  51 C :    0.177825
  52 O :   -0.151658
  53 H :    0.033286
  54 H :    0.032973
  55 H :    0.017445
  56 H :   -0.033928
  57 H :   -0.020100
  58 H :   -0.027063
  59 H :   -0.014602
  60 H :    0.041784
  61 H :    0.027884
  62 H :    0.029757
  63 H :    0.025225
  64 H :   -0.007963
  65 H :   -0.002206
  66 H :   -0.004691
  67 H :   -0.010071
  68 H :   -0.034100
  69 H :    0.030732
  70 H :    0.030107
  71 H :    0.032300
  72 H :   -0.021929
  73 H :    0.037447
  74 H :    0.021317
  75 H :    0.020863
  76 H :   -0.036982
  77 H :    0.016403
  78 H :   -0.008008
  79 H :   -0.005182
  80 H :   -0.003827
  81 H :   -0.010342
Sum of atomic charges:   -0.0000000

LOEWDIN ATOMIC CHARGES
----------------------
   0 C :    0.077357
   1 O :   -0.086805
   2 C :    0.066373
   3 C :   -0.056113
   4 C :   -0.015409
   5 C :   -0.013244
   6 C :   -0.009680
   7 C :   -0.025080
   8 C :   -0.033803
   9 N :   -0.109556
  10 C :    0.072098
  11 C :   -0.045622
  12 C :   -0.042954
  13 C :    0.061662
  14 O :   -0.093928
  15 C :    0.080136
  16 C :   -0.055970
  17 C :    0.094207
  18 C :   -0.134151
  19 C :    0.079267
  20 O :   -0.147354
  21 C :   -0.044313
  22 C :    0.008956
  23 C :   -0.005376
  24 C :   -0.006408
  25 C :    0.007945
  26 C :   -0.043442
  27 C :    0.086193
  28 O :   -0.152116
  29 C :   -0.032158
  30 C :    0.047148
  31 O :   -0.096060
  32 C :    0.079603
  33 O :    0.011524
  34 C :    0.028720
  35 C :   -0.038511
  36 C :    0.039428
  37 O :   -0.102619
  38 C :    0.075868
  39 C :   -0.046981
  40 C :   -0.054867
  41 C :    0.089180
  42 C :   -0.120135
  43 C :    0.078394
  44 O :   -0.150489
  45 C :   -0.047043
  46 C :    0.008251
  47 C :   -0.007817
  48 C :   -0.006759
  49 C :    0.005156
  50 C :   -0.042322
  51 C :    0.078301
  52 O :   -0.142282
  53 H :    0.028122
  54 H :    0.019764
  55 H :    0.012346
  56 H :    0.030392
  57 H :    0.028762
  58 H :    0.033214
  59 H :    0.035553
  60 H :    0.031036
  61 H :    0.018504
  62 H :    0.018928
  63 H :    0.043878
  64 H :    0.037575
  65 H :    0.032796
  66 H :    0.032235
  67 H :    0.036041
  68 H :    0.028553
  69 H :    0.027283
  70 H :    0.019058
  71 H :    0.020102
  72 H :    0.033933
  73 H :    0.029442
  74 H :    0.013813
  75 H :    0.014520
  76 H :    0.029720
  77 H :    0.041410
  78 H :    0.037013
  79 H :    0.031847
  80 H :    0.032042
  81 H :    0.035717

  Mayer bond orders larger than 0.100000
B(  0-C ,  1-O ) :   0.9580 B(  0-C , 53-H ) :   0.9785 B(  0-C , 54-H ) :   0.9685
B(  0-C , 55-H ) :   0.9681 B(  1-O ,  2-C ) :   1.1760 B(  2-C ,  3-C ) :   1.2616
B(  2-C , 40-C ) :   1.3641 B(  3-C ,  4-C ) :   1.3840 B(  3-C , 56-H ) :   0.9976
B(  4-C ,  5-C ) :   0.9460 B(  4-C , 36-C ) :   1.3709 B(  5-C ,  6-C ) :   1.3471
B(  5-C , 35-C ) :   1.3723 B(  6-C ,  7-C ) :   1.4031 B(  6-C , 57-H ) :   0.9870
B(  7-C ,  8-C ) :   1.2835 B(  7-C , 35-C ) :   0.1048 B(  7-C , 58-H ) :   1.0208
B(  8-C ,  9-N ) :   1.2971 B(  8-C , 34-C ) :   1.2794 B(  9-N , 10-C ) :   1.7553
B( 10-C , 11-C ) :   0.9886 B( 10-C , 33-O ) :   1.1888 B( 11-C , 12-C ) :   1.3642
B( 11-C , 30-C ) :   1.3061 B( 12-C , 13-C ) :   1.2721 B( 12-C , 59-H ) :   0.9970
B( 13-C , 14-O ) :   1.1728 B( 13-C , 16-C ) :   1.2789 B( 14-O , 15-C ) :   0.9540
B( 15-C , 60-H ) :   0.9777 B( 15-C , 61-H ) :   0.9697 B( 15-C , 62-H ) :   0.9697
B( 16-C , 17-C ) :   1.1218 B( 16-C , 29-C ) :   1.3125 B( 17-C , 18-C ) :   1.6213
B( 17-C , 63-H ) :   0.9438 B( 18-C , 19-C ) :   0.9655 B( 18-C , 27-C ) :   0.9417
B( 19-C , 20-O ) :   2.2345 B( 19-C , 21-C ) :   0.9156 B( 21-C , 22-C ) :   1.3843
B( 21-C , 26-C ) :   1.3544 B( 22-C , 23-C ) :   1.3596 B( 22-C , 64-H ) :   1.0054
B( 23-C , 24-C ) :   1.3782 B( 23-C , 65-H ) :   0.9884 B( 24-C , 25-C ) :   1.3577
B( 24-C , 66-H ) :   0.9888 B( 25-C , 26-C ) :   1.3824 B( 25-C , 67-H ) :   1.0056
B( 26-C , 27-C ) :   0.9516 B( 27-C , 28-O ) :   2.1272 B( 28-O , 68-H ) :   0.1292
B( 29-C , 30-C ) :   1.2816 B( 29-C , 68-H ) :   0.9664 B( 30-C , 31-O ) :   1.2160
B( 31-O , 32-C ) :   0.9543 B( 32-C , 69-H ) :   0.9758 B( 32-C , 70-H ) :   0.9689
B( 32-C , 71-H ) :   0.9688 B( 33-O , 34-C ) :   1.1107 B( 34-C , 35-C ) :   1.3027
B( 35-C , 72-H ) :   1.0227 B( 36-C , 37-O ) :   1.1599 B( 36-C , 39-C ) :   1.3019
B( 37-O , 38-C ) :   0.9687 B( 38-C , 73-H ) :   0.9784 B( 38-C , 74-H ) :   0.9676
B( 38-C , 75-H ) :   0.9676 B( 39-C , 40-C ) :   1.2983 B( 39-C , 76-H ) :   1.0013
B( 40-C , 41-C ) :   1.0195 B( 41-C , 42-C ) :   1.7508 B( 41-C , 77-H ) :   0.9519
B( 42-C , 43-C ) :   0.9560 B( 42-C , 51-C ) :   0.9412 B( 43-C , 44-O ) :   2.2608
B( 43-C , 45-C ) :   0.9154 B( 45-C , 46-C ) :   1.3824 B( 45-C , 50-C ) :   1.3502
B( 46-C , 47-C ) :   1.3639 B( 46-C , 78-H ) :   1.0042 B( 47-C , 48-C ) :   1.3775
B( 47-C , 79-H ) :   0.9882 B( 48-C , 49-C ) :   1.3614 B( 48-C , 80-H ) :   0.9887
B( 49-C , 50-C ) :   1.3880 B( 49-C , 81-H ) :   1.0030 B( 50-C , 51-C ) :   0.9296
B( 51-C , 52-O ) :   2.2266

-----------------------------------------------------------------------------
         ABSORPTION SPECTRUM VIA TRANSITION ELECTRIC DIPOLE MOMENTS
-----------------------------------------------------------------------------
State   Energy  Wavelength   fosc         T2         TX        TY        TZ
        (cm-1)    (nm)                  (au**2)     (au)      (au)      (au)
-----------------------------------------------------------------------------
   0   23011.0    434.6   1.141628850  16.33297  -3.96263   0.61862  -0.49785
   1   24688.8    405.0   0.211112349   2.81507   1.25594  -0.52258  -0.98213
   2   27976.8    357.4   0.004586549   0.05397  -0.22990   0.01108   0.03153
   3   28339.0    352.9   0.072667641   0.84417   0.88834  -0.09718  -0.21348
   4   28704.4    348.4   0.347041601   3.98023   1.95239  -0.12847  -0.38976
   5   30660.0    326.2   0.001682668   0.01807  -0.00315  -0.11349   0.07196
   6   30762.6    325.1   0.000275914   0.00295  -0.04283   0.03144  -0.01141
   7   31203.5    320.5   0.023902919   0.25219   0.37707  -0.01896  -0.33113
   8   31644.2    316.0   0.010302477   0.10718   0.21884  -0.15130   0.19079
   9   31759.2    314.9   0.415763764   4.30975   1.88102  -0.65390  -0.58645
  10   32846.3    304.4   0.078116437   0.78295  -0.52008  -0.29596  -0.65182
  11   35855.8    278.9   0.005114179   0.04696   0.11149   0.15046   0.10903
  12   36053.9    277.4   0.057436183   0.52446  -0.38912  -0.56592  -0.22973
  13   36484.3    274.1   0.055376899   0.49969  -0.23722   0.28176   0.60334
  14   36692.2    272.5   0.059061570   0.52992  -0.56845   0.23895  -0.38688
  15   37303.2    268.1   0.051382672   0.45347   0.19940   0.49646   0.40894
  16   38101.0    262.5   0.406838013   3.51529   1.66834  -0.85409  -0.04963
  17   38738.2    258.1   0.026612355   0.22616   0.45772  -0.01804  -0.12780
  18   38921.6    256.9   0.019423162   0.16429   0.37454   0.05988  -0.14290
  19   38969.4    256.6   0.073837636   0.62378   0.74585  -0.06177  -0.25234
  20   39576.0    252.7   0.020332637   0.16914   0.17438   0.31445  -0.19963
  21   39796.1    251.3   0.013460486   0.11135  -0.29345  -0.00972   0.15856
  22   39885.2    250.7   0.006613776   0.05459   0.04700  -0.21364   0.08210
  23   40317.4    248.0   0.019395192   0.15837   0.11286   0.03701  -0.37982

FINAL SINGLE POINT ENERGY     -2384.863195094290

DIPOLE MOMENT
-------------
                                X             Y             Z
Electronic contribution:      3.91109      -0.28676      -0.40559
Nuclear contribution   :     -3.63483       0.65351       0.98194
                        -----------------------------------------
Total Dipole Moment    :      0.27626       0.36675       0.57636
                        -----------------------------------------
Magnitude (a.u.)       :      0.73689
Magnitude (Debye)      :      1.87304

Rotational constants in cm-1:     0.004540     0.000422     0.000405
Rotational constants in MHz :   136.115331    12.665421    12.156041

                             ****ORCA TERMINATED NORMALLY****
TOTAL RUN TIME: 0 days 0 hours 7 minutes 21 seconds 936 msec
