                         Program Version 4.2.0 -  RELEASE  -
|  1> # ORCA input file
|  2> # SCF done       -225.788368504064          0.000217432305
|  3> ! CAM-B3LYP def2-SVP def2/J RIJCOSX Grid4 TightSCF
|  4> %maxcore 5000
|  5> %tddft
|  6>     Mode sTDDFT
|  7>     Ethresh 5.0
|  8>     maxcore 5000
|  9> end
| 10>
| 11> %pal
| 12>   nprocs 6
| 13>   end
| 14> * xyz 0 1
| 15>    C        1.98925         0.00723         0.82923
| 16>    O        1.78446         0.81900        -0.31903
| 17>    C        2.90031         1.50681        -0.73476
| 18>    C        3.37240         2.62294        -0.06914
| 19>    C        2.77415         3.26060         1.09027
| 20>    C        3.48578         3.86881         2.05907
| 21>    C        4.94674         3.88005         2.13087
| 22>    C        5.63349         5.08330         2.29072
| 23>    F        4.93542         6.21929         2.38993
| 24>    C        7.02147         5.13967         2.30380
| 25>    F        7.64540         6.31426         2.42556
| 26>    C        7.76373         3.97097         2.17154
| 27>    F        9.09417         4.02545         2.16494
| 28>    C        7.10465         2.74963         2.05483
| 29>    F        7.80027         1.62081         1.94367
| 30>    C        5.71608         2.71688         2.04505
| 31>    F        5.10126         1.53297         1.94309
| 32>    C        1.29772         3.25349         1.12983
| 33>    C        0.54672         3.56192        -0.00550
| 34>    F        1.16215         3.93615        -1.12807
| 35>    C       -0.84226         3.51748         0.00410
| 36>    F       -1.53003         3.82088        -1.09596
| 37>    C       -1.51654         3.15502         1.16704
| 38>    F       -2.84598         3.10330         1.18278
| 39>    C       -0.78971         2.84831         2.31352
| 40>    F       -1.42392         2.49726         3.43215
| 41>    C        0.59921         2.90434         2.28493
| 42>    F        1.27443         2.58247         3.39329
| 43>    S        4.80420         3.24832        -0.79236
| 44>    C        4.79593         1.99624        -1.97951
| 45>    C        5.97847         1.95852        -2.78414
| 46>    N        6.13355         1.11315        -3.79832
| 47>    C        7.32148         1.16490        -4.37610
| 48>    N        8.33175         1.92113        -4.00774
| 49>    C        8.08482         2.75047        -2.98197
| 50>    C        9.20592         3.51039        -2.50420
| 51>    S       10.72583         3.07358        -3.19129
| 52>    C       11.56803         4.08458        -2.07233
| 53>    C       13.01173         4.20263        -2.10427
| 54>    C       13.78201         4.28335        -1.00052
| 55>    C       13.31382         4.11280         0.36695
| 56>    C       12.43704         3.09843         0.75931
| 57>    F       12.02117         2.19390        -0.13236
| 58>    C       12.00172         2.97332         2.07242
| 59>    F       11.17417         1.98587         2.41345
| 60>    C       12.43693         3.87692         3.03701
| 61>    F       12.01029         3.77374         4.29554
| 62>    C       13.33033         4.88257         2.67981
| 63>    F       13.76283         5.74851         3.59968
| 64>    C       13.76549         4.97928         1.36544
| 65>    F       14.61981         5.95422         1.03679
| 66>    C       13.62222         4.29686        -3.44443
| 67>    C       14.76432         3.56961        -3.78147
| 68>    F       15.32825         2.76441        -2.87882
| 69>    C       15.33067         3.64068        -5.04984
| 70>    F       16.41793         2.92640        -5.34007
| 71>    C       14.76010         4.46148        -6.01839
| 72>    F       15.29707         4.53893        -7.23371
| 73>    C       13.62648         5.20539        -5.70362
| 74>    F       13.07933         6.00577        -6.61872
| 75>    C       13.07227         5.11585        -4.43224
| 76>    F       12.00470         5.86982        -4.15393
| 77>    C       10.70266         4.75025        -1.22045
| 78>    O       11.19967         5.59444        -0.28761
| 79>    C       10.40546         6.68392         0.15309
| 80>    C        9.33752         4.42949        -1.47260
| 81>    O        8.34256         4.97933        -0.72675
| 82>    C        7.29868         5.63328        -1.43336
| 83>    N        6.91262         2.82500        -2.37099
| 84>    C        3.71236         1.13989        -1.85155
| 85>    O        3.55348         0.13391        -2.71160
| 86>    C        2.39264        -0.67166        -2.64776
| 87>    H        1.01882        -0.42437         1.06491
| 88>    H        2.35414         0.59200         1.67703
| 89>    H        2.70798        -0.79180         0.62310
| 90>    H        2.97626         4.43469         2.82568
| 91>    H        7.48098         0.50956        -5.22299
| 92>    H       14.82880         4.53401        -1.09897
| 93>    H       11.08689         7.32003         0.71560
| 94>    H        9.59536         6.35243         0.80090
| 95>    H        9.99795         7.24522        -0.69051
| 96>    H        6.68252         6.11027        -0.67405
| 97>    H        6.69780         4.92146        -2.00016
| 98>    H        7.70764         6.39308        -2.10556
| 99>    H        2.41644        -1.27537        -3.55346
|100>    H        1.48443        -0.06625        -2.62822
|101>    H        2.40873        -1.32986        -1.77530
|102> *
|103>
|104>                          ****END OF INPUT****

CARTESIAN COORDINATES (ANGSTROEM)
---------------------------------
  C      1.989250    0.007230    0.829230
  O      1.784460    0.819000   -0.319030
  C      2.900310    1.506810   -0.734760
  C      3.372400    2.622940   -0.069140
  C      2.774150    3.260600    1.090270
  C      3.485780    3.868810    2.059070
  C      4.946740    3.880050    2.130870
  C      5.633490    5.083300    2.290720
  F      4.935420    6.219290    2.389930
  C      7.021470    5.139670    2.303800
  F      7.645400    6.314260    2.425560
  C      7.763730    3.970970    2.171540
  F      9.094170    4.025450    2.164940
  C      7.104650    2.749630    2.054830
  F      7.800270    1.620810    1.943670
  C      5.716080    2.716880    2.045050
  F      5.101260    1.532970    1.943090
  C      1.297720    3.253490    1.129830
  C      0.546720    3.561920   -0.005500
  F      1.162150    3.936150   -1.128070
  C     -0.842260    3.517480    0.004100
  F     -1.530030    3.820880   -1.095960
  C     -1.516540    3.155020    1.167040
  F     -2.845980    3.103300    1.182780
  C     -0.789710    2.848310    2.313520
  F     -1.423920    2.497260    3.432150
  C      0.599210    2.904340    2.284930
  F      1.274430    2.582470    3.393290
  S      4.804200    3.248320   -0.792360
  C      4.795930    1.996240   -1.979510
  C      5.978470    1.958520   -2.784140
  N      6.133550    1.113150   -3.798320
  C      7.321480    1.164900   -4.376100
  N      8.331750    1.921130   -4.007740
  C      8.084820    2.750470   -2.981970
  C      9.205920    3.510390   -2.504200
  S     10.725830    3.073580   -3.191290
  C     11.568030    4.084580   -2.072330
  C     13.011730    4.202630   -2.104270
  C     13.782010    4.283350   -1.000520
  C     13.313820    4.112800    0.366950
  C     12.437040    3.098430    0.759310
  F     12.021170    2.193900   -0.132360
  C     12.001720    2.973320    2.072420
  F     11.174170    1.985870    2.413450
  C     12.436930    3.876920    3.037010
  F     12.010290    3.773740    4.295540
  C     13.330330    4.882570    2.679810
  F     13.762830    5.748510    3.599680
  C     13.765490    4.979280    1.365440
  F     14.619810    5.954220    1.036790
  C     13.622220    4.296860   -3.444430
  C     14.764320    3.569610   -3.781470
  F     15.328250    2.764410   -2.878820
  C     15.330670    3.640680   -5.049840
  F     16.417930    2.926400   -5.340070
  C     14.760100    4.461480   -6.018390
  F     15.297070    4.538930   -7.233710
  C     13.626480    5.205390   -5.703620
  F     13.079330    6.005770   -6.618720
  C     13.072270    5.115850   -4.432240
  F     12.004700    5.869820   -4.153930
  C     10.702660    4.750250   -1.220450
  O     11.199670    5.594440   -0.287610
  C     10.405460    6.683920    0.153090
  C      9.337520    4.429490   -1.472600
  O      8.342560    4.979330   -0.726750
  C      7.298680    5.633280   -1.433360
  N      6.912620    2.825000   -2.370990
  C      3.712360    1.139890   -1.851550
  O      3.553480    0.133910   -2.711600
  C      2.392640   -0.671660   -2.647760
  H      1.018820   -0.424370    1.064910
  H      2.354140    0.592000    1.677030
  H      2.707980   -0.791800    0.623100
  H      2.976260    4.434690    2.825680
  H      7.480980    0.509560   -5.222990
  H     14.828800    4.534010   -1.098970
  H     11.086890    7.320030    0.715600
  H      9.595360    6.352430    0.800900
  H      9.997950    7.245220   -0.690510
  H      6.682520    6.110270   -0.674050
  H      6.697800    4.921460   -2.000160
  H      7.707640    6.393080   -2.105560
  H      2.416440   -1.275370   -3.553460
  H      1.484430   -0.066250   -2.628220
  H      2.408730   -1.329860   -1.775300

 Total Charge           Charge          ....    0
 Multiplicity           Mult            ....    1
 Number of Electrons    NEL             ....  538
 Basis Dimension        Dim             .... 1091

ORBITAL ENERGIES
----------------

  NO   OCC          E(Eh)            E(eV)
   0   2.0000     -88.963744     -2420.8265
   1   2.0000     -88.957212     -2420.6488
   2   2.0000     -24.816738      -675.2978
   3   2.0000     -24.815112      -675.2535
   4   2.0000     -24.815071      -675.2524
   5   2.0000     -24.814129      -675.2268
   6   2.0000     -24.812826      -675.1913
   7   2.0000     -24.810953      -675.1404
   8   2.0000     -24.810715      -675.1339
   9   2.0000     -24.810518      -675.1285
  10   2.0000     -24.809149      -675.0913
  11   2.0000     -24.809002      -675.0873
  12   2.0000     -24.804770      -674.9721
  13   2.0000     -24.804664      -674.9692
  14   2.0000     -24.803816      -674.9462
  15   2.0000     -24.803646      -674.9415
  16   2.0000     -24.803281      -674.9316
  17   2.0000     -24.800912      -674.8671
  18   2.0000     -24.798438      -674.7998
  19   2.0000     -24.797158      -674.7650
  20   2.0000     -24.794721      -674.6987
  21   2.0000     -24.794560      -674.6943
  22   2.0000     -19.256232      -523.9887
  23   2.0000     -19.254098      -523.9306
  24   2.0000     -19.252466      -523.8862
  25   2.0000     -19.247841      -523.7604
  26   2.0000     -14.416345      -392.2887
  27   2.0000     -14.410968      -392.1424
  28   2.0000     -14.407459      -392.0469
  29   2.0000     -10.396924      -282.9147
  30   2.0000     -10.395407      -282.8734
  31   2.0000     -10.393746      -282.8282
  32   2.0000     -10.391788      -282.7749
  33   2.0000     -10.391639      -282.7709
  34   2.0000     -10.391108      -282.7564
  35   2.0000     -10.390815      -282.7485
  36   2.0000     -10.390291      -282.7342
  37   2.0000     -10.389606      -282.7155
  38   2.0000     -10.389073      -282.7010
  39   2.0000     -10.386704      -282.6366
  40   2.0000     -10.386672      -282.6357
  41   2.0000     -10.386235      -282.6238
  42   2.0000     -10.384335      -282.5721
  43   2.0000     -10.383888      -282.5600
  44   2.0000     -10.380765      -282.4750
  45   2.0000     -10.375820      -282.3404
  46   2.0000     -10.375373      -282.3282
  47   2.0000     -10.374817      -282.3131
  48   2.0000     -10.373901      -282.2882
  49   2.0000     -10.365238      -282.0525
  50   2.0000     -10.363411      -282.0027
  51   2.0000     -10.353959      -281.7456
  52   2.0000     -10.347973      -281.5827
  53   2.0000     -10.345661      -281.5197
  54   2.0000     -10.342103      -281.4229
  55   2.0000     -10.335724      -281.2493
  56   2.0000     -10.331030      -281.1216
  57   2.0000     -10.325160      -280.9619
  58   2.0000     -10.324173      -280.9350
  59   2.0000     -10.323760      -280.9238
  60   2.0000     -10.321470      -280.8615
  61   2.0000     -10.316171      -280.7173
  62   2.0000     -10.316005      -280.7128
  63   2.0000     -10.315406      -280.6965
  64   2.0000     -10.313978      -280.6576
  65   2.0000     -10.311419      -280.5880
  66   2.0000     -10.309381      -280.5325
  67   2.0000     -10.306509      -280.4544
  68   2.0000     -10.301170      -280.3091
  69   2.0000     -10.299440      -280.2620
  70   2.0000     -10.295135      -280.1449
  71   2.0000     -10.295129      -280.1447
  72   2.0000      -8.057528      -219.2565
  73   2.0000      -8.051760      -219.0995
  74   2.0000      -6.026948      -164.0016
  75   2.0000      -6.022874      -163.8907
  76   2.0000      -6.021105      -163.8426
  77   2.0000      -6.019472      -163.7982
  78   2.0000      -6.017118      -163.7341
  79   2.0000      -6.013665      -163.6401
  80   2.0000      -1.342702       -36.5368
  81   2.0000      -1.341787       -36.5119
  82   2.0000      -1.336027       -36.3551
  83   2.0000      -1.335886       -36.3513
  84   2.0000      -1.333764       -36.2936
  85   2.0000      -1.330375       -36.2014
  86   2.0000      -1.328853       -36.1599
  87   2.0000      -1.328355       -36.1464
  88   2.0000      -1.327365       -36.1194
  89   2.0000      -1.322831       -35.9961
  90   2.0000      -1.320444       -35.9311
  91   2.0000      -1.320047       -35.9203
  92   2.0000      -1.319583       -35.9077
  93   2.0000      -1.315728       -35.8028
  94   2.0000      -1.314301       -35.7639
  95   2.0000      -1.313581       -35.7444
  96   2.0000      -1.312855       -35.7246
  97   2.0000      -1.309025       -35.6204
  98   2.0000      -1.304861       -35.5071
  99   2.0000      -1.300377       -35.3851
 100   2.0000      -1.169624       -31.8271
 101   2.0000      -1.161144       -31.5963
 102   2.0000      -1.149218       -31.2718
 103   2.0000      -1.141903       -31.0728
 104   2.0000      -1.120162       -30.4812
 105   2.0000      -1.010975       -27.5100
 106   2.0000      -1.004278       -27.3278
 107   2.0000      -0.999606       -27.2006
 108   2.0000      -0.998192       -27.1622
 109   2.0000      -0.995525       -27.0896
 110   2.0000      -0.984643       -26.7935
 111   2.0000      -0.980396       -26.6779
 112   2.0000      -0.973906       -26.5013
 113   2.0000      -0.938591       -25.5404
 114   2.0000      -0.927801       -25.2468
 115   2.0000      -0.895206       -24.3598
 116   2.0000      -0.883301       -24.0358
 117   2.0000      -0.868268       -23.6268
 118   2.0000      -0.866345       -23.5745
 119   2.0000      -0.862059       -23.4578
 120   2.0000      -0.861546       -23.4439
 121   2.0000      -0.858153       -23.3515
 122   2.0000      -0.852407       -23.1952
 123   2.0000      -0.850265       -23.1369
 124   2.0000      -0.844742       -22.9866
 125   2.0000      -0.837326       -22.7848
 126   2.0000      -0.823418       -22.4063
 127   2.0000      -0.805706       -21.9244
 128   2.0000      -0.795468       -21.6458
 129   2.0000      -0.786469       -21.4009
 130   2.0000      -0.775543       -21.1036
 131   2.0000      -0.771107       -20.9829
 132   2.0000      -0.766211       -20.8497
 133   2.0000      -0.757065       -20.6008
 134   2.0000      -0.752971       -20.4894
 135   2.0000      -0.750172       -20.4132
 136   2.0000      -0.749113       -20.3844
 137   2.0000      -0.745558       -20.2877
 138   2.0000      -0.744310       -20.2537
 139   2.0000      -0.736538       -20.0422
 140   2.0000      -0.732457       -19.9312
 141   2.0000      -0.711800       -19.3691
 142   2.0000      -0.695350       -18.9214
 143   2.0000      -0.690998       -18.8030
 144   2.0000      -0.688831       -18.7441
 145   2.0000      -0.683153       -18.5895
 146   2.0000      -0.682542       -18.5729
 147   2.0000      -0.681326       -18.5398
 148   2.0000      -0.678155       -18.4535
 149   2.0000      -0.672390       -18.2967
 150   2.0000      -0.671144       -18.2628
 151   2.0000      -0.668314       -18.1857
 152   2.0000      -0.665544       -18.1104
 153   2.0000      -0.660323       -17.9683
 154   2.0000      -0.659634       -17.9496
 155   2.0000      -0.651873       -17.7384
 156   2.0000      -0.647317       -17.6144
 157   2.0000      -0.641281       -17.4501
 158   2.0000      -0.633822       -17.2472
 159   2.0000      -0.633480       -17.2379
 160   2.0000      -0.632067       -17.1994
 161   2.0000      -0.630765       -17.1640
 162   2.0000      -0.629401       -17.1269
 163   2.0000      -0.626526       -17.0486
 164   2.0000      -0.624576       -16.9956
 165   2.0000      -0.622043       -16.9266
 166   2.0000      -0.619623       -16.8608
 167   2.0000      -0.619144       -16.8478
 168   2.0000      -0.618092       -16.8191
 169   2.0000      -0.615848       -16.7581
 170   2.0000      -0.614621       -16.7247
 171   2.0000      -0.611458       -16.6386
 172   2.0000      -0.610730       -16.6188
 173   2.0000      -0.608162       -16.5489
 174   2.0000      -0.605981       -16.4896
 175   2.0000      -0.605049       -16.4642
 176   2.0000      -0.601199       -16.3595
 177   2.0000      -0.596195       -16.2233
 178   2.0000      -0.592521       -16.1233
 179   2.0000      -0.589732       -16.0474
 180   2.0000      -0.587394       -15.9838
 181   2.0000      -0.585102       -15.9214
 182   2.0000      -0.581299       -15.8179
 183   2.0000      -0.581192       -15.8150
 184   2.0000      -0.575420       -15.6580
 185   2.0000      -0.574473       -15.6322
 186   2.0000      -0.573273       -15.5996
 187   2.0000      -0.570438       -15.5224
 188   2.0000      -0.569512       -15.4972
 189   2.0000      -0.562497       -15.3063
 190   2.0000      -0.561523       -15.2798
 191   2.0000      -0.559049       -15.2125
 192   2.0000      -0.557630       -15.1739
 193   2.0000      -0.556512       -15.1435
 194   2.0000      -0.553701       -15.0670
 195   2.0000      -0.550954       -14.9922
 196   2.0000      -0.550297       -14.9744
 197   2.0000      -0.548702       -14.9309
 198   2.0000      -0.548401       -14.9228
 199   2.0000      -0.544968       -14.8293
 200   2.0000      -0.544259       -14.8100
 201   2.0000      -0.543365       -14.7857
 202   2.0000      -0.542839       -14.7714
 203   2.0000      -0.540459       -14.7066
 204   2.0000      -0.538388       -14.6503
 205   2.0000      -0.536124       -14.5887
 206   2.0000      -0.532522       -14.4906
 207   2.0000      -0.530984       -14.4488
 208   2.0000      -0.529382       -14.4052
 209   2.0000      -0.527796       -14.3621
 210   2.0000      -0.525558       -14.3012
 211   2.0000      -0.524026       -14.2595
 212   2.0000      -0.523274       -14.2390
 213   2.0000      -0.521028       -14.1779
 214   2.0000      -0.519279       -14.1303
 215   2.0000      -0.518105       -14.0984
 216   2.0000      -0.515758       -14.0345
 217   2.0000      -0.511291       -13.9129
 218   2.0000      -0.505798       -13.7635
 219   2.0000      -0.500927       -13.6309
 220   2.0000      -0.498940       -13.5768
 221   2.0000      -0.498156       -13.5555
 222   2.0000      -0.495159       -13.4740
 223   2.0000      -0.493303       -13.4234
 224   2.0000      -0.490684       -13.3522
 225   2.0000      -0.486755       -13.2453
 226   2.0000      -0.485175       -13.2023
 227   2.0000      -0.481388       -13.0992
 228   2.0000      -0.476984       -12.9794
 229   2.0000      -0.471538       -12.8312
 230   2.0000      -0.470123       -12.7927
 231   2.0000      -0.468232       -12.7413
 232   2.0000      -0.463200       -12.6043
 233   2.0000      -0.462252       -12.5785
 234   2.0000      -0.457522       -12.4498
 235   2.0000      -0.456303       -12.4166
 236   2.0000      -0.452863       -12.3230
 237   2.0000      -0.450575       -12.2608
 238   2.0000      -0.447256       -12.1705
 239   2.0000      -0.442460       -12.0400
 240   2.0000      -0.438938       -11.9441
 241   2.0000      -0.437739       -11.9115
 242   2.0000      -0.436388       -11.8747
 243   2.0000      -0.429538       -11.6883
 244   2.0000      -0.426262       -11.5992
 245   2.0000      -0.422412       -11.4944
 246   2.0000      -0.418904       -11.3989
 247   2.0000      -0.416427       -11.3316
 248   2.0000      -0.413451       -11.2506
 249   2.0000      -0.406691       -11.0666
 250   2.0000      -0.390808       -10.6344
 251   2.0000      -0.382615       -10.4115
 252   2.0000      -0.376506       -10.2453
 253   2.0000      -0.370014       -10.0686
 254   2.0000      -0.363002        -9.8778
 255   2.0000      -0.346202        -9.4206
 256   2.0000      -0.339669        -9.2429
 257   2.0000      -0.336489        -9.1563
 258   2.0000      -0.335277        -9.1234
 259   2.0000      -0.330711        -8.9991
 260   2.0000      -0.329276        -8.9601
 261   2.0000      -0.323729        -8.8091
 262   2.0000      -0.318506        -8.6670
 263   2.0000      -0.314433        -8.5562
 264   2.0000      -0.311764        -8.4835
 265   2.0000      -0.300644        -8.1809
 266   2.0000      -0.290844        -7.9143
 267   2.0000      -0.276299        -7.5185
 268   2.0000      -0.270860        -7.3705
 269   0.0000      -0.061385        -1.6704
 270   0.0000      -0.049455        -1.3457
 271   0.0000      -0.025230        -0.6865
 272   0.0000      -0.019226        -0.5232
 273   0.0000       0.006268         0.1706

MULLIKEN ATOMIC CHARGES
-----------------------
   0 C :    0.195553
   1 O :   -0.355518
   2 C :    0.083640
   3 C :   -0.167247
   4 C :    0.063346
   5 C :    0.006396
   6 C :   -0.150189
   7 C :    0.193847
   8 F :   -0.161443
   9 C :    0.164647
  10 F :   -0.158887
  11 C :    0.165470
  12 F :   -0.149887
  13 C :    0.187356
  14 F :   -0.150024
  15 C :    0.212653
  16 F :   -0.162162
  17 C :   -0.085506
  18 C :    0.203485
  19 F :   -0.155126
  20 C :    0.167432
  21 F :   -0.156132
  22 C :    0.132645
  23 F :   -0.151328
  24 C :    0.168199
  25 F :   -0.157134
  26 C :    0.169537
  27 F :   -0.164094
  28 S :    0.160834
  29 C :   -0.124974
  30 C :   -0.001940
  31 N :   -0.066277
  32 C :    0.114632
  33 N :   -0.116794
  34 C :   -0.011564
  35 C :   -0.140311
  36 S :    0.209023
  37 C :   -0.232187
  38 C :    0.093534
  39 C :    0.001517
  40 C :   -0.037825
  41 C :    0.183522
  42 F :   -0.160789
  43 C :    0.177455
  44 F :   -0.158928
  45 C :    0.121552
  46 F :   -0.157752
  47 C :    0.170918
  48 F :   -0.163094
  49 C :    0.154428
  50 F :   -0.165453
  51 C :   -0.114075
  52 C :    0.176504
  53 F :   -0.157966
  54 C :    0.168004
  55 F :   -0.157316
  56 C :    0.135569
  57 F :   -0.151855
  58 C :    0.171034
  59 F :   -0.157759
  60 C :    0.190865
  61 F :   -0.159391
  62 C :    0.199690
  63 O :   -0.325571
  64 C :    0.192723
  65 C :    0.130682
  66 O :   -0.333665
  67 C :    0.186267
  68 N :   -0.120132
  69 C :    0.172106
  70 O :   -0.261852
  71 C :    0.189249
  72 H :    0.035472
  73 H :    0.032224
  74 H :    0.022829
  75 H :    0.021916
  76 H :    0.017831
  77 H :    0.011039
  78 H :    0.030651
  79 H :    0.023778
  80 H :    0.010968
  81 H :    0.027401
  82 H :    0.048216
  83 H :    0.015881
  84 H :    0.040245
  85 H :    0.036083
  86 H :    0.013305
Sum of atomic charges:   -0.0000000

LOEWDIN ATOMIC CHARGES
----------------------
   0 C :    0.081467
   1 O :   -0.131560
   2 C :   -0.022407
   3 C :   -0.192134
   4 C :   -0.023814
   5 C :    0.002925
   6 C :   -0.100173
   7 C :    0.063420
   8 F :   -0.042365
   9 C :    0.024479
  10 F :   -0.035504
  11 C :    0.051180
  12 F :   -0.023257
  13 C :    0.030498
  14 F :   -0.030537
  15 C :    0.058654
  16 F :   -0.038388
  17 C :   -0.072053
  18 C :    0.073047
  19 F :   -0.030361
  20 C :    0.027873
  21 F :   -0.035662
  22 C :    0.041149
  23 F :   -0.029513
  24 C :    0.023554
  25 F :   -0.037273
  26 C :    0.060251
  27 F :   -0.039606
  28 S :    0.512644
  29 C :   -0.232450
  30 C :    0.042088
  31 N :   -0.108725
  32 C :    0.078266
  33 N :   -0.131395
  34 C :    0.037523
  35 C :   -0.230033
  36 S :    0.496706
  37 C :   -0.199992
  38 C :   -0.024910
  39 C :    0.004898
  40 C :   -0.071582
  41 C :    0.065119
  42 F :   -0.034020
  43 C :    0.024183
  44 F :   -0.037055
  45 C :    0.037817
  46 F :   -0.035400
  47 C :    0.022156
  48 F :   -0.042619
  49 C :    0.066838
  50 F :   -0.044072
  51 C :   -0.080650
  52 C :    0.064852
  53 F :   -0.035497
  54 C :    0.024726
  55 F :   -0.036894
  56 C :    0.041133
  57 F :   -0.030259
  58 C :    0.025724
  59 F :   -0.037099
  60 C :    0.064605
  61 F :   -0.036013
  62 C :   -0.001000
  63 O :   -0.097038
  64 C :    0.079896
  65 C :    0.014928
  66 O :   -0.107655
  67 C :    0.075480
  68 N :   -0.128672
  69 C :    0.032996
  70 O :   -0.067647
  71 C :    0.083116
  72 H :    0.026410
  73 H :    0.013806
  74 H :    0.014387
  75 H :    0.040033
  76 H :    0.023106
  77 H :    0.036888
  78 H :    0.024392
  79 H :    0.007819
  80 H :    0.013995
  81 H :    0.019683
  82 H :    0.004754
  83 H :    0.012022
  84 H :    0.028760
  85 H :    0.020685
  86 H :    0.014351

  Mayer bond orders larger than 0.100000
B(  0-C ,  1-O ) :   0.9303 B(  0-C , 72-H ) :   0.9820 B(  0-C , 73-H ) :   0.9643
B(  0-C , 74-H ) :   0.9621 B(  1-O ,  2-C ) :   1.1167 B(  2-C ,  3-C ) :   1.5255
B(  2-C , 69-C ) :   1.1919 B(  3-C ,  4-C ) :   1.0242 B(  3-C , 28-S ) :   1.1361
B(  3-C , 29-C ) :   0.1346 B(  4-C ,  5-C ) :   1.8283 B(  4-C , 17-C ) :   0.9782
B(  5-C ,  6-C ) :   0.9894 B(  5-C , 75-H ) :   0.9580 B(  6-C ,  7-C ) :   1.3380
B(  6-C , 11-C ) :   0.1099 B(  6-C , 15-C ) :   1.3208 B(  7-C ,  8-F ) :   1.1892
B(  7-C ,  9-C ) :   1.2873 B(  9-C , 10-F ) :   1.1410 B(  9-C , 11-C ) :   1.2840
B( 11-C , 12-F ) :   1.1437 B( 11-C , 13-C ) :   1.2763 B( 13-C , 14-F ) :   1.1881
B( 13-C , 15-C ) :   1.2882 B( 15-C , 16-F ) :   1.1504 B( 17-C , 18-C ) :   1.3238
B( 17-C , 22-C ) :   0.1083 B( 17-C , 26-C ) :   1.3396 B( 18-C , 19-F ) :   1.1694
B( 18-C , 20-C ) :   1.2930 B( 20-C , 21-F ) :   1.1730 B( 20-C , 22-C ) :   1.2741
B( 22-C , 23-F ) :   1.1794 B( 22-C , 24-C ) :   1.2794 B( 24-C , 25-F ) :   1.1730
B( 24-C , 26-C ) :   1.2859 B( 26-C , 27-F ) :   1.1455 B( 28-S , 29-C ) :   1.1271
B( 29-C , 30-C ) :   1.0254 B( 29-C , 69-C ) :   1.4730 B( 30-C , 31-N ) :   1.6109
B( 30-C , 68-N ) :   1.4844 B( 31-N , 32-C ) :   1.4827 B( 32-C , 33-N ) :   1.5237
B( 32-C , 76-H ) :   0.9759 B( 33-N , 34-C ) :   1.5660 B( 34-C , 35-C ) :   1.0444
B( 34-C , 68-N ) :   1.5612 B( 35-C , 36-S ) :   1.1269 B( 35-C , 37-C ) :   0.1414
B( 35-C , 65-C ) :   1.4536 B( 36-S , 37-C ) :   1.1175 B( 37-C , 38-C ) :   1.0197
B( 37-C , 62-C ) :   1.5260 B( 38-C , 39-C ) :   1.8259 B( 38-C , 51-C ) :   0.9800
B( 39-C , 40-C ) :   1.0162 B( 39-C , 77-H ) :   0.9535 B( 40-C , 41-C ) :   1.3256
B( 40-C , 45-C ) :   0.1099 B( 40-C , 49-C ) :   1.3228 B( 41-C , 42-F ) :   1.1518
B( 41-C , 43-C ) :   1.2930 B( 43-C , 44-F ) :   1.1703 B( 43-C , 45-C ) :   1.2800
B( 45-C , 46-F ) :   1.1725 B( 45-C , 47-C ) :   1.2701 B( 47-C , 48-F ) :   1.1703
B( 47-C , 49-C ) :   1.2841 B( 49-C , 50-F ) :   1.1811 B( 51-C , 52-C ) :   1.3270
B( 51-C , 56-C ) :   0.1063 B( 51-C , 60-C ) :   1.3261 B( 52-C , 53-F ) :   1.1657
B( 52-C , 54-C ) :   1.2824 B( 54-C , 55-F ) :   1.1709 B( 54-C , 56-C ) :   1.2766
B( 56-C , 57-F ) :   1.1786 B( 56-C , 58-C ) :   1.2761 B( 58-C , 59-F ) :   1.1711
B( 58-C , 60-C ) :   1.2845 B( 60-C , 61-F ) :   1.1659 B( 62-C , 63-O ) :   1.1876
B( 62-C , 65-C ) :   1.2198 B( 63-O , 64-C ) :   0.9287 B( 64-C , 78-H ) :   0.9772
B( 64-C , 79-H ) :   0.9677 B( 64-C , 80-H ) :   0.9702 B( 65-C , 66-O ) :   1.1766
B( 66-O , 67-C ) :   0.9254 B( 67-C , 81-H ) :   0.9814 B( 67-C , 82-H ) :   0.9540
B( 67-C , 83-H ) :   0.9612 B( 69-C , 70-O ) :   1.2801 B( 70-O , 71-C ) :   0.9330
B( 71-C , 84-H ) :   0.9787 B( 71-C , 85-H ) :   0.9716 B( 71-C , 86-H ) :   0.9739

-----------------------------------------------------------------------------
         ABSORPTION SPECTRUM VIA TRANSITION ELECTRIC DIPOLE MOMENTS
-----------------------------------------------------------------------------
State   Energy  Wavelength   fosc         T2         TX        TY        TZ
        (cm-1)    (nm)                  (au**2)     (au)      (au)      (au)
-----------------------------------------------------------------------------
   0   27643.7    361.7   0.288584448   3.43678   1.67289   0.21917  -0.76824
   1   29429.5    339.8   0.393230603   4.39886   1.69500   0.17631   1.22260
   2   30659.7    326.2   0.037662911   0.40441  -0.35501  -0.06644  -0.52341
   3   32100.6    311.5   0.035733665   0.36647  -0.32472   0.35812   0.36439
   4   32785.3    305.0   0.072431818   0.72732   0.38580  -0.45424  -0.61004
   5   33312.7    300.2   0.543854039   5.37463   0.74563   0.97513   1.96667
   6   34187.0    292.5   0.018496153   0.17811   0.34939   0.19289   0.13723
   7   35258.5    283.6   0.243179558   2.27059  -1.31855  -0.43368   0.58647
   8   35607.4    280.8   0.039424889   0.36451   0.36238   0.21705   0.43136
   9   36312.7    275.4   0.168467004   1.52733  -0.98937  -0.53759   0.50938
  10   37205.5    268.8   0.330889204   2.92787  -1.63357  -0.40169  -0.31299
  11   37449.6    267.0   0.251561649   2.21143  -1.40793  -0.34643   0.33036
  12   37997.1    263.2   0.002871851   0.02488   0.04539   0.05820   0.13941
  13   38526.2    259.6   0.299996280   2.56351  -1.36920  -0.54459   0.62628
  14   38883.7    257.2   0.023607598   0.19988  -0.13792  -0.40681   0.12393
  15   39131.9    255.5   0.004387632   0.03691  -0.00725   0.18688  -0.04398
  16   39442.2    253.5   0.089967544   0.75093  -0.48639  -0.15718   0.69975
  17   39598.4    252.5   0.029792279   0.24769   0.07050   0.23229  -0.43446
  18   39845.8    251.0   0.078176144   0.64590  -0.59420   0.04064   0.53961
  19   40042.3    249.7   0.068146909   0.56028  -0.47537   0.53105  -0.22867

FINAL SINGLE POINT ENERGY     -4900.893018347000

DIPOLE MOMENT
-------------
                                X             Y             Z
Electronic contribution:     34.40473      14.23019      15.58559
Nuclear contribution   :    -36.04692     -14.38329     -15.26564
                        -----------------------------------------
Total Dipole Moment    :     -1.64220      -0.15310       0.31995
                        -----------------------------------------
Magnitude (a.u.)       :      1.68006
Magnitude (Debye)      :      4.27038

Rotational constants in cm-1:     0.001784     0.000505     0.000437
Rotational constants in MHz :    53.487144    15.125399    13.091649

                             ****ORCA TERMINATED NORMALLY****
TOTAL RUN TIME: 0 days 0 hours 8 minutes 14 seconds 493 msec
