                         Program Version 4.2.0 -  RELEASE  -
|  1> # ORCA input file
|  2> # SCF done       -171.650628798088          0.000488992887
|  3> ! CAM-B3LYP def2-SVP def2/J RIJCOSX Grid4 TightSCF
|  4> %maxcore 5000
|  5> %tddft
|  6>     Mode sTDDFT
|  7>     Ethresh 5.0
|  8>     maxcore 5000
|  9> end
| 10>
| 11> %pal
| 12>   nprocs 6
| 13>   end
| 14> * xyz 0 1
| 15>    C        0.56981         3.74371        -5.92504
| 16>    S        0.60910         3.69400        -4.10831
| 17>    C        2.28132         3.31192        -3.69939
| 18>    C        2.77656         3.86160        -2.50014
| 19>    C        2.08016         4.71887        -1.61977
| 20>    C        2.79943         5.04748        -0.50971
| 21>    C        2.39045         5.90218         0.57095
| 22>    N        3.20890         6.02167         1.62188
| 23>    C        2.77265         6.81452         2.57943
| 24>    N        1.64225         7.49114         2.56390
| 25>    C        0.89887         7.32314         1.46460
| 26>    C       -0.32947         8.06234         1.36492
| 27>    C       -1.20826         8.07540         0.32323
| 28>    C       -2.30937         8.93434         0.53453
| 29>    C       -3.39524         9.13533        -0.34198
| 30>    S       -3.37758         8.19753        -1.83386
| 31>    C       -4.28547         9.19454        -3.05148
| 32>    C       -4.39094         9.99691         0.08561
| 33>    S       -5.87920        10.39216        -0.73482
| 34>    C       -6.35912        11.47808         0.55142
| 35>    C       -7.56322        12.21685         0.50367
| 36>    C       -8.48126        12.22889        -0.49292
| 37>    S       -8.42197        11.32289        -1.98706
| 38>    C       -9.94042        12.02580        -2.51279
| 39>    C      -10.47649        11.68345        -3.72654
| 40>    C       -9.78683        10.76520        -4.54645
| 41>    N       -9.22202        10.02140        -5.21213
| 42>    C      -11.68204        12.16611        -4.26602
| 43>    N      -12.65466        12.52419        -4.75962
| 44>    N      -10.44091        12.88853        -1.59101
| 45>    C      -11.67399        13.62119        -1.75232
| 46>    C       -9.68685        13.05541        -0.43629
| 47>    O      -10.00787        13.79181         0.46690
| 48>    C       -5.42464        11.51158         1.55578
| 49>    C       -4.30780        10.68277         1.32959
| 50>    C       -3.21072        10.49509         2.19475
| 51>    S       -3.25826        11.36265         3.72717
| 52>    C       -1.52365        11.73630         4.11525
| 53>    C       -2.23207         9.60025         1.78868
| 54>    S       -0.80443         9.10753         2.66575
| 55>    N        1.22493         6.52998         0.44930
| 56>    S        4.37628         4.32391        -0.48411
| 57>    C        4.08569         3.56549        -2.03023
| 58>    C        4.94997         2.76031        -2.75771
| 59>    S        6.57774         2.27906        -2.28934
| 60>    C        7.26299         3.70788        -1.40272
| 61>    C        4.45688         2.21321        -3.95974
| 62>    C        5.15847         1.36315        -4.83902
| 63>    C        4.41912         0.93880        -5.91216
| 64>    C        4.77475         0.10065        -6.99589
| 65>    C        5.99805        -0.40208        -7.28980
| 66>    S        7.49913        -0.14640        -6.43125
| 67>    C        8.37841        -1.10549        -7.60732
| 68>    C        9.73267        -1.27689        -7.49350
| 69>    C       10.42321        -0.66719        -6.42425
| 70>    N       10.99268        -0.16990        -5.56217
| 71>    C       10.54958        -2.01565        -8.36836
| 72>    N       11.26896        -2.60244        -9.04378
| 73>    N        7.55375        -1.60000        -8.56712
| 74>    C        7.99006        -2.43763        -9.65853
| 75>    C        6.21418        -1.25021        -8.46283
| 76>    O        5.37009        -1.60922        -9.25017
| 77>    S        2.79316         1.59180        -5.86718
| 78>    C        3.12931         2.47231        -4.40126
| 79>    H       -0.29203         4.35607        -6.17281
| 80>    H        0.44524         2.74732        -6.33653
| 81>    H        1.47635         4.20972        -6.29491
| 82>    H        1.08211         5.07609        -1.79325
| 83>    H        3.40149         6.92410         3.45438
| 84>    H       -1.06844         7.48580        -0.56367
| 85>    H       -3.94743         8.83337        -4.01832
| 86>    H       -4.02382        10.24038        -2.93470
| 87>    H       -5.35640         9.04432        -2.95864
| 88>    H       -7.77776        12.85305         1.35397
| 89>    H      -11.62881        14.26642        -2.63006
| 90>    H      -11.79562        14.22943        -0.85551
| 91>    H      -12.51969        12.94025        -1.85109
| 92>    H       -5.53312        12.11517         2.43856
| 93>    H       -1.55938        12.59730         4.77626
| 94>    H       -0.99608        11.98834         3.20225
| 95>    H       -1.05276        10.89932         4.62015
| 96>    H        8.34050         3.60074        -1.48674
| 97>    H        6.96749         3.69270        -0.35883
| 98>    H        6.93990         4.62234        -1.88727
| 99>    H        6.17682         1.07276        -4.65673
|100>    H        3.98707        -0.16672        -7.69078
|101>    H        8.70987        -1.91275       -10.28716
|102>    H        7.10092        -2.67782       -10.24228
|103>    H        8.44296        -3.35600        -9.28436
|104> *
|105>
|106>                          ****END OF INPUT****

CARTESIAN COORDINATES (ANGSTROEM)
---------------------------------
  C      0.569810    3.743710   -5.925040
  S      0.609100    3.694000   -4.108310
  C      2.281320    3.311920   -3.699390
  C      2.776560    3.861600   -2.500140
  C      2.080160    4.718870   -1.619770
  C      2.799430    5.047480   -0.509710
  C      2.390450    5.902180    0.570950
  N      3.208900    6.021670    1.621880
  C      2.772650    6.814520    2.579430
  N      1.642250    7.491140    2.563900
  C      0.898870    7.323140    1.464600
  C     -0.329470    8.062340    1.364920
  C     -1.208260    8.075400    0.323230
  C     -2.309370    8.934340    0.534530
  C     -3.395240    9.135330   -0.341980
  S     -3.377580    8.197530   -1.833860
  C     -4.285470    9.194540   -3.051480
  C     -4.390940    9.996910    0.085610
  S     -5.879200   10.392160   -0.734820
  C     -6.359120   11.478080    0.551420
  C     -7.563220   12.216850    0.503670
  C     -8.481260   12.228890   -0.492920
  S     -8.421970   11.322890   -1.987060
  C     -9.940420   12.025800   -2.512790
  C    -10.476490   11.683450   -3.726540
  C     -9.786830   10.765200   -4.546450
  N     -9.222020   10.021400   -5.212130
  C    -11.682040   12.166110   -4.266020
  N    -12.654660   12.524190   -4.759620
  N    -10.440910   12.888530   -1.591010
  C    -11.673990   13.621190   -1.752320
  C     -9.686850   13.055410   -0.436290
  O    -10.007870   13.791810    0.466900
  C     -5.424640   11.511580    1.555780
  C     -4.307800   10.682770    1.329590
  C     -3.210720   10.495090    2.194750
  S     -3.258260   11.362650    3.727170
  C     -1.523650   11.736300    4.115250
  C     -2.232070    9.600250    1.788680
  S     -0.804430    9.107530    2.665750
  N      1.224930    6.529980    0.449300
  S      4.376280    4.323910   -0.484110
  C      4.085690    3.565490   -2.030230
  C      4.949970    2.760310   -2.757710
  S      6.577740    2.279060   -2.289340
  C      7.262990    3.707880   -1.402720
  C      4.456880    2.213210   -3.959740
  C      5.158470    1.363150   -4.839020
  C      4.419120    0.938800   -5.912160
  C      4.774750    0.100650   -6.995890
  C      5.998050   -0.402080   -7.289800
  S      7.499130   -0.146400   -6.431250
  C      8.378410   -1.105490   -7.607320
  C      9.732670   -1.276890   -7.493500
  C     10.423210   -0.667190   -6.424250
  N     10.992680   -0.169900   -5.562170
  C     10.549580   -2.015650   -8.368360
  N     11.268960   -2.602440   -9.043780
  N      7.553750   -1.600000   -8.567120
  C      7.990060   -2.437630   -9.658530
  C      6.214180   -1.250210   -8.462830
  O      5.370090   -1.609220   -9.250170
  S      2.793160    1.591800   -5.867180
  C      3.129310    2.472310   -4.401260
  H     -0.292030    4.356070   -6.172810
  H      0.445240    2.747320   -6.336530
  H      1.476350    4.209720   -6.294910
  H      1.082110    5.076090   -1.793250
  H      3.401490    6.924100    3.454380
  H     -1.068440    7.485800   -0.563670
  H     -3.947430    8.833370   -4.018320
  H     -4.023820   10.240380   -2.934700
  H     -5.356400    9.044320   -2.958640
  H     -7.777760   12.853050    1.353970
  H    -11.628810   14.266420   -2.630060
  H    -11.795620   14.229430   -0.855510
  H    -12.519690   12.940250   -1.851090
  H     -5.533120   12.115170    2.438560
  H     -1.559380   12.597300    4.776260
  H     -0.996080   11.988340    3.202250
  H     -1.052760   10.899320    4.620150
  H      8.340500    3.600740   -1.486740
  H      6.967490    3.692700   -0.358830
  H      6.939900    4.622340   -1.887270
  H      6.176820    1.072760   -4.656730
  H      3.987070   -0.166720   -7.690780
  H      8.709870   -1.912750  -10.287160
  H      7.100920   -2.677820  -10.242280
  H      8.442960   -3.356000   -9.284360

 Total Charge           Charge          ....    0
 Multiplicity           Mult            ....    1
 Number of Electrons    NEL             ....  522
 Basis Dimension        Dim             .... 1061

ORBITAL ENERGIES
----------------

  NO   OCC          E(Eh)            E(eV)
   0   2.0000     -88.991491     -2421.5816
   1   2.0000     -88.990574     -2421.5566
   2   2.0000     -88.971281     -2421.0316
   3   2.0000     -88.967711     -2420.9345
   4   2.0000     -88.963455     -2420.8187
   5   2.0000     -88.962061     -2420.7808
   6   2.0000     -88.938453     -2420.1383
   7   2.0000     -88.938034     -2420.1269
   8   2.0000     -88.937070     -2420.1007
   9   2.0000     -88.936267     -2420.0788
  10   2.0000     -19.227062      -523.1950
  11   2.0000     -19.226425      -523.1776
  12   2.0000     -14.503197      -394.6521
  13   2.0000     -14.502690      -394.6382
  14   2.0000     -14.430379      -392.6706
  15   2.0000     -14.427455      -392.5910
  16   2.0000     -14.427258      -392.5856
  17   2.0000     -14.412036      -392.1714
  18   2.0000     -14.411467      -392.1559
  19   2.0000     -14.411462      -392.1558
  20   2.0000     -14.411171      -392.1479
  21   2.0000     -10.415180      -283.4115
  22   2.0000     -10.414426      -283.3909
  23   2.0000     -10.403749      -283.1004
  24   2.0000     -10.403350      -283.0896
  25   2.0000     -10.375865      -282.3417
  26   2.0000     -10.375633      -282.3353
  27   2.0000     -10.363118      -281.9948
  28   2.0000     -10.343368      -281.4573
  29   2.0000     -10.342839      -281.4430
  30   2.0000     -10.335781      -281.2509
  31   2.0000     -10.335433      -281.2414
  32   2.0000     -10.327610      -281.0286
  33   2.0000     -10.326853      -281.0079
  34   2.0000     -10.326060      -280.9864
  35   2.0000     -10.325485      -280.9707
  36   2.0000     -10.324201      -280.9358
  37   2.0000     -10.323864      -280.9266
  38   2.0000     -10.323557      -280.9183
  39   2.0000     -10.323056      -280.9046
  40   2.0000     -10.322409      -280.8870
  41   2.0000     -10.321759      -280.8694
  42   2.0000     -10.320906      -280.8461
  43   2.0000     -10.320478      -280.8345
  44   2.0000     -10.319301      -280.8024
  45   2.0000     -10.317653      -280.7576
  46   2.0000     -10.317555      -280.7550
  47   2.0000     -10.317528      -280.7542
  48   2.0000     -10.315844      -280.7084
  49   2.0000     -10.314734      -280.6782
  50   2.0000     -10.312913      -280.6286
  51   2.0000     -10.311760      -280.5973
  52   2.0000     -10.304513      -280.4000
  53   2.0000     -10.303002      -280.3589
  54   2.0000     -10.302660      -280.3496
  55   2.0000     -10.302322      -280.3404
  56   2.0000     -10.301984      -280.3312
  57   2.0000     -10.301314      -280.3130
  58   2.0000     -10.300730      -280.2971
  59   2.0000     -10.299966      -280.2763
  60   2.0000     -10.299322      -280.2588
  61   2.0000     -10.299082      -280.2523
  62   2.0000     -10.292034      -280.0605
  63   2.0000     -10.290628      -280.0222
  64   2.0000      -8.086900      -220.0557
  65   2.0000      -8.086221      -220.0373
  66   2.0000      -8.066460      -219.4995
  67   2.0000      -8.063219      -219.4114
  68   2.0000      -8.058373      -219.2795
  69   2.0000      -8.056993      -219.2419
  70   2.0000      -8.033838      -218.6118
  71   2.0000      -8.033357      -218.5987
  72   2.0000      -8.032266      -218.5691
  73   2.0000      -8.031499      -218.5482
  74   2.0000      -6.056843      -164.8151
  75   2.0000      -6.056221      -164.7981
  76   2.0000      -6.052722      -164.7029
  77   2.0000      -6.052054      -164.6848
  78   2.0000      -6.047358      -164.5570
  79   2.0000      -6.046540      -164.5347
  80   2.0000      -6.036225      -164.2540
  81   2.0000      -6.032895      -164.1634
  82   2.0000      -6.031944      -164.1375
  83   2.0000      -6.028741      -164.0504
  84   2.0000      -6.028059      -164.0318
  85   2.0000      -6.027700      -164.0221
  86   2.0000      -6.026649      -163.9935
  87   2.0000      -6.024471      -163.9342
  88   2.0000      -6.023743      -163.9144
  89   2.0000      -6.022395      -163.8777
  90   2.0000      -6.019795      -163.8069
  91   2.0000      -6.018413      -163.7693
  92   2.0000      -6.004390      -163.3878
  93   2.0000      -6.003897      -163.3744
  94   2.0000      -6.002844      -163.3457
  95   2.0000      -6.002042      -163.3239
  96   2.0000      -6.000094      -163.2708
  97   2.0000      -5.999610      -163.2577
  98   2.0000      -5.998561      -163.2291
  99   2.0000      -5.997742      -163.2069
 100   2.0000      -5.993456      -163.0902
 101   2.0000      -5.992966      -163.0769
 102   2.0000      -5.991845      -163.0464
 103   2.0000      -5.991165      -163.0279
 104   2.0000      -1.173629       -31.9361
 105   2.0000      -1.173259       -31.9260
 106   2.0000      -1.134672       -30.8760
 107   2.0000      -1.103451       -30.0264
 108   2.0000      -1.103091       -30.0166
 109   2.0000      -1.025671       -27.9099
 110   2.0000      -1.021957       -27.8089
 111   2.0000      -1.013779       -27.5863
 112   2.0000      -1.008241       -27.4356
 113   2.0000      -1.008153       -27.4332
 114   2.0000      -1.007741       -27.4220
 115   2.0000      -0.993612       -27.0376
 116   2.0000      -0.991658       -26.9844
 117   2.0000      -0.991074       -26.9685
 118   2.0000      -0.988770       -26.9058
 119   2.0000      -0.970526       -26.4093
 120   2.0000      -0.969512       -26.3818
 121   2.0000      -0.939143       -25.5554
 122   2.0000      -0.937899       -25.5215
 123   2.0000      -0.935417       -25.4540
 124   2.0000      -0.933654       -25.4060
 125   2.0000      -0.926830       -25.2203
 126   2.0000      -0.926348       -25.2072
 127   2.0000      -0.887797       -24.1582
 128   2.0000      -0.886449       -24.1215
 129   2.0000      -0.877053       -23.8658
 130   2.0000      -0.875298       -23.8181
 131   2.0000      -0.856527       -23.3073
 132   2.0000      -0.854488       -23.2518
 133   2.0000      -0.852621       -23.2010
 134   2.0000      -0.847684       -23.0667
 135   2.0000      -0.836349       -22.7582
 136   2.0000      -0.833323       -22.6759
 137   2.0000      -0.829482       -22.5714
 138   2.0000      -0.828546       -22.5459
 139   2.0000      -0.807307       -21.9679
 140   2.0000      -0.805646       -21.9227
 141   2.0000      -0.800723       -21.7888
 142   2.0000      -0.797676       -21.7059
 143   2.0000      -0.779264       -21.2049
 144   2.0000      -0.775297       -21.0969
 145   2.0000      -0.762407       -20.7462
 146   2.0000      -0.760327       -20.6896
 147   2.0000      -0.739118       -20.1124
 148   2.0000      -0.729842       -19.8600
 149   2.0000      -0.718842       -19.5607
 150   2.0000      -0.716560       -19.4986
 151   2.0000      -0.705132       -19.1876
 152   2.0000      -0.702817       -19.1246
 153   2.0000      -0.696947       -18.9649
 154   2.0000      -0.687203       -18.6997
 155   2.0000      -0.677018       -18.4226
 156   2.0000      -0.667204       -18.1556
 157   2.0000      -0.658328       -17.9140
 158   2.0000      -0.651031       -17.7155
 159   2.0000      -0.650113       -17.6905
 160   2.0000      -0.648744       -17.6532
 161   2.0000      -0.645598       -17.5676
 162   2.0000      -0.645013       -17.5517
 163   2.0000      -0.638960       -17.3870
 164   2.0000      -0.636180       -17.3113
 165   2.0000      -0.631871       -17.1941
 166   2.0000      -0.617856       -16.8127
 167   2.0000      -0.603386       -16.4190
 168   2.0000      -0.601600       -16.3704
 169   2.0000      -0.601211       -16.3598
 170   2.0000      -0.590477       -16.0677
 171   2.0000      -0.587298       -15.9812
 172   2.0000      -0.574600       -15.6357
 173   2.0000      -0.564925       -15.3724
 174   2.0000      -0.563590       -15.3361
 175   2.0000      -0.562345       -15.3022
 176   2.0000      -0.556499       -15.1431
 177   2.0000      -0.555401       -15.1132
 178   2.0000      -0.541990       -14.7483
 179   2.0000      -0.541373       -14.7315
 180   2.0000      -0.539968       -14.6933
 181   2.0000      -0.537698       -14.6315
 182   2.0000      -0.536496       -14.5988
 183   2.0000      -0.534795       -14.5525
 184   2.0000      -0.533157       -14.5079
 185   2.0000      -0.532226       -14.4826
 186   2.0000      -0.523437       -14.2434
 187   2.0000      -0.522629       -14.2215
 188   2.0000      -0.521618       -14.1940
 189   2.0000      -0.520875       -14.1737
 190   2.0000      -0.519760       -14.1434
 191   2.0000      -0.518269       -14.1028
 192   2.0000      -0.516645       -14.0586
 193   2.0000      -0.515176       -14.0186
 194   2.0000      -0.512780       -13.9535
 195   2.0000      -0.507070       -13.7981
 196   2.0000      -0.506795       -13.7906
 197   2.0000      -0.506359       -13.7787
 198   2.0000      -0.505972       -13.7682
 199   2.0000      -0.505391       -13.7524
 200   2.0000      -0.501261       -13.6400
 201   2.0000      -0.497961       -13.5502
 202   2.0000      -0.491182       -13.3657
 203   2.0000      -0.489508       -13.3202
 204   2.0000      -0.486243       -13.2314
 205   2.0000      -0.483331       -13.1521
 206   2.0000      -0.481209       -13.0944
 207   2.0000      -0.479461       -13.0468
 208   2.0000      -0.479283       -13.0420
 209   2.0000      -0.474962       -12.9244
 210   2.0000      -0.463940       -12.6245
 211   2.0000      -0.461668       -12.5626
 212   2.0000      -0.461394       -12.5552
 213   2.0000      -0.457702       -12.4547
 214   2.0000      -0.456039       -12.4095
 215   2.0000      -0.451405       -12.2834
 216   2.0000      -0.447607       -12.1800
 217   2.0000      -0.445410       -12.1202
 218   2.0000      -0.444780       -12.1031
 219   2.0000      -0.443615       -12.0714
 220   2.0000      -0.441585       -12.0161
 221   2.0000      -0.440452       -11.9853
 222   2.0000      -0.438084       -11.9209
 223   2.0000      -0.436538       -11.8788
 224   2.0000      -0.435029       -11.8377
 225   2.0000      -0.427695       -11.6382
 226   2.0000      -0.426899       -11.6165
 227   2.0000      -0.425300       -11.5730
 228   2.0000      -0.424603       -11.5540
 229   2.0000      -0.422743       -11.5034
 230   2.0000      -0.422086       -11.4855
 231   2.0000      -0.419704       -11.4207
 232   2.0000      -0.418680       -11.3929
 233   2.0000      -0.417869       -11.3708
 234   2.0000      -0.417184       -11.3521
 235   2.0000      -0.410430       -11.1684
 236   2.0000      -0.409832       -11.1521
 237   2.0000      -0.396662       -10.7937
 238   2.0000      -0.394934       -10.7467
 239   2.0000      -0.393379       -10.7044
 240   2.0000      -0.391179       -10.6445
 241   2.0000      -0.384524       -10.4634
 242   2.0000      -0.380704       -10.3595
 243   2.0000      -0.377563       -10.2740
 244   2.0000      -0.376923       -10.2566
 245   2.0000      -0.357112        -9.7175
 246   2.0000      -0.356543        -9.7020
 247   2.0000      -0.353288        -9.6135
 248   2.0000      -0.350153        -9.5282
 249   2.0000      -0.334594        -9.1048
 250   2.0000      -0.333701        -9.0805
 251   2.0000      -0.320597        -8.7239
 252   2.0000      -0.318886        -8.6773
 253   2.0000      -0.318776        -8.6743
 254   2.0000      -0.318125        -8.6566
 255   2.0000      -0.312680        -8.5085
 256   2.0000      -0.311318        -8.4714
 257   2.0000      -0.289201        -7.8696
 258   2.0000      -0.287273        -7.8171
 259   2.0000      -0.253158        -6.8888
 260   2.0000      -0.251328        -6.8390
 261   0.0000      -0.091267        -2.4835
 262   0.0000      -0.086864        -2.3637
 263   0.0000      -0.053584        -1.4581
 264   0.0000      -0.044361        -1.2071
 265   0.0000      -0.016037        -0.4364

MULLIKEN ATOMIC CHARGES
-----------------------
   0 C :   -0.098317
   1 S :   -0.016864
   2 C :   -0.080049
   3 C :    0.070481
   4 C :   -0.044144
   5 C :   -0.011284
   6 C :   -0.039867
   7 N :   -0.099378
   8 C :    0.121718
   9 N :   -0.098601
  10 C :   -0.041731
  11 C :   -0.011331
  12 C :   -0.042953
  13 C :    0.064012
  14 C :   -0.063100
  15 S :   -0.020235
  16 C :   -0.096548
  17 C :   -0.079954
  18 S :    0.057550
  19 C :   -0.014759
  20 C :    0.019226
  21 C :   -0.137840
  22 S :    0.121171
  23 C :    0.160161
  24 C :   -0.317931
  25 C :   -0.213587
  26 N :    0.143234
  27 C :   -0.196010
  28 N :    0.174473
  29 N :   -0.234950
  30 C :    0.114710
  31 C :    0.213968
  32 O :   -0.172224
  33 C :   -0.035009
  34 C :    0.089720
  35 C :   -0.083080
  36 S :   -0.025556
  37 C :   -0.098410
  38 C :   -0.081697
  39 S :    0.143211
  40 N :   -0.031253
  41 S :    0.143993
  42 C :   -0.081947
  43 C :   -0.082699
  44 S :   -0.017686
  45 C :   -0.098355
  46 C :    0.063281
  47 C :   -0.050511
  48 C :   -0.057121
  49 C :    0.057796
  50 C :   -0.134086
  51 S :    0.125391
  52 C :    0.156804
  53 C :   -0.313218
  54 C :   -0.212459
  55 N :    0.147503
  56 C :   -0.195024
  57 N :    0.174642
  58 N :   -0.236925
  59 C :    0.116395
  60 C :    0.212711
  61 O :   -0.174223
  62 S :    0.102759
  63 C :   -0.081193
  64 H :    0.068072
  65 H :    0.079304
  66 H :    0.072329
  67 H :    0.008517
  68 H :    0.023386
  69 H :    0.010468
  70 H :    0.070995
  71 H :    0.072647
  72 H :    0.087401
  73 H :    0.032088
  74 H :    0.066065
  75 H :    0.067792
  76 H :    0.065471
  77 H :    0.004296
  78 H :    0.068339
  79 H :    0.073366
  80 H :    0.085566
  81 H :    0.073602
  82 H :    0.084379
  83 H :    0.072157
  84 H :    0.015982
  85 H :    0.026959
  86 H :    0.065446
  87 H :    0.067608
  88 H :    0.064966
Sum of atomic charges:   -0.0000000

LOEWDIN ATOMIC CHARGES
----------------------
   0 C :   -0.164137
   1 S :    0.294961
   2 C :   -0.176160
   3 C :   -0.058678
   4 C :   -0.014951
   5 C :   -0.183048
   6 C :    0.040006
   7 N :   -0.118296
   8 C :    0.080783
   9 N :   -0.119357
  10 C :    0.039132
  11 C :   -0.182368
  12 C :   -0.014716
  13 C :   -0.059695
  14 C :   -0.172449
  15 S :    0.297908
  16 C :   -0.164206
  17 C :   -0.169684
  18 S :    0.410383
  19 C :   -0.170279
  20 C :    0.006506
  21 C :   -0.219222
  22 S :    0.418114
  23 C :   -0.028193
  24 C :   -0.208188
  25 C :   -0.040173
  26 N :   -0.052250
  27 C :   -0.034256
  28 N :   -0.057713
  29 N :   -0.006990
  30 C :    0.039085
  31 C :    0.071572
  32 O :   -0.164378
  33 C :   -0.023587
  34 C :   -0.061300
  35 C :   -0.174956
  36 S :    0.291900
  37 C :   -0.163067
  38 C :   -0.169401
  39 S :    0.450376
  40 N :   -0.090569
  41 S :    0.449890
  42 C :   -0.170417
  43 C :   -0.173356
  44 S :    0.299011
  45 C :   -0.162662
  46 C :   -0.059772
  47 C :   -0.039664
  48 C :   -0.171517
  49 C :   -0.000221
  50 C :   -0.209152
  51 S :    0.438456
  52 C :   -0.027591
  53 C :   -0.205362
  54 C :   -0.040848
  55 N :   -0.047662
  56 C :   -0.033506
  57 N :   -0.056747
  58 N :   -0.007064
  59 C :    0.039415
  60 C :    0.071532
  61 O :   -0.164660
  62 S :    0.422095
  63 C :   -0.170245
  64 H :    0.035896
  65 H :    0.016586
  66 H :    0.029592
  67 H :    0.033282
  68 H :    0.025476
  69 H :    0.033945
  70 H :    0.037831
  71 H :    0.028738
  72 H :    0.020359
  73 H :    0.057122
  74 H :    0.041097
  75 H :    0.044380
  76 H :    0.041069
  77 H :    0.032039
  78 H :    0.035605
  79 H :    0.030019
  80 H :    0.019247
  81 H :    0.037832
  82 H :    0.019183
  83 H :    0.029612
  84 H :    0.016175
  85 H :    0.050156
  86 H :    0.040936
  87 H :    0.044441
  88 H :    0.040969

  Mayer bond orders larger than 0.100000
B(  0-C ,  1-S ) :   0.9961 B(  0-C , 64-H ) :   0.9686 B(  0-C , 65-H ) :   0.9622
B(  0-C , 66-H ) :   0.9714 B(  1-S ,  2-C ) :   1.0384 B(  2-C ,  3-C ) :   1.3686
B(  2-C , 63-C ) :   1.4254 B(  3-C ,  4-C ) :   1.1663 B(  3-C , 42-C ) :   1.3099
B(  4-C ,  5-C ) :   1.5856 B(  4-C , 67-H ) :   0.9954 B(  5-C ,  6-C ) :   1.0192
B(  5-C , 41-S ) :   1.0723 B(  6-C ,  7-N ) :   1.5877 B(  6-C , 40-N ) :   1.5814
B(  7-N ,  8-C ) :   1.5086 B(  8-C ,  9-N ) :   1.5059 B(  8-C , 68-H ) :   0.9760
B(  9-N , 10-C ) :   1.5896 B( 10-C , 11-C ) :   1.0181 B( 10-C , 40-N ) :   1.5870
B( 11-C , 12-C ) :   1.5895 B( 11-C , 39-S ) :   1.0721 B( 12-C , 13-C ) :   1.1672
B( 12-C , 69-H ) :   0.9940 B( 13-C , 14-C ) :   1.3586 B( 13-C , 38-C ) :   1.3118
B( 14-C , 15-S ) :   1.0365 B( 14-C , 17-C ) :   1.4330 B( 15-S , 16-C ) :   0.9959
B( 16-C , 70-H ) :   0.9674 B( 16-C , 71-H ) :   0.9701 B( 16-C , 72-H ) :   0.9613
B( 17-C , 18-S ) :   1.0485 B( 17-C , 34-C ) :   1.2921 B( 18-S , 19-C ) :   1.0467
B( 19-C , 20-C ) :   1.1403 B( 19-C , 33-C ) :   1.5105 B( 20-C , 21-C ) :   1.6976
B( 20-C , 73-H ) :   0.9648 B( 21-C , 22-S ) :   0.9957 B( 21-C , 31-C ) :   0.9579
B( 22-S , 23-C ) :   1.0733 B( 23-C , 24-C ) :   1.5846 B( 23-C , 29-N ) :   1.2014
B( 24-C , 25-C ) :   1.1453 B( 24-C , 27-C ) :   1.1658 B( 25-C , 26-N ) :   3.0318
B( 27-C , 28-N ) :   3.0145 B( 29-N , 30-C ) :   0.9326 B( 29-N , 31-C ) :   1.0476
B( 30-C , 74-H ) :   0.9692 B( 30-C , 75-H ) :   0.9445 B( 30-C , 76-H ) :   0.9694
B( 31-C , 32-O ) :   2.1702 B( 33-C , 34-C ) :   1.1954 B( 33-C , 77-H ) :   0.9951
B( 34-C , 35-C ) :   1.3685 B( 35-C , 36-S ) :   1.0373 B( 35-C , 38-C ) :   1.4204
B( 36-S , 37-C ) :   0.9955 B( 37-C , 78-H ) :   0.9681 B( 37-C , 79-H ) :   0.9709
B( 37-C , 80-H ) :   0.9619 B( 38-C , 39-S ) :   1.0446 B( 41-S , 42-C ) :   1.0439
B( 42-C , 43-C ) :   1.4186 B( 43-C , 44-S ) :   1.0405 B( 43-C , 46-C ) :   1.3709
B( 44-S , 45-C ) :   0.9959 B( 45-C , 81-H ) :   0.9676 B( 45-C , 82-H ) :   0.9618
B( 45-C , 83-H ) :   0.9711 B( 46-C , 47-C ) :   1.2237 B( 46-C , 63-C ) :   1.3038
B( 47-C , 48-C ) :   1.5346 B( 47-C , 84-H ) :   0.9650 B( 48-C , 49-C ) :   1.1141
B( 48-C , 62-S ) :   1.0588 B( 49-C , 50-C ) :   1.7444 B( 49-C , 85-H ) :   0.9455
B( 50-C , 51-S ) :   1.0015 B( 50-C , 60-C ) :   0.9594 B( 51-S , 52-C ) :   1.0704
B( 52-C , 53-C ) :   1.5808 B( 52-C , 58-N ) :   1.1999 B( 53-C , 54-C ) :   1.1448
B( 53-C , 56-C ) :   1.1673 B( 54-C , 55-N ) :   3.0338 B( 56-C , 57-N ) :   3.0144
B( 58-N , 59-C ) :   0.9334 B( 58-N , 60-C ) :   1.0466 B( 59-C , 86-H ) :   0.9693
B( 59-C , 87-H ) :   0.9442 B( 59-C , 88-H ) :   0.9692 B( 60-C , 61-O ) :   2.1632
B( 62-S , 63-C ) :   1.0502

-----------------------------------------------------------------------------
         ABSORPTION SPECTRUM VIA TRANSITION ELECTRIC DIPOLE MOMENTS
-----------------------------------------------------------------------------
State   Energy  Wavelength   fosc         T2         TX        TY        TZ
        (cm-1)    (nm)                  (au**2)     (au)      (au)      (au)
-----------------------------------------------------------------------------
   0   19346.4    516.9   0.386787022   6.58184   2.03486  -1.51178  -0.39461
   1   19856.0    503.6   0.606899625  10.06239  -1.71825  -0.42357  -2.63260
   2   25030.2    399.5   0.030807777   0.40520   0.31791  -0.44125  -0.33081
   3   25397.8    393.7   0.033796047   0.43807  -0.45330   0.36513   0.31507
   4   26376.1    379.1   2.096401601  26.16616   4.26879  -2.61887  -1.04170
   5   26985.3    370.6   0.457790641   5.58490   1.07404   0.03321   2.10481
   6   27983.0    357.4   0.054127028   0.63679   0.17809  -0.51101  -0.58647
   7   28406.4    352.0   0.169198480   1.96090  -0.65131  -0.18459  -1.22582
   8   31620.2    316.3   0.168634956   1.75573   0.26986  -0.86336  -0.96825
   9   32153.7    311.0   0.032119987   0.32887  -0.49879   0.25153  -0.12967
  10   32577.3    307.0   0.004958066   0.05010  -0.17162   0.12991   0.06144
  11   32694.0    305.9   0.003372007   0.03395   0.03446  -0.04915  -0.17422
  12   33018.8    302.9   0.034045303   0.33945   0.22697  -0.37016  -0.38848
  13   33157.9    301.6   0.010878409   0.10801   0.00125   0.20987   0.25290
  14   33838.4    295.5   0.161675641   1.57293  -0.69298  -0.46509  -0.93617
  15   34312.5    291.4   0.187022048   1.79439  -0.41410  -0.72493  -1.04756
  16   34424.4    290.5   0.148286220   1.41811  -1.08939   0.46528   0.12186
  17   34724.8    288.0   0.000778280   0.00738   0.00916  -0.08033  -0.02901
  18   36117.2    276.9   0.041303041   0.37648  -0.19611   0.37380   0.44531
  19   36236.6    276.0   0.103450000   0.93985  -0.72663  -0.19582  -0.61116
  20   36542.7    273.7   0.009332393   0.08408   0.26762  -0.02252   0.10931
  21   36703.7    272.5   0.014001888   0.12559   0.05851  -0.11470  -0.33017
  22   37798.2    264.6   0.216140359   1.88252   0.32869  -0.89926  -0.98277
  23   37996.6    263.2   0.008158227   0.07068  -0.24147  -0.09808   0.05251
  24   38074.3    262.6   0.032469400   0.28075   0.34625  -0.32906  -0.22931
  25   38150.1    262.1   0.056122522   0.48430  -0.39047   0.46168   0.34451
  26   38414.3    260.3   0.526400782   4.51128  -1.42214   1.34081   0.83128
  27   38527.2    259.6   0.492876334   4.21160  -1.32721   1.20946   0.99364
  28   38985.9    256.5   0.022343278   0.18868   0.36982  -0.22355   0.04399
  29   39351.8    254.1   0.050577437   0.42312  -0.24178  -0.27125  -0.53952
  30   39523.9    253.0   0.004699779   0.03915  -0.05690  -0.05945  -0.17993
  31   39667.1    252.1   0.029050365   0.24110  -0.14215  -0.18323  -0.43281

FINAL SINGLE POINT ENERGY     -6274.660805441510

DIPOLE MOMENT
-------------
                                X             Y             Z
Electronic contribution:      2.23585      -9.66319       4.78110
Nuclear contribution   :     -2.54379      11.56987      -3.02090
                        -----------------------------------------
Total Dipole Moment    :     -0.30795       1.90668       1.76020
                        -----------------------------------------
Magnitude (a.u.)       :      2.61315
Magnitude (Debye)      :      6.64210

Rotational constants in cm-1:     0.001623     0.000245     0.000214
Rotational constants in MHz :    48.655917     7.355533     6.427698

                             ****ORCA TERMINATED NORMALLY****
TOTAL RUN TIME: 0 days 0 hours 7 minutes 4 seconds 18 msec
