                         Program Version 4.2.0 -  RELEASE  -
|  1> # ORCA input file
|  2> # SCF done       -209.417284045227          0.000381941820
|  3> ! CAM-B3LYP def2-SVP def2/J RIJCOSX Grid4 TightSCF
|  4> %maxcore 5000
|  5> %tddft
|  6>     Mode sTDDFT
|  7>     Ethresh 5.0
|  8>     maxcore 5000
|  9> end
| 10>
| 11> %pal
| 12>   nprocs 6
| 13>   end
| 14> * xyz 0 1
| 15>    C        3.97229        -0.41888         4.69631
| 16>    C        4.51710        -0.36594         3.31726
| 17>    S        4.23980        -1.68390         2.19276
| 18>    C        5.15229        -0.87470         0.96354
| 19>    C        5.52012        -1.23727        -0.32902
| 20>    C        5.17003        -2.43602        -0.98245
| 21>    S        4.10110        -3.55261        -0.15691
| 22>    C        4.15301        -4.66053        -1.45434
| 23>    C        4.94512        -4.23319        -2.48060
| 24>    C        5.53677        -2.95458        -2.23030
| 25>    C        6.41363        -2.31363        -3.17313
| 26>    O        6.90600        -1.20272        -3.02505
| 27>    C        6.69159        -3.11618        -4.38404
| 28>    C        7.53943        -2.73724        -5.39842
| 29>    C        8.35724        -1.48597        -5.49583
| 30>    F        7.61186        -0.37992        -5.55955
| 31>    F        9.21233        -1.34492        -4.47909
| 32>    F        9.10552        -1.49901        -6.61500
| 33>    S        7.62654        -3.89428        -6.66624
| 34>    C        6.51400        -4.90807        -5.83937
| 35>    C        6.11421        -6.21488        -6.45361
| 36>    F        6.74176        -6.39465        -7.63055
| 37>    F        6.43914        -7.26223        -5.69194
| 38>    F        4.80642        -6.28492        -6.71148
| 39>    C        6.09637        -4.38153        -4.64065
| 40>    C        5.15214        -5.02287        -3.69690
| 41>    O        4.61805        -6.08829        -3.90939
| 42>    S        6.49520         0.04627        -1.01978
| 43>    C        6.37104         1.02443         0.40808
| 44>    C        6.99536         2.31593         0.42240
| 45>    C        6.51573         3.41561         1.15589
| 46>    N        7.11194         4.58196         1.14322
| 47>    C        8.19662         4.71714         0.38133
| 48>    C        8.87678         5.97523         0.35523
| 49>    S        8.42788         7.33551         1.31146
| 50>    C        9.71514         8.31968         0.63963
| 51>    C        9.82967         9.70831         0.89910
| 52>    S       10.70991        10.71258        -0.23196
| 53>    C       10.40871        12.11965         0.67231
| 54>    C        9.68385        11.87278         1.80468
| 55>    C        9.32294        10.49531         1.93997
| 56>    C        8.53859        10.01839         3.05338
| 57>    O        8.06164         8.89814         3.14530
| 58>    C        8.31729        11.03093         4.11177
| 59>    C        7.72045        10.78063         5.32477
| 60>    C        7.22468         9.46968         5.85398
| 61>    F        6.17403         8.99791         5.18004
| 62>    F        8.16898         8.52504         5.85812
| 63>    F        6.82122         9.60161         7.13236
| 64>    S        7.58071        12.18502         6.30578
| 65>    C        8.32319        13.13367         5.08122
| 66>    C        8.53363        14.59866         5.31198
| 67>    F        8.09027        14.95339         6.53248
| 68>    F        9.82251        14.94590         5.26674
| 69>    F        7.87307        15.36071         4.43786
| 70>    C        8.67000        12.40070         3.97207
| 71>    C        9.34189        12.92626         2.76106
| 72>    O        9.59559        14.09892         2.59614
| 73>    C       10.49676         7.56020        -0.24861
| 74>    C       11.68783         7.69255        -1.01831
| 75>    F       12.45729         8.79954        -1.04611
| 76>    C       12.04468         6.57787        -1.71287
| 77>    C       13.22720         6.42102        -2.59615
| 78>    S       10.92791         5.25420        -1.45735
| 79>    C       10.00303         6.24248        -0.39346
| 80>    N        8.71067         3.75425        -0.39650
| 81>    C        8.12712         2.58333        -0.36941
| 82>    C        5.62829         0.38648         1.39475
| 83>    C        5.25244         0.62180         2.75103
| 84>    F        5.61086         1.71895         3.43775
| 85>    H        2.88292        -0.43759         4.67568
| 86>    H        4.30086         0.45485         5.25410
| 87>    H        4.31270        -1.31857         5.20705
| 88>    H        3.60503        -5.58158        -1.41245
| 89>    H        5.61277         3.35829         1.74571
| 90>    H       10.78426        13.07275         0.35419
| 91>    H       13.82753         7.32736        -2.57998
| 92>    H       12.91083         6.22278        -3.61952
| 93>    H       13.83718         5.58074        -2.26839
| 94>    H        8.56662         1.80988        -0.98725
| 95> *
| 96>
| 97>                          ****END OF INPUT****

CARTESIAN COORDINATES (ANGSTROEM)
---------------------------------
  C      3.972290   -0.418880    4.696310
  C      4.517100   -0.365940    3.317260
  S      4.239800   -1.683900    2.192760
  C      5.152290   -0.874700    0.963540
  C      5.520120   -1.237270   -0.329020
  C      5.170030   -2.436020   -0.982450
  S      4.101100   -3.552610   -0.156910
  C      4.153010   -4.660530   -1.454340
  C      4.945120   -4.233190   -2.480600
  C      5.536770   -2.954580   -2.230300
  C      6.413630   -2.313630   -3.173130
  O      6.906000   -1.202720   -3.025050
  C      6.691590   -3.116180   -4.384040
  C      7.539430   -2.737240   -5.398420
  C      8.357240   -1.485970   -5.495830
  F      7.611860   -0.379920   -5.559550
  F      9.212330   -1.344920   -4.479090
  F      9.105520   -1.499010   -6.615000
  S      7.626540   -3.894280   -6.666240
  C      6.514000   -4.908070   -5.839370
  C      6.114210   -6.214880   -6.453610
  F      6.741760   -6.394650   -7.630550
  F      6.439140   -7.262230   -5.691940
  F      4.806420   -6.284920   -6.711480
  C      6.096370   -4.381530   -4.640650
  C      5.152140   -5.022870   -3.696900
  O      4.618050   -6.088290   -3.909390
  S      6.495200    0.046270   -1.019780
  C      6.371040    1.024430    0.408080
  C      6.995360    2.315930    0.422400
  C      6.515730    3.415610    1.155890
  N      7.111940    4.581960    1.143220
  C      8.196620    4.717140    0.381330
  C      8.876780    5.975230    0.355230
  S      8.427880    7.335510    1.311460
  C      9.715140    8.319680    0.639630
  C      9.829670    9.708310    0.899100
  S     10.709910   10.712580   -0.231960
  C     10.408710   12.119650    0.672310
  C      9.683850   11.872780    1.804680
  C      9.322940   10.495310    1.939970
  C      8.538590   10.018390    3.053380
  O      8.061640    8.898140    3.145300
  C      8.317290   11.030930    4.111770
  C      7.720450   10.780630    5.324770
  C      7.224680    9.469680    5.853980
  F      6.174030    8.997910    5.180040
  F      8.168980    8.525040    5.858120
  F      6.821220    9.601610    7.132360
  S      7.580710   12.185020    6.305780
  C      8.323190   13.133670    5.081220
  C      8.533630   14.598660    5.311980
  F      8.090270   14.953390    6.532480
  F      9.822510   14.945900    5.266740
  F      7.873070   15.360710    4.437860
  C      8.670000   12.400700    3.972070
  C      9.341890   12.926260    2.761060
  O      9.595590   14.098920    2.596140
  C     10.496760    7.560200   -0.248610
  C     11.687830    7.692550   -1.018310
  F     12.457290    8.799540   -1.046110
  C     12.044680    6.577870   -1.712870
  C     13.227200    6.421020   -2.596150
  S     10.927910    5.254200   -1.457350
  C     10.003030    6.242480   -0.393460
  N      8.710670    3.754250   -0.396500
  C      8.127120    2.583330   -0.369410
  C      5.628290    0.386480    1.394750
  C      5.252440    0.621800    2.751030
  F      5.610860    1.718950    3.437750
  H      2.882920   -0.437590    4.675680
  H      4.300860    0.454850    5.254100
  H      4.312700   -1.318570    5.207050
  H      3.605030   -5.581580   -1.412450
  H      5.612770    3.358290    1.745710
  H     10.784260   13.072750    0.354190
  H     13.827530    7.327360   -2.579980
  H     12.910830    6.222780   -3.619520
  H     13.837180    5.580740   -2.268390
  H      8.566620    1.809880   -0.987250

 Total Charge           Charge          ....    0
 Multiplicity           Mult            ....    1
 Number of Electrons    NEL             ....  562
 Basis Dimension        Dim             .... 1062

ORBITAL ENERGIES
----------------

  NO   OCC          E(Eh)            E(eV)
   0   2.0000     -89.013455     -2422.1792
   1   2.0000     -89.006439     -2421.9883
   2   2.0000     -88.991824     -2421.5906
   3   2.0000     -88.978869     -2421.2381
   4   2.0000     -88.975805     -2421.1547
   5   2.0000     -88.970164     -2421.0012
   6   2.0000     -88.964336     -2420.8427
   7   2.0000     -88.950537     -2420.4672
   8   2.0000     -24.810173      -675.1191
   9   2.0000     -24.809910      -675.1120
  10   2.0000     -24.804468      -674.9639
  11   2.0000     -24.803923      -674.9490
  12   2.0000     -24.802280      -674.9044
  13   2.0000     -24.801913      -674.8944
  14   2.0000     -24.801824      -674.8919
  15   2.0000     -24.801679      -674.8880
  16   2.0000     -24.798866      -674.8114
  17   2.0000     -24.796436      -674.7453
  18   2.0000     -24.796105      -674.7363
  19   2.0000     -24.796007      -674.7336
  20   2.0000     -24.795316      -674.7149
  21   2.0000     -24.786872      -674.4851
  22   2.0000     -19.228400      -523.2314
  23   2.0000     -19.225677      -523.1573
  24   2.0000     -19.220470      -523.0156
  25   2.0000     -19.217567      -522.9366
  26   2.0000     -14.420372      -392.3983
  27   2.0000     -14.416163      -392.2837
  28   2.0000     -10.535110      -286.6749
  29   2.0000     -10.534642      -286.6622
  30   2.0000     -10.528897      -286.5058
  31   2.0000     -10.528581      -286.4973
  32   2.0000     -10.386845      -282.6404
  33   2.0000     -10.385141      -282.5940
  34   2.0000     -10.379147      -282.4310
  35   2.0000     -10.377029      -282.3733
  36   2.0000     -10.367017      -282.1009
  37   2.0000     -10.354036      -281.7476
  38   2.0000     -10.353521      -281.7336
  39   2.0000     -10.350551      -281.6528
  40   2.0000     -10.349109      -281.6136
  41   2.0000     -10.348987      -281.6102
  42   2.0000     -10.342395      -281.4309
  43   2.0000     -10.342002      -281.4202
  44   2.0000     -10.339492      -281.3519
  45   2.0000     -10.330199      -281.0990
  46   2.0000     -10.328847      -281.0622
  47   2.0000     -10.327920      -281.0370
  48   2.0000     -10.325628      -280.9746
  49   2.0000     -10.323304      -280.9114
  50   2.0000     -10.323256      -280.9101
  51   2.0000     -10.321991      -280.8756
  52   2.0000     -10.321926      -280.8739
  53   2.0000     -10.321900      -280.8732
  54   2.0000     -10.316131      -280.7162
  55   2.0000     -10.315966      -280.7117
  56   2.0000     -10.315819      -280.7077
  57   2.0000     -10.314870      -280.6819
  58   2.0000     -10.304679      -280.4046
  59   2.0000     -10.304656      -280.4040
  60   2.0000     -10.304293      -280.3941
  61   2.0000     -10.302866      -280.3552
  62   2.0000     -10.302446      -280.3438
  63   2.0000     -10.301981      -280.3312
  64   2.0000     -10.297595      -280.2118
  65   2.0000     -10.297480      -280.2087
  66   2.0000     -10.295956      -280.1672
  67   2.0000     -10.294443      -280.1260
  68   2.0000     -10.288166      -279.9552
  69   2.0000     -10.277146      -279.6554
  70   2.0000      -8.108278      -220.6375
  71   2.0000      -8.101433      -220.4512
  72   2.0000      -8.087311      -220.0669
  73   2.0000      -8.074668      -219.7229
  74   2.0000      -8.068279      -219.5490
  75   2.0000      -8.065519      -219.4739
  76   2.0000      -8.056954      -219.2409
  77   2.0000      -8.045265      -218.9228
  78   2.0000      -6.077402      -165.3745
  79   2.0000      -6.072909      -165.2523
  80   2.0000      -6.071041      -165.2014
  81   2.0000      -6.070550      -165.1881
  82   2.0000      -6.066087      -165.0666
  83   2.0000      -6.064114      -165.0129
  84   2.0000      -6.056595      -164.8083
  85   2.0000      -6.052075      -164.6853
  86   2.0000      -6.049752      -164.6221
  87   2.0000      -6.043865      -164.4619
  88   2.0000      -6.039252      -164.3364
  89   2.0000      -6.037830      -164.2977
  90   2.0000      -6.037161      -164.2795
  91   2.0000      -6.035359      -164.2305
  92   2.0000      -6.033233      -164.1726
  93   2.0000      -6.031109      -164.1148
  94   2.0000      -6.030381      -164.0950
  95   2.0000      -6.026562      -163.9911
  96   2.0000      -6.026336      -163.9849
  97   2.0000      -6.021803      -163.8616
  98   2.0000      -6.019242      -163.7919
  99   2.0000      -6.015065      -163.6782
 100   2.0000      -6.010831      -163.5630
 101   2.0000      -6.006424      -163.4431
 102   2.0000      -1.397653       -38.0321
 103   2.0000      -1.397419       -38.0257
 104   2.0000      -1.391849       -37.8741
 105   2.0000      -1.391303       -37.8593
 106   2.0000      -1.311098       -35.6768
 107   2.0000      -1.299624       -35.3646
 108   2.0000      -1.299564       -35.3629
 109   2.0000      -1.299043       -35.3488
 110   2.0000      -1.297102       -35.2959
 111   2.0000      -1.296995       -35.2930
 112   2.0000      -1.293981       -35.2110
 113   2.0000      -1.293218       -35.1902
 114   2.0000      -1.291429       -35.1416
 115   2.0000      -1.290924       -35.1278
 116   2.0000      -1.148638       -31.2560
 117   2.0000      -1.144440       -31.1418
 118   2.0000      -1.141185       -31.0532
 119   2.0000      -1.136283       -30.9198
 120   2.0000      -1.093146       -29.7460
 121   2.0000      -1.036165       -28.1955
 122   2.0000      -1.029508       -28.0143
 123   2.0000      -1.029229       -28.0067
 124   2.0000      -1.015309       -27.6280
 125   2.0000      -1.009916       -27.4812
 126   2.0000      -1.000300       -27.2195
 127   2.0000      -0.987879       -26.8816
 128   2.0000      -0.964775       -26.2529
 129   2.0000      -0.948497       -25.8099
 130   2.0000      -0.928810       -25.2742
 131   2.0000      -0.919609       -25.0238
 132   2.0000      -0.914628       -24.8883
 133   2.0000      -0.906684       -24.6721
 134   2.0000      -0.900051       -24.4916
 135   2.0000      -0.891186       -24.2504
 136   2.0000      -0.872572       -23.7439
 137   2.0000      -0.868699       -23.6385
 138   2.0000      -0.860014       -23.4022
 139   2.0000      -0.858447       -23.3595
 140   2.0000      -0.850019       -23.1302
 141   2.0000      -0.845772       -23.0146
 142   2.0000      -0.838466       -22.8158
 143   2.0000      -0.822926       -22.3930
 144   2.0000      -0.816735       -22.2245
 145   2.0000      -0.812746       -22.1160
 146   2.0000      -0.800425       -21.7807
 147   2.0000      -0.793423       -21.5901
 148   2.0000      -0.790544       -21.5118
 149   2.0000      -0.778894       -21.1948
 150   2.0000      -0.775863       -21.1123
 151   2.0000      -0.762276       -20.7426
 152   2.0000      -0.752502       -20.4766
 153   2.0000      -0.749104       -20.3842
 154   2.0000      -0.746914       -20.3246
 155   2.0000      -0.741560       -20.1789
 156   2.0000      -0.736819       -20.0499
 157   2.0000      -0.721863       -19.6429
 158   2.0000      -0.715647       -19.4737
 159   2.0000      -0.712657       -19.3924
 160   2.0000      -0.702815       -19.1246
 161   2.0000      -0.693865       -18.8810
 162   2.0000      -0.686564       -18.6824
 163   2.0000      -0.679625       -18.4935
 164   2.0000      -0.679514       -18.4905
 165   2.0000      -0.678692       -18.4681
 166   2.0000      -0.678026       -18.4500
 167   2.0000      -0.673559       -18.3285
 168   2.0000      -0.673397       -18.3241
 169   2.0000      -0.672696       -18.3050
 170   2.0000      -0.671855       -18.2821
 171   2.0000      -0.670442       -18.2436
 172   2.0000      -0.666117       -18.1260
 173   2.0000      -0.662681       -18.0325
 174   2.0000      -0.647166       -17.6103
 175   2.0000      -0.643354       -17.5066
 176   2.0000      -0.638713       -17.3803
 177   2.0000      -0.636002       -17.3065
 178   2.0000      -0.632549       -17.2125
 179   2.0000      -0.624870       -17.0036
 180   2.0000      -0.623531       -16.9671
 181   2.0000      -0.613327       -16.6895
 182   2.0000      -0.608677       -16.5630
 183   2.0000      -0.603723       -16.4281
 184   2.0000      -0.599914       -16.3245
 185   2.0000      -0.590852       -16.0779
 186   2.0000      -0.583473       -15.8771
 187   2.0000      -0.579480       -15.7684
 188   2.0000      -0.573086       -15.5945
 189   2.0000      -0.568022       -15.4567
 190   2.0000      -0.564395       -15.3580
 191   2.0000      -0.561864       -15.2891
 192   2.0000      -0.559427       -15.2228
 193   2.0000      -0.557283       -15.1644
 194   2.0000      -0.556197       -15.1349
 195   2.0000      -0.555751       -15.1228
 196   2.0000      -0.551852       -15.0167
 197   2.0000      -0.550983       -14.9930
 198   2.0000      -0.550621       -14.9832
 199   2.0000      -0.549900       -14.9635
 200   2.0000      -0.548889       -14.9360
 201   2.0000      -0.546120       -14.8607
 202   2.0000      -0.544081       -14.8052
 203   2.0000      -0.543337       -14.7849
 204   2.0000      -0.542274       -14.7560
 205   2.0000      -0.537956       -14.6385
 206   2.0000      -0.535329       -14.5670
 207   2.0000      -0.531902       -14.4738
 208   2.0000      -0.530980       -14.4487
 209   2.0000      -0.525326       -14.2948
 210   2.0000      -0.521402       -14.1881
 211   2.0000      -0.518577       -14.1112
 212   2.0000      -0.517350       -14.0778
 213   2.0000      -0.516224       -14.0472
 214   2.0000      -0.514944       -14.0123
 215   2.0000      -0.513483       -13.9726
 216   2.0000      -0.511816       -13.9272
 217   2.0000      -0.511014       -13.9054
 218   2.0000      -0.509958       -13.8766
 219   2.0000      -0.508398       -13.8342
 220   2.0000      -0.507923       -13.8213
 221   2.0000      -0.506782       -13.7902
 222   2.0000      -0.505567       -13.7572
 223   2.0000      -0.505193       -13.7470
 224   2.0000      -0.504370       -13.7246
 225   2.0000      -0.502627       -13.6772
 226   2.0000      -0.499507       -13.5923
 227   2.0000      -0.498722       -13.5709
 228   2.0000      -0.496281       -13.5045
 229   2.0000      -0.495961       -13.4958
 230   2.0000      -0.491428       -13.3724
 231   2.0000      -0.490745       -13.3539
 232   2.0000      -0.489473       -13.3192
 233   2.0000      -0.489058       -13.3079
 234   2.0000      -0.487123       -13.2553
 235   2.0000      -0.484556       -13.1855
 236   2.0000      -0.483489       -13.1564
 237   2.0000      -0.483362       -13.1530
 238   2.0000      -0.481811       -13.1107
 239   2.0000      -0.479823       -13.0567
 240   2.0000      -0.479238       -13.0407
 241   2.0000      -0.477594       -12.9960
 242   2.0000      -0.475360       -12.9352
 243   2.0000      -0.472816       -12.8660
 244   2.0000      -0.471036       -12.8175
 245   2.0000      -0.468995       -12.7620
 246   2.0000      -0.468834       -12.7576
 247   2.0000      -0.465817       -12.6755
 248   2.0000      -0.463445       -12.6110
 249   2.0000      -0.463038       -12.5999
 250   2.0000      -0.458837       -12.4856
 251   2.0000      -0.450033       -12.2460
 252   2.0000      -0.438824       -11.9410
 253   2.0000      -0.424427       -11.5493
 254   2.0000      -0.423205       -11.5160
 255   2.0000      -0.418614       -11.3911
 256   2.0000      -0.416168       -11.3245
 257   2.0000      -0.409600       -11.1458
 258   2.0000      -0.408164       -11.1067
 259   2.0000      -0.404610       -11.0100
 260   2.0000      -0.398776       -10.8513
 261   2.0000      -0.383094       -10.4245
 262   2.0000      -0.376707       -10.2507
 263   2.0000      -0.368135       -10.0175
 264   2.0000      -0.360376        -9.8063
 265   2.0000      -0.354532        -9.6473
 266   2.0000      -0.353985        -9.6324
 267   2.0000      -0.352785        -9.5998
 268   2.0000      -0.350207        -9.5296
 269   2.0000      -0.347214        -9.4482
 270   2.0000      -0.346442        -9.4272
 271   2.0000      -0.342528        -9.3207
 272   2.0000      -0.340125        -9.2553
 273   2.0000      -0.335587        -9.1318
 274   2.0000      -0.330357        -8.9895
 275   2.0000      -0.325787        -8.8651
 276   2.0000      -0.319363        -8.6903
 277   2.0000      -0.311316        -8.4713
 278   2.0000      -0.297176        -8.0866
 279   2.0000      -0.267545        -7.2803
 280   2.0000      -0.244917        -6.6645
 281   0.0000      -0.086097        -2.3428
 282   0.0000      -0.072725        -1.9790
 283   0.0000      -0.067703        -1.8423
 284   0.0000      -0.060014        -1.6331
 285   0.0000      -0.049901        -1.3579

MULLIKEN ATOMIC CHARGES
-----------------------
   0 C :    0.117180
   1 C :   -0.292173
   2 S :    0.121122
   3 C :   -0.091454
   4 C :   -0.116145
   5 C :   -0.137124
   6 S :    0.154384
   7 C :   -0.079093
   8 C :   -0.027442
   9 C :    0.027826
  10 C :    0.150414
  11 O :   -0.194956
  12 C :    0.073085
  13 C :   -0.351232
  14 C :    0.574746
  15 F :   -0.145005
  16 F :   -0.147226
  17 F :   -0.167690
  18 S :    0.282493
  19 C :   -0.339658
  20 C :    0.564179
  21 F :   -0.165470
  22 F :   -0.144027
  23 F :   -0.143045
  24 C :    0.036956
  25 C :    0.144967
  26 O :   -0.125770
  27 S :    0.216394
  28 C :   -0.105339
  29 C :   -0.018183
  30 C :    0.050202
  31 N :   -0.043798
  32 C :   -0.102272
  33 C :   -0.082808
  34 S :    0.267439
  35 C :   -0.126841
  36 C :   -0.159677
  37 S :    0.200559
  38 C :   -0.091056
  39 C :   -0.037906
  40 C :    0.060342
  41 C :    0.137594
  42 O :   -0.179936
  43 C :    0.064202
  44 C :   -0.344694
  45 C :    0.572198
  46 F :   -0.143453
  47 F :   -0.147168
  48 F :   -0.169516
  49 S :    0.277635
  50 C :   -0.339359
  51 C :    0.562992
  52 F :   -0.167415
  53 F :   -0.145107
  54 F :   -0.142039
  55 C :    0.043978
  56 C :    0.143552
  57 O :   -0.131035
  58 C :    0.067002
  59 C :    0.200793
  60 F :   -0.194125
  61 C :   -0.285495
  62 C :    0.115147
  63 S :    0.174397
  64 C :   -0.047889
  65 N :   -0.074161
  66 C :    0.037588
  67 C :    0.113961
  68 C :    0.225860
  69 F :   -0.180805
  70 H :    0.042562
  71 H :    0.037841
  72 H :    0.038171
  73 H :    0.045965
  74 H :    0.011005
  75 H :    0.043442
  76 H :    0.031615
  77 H :    0.039272
  78 H :    0.036558
  79 H :    0.021972
Sum of atomic charges:   -0.0000000

LOEWDIN ATOMIC CHARGES
----------------------
   0 C :   -0.055661
   1 C :   -0.192576
   2 S :    0.393835
   3 C :   -0.180488
   4 C :   -0.225323
   5 C :   -0.122273
   6 S :    0.482509
   7 C :   -0.134455
   8 C :   -0.094701
   9 C :   -0.116007
  10 C :    0.077990
  11 O :   -0.168473
  12 C :   -0.061918
  13 C :   -0.207960
  14 C :    0.144696
  15 F :   -0.044251
  16 F :   -0.045774
  17 F :   -0.068154
  18 S :    0.560724
  19 C :   -0.206196
  20 C :    0.144287
  21 F :   -0.067183
  22 F :   -0.043465
  23 F :   -0.042809
  24 C :   -0.068375
  25 C :    0.076184
  26 O :   -0.127043
  27 S :    0.536030
  28 C :   -0.164222
  29 C :   -0.095900
  30 C :    0.063763
  31 N :   -0.079635
  32 C :    0.015138
  33 C :   -0.222415
  34 S :    0.562930
  35 C :   -0.200394
  36 C :   -0.131352
  37 S :    0.514836
  38 C :   -0.136445
  39 C :   -0.100778
  40 C :   -0.108897
  41 C :    0.076142
  42 O :   -0.156618
  43 C :   -0.061701
  44 C :   -0.208619
  45 C :    0.144570
  46 F :   -0.042923
  47 F :   -0.045114
  48 F :   -0.069970
  49 S :    0.556421
  50 C :   -0.207567
  51 C :    0.144285
  52 F :   -0.068514
  53 F :   -0.044573
  54 F :   -0.042600
  55 C :   -0.067679
  56 C :    0.074998
  57 O :   -0.131013
  58 C :   -0.091408
  59 C :    0.015259
  60 F :   -0.072649
  61 C :   -0.189645
  62 C :   -0.057609
  63 S :    0.435320
  64 C :   -0.172415
  65 N :   -0.087377
  66 C :    0.053537
  67 C :   -0.098144
  68 C :    0.033897
  69 F :   -0.054425
  70 H :    0.042050
  71 H :    0.044603
  72 H :    0.040508
  73 H :    0.039086
  74 H :    0.025441
  75 H :    0.037917
  76 H :    0.040324
  77 H :    0.041368
  78 H :    0.039983
  79 H :    0.025056

  Mayer bond orders larger than 0.100000
B(  0-C ,  1-C ) :   1.0650 B(  0-C , 70-H ) :   0.9486 B(  0-C , 71-H ) :   0.9549
B(  0-C , 72-H ) :   0.9488 B(  1-C ,  2-S ) :   1.0424 B(  1-C , 68-C ) :   1.6711
B(  2-S ,  3-C ) :   1.0614 B(  3-C ,  4-C ) :   1.4340 B(  3-C , 67-C ) :   1.2722
B(  4-C ,  5-C ) :   1.2493 B(  4-C , 27-S ) :   1.1204 B(  4-C , 28-C ) :   0.1036
B(  5-C ,  6-S ) :   1.1615 B(  5-C ,  9-C ) :   1.4099 B(  6-S ,  7-C ) :   1.1546
B(  7-C ,  8-C ) :   1.5826 B(  7-C , 73-H ) :   0.9638 B(  8-C ,  9-C ) :   1.1820
B(  8-C , 25-C ) :   0.9649 B(  9-C , 10-C ) :   1.0422 B( 10-C , 11-O ) :   2.0566
B( 10-C , 12-C ) :   0.9574 B( 12-C , 13-C ) :   1.5732 B( 12-C , 24-C ) :   1.2264
B( 13-C , 14-C ) :   0.9316 B( 13-C , 18-S ) :   1.1881 B( 14-C , 15-F ) :   1.1858
B( 14-C , 16-F ) :   1.1824 B( 14-C , 17-F ) :   1.1473 B( 18-S , 19-C ) :   1.1907
B( 19-C , 20-C ) :   0.9278 B( 19-C , 24-C ) :   1.5883 B( 20-C , 21-F ) :   1.1516
B( 20-C , 22-F ) :   1.1865 B( 20-C , 23-F ) :   1.1883 B( 24-C , 25-C ) :   0.9168
B( 25-C , 26-O ) :   2.2614 B( 27-S , 28-C ) :   1.1413 B( 28-C , 29-C ) :   1.0609
B( 28-C , 67-C ) :   1.3883 B( 29-C , 30-C ) :   1.3182 B( 29-C , 66-C ) :   1.3054
B( 30-C , 31-N ) :   1.5795 B( 30-C , 74-H ) :   0.9847 B( 31-N , 32-C ) :   1.5884
B( 32-C , 33-C ) :   1.0584 B( 32-C , 65-N ) :   1.5269 B( 33-C , 34-S ) :   1.1193
B( 33-C , 35-C ) :   0.1109 B( 33-C , 64-C ) :   1.4861 B( 34-S , 35-C ) :   1.1432
B( 35-C , 36-C ) :   1.2035 B( 35-C , 58-C ) :   1.3372 B( 36-C , 37-S ) :   1.1875
B( 36-C , 40-C ) :   1.4167 B( 37-S , 38-C ) :   1.1799 B( 38-C , 39-C ) :   1.5579
B( 38-C , 75-H ) :   0.9650 B( 39-C , 40-C ) :   1.1869 B( 39-C , 56-C ) :   0.9712
B( 40-C , 41-C ) :   1.0217 B( 41-C , 42-O ) :   2.0901 B( 41-C , 43-C ) :   0.9517
B( 43-C , 44-C ) :   1.5806 B( 43-C , 55-C ) :   1.2284 B( 44-C , 45-C ) :   0.9311
B( 44-C , 49-S ) :   1.1859 B( 45-C , 46-F ) :   1.1878 B( 45-C , 47-F ) :   1.1830
B( 45-C , 48-F ) :   1.1459 B( 49-S , 50-C ) :   1.1893 B( 50-C , 51-C ) :   0.9293
B( 50-C , 55-C ) :   1.5844 B( 51-C , 52-F ) :   1.1494 B( 51-C , 53-F ) :   1.1862
B( 51-C , 54-F ) :   1.1907 B( 55-C , 56-C ) :   0.9179 B( 56-C , 57-O ) :   2.2545
B( 58-C , 59-C ) :   1.0823 B( 58-C , 64-C ) :   1.2704 B( 59-C , 60-F ) :   1.1152
B( 59-C , 61-C ) :   1.6515 B( 61-C , 62-C ) :   1.0693 B( 61-C , 63-S ) :   1.0406
B( 62-C , 76-H ) :   0.9572 B( 62-C , 77-H ) :   0.9473 B( 62-C , 78-H ) :   0.9479
B( 63-S , 64-C ) :   1.0768 B( 65-N , 66-C ) :   1.5780 B( 66-C , 79-H ) :   0.9831
B( 67-C , 68-C ) :   1.0711 B( 68-C , 69-F ) :   1.1381

-----------------------------------------------------------------------------
         ABSORPTION SPECTRUM VIA TRANSITION ELECTRIC DIPOLE MOMENTS
-----------------------------------------------------------------------------
State   Energy  Wavelength   fosc         T2         TX        TY        TZ
        (cm-1)    (nm)                  (au**2)     (au)      (au)      (au)
-----------------------------------------------------------------------------
   0   18820.4    531.3   1.379724033  24.13453   0.83179   4.44877   1.91078
   1   21622.1    462.5   0.025315381   0.38544  -0.23897   0.09157  -0.56565
   2   25358.7    394.3   0.152256873   1.97663  -0.91211  -0.68589   0.82111
   3   25579.9    390.9   0.033074755   0.42567   0.05084  -0.34142  -0.55364
   4   26002.3    384.6   0.010471971   0.13258  -0.10249  -0.34350  -0.06393
   5   27316.6    366.1   0.407928448   4.91624  -1.38108  -1.51161   0.85082
   6   28253.9    353.9   0.070194520   0.81790  -0.67831  -0.30749   0.51307
   7   29458.3    339.5   0.030804775   0.34426  -0.08887   0.43841   0.37968
   8   29997.6    333.4   0.022570586   0.24770   0.16672  -0.35262  -0.30914
   9   30724.2    325.5   0.000347996   0.00373  -0.03207   0.04291   0.02930
  10   30849.6    324.2   0.002270321   0.02423   0.08496   0.12246  -0.04485
  11   31175.6    320.8   0.010112536   0.10679   0.19077   0.17373  -0.20053
  12   31411.6    318.4   0.047127768   0.49393  -0.50201  -0.34389   0.35164
  13   31510.2    317.4   0.018305178   0.19125   0.23904   0.33158   0.15545
  14   31730.3    315.2   0.029643028   0.30756   0.11657   0.23319   0.48948
  15   32478.5    307.9   0.001307555   0.01325  -0.00611   0.09043   0.07099
  16   33342.3    299.9   0.001090819   0.01077  -0.02965   0.06723   0.07329
  17   33635.7    297.3   0.096076117   0.94035   0.22666   0.92257   0.19453
  18   34328.0    291.3   0.102665555   0.98458   0.02927  -0.96960  -0.20879
  19   34626.7    288.8   0.039385186   0.37445   0.40915  -0.12474  -0.43759
  20   35439.2    282.2   0.153835476   1.42905   0.20337   1.05294   0.52822
  21   35738.0    279.8   0.105177987   0.96888   0.29117  -0.66537  -0.66437
  22   36196.1    276.3   0.025624300   0.23306  -0.24395   0.09622   0.40532
  23   36769.9    272.0   0.003756501   0.03363   0.15234  -0.02139  -0.09984
  24   37323.8    267.9   0.082191958   0.72497   0.29048  -0.27608  -0.75124
  25   37948.9    263.5   0.004374249   0.03795   0.08735   0.09893  -0.14329
  26   38110.1    262.4   0.001620965   0.01400  -0.09755   0.01353   0.06560
  27   38253.4    261.4   0.041303145   0.35546   0.12133  -0.15029  -0.56405
  28   38529.7    259.5   0.105617868   0.90244   0.52443   0.38140  -0.69422
  29   38843.1    257.4   0.033883648   0.28718   0.13260  -0.38222  -0.35143
  30   38979.2    256.5   0.080710489   0.68167   0.51792   0.53614  -0.35494
  31   39120.6    255.6   0.035010921   0.29463  -0.03913   0.28432   0.46071
  32   39562.5    252.8   0.001500214   0.01248  -0.07943  -0.04140   0.06679
  33   39713.1    251.8   0.119598060   0.99144   0.56399   0.66899  -0.47518
  34   39918.7    250.5   0.031395722   0.25892  -0.47132   0.06938   0.17879
  35   40170.6    248.9   0.010591934   0.08680   0.14500   0.12154  -0.22585
  36   40243.8    248.5   0.043198144   0.35338   0.45099  -0.09550  -0.37532

FINAL SINGLE POINT ENERGY     -6595.429465059216

DIPOLE MOMENT
-------------
                                X             Y             Z
Electronic contribution:     -2.36706      11.52283      -5.87858
Nuclear contribution   :      2.14413     -13.13541       6.05424
                        -----------------------------------------
Total Dipole Moment    :     -0.22293      -1.61258       0.17566
                        -----------------------------------------
Magnitude (a.u.)       :      1.63736
Magnitude (Debye)      :      4.16185

Rotational constants in cm-1:     0.001684     0.000264     0.000232
Rotational constants in MHz :    50.475757     7.917033     6.961763

                             ****ORCA TERMINATED NORMALLY****
TOTAL RUN TIME: 0 days 0 hours 10 minutes 14 seconds 80 msec
