                         Program Version 4.2.0 -  RELEASE  -
|  1> # ORCA input file
|  2> # SCF done       -148.097542871060          0.000754773554
|  3> ! CAM-B3LYP def2-SVP def2/J RIJCOSX Grid4 TightSCF
|  4> %maxcore 5000
|  5> %tddft
|  6>     Mode sTDDFT
|  7>     Ethresh 5.0
|  8>     maxcore 5000
|  9> end
| 10>
| 11> %pal
| 12>   nprocs 6
| 13>   end
| 14> * xyz 0 1
| 15>    C        4.62394         0.43543         1.00887
| 16>    O        5.16215         1.73724         1.16861
| 17>    C        4.36053         2.63214         1.83953
| 18>    C        4.15365         2.46913         3.23724
| 19>    O        4.71412         1.38255         3.87660
| 20>    C        6.11504         1.47669         4.06837
| 21>    C        3.41541         3.37393         3.97578
| 22>    C        3.25449         3.24978         5.42580
| 23>    C        2.82457         2.09391         6.02620
| 24>    C        2.64672         1.99923         7.42185
| 25>    C        2.89574         3.05320         8.25231
| 26>    C        3.36660         4.25598         7.68736
| 27>    N        3.68968         5.35270         8.36437
| 28>   Se        4.26697         6.56254         7.24011
| 29>    N        4.05677         5.51888         5.85455
| 30>    C        3.55910         4.35801         6.26042
| 31>    C        2.86680         4.47448         3.28392
| 32>    N        2.13695         5.46036         3.80391
| 33>    S        1.80467         6.51995         2.64817
| 34>    N        2.53703         5.77864         1.42561
| 35>    C        3.08081         4.64685         1.87184
| 36>    C        3.81466         3.69187         1.12782
| 37>    C        4.03227         3.81583        -0.29994
| 38>    S        5.60060         3.42069        -0.93819
| 39>    C        5.11415         3.82646        -2.53587
| 40>    C        5.98559         3.60613        -3.66519
| 41>    C        7.36475         3.74790        -3.54974
| 42>    O        7.80308         4.07820        -2.31336
| 43>    C        9.11021         3.75398        -1.88342
| 44>    C        8.22604         3.61421        -4.68721
| 45>    O        9.51142         4.02887        -4.48516
| 46>    C       10.20599         4.66327        -5.53532
| 47>    C        7.74283         3.15671        -5.90181
| 48>    C        8.59381         2.75991        -7.02841
| 49>    C        8.34955         3.13735        -8.32476
| 50>    C        9.15170         2.69327        -9.39512
| 51>    C       10.20825         1.84940        -9.20467
| 52>    C       10.48278         1.40430        -7.89606
| 53>    N       11.45254         0.56435        -7.54885
| 54>   Se       11.37443         0.28256        -5.82393
| 55>    N       10.00024         1.34552        -5.61522
| 56>    C        9.66583         1.85620        -6.79467
| 57>    C        6.34897         2.95353        -6.02066
| 58>    N        5.69421         2.50678        -7.09151
| 59>    S        4.12884         2.39919        -6.73310
| 60>    N        4.20664         2.89957        -5.20731
| 61>    C        5.46995         3.19388        -4.91425
| 62>    C        3.79049         4.23278        -2.55380
| 63>    N        3.17633         4.77191        -3.72392
| 64>    O        2.01037         4.52010        -3.93832
| 65>    O        3.85717         5.50366        -4.41540
| 66>    C        3.15597         4.21260        -1.28235
| 67>    C        1.72411         4.56242        -1.06350
| 68>    H        5.40205        -0.14770         0.52035
| 69>    H        3.73294         0.46323         0.37274
| 70>    H        4.36974        -0.01613         1.97062
| 71>    H        6.35577         2.31526         4.73057
| 72>    H        6.64395         1.60043         3.11985
| 73>    H        6.41379         0.54221         4.53964
| 74>    H        2.59978         1.23721         5.40994
| 75>    H        2.29478         1.06437         7.83199
| 76>    H        2.75240         2.99390         9.31927
| 77>    H        9.45495         2.81423        -2.31637
| 78>    H        9.03639         3.65720        -0.79937
| 79>    H        9.81773         4.54704        -2.13229
| 80>    H       10.86304         5.39308        -5.05860
| 81>    H        9.52396         5.17761        -6.21599
| 82>    H       10.81797         3.95831        -6.10447
| 83>    H        7.52441         3.80161        -8.52877
| 84>    H        8.91446         3.03797       -10.39066
| 85>    H       10.82729         1.50618       -10.01776
| 86>    H        1.62657         5.62621        -0.85156
| 87>    H        1.32834         4.01341        -0.21330
| 88>    H        1.14041         4.32616        -1.94883
| 89> *
| 90>
| 91>                          ****END OF INPUT****

CARTESIAN COORDINATES (ANGSTROEM)
---------------------------------
  C      4.623940    0.435430    1.008870
  O      5.162150    1.737240    1.168610
  C      4.360530    2.632140    1.839530
  C      4.153650    2.469130    3.237240
  O      4.714120    1.382550    3.876600
  C      6.115040    1.476690    4.068370
  C      3.415410    3.373930    3.975780
  C      3.254490    3.249780    5.425800
  C      2.824570    2.093910    6.026200
  C      2.646720    1.999230    7.421850
  C      2.895740    3.053200    8.252310
  C      3.366600    4.255980    7.687360
  N      3.689680    5.352700    8.364370
  Se     4.266970    6.562540    7.240110
  N      4.056770    5.518880    5.854550
  C      3.559100    4.358010    6.260420
  C      2.866800    4.474480    3.283920
  N      2.136950    5.460360    3.803910
  S      1.804670    6.519950    2.648170
  N      2.537030    5.778640    1.425610
  C      3.080810    4.646850    1.871840
  C      3.814660    3.691870    1.127820
  C      4.032270    3.815830   -0.299940
  S      5.600600    3.420690   -0.938190
  C      5.114150    3.826460   -2.535870
  C      5.985590    3.606130   -3.665190
  C      7.364750    3.747900   -3.549740
  O      7.803080    4.078200   -2.313360
  C      9.110210    3.753980   -1.883420
  C      8.226040    3.614210   -4.687210
  O      9.511420    4.028870   -4.485160
  C     10.205990    4.663270   -5.535320
  C      7.742830    3.156710   -5.901810
  C      8.593810    2.759910   -7.028410
  C      8.349550    3.137350   -8.324760
  C      9.151700    2.693270   -9.395120
  C     10.208250    1.849400   -9.204670
  C     10.482780    1.404300   -7.896060
  N     11.452540    0.564350   -7.548850
  Se    11.374430    0.282560   -5.823930
  N     10.000240    1.345520   -5.615220
  C      9.665830    1.856200   -6.794670
  C      6.348970    2.953530   -6.020660
  N      5.694210    2.506780   -7.091510
  S      4.128840    2.399190   -6.733100
  N      4.206640    2.899570   -5.207310
  C      5.469950    3.193880   -4.914250
  C      3.790490    4.232780   -2.553800
  N      3.176330    4.771910   -3.723920
  O      2.010370    4.520100   -3.938320
  O      3.857170    5.503660   -4.415400
  C      3.155970    4.212600   -1.282350
  C      1.724110    4.562420   -1.063500
  H      5.402050   -0.147700    0.520350
  H      3.732940    0.463230    0.372740
  H      4.369740   -0.016130    1.970620
  H      6.355770    2.315260    4.730570
  H      6.643950    1.600430    3.119850
  H      6.413790    0.542210    4.539640
  H      2.599780    1.237210    5.409940
  H      2.294780    1.064370    7.831990
  H      2.752400    2.993900    9.319270
  H      9.454950    2.814230   -2.316370
  H      9.036390    3.657200   -0.799370
  H      9.817730    4.547040   -2.132290
  H     10.863040    5.393080   -5.058600
  H      9.523960    5.177610   -6.215990
  H     10.817970    3.958310   -6.104470
  H      7.524410    3.801610   -8.528770
  H      8.914460    3.037970  -10.390660
  H     10.827290    1.506180  -10.017760
  H      1.626570    5.626210   -0.851560
  H      1.328340    4.013410   -0.213300
  H      1.140410    4.326160   -1.948830

 Total Charge           Charge          ....    0
 Multiplicity           Mult            ....    1
 Number of Electrons    NEL             ....  446
 Basis Dimension        Dim             ....  895

ORBITAL ENERGIES
----------------

  NO   OCC          E(Eh)            E(eV)
   0   2.0000    -453.970995    -12353.1788
   1   2.0000    -453.962806    -12352.9560
   2   2.0000     -89.010505     -2422.0990
   3   2.0000     -89.003318     -2421.9034
   4   2.0000     -88.946434     -2420.3555
   5   2.0000     -58.185045     -1583.2956
   6   2.0000     -58.176944     -1583.0751
   7   2.0000     -52.255686     -1421.9495
   8   2.0000     -52.253404     -1421.8874
   9   2.0000     -52.252921     -1421.8743
  10   2.0000     -52.247586     -1421.7291
  11   2.0000     -52.245287     -1421.6665
  12   2.0000     -52.244832     -1421.6542
  13   2.0000     -19.250168      -523.8237
  14   2.0000     -19.250023      -523.8198
  15   2.0000     -19.242078      -523.6036
  16   2.0000     -19.239711      -523.5391
  17   2.0000     -19.215710      -522.8860
  18   2.0000     -19.213175      -522.8171
  19   2.0000     -14.621049      -397.8590
  20   2.0000     -14.427253      -392.5855
  21   2.0000     -14.426896      -392.5758
  22   2.0000     -14.423657      -392.4876
  23   2.0000     -14.423046      -392.4710
  24   2.0000     -14.419755      -392.3815
  25   2.0000     -14.418742      -392.3539
  26   2.0000     -14.418366      -392.3437
  27   2.0000     -14.417163      -392.3110
  28   2.0000     -10.347329      -281.5651
  29   2.0000     -10.346394      -281.5397
  30   2.0000     -10.338634      -281.3285
  31   2.0000     -10.338188      -281.3164
  32   2.0000     -10.322058      -280.8775
  33   2.0000     -10.316220      -280.7186
  34   2.0000     -10.315746      -280.7057
  35   2.0000     -10.315285      -280.6932
  36   2.0000     -10.314592      -280.6743
  37   2.0000     -10.313876      -280.6548
  38   2.0000     -10.313512      -280.6449
  39   2.0000     -10.311278      -280.5841
  40   2.0000     -10.308839      -280.5178
  41   2.0000     -10.307385      -280.4782
  42   2.0000     -10.306948      -280.4663
  43   2.0000     -10.306369      -280.4506
  44   2.0000     -10.302914      -280.3565
  45   2.0000     -10.298588      -280.2388
  46   2.0000     -10.292947      -280.0853
  47   2.0000     -10.289542      -279.9927
  48   2.0000     -10.288175      -279.9555
  49   2.0000     -10.287448      -279.9357
  50   2.0000     -10.286203      -279.9018
  51   2.0000     -10.285941      -279.8947
  52   2.0000     -10.285042      -279.8702
  53   2.0000     -10.281499      -279.7738
  54   2.0000     -10.279627      -279.7229
  55   2.0000     -10.279007      -279.7060
  56   2.0000     -10.276901      -279.6487
  57   2.0000     -10.276421      -279.6356
  58   2.0000     -10.275725      -279.6167
  59   2.0000     -10.273874      -279.5663
  60   2.0000     -10.238800      -278.6119
  61   2.0000      -8.102424      -220.4782
  62   2.0000      -8.095120      -220.2794
  63   2.0000      -8.040695      -218.7984
  64   2.0000      -7.960925      -216.6278
  65   2.0000      -7.952846      -216.4079
  66   2.0000      -6.073586      -165.2707
  67   2.0000      -6.066418      -165.0756
  68   2.0000      -6.065882      -165.0610
  69   2.0000      -6.064889      -165.0340
  70   2.0000      -6.058761      -164.8673
  71   2.0000      -6.057261      -164.8265
  72   2.0000      -6.009923      -163.5383
  73   2.0000      -6.005642      -163.4218
  74   2.0000      -6.003091      -163.3524
  75   2.0000      -5.911066      -160.8483
  76   2.0000      -5.904498      -160.6696
  77   2.0000      -5.902994      -160.6286
  78   2.0000      -5.900753      -160.5677
  79   2.0000      -5.896409      -160.4495
  80   2.0000      -5.892676      -160.3479
  81   2.0000      -2.265184       -61.6388
  82   2.0000      -2.264592       -61.6227
  83   2.0000      -2.260078       -61.4998
  84   2.0000      -2.257120       -61.4194
  85   2.0000      -2.256506       -61.4027
  86   2.0000      -2.255027       -61.3624
  87   2.0000      -2.254869       -61.3581
  88   2.0000      -2.252032       -61.2809
  89   2.0000      -2.246956       -61.1428
  90   2.0000      -2.246816       -61.1390
  91   2.0000      -1.294918       -35.2365
  92   2.0000      -1.165870       -31.7249
  93   2.0000      -1.156210       -31.4621
  94   2.0000      -1.142465       -31.0880
  95   2.0000      -1.130726       -30.7686
  96   2.0000      -1.112844       -30.2820
  97   2.0000      -1.111580       -30.2476
  98   2.0000      -1.105353       -30.0782
  99   2.0000      -1.080597       -29.4045
 100   2.0000      -1.072982       -29.1973
 101   2.0000      -0.988506       -26.8986
 102   2.0000      -0.969362       -26.3777
 103   2.0000      -0.967774       -26.3345
 104   2.0000      -0.959640       -26.1131
 105   2.0000      -0.955168       -25.9914
 106   2.0000      -0.949765       -25.8444
 107   2.0000      -0.945671       -25.7330
 108   2.0000      -0.937453       -25.5094
 109   2.0000      -0.933725       -25.4079
 110   2.0000      -0.885296       -24.0901
 111   2.0000      -0.877685       -23.8830
 112   2.0000      -0.860749       -23.4222
 113   2.0000      -0.854937       -23.2640
 114   2.0000      -0.850388       -23.1402
 115   2.0000      -0.843019       -22.9397
 116   2.0000      -0.837639       -22.7933
 117   2.0000      -0.830980       -22.6121
 118   2.0000      -0.825554       -22.4645
 119   2.0000      -0.818078       -22.2610
 120   2.0000      -0.791200       -21.5296
 121   2.0000      -0.785865       -21.3845
 122   2.0000      -0.782424       -21.2908
 123   2.0000      -0.776955       -21.1420
 124   2.0000      -0.757293       -20.6070
 125   2.0000      -0.737903       -20.0794
 126   2.0000      -0.731875       -19.9153
 127   2.0000      -0.723117       -19.6770
 128   2.0000      -0.715871       -19.4798
 129   2.0000      -0.701447       -19.0874
 130   2.0000      -0.693502       -18.8711
 131   2.0000      -0.689475       -18.7616
 132   2.0000      -0.686421       -18.6785
 133   2.0000      -0.683453       -18.5977
 134   2.0000      -0.675027       -18.3684
 135   2.0000      -0.672308       -18.2944
 136   2.0000      -0.662553       -18.0290
 137   2.0000      -0.644959       -17.5502
 138   2.0000      -0.631414       -17.1816
 139   2.0000      -0.624724       -16.9996
 140   2.0000      -0.612752       -16.6738
 141   2.0000      -0.611119       -16.6294
 142   2.0000      -0.607740       -16.5374
 143   2.0000      -0.602334       -16.3903
 144   2.0000      -0.602148       -16.3853
 145   2.0000      -0.594937       -16.1891
 146   2.0000      -0.585744       -15.9389
 147   2.0000      -0.578892       -15.7524
 148   2.0000      -0.576270       -15.6811
 149   2.0000      -0.571865       -15.5612
 150   2.0000      -0.567378       -15.4391
 151   2.0000      -0.563379       -15.3303
 152   2.0000      -0.561868       -15.2892
 153   2.0000      -0.558579       -15.1997
 154   2.0000      -0.557613       -15.1734
 155   2.0000      -0.555739       -15.1224
 156   2.0000      -0.554099       -15.0778
 157   2.0000      -0.545012       -14.8305
 158   2.0000      -0.541510       -14.7352
 159   2.0000      -0.538129       -14.6432
 160   2.0000      -0.535553       -14.5731
 161   2.0000      -0.532079       -14.4786
 162   2.0000      -0.527422       -14.3519
 163   2.0000      -0.526383       -14.3236
 164   2.0000      -0.525380       -14.2963
 165   2.0000      -0.519943       -14.1484
 166   2.0000      -0.517804       -14.0902
 167   2.0000      -0.511524       -13.9193
 168   2.0000      -0.509289       -13.8585
 169   2.0000      -0.507620       -13.8130
 170   2.0000      -0.501128       -13.6364
 171   2.0000      -0.500449       -13.6179
 172   2.0000      -0.491243       -13.3674
 173   2.0000      -0.484543       -13.1851
 174   2.0000      -0.468819       -12.7572
 175   2.0000      -0.464930       -12.6514
 176   2.0000      -0.462603       -12.5881
 177   2.0000      -0.458833       -12.4855
 178   2.0000      -0.457695       -12.4545
 179   2.0000      -0.455110       -12.3842
 180   2.0000      -0.454422       -12.3655
 181   2.0000      -0.451665       -12.2904
 182   2.0000      -0.449772       -12.2389
 183   2.0000      -0.447468       -12.1762
 184   2.0000      -0.442211       -12.0332
 185   2.0000      -0.437710       -11.9107
 186   2.0000      -0.437668       -11.9095
 187   2.0000      -0.434547       -11.8246
 188   2.0000      -0.430933       -11.7263
 189   2.0000      -0.427299       -11.6274
 190   2.0000      -0.422871       -11.5069
 191   2.0000      -0.413751       -11.2587
 192   2.0000      -0.412540       -11.2258
 193   2.0000      -0.406956       -11.0738
 194   2.0000      -0.401412       -10.9230
 195   2.0000      -0.392684       -10.6855
 196   2.0000      -0.391595       -10.6558
 197   2.0000      -0.389515       -10.5992
 198   2.0000      -0.388395       -10.5688
 199   2.0000      -0.385964       -10.5026
 200   2.0000      -0.383192       -10.4272
 201   2.0000      -0.378357       -10.2956
 202   2.0000      -0.372637       -10.1400
 203   2.0000      -0.371243       -10.1020
 204   2.0000      -0.368571       -10.0293
 205   2.0000      -0.357814        -9.7366
 206   2.0000      -0.355628        -9.6771
 207   2.0000      -0.351749        -9.5716
 208   2.0000      -0.350379        -9.5343
 209   2.0000      -0.348095        -9.4722
 210   2.0000      -0.347261        -9.4494
 211   2.0000      -0.345190        -9.3931
 212   2.0000      -0.338964        -9.2237
 213   2.0000      -0.321785        -8.7562
 214   2.0000      -0.317135        -8.6297
 215   2.0000      -0.310773        -8.4566
 216   2.0000      -0.307953        -8.3798
 217   2.0000      -0.304977        -8.2988
 218   2.0000      -0.296979        -8.0812
 219   2.0000      -0.294032        -8.0010
 220   2.0000      -0.284208        -7.7337
 221   2.0000      -0.273941        -7.4543
 222   2.0000      -0.246572        -6.7096
 223   0.0000      -0.064201        -1.7470
 224   0.0000      -0.056654        -1.5416
 225   0.0000      -0.046580        -1.2675
 226   0.0000      -0.040983        -1.1152
 227   0.0000      -0.010339        -0.2814

MULLIKEN ATOMIC CHARGES
-----------------------
   0 C :    0.193539
   1 O :   -0.344813
   2 C :    0.068848
   3 C :    0.066708
   4 O :   -0.341631
   5 C :    0.198290
   6 C :    0.049991
   7 C :   -0.008284
   8 C :   -0.000250
   9 C :    0.032999
  10 C :   -0.016578
  11 C :    0.040630
  12 N :   -0.276549
  13 Se:    0.499678
  14 N :   -0.271312
  15 C :    0.017218
  16 C :    0.008429
  17 N :   -0.259049
  18 S :    0.495623
  19 N :   -0.268806
  20 C :   -0.015535
  21 C :    0.056454
  22 C :   -0.222904
  23 S :    0.214482
  24 C :   -0.161899
  25 C :    0.044789
  26 C :    0.115708
  27 O :   -0.310068
  28 C :    0.208635
  29 C :    0.101462
  30 O :   -0.338297
  31 C :    0.210192
  32 C :    0.001311
  33 C :   -0.035475
  34 C :    0.013905
  35 C :    0.037063
  36 C :   -0.022163
  37 C :    0.051620
  38 N :   -0.272541
  39 Se:    0.502761
  40 N :   -0.268933
  41 C :   -0.030444
  42 C :    0.004288
  43 N :   -0.270545
  44 S :    0.499457
  45 N :   -0.288751
  46 C :   -0.008728
  47 C :    0.128309
  48 N :    0.254169
  49 O :   -0.239619
  50 O :   -0.244567
  51 C :   -0.067282
  52 C :    0.149529
  53 H :    0.033427
  54 H :    0.022428
  55 H :    0.032601
  56 H :    0.019632
  57 H :    0.028414
  58 H :    0.031378
  59 H :   -0.019267
  60 H :   -0.008738
  61 H :   -0.020764
  62 H :    0.026578
  63 H :    0.027124
  64 H :    0.027869
  65 H :    0.030513
  66 H :    0.029898
  67 H :    0.028728
  68 H :   -0.013518
  69 H :   -0.005006
  70 H :   -0.019943
  71 H :    0.035138
  72 H :   -0.001882
  73 H :    0.034325
Sum of atomic charges:   -0.0000000

LOEWDIN ATOMIC CHARGES
----------------------
   0 C :    0.080171
   1 O :   -0.130110
   2 C :    0.032423
   3 C :    0.037946
   4 O :   -0.126621
   5 C :    0.080730
   6 C :   -0.034784
   7 C :   -0.020633
   8 C :   -0.000013
   9 C :   -0.019391
  10 C :   -0.018435
  11 C :   -0.047264
  12 N :   -0.257643
  13 Se:    0.554549
  14 N :   -0.248732
  15 C :   -0.037530
  16 C :   -0.043580
  17 N :   -0.277187
  18 S :    0.635658
  19 N :   -0.277998
  20 C :   -0.046910
  21 C :   -0.061264
  22 C :   -0.184929
  23 S :    0.511048
  24 C :   -0.147778
  25 C :   -0.077276
  26 C :    0.058962
  27 O :   -0.096064
  28 C :    0.080572
  29 C :    0.049720
  30 O :   -0.094634
  31 C :    0.082326
  32 C :   -0.064453
  33 C :   -0.025988
  34 C :    0.006743
  35 C :   -0.014066
  36 C :   -0.019650
  37 C :   -0.048417
  38 N :   -0.253775
  39 Se:    0.554202
  40 N :   -0.256715
  41 C :   -0.045258
  42 C :   -0.045017
  43 N :   -0.294257
  44 S :    0.630954
  45 N :   -0.293250
  46 C :   -0.046686
  47 C :   -0.067760
  48 N :    0.292508
  49 O :   -0.197417
  50 O :   -0.212098
  51 C :   -0.029707
  52 C :   -0.056750
  53 H :    0.025600
  54 H :    0.017039
  55 H :    0.013877
  56 H :    0.015957
  57 H :    0.013243
  58 H :    0.024670
  59 H :    0.032600
  60 H :    0.031519
  61 H :    0.035726
  62 H :    0.019348
  63 H :    0.019992
  64 H :    0.017617
  65 H :    0.024008
  66 H :    0.022749
  67 H :    0.016682
  68 H :    0.035086
  69 H :    0.033587
  70 H :    0.036492
  71 H :    0.037387
  72 H :    0.027882
  73 H :    0.030470

  Mayer bond orders larger than 0.100000
B(  0-C ,  1-O ) :   0.9201 B(  0-C , 53-H ) :   0.9834 B(  0-C , 54-H ) :   0.9677
B(  0-C , 55-H ) :   0.9677 B(  1-O ,  2-C ) :   1.1257 B(  2-C ,  3-C ) :   1.1241
B(  2-C , 21-C ) :   1.4821 B(  3-C ,  4-O ) :   1.1257 B(  3-C ,  6-C ) :   1.5325
B(  4-O ,  5-C ) :   0.9294 B(  5-C , 56-H ) :   0.9676 B(  5-C , 57-H ) :   0.9669
B(  5-C , 58-H ) :   0.9836 B(  6-C ,  7-C ) :   0.9080 B(  6-C , 16-C ) :   1.2189
B(  6-C , 21-C ) :   0.1244 B(  7-C ,  8-C ) :   1.5962 B(  7-C , 10-C ) :   0.1065
B(  7-C , 15-C ) :   1.2079 B(  8-C ,  9-C ) :   1.1566 B(  8-C , 59-H ) :   0.9983
B(  9-C , 10-C ) :   1.5201 B(  9-C , 60-H ) :   0.9866 B( 10-C , 11-C ) :   1.1823
B( 10-C , 61-H ) :   1.0201 B( 11-C , 12-N ) :   1.5688 B( 11-C , 15-C ) :   1.1283
B( 12-N , 13-Se) :   1.2486 B( 12-N , 14-N ) :   0.1354 B( 13-Se, 14-N ) :   1.2394
B( 14-N , 15-C ) :   1.5797 B( 16-C , 17-N ) :   1.5390 B( 16-C , 20-C ) :   1.1443
B( 17-N , 18-S ) :   1.2718 B( 17-N , 19-N ) :   0.1499 B( 18-S , 19-N ) :   1.2587
B( 19-N , 20-C ) :   1.5460 B( 20-C , 21-C ) :   1.1950 B( 21-C , 22-C ) :   1.0015
B( 22-C , 23-S ) :   1.1049 B( 22-C , 24-C ) :   0.1120 B( 22-C , 51-C ) :   1.5699
B( 23-S , 24-C ) :   1.1829 B( 24-C , 25-C ) :   1.0410 B( 24-C , 47-C ) :   1.5087
B( 25-C , 26-C ) :   1.4915 B( 25-C , 32-C ) :   0.1124 B( 25-C , 46-C ) :   1.2070
B( 26-C , 27-O ) :   1.2157 B( 26-C , 29-C ) :   1.1114 B( 27-O , 28-C ) :   0.9201
B( 28-C , 62-H ) :   0.9725 B( 28-C , 63-H ) :   0.9739 B( 28-C , 64-H ) :   0.9779
B( 29-C , 30-O ) :   1.1530 B( 29-C , 32-C ) :   1.4326 B( 30-O , 31-C ) :   0.9444
B( 31-C , 65-H ) :   0.9756 B( 31-C , 66-H ) :   0.9620 B( 31-C , 67-H ) :   0.9669
B( 32-C , 33-C ) :   0.9115 B( 32-C , 42-C ) :   1.2303 B( 33-C , 34-C ) :   1.5853
B( 33-C , 36-C ) :   0.1056 B( 33-C , 41-C ) :   1.1980 B( 34-C , 35-C ) :   1.1584
B( 34-C , 68-H ) :   0.9969 B( 35-C , 36-C ) :   1.5136 B( 35-C , 69-H ) :   0.9877
B( 36-C , 37-C ) :   1.1819 B( 36-C , 70-H ) :   1.0196 B( 37-C , 38-N ) :   1.5687
B( 37-C , 41-C ) :   1.1259 B( 38-N , 39-Se) :   1.2502 B( 38-N , 40-N ) :   0.1340
B( 39-Se, 40-N ) :   1.2307 B( 40-N , 41-C ) :   1.5937 B( 42-C , 43-N ) :   1.5579
B( 42-C , 46-C ) :   1.1593 B( 43-N , 44-S ) :   1.2515 B( 43-N , 45-N ) :   0.1433
B( 44-S , 45-N ) :   1.2505 B( 45-N , 46-C ) :   1.5391 B( 47-C , 48-N ) :   0.9036
B( 47-C , 51-C ) :   1.2696 B( 48-N , 49-O ) :   1.5271 B( 48-N , 50-O ) :   1.5356
B( 49-O , 50-O ) :   0.2622 B( 51-C , 52-C ) :   1.1305 B( 52-C , 71-H ) :   0.9213
B( 52-C , 72-H ) :   0.9287 B( 52-C , 73-H ) :   0.9251

-----------------------------------------------------------------------------
         ABSORPTION SPECTRUM VIA TRANSITION ELECTRIC DIPOLE MOMENTS
-----------------------------------------------------------------------------
State   Energy  Wavelength   fosc         T2         TX        TY        TZ
        (cm-1)    (nm)                  (au**2)     (au)      (au)      (au)
-----------------------------------------------------------------------------
   0   23201.1    431.0   0.692885612   9.83170  -1.60520   0.39680   2.66413
   1   25154.3    397.5   0.148275039   1.94058   0.07311  -0.26195   1.36624
   2   26839.6    372.6   0.046493819   0.57029  -0.72501   0.18727  -0.09788
   3   27588.2    362.5   0.016164425   0.19289   0.04165  -0.03517  -0.43580
   4   29049.9    344.2   0.040446522   0.45837  -0.30828  -0.27215  -0.53783
   5   30161.4    331.5   0.025752728   0.28109  -0.41652   0.25287  -0.20894
   6   30705.2    325.7   0.028142385   0.30173   0.12215  -0.02944   0.53474
   7   31885.2    313.6   0.083920714   0.86648  -0.65514   0.17842   0.63674
   8   33125.4    301.9   0.079015916   0.78529  -0.52385  -0.52375  -0.48637
   9   33334.8    300.0   0.012143876   0.11993   0.10789  -0.30544  -0.12246
  10   33435.9    299.1   0.022070566   0.21731   0.28649   0.27713   0.24172
  11   33630.6    297.3   0.081757107   0.80033  -0.80291   0.03146  -0.39328
  12   34186.8    292.5   0.014230322   0.13704   0.10868   0.06560  -0.34774
  13   34360.2    291.0   0.005000273   0.04791   0.11529   0.03113   0.18344
  14   35004.5    285.7   0.068937722   0.64835  -0.06636  -0.03391  -0.80175
  15   35658.7    280.4   0.018335840   0.16928   0.37045   0.11944  -0.13334
  16   36106.9    277.0   0.088489425   0.80682   0.35443  -0.59113  -0.57599
  17   36241.7    275.9   0.131435603   1.19393   0.32223  -1.04191   0.06722
  18   37148.9    269.2   0.074491212   0.66014   0.19046   0.57171   0.54498
  19   37754.2    264.9   0.019798672   0.17264  -0.09711  -0.35446   0.19384
  20   37896.6    263.9   0.060760436   0.52783  -0.70390   0.08828  -0.15672
  21   38182.0    261.9   0.048854619   0.42123  -0.06012   0.58191  -0.28107
  22   38313.4    261.0   0.134901124   1.15915   0.26348  -0.16137  -1.03135
  23   38474.6    259.9   0.150843980   1.29071  -0.97958   0.28352  -0.50076
  24   38803.4    257.7   0.022616595   0.19188   0.16531   0.01033  -0.40552
  25   39562.5    252.8   0.095458285   0.79434   0.43159  -0.46899   0.62299
  26   39620.2    252.4   0.017775907   0.14770  -0.06992  -0.09092   0.36681
  27   40095.8    249.4   0.176466653   1.44890   0.53961  -0.97843   0.44766
  28   40208.3    248.7   0.129111576   1.05712   0.22745   0.98936  -0.16297
  29   40252.4    248.4   0.247425122   2.02361   0.21209   0.50487   1.31291

FINAL SINGLE POINT ENERGY     -8208.285756354926

DIPOLE MOMENT
-------------
                                X             Y             Z
Electronic contribution:     34.63703      12.09569      31.79310
Nuclear contribution   :    -32.44228     -13.11187     -31.03080
                        -----------------------------------------
Total Dipole Moment    :      2.19475      -1.01618       0.76230
                        -----------------------------------------
Magnitude (a.u.)       :      2.53587
Magnitude (Debye)      :      6.44567

Rotational constants in cm-1:     0.002827     0.000523     0.000482
Rotational constants in MHz :    84.742682    15.680592    14.457562

                             ****ORCA TERMINATED NORMALLY****
TOTAL RUN TIME: 0 days 0 hours 6 minutes 43 seconds 943 msec
