                         Program Version 4.2.0 -  RELEASE  -
|  1> # ORCA input file
|  2> # SCF done       -122.266117549641          0.000785299358
|  3> ! CAM-B3LYP def2-SVP def2/J RIJCOSX Grid4 TightSCF
|  4> %maxcore 5000
|  5> %tddft
|  6>     Mode sTDDFT
|  7>     Ethresh 5.0
|  8>     maxcore 5000
|  9> end
| 10>
| 11> %pal
| 12>   nprocs 6
| 13>   end
| 14> * xyz 0 1
| 15>    C        9.24166         3.54585         8.03331
| 16>    C        9.18929         2.65656         9.02593
| 17>    C        9.03744         3.20697         6.68947
| 18>    C        8.86363         2.93670         5.51814
| 19>    C        8.65513         2.60871         4.18706
| 20>    C        8.38483         1.33895         3.78172
| 21>    C        8.16464         1.02909         2.41884
| 22>    N        8.24369         1.97362         1.48864
| 23>    C        8.02243         1.37443         0.31046
| 24>    C        7.79528        -0.06306         0.48499
| 25>    C        7.55681        -0.70954        -0.81085
| 26>    O        7.34347        -1.88555        -1.03077
| 27>    C        7.64377         0.41381        -1.75593
| 28>    C        7.93364         1.66811        -1.03275
| 29>    N        8.01733         2.70855        -1.89339
| 30>    C        7.79933         2.19004        -3.08015
| 31>    C        7.55613         0.76410        -3.06657
| 32>    C        7.86259        -0.31569         1.83808
| 33>    C        7.69566        -1.59184         2.44244
| 34>    C        7.60854        -2.01597         3.78607
| 35>    C        7.45941        -3.43209         3.92256
| 36>    N        7.39720        -4.01392         5.13067
| 37>    C        7.44811        -3.22478         6.16885
| 38>    C        7.54671        -1.81563         6.05461
| 39>    C        7.56366        -0.94278         7.26437
| 40>    N        7.63069        -1.23662         4.88068
| 41>    C        7.40567        -4.10422         2.68527
| 42>    S        7.54849        -2.97036         1.39003
| 43>    C        7.25081        -5.47624         2.42433
| 44>    C        7.10066        -6.42921         3.39258
| 45>    C        6.97225        -7.79533         3.06476
| 46>    N        7.08236        -8.22921         1.80604
| 47>    C        7.00493        -9.56136         1.86563
| 48>    C        6.85477       -10.03246         3.26077
| 49>    C        6.78377       -11.50643         3.29675
| 50>    O        6.71392       -12.23836         4.26072
| 51>    C        6.84606       -11.86684         1.87146
| 52>    C        6.99249       -10.65944         1.03576
| 53>    N        7.04041       -10.98767        -0.27649
| 54>    C        6.92704       -12.29580        -0.30588
| 55>    C        6.79548       -12.90737         0.99696
| 56>    C        6.79042        -8.90791         4.03008
| 57>    C        6.57554        -8.79758         5.46440
| 58>    C        6.86393        -9.81092         6.29876
| 59>    C        6.00108        -7.60690         5.97123
| 60>    C        5.46307        -6.63254         6.44240
| 61>    C        4.85302        -5.48111         6.96838
| 62>    C        4.39112        -4.49125         6.20863
| 63>    H        9.44797         4.59096         8.22985
| 64>    H        8.98504         1.61521         8.84033
| 65>    H        9.35127         2.94716        10.04926
| 66>    H        8.70888         3.40354         3.45372
| 67>    H        8.31252         0.53247         4.49542
| 68>    H        7.81449         2.81523        -3.95591
| 69>    H        7.35738         0.15549        -3.92640
| 70>    H        7.40694        -3.70246         7.13792
| 71>    H        7.62270         0.10184         6.96939
| 72>    H        8.41914        -1.19416         7.89021
| 73>    H        6.66077        -1.10223         7.85183
| 74>    H        7.24410        -5.79116         1.38901
| 75>    H        7.08659        -6.13984         4.43181
| 76>    H        6.94139       -12.81957        -1.24617
| 77>    H        6.68705       -13.95692         1.18732
| 78>    H        7.26639       -10.74040         5.93780
| 79>    H        6.68554        -9.72275         7.35695
| 80>    H        4.77571        -5.44267         8.04885
| 81>    H        4.46127        -4.52860         5.13432
| 82>    H        3.92589        -3.61992         6.63757
| 83> *
| 84>
| 85>                          ****END OF INPUT****

CARTESIAN COORDINATES (ANGSTROEM)
---------------------------------
  C      9.241660    3.545850    8.033310
  C      9.189290    2.656560    9.025930
  C      9.037440    3.206970    6.689470
  C      8.863630    2.936700    5.518140
  C      8.655130    2.608710    4.187060
  C      8.384830    1.338950    3.781720
  C      8.164640    1.029090    2.418840
  N      8.243690    1.973620    1.488640
  C      8.022430    1.374430    0.310460
  C      7.795280   -0.063060    0.484990
  C      7.556810   -0.709540   -0.810850
  O      7.343470   -1.885550   -1.030770
  C      7.643770    0.413810   -1.755930
  C      7.933640    1.668110   -1.032750
  N      8.017330    2.708550   -1.893390
  C      7.799330    2.190040   -3.080150
  C      7.556130    0.764100   -3.066570
  C      7.862590   -0.315690    1.838080
  C      7.695660   -1.591840    2.442440
  C      7.608540   -2.015970    3.786070
  C      7.459410   -3.432090    3.922560
  N      7.397200   -4.013920    5.130670
  C      7.448110   -3.224780    6.168850
  C      7.546710   -1.815630    6.054610
  C      7.563660   -0.942780    7.264370
  N      7.630690   -1.236620    4.880680
  C      7.405670   -4.104220    2.685270
  S      7.548490   -2.970360    1.390030
  C      7.250810   -5.476240    2.424330
  C      7.100660   -6.429210    3.392580
  C      6.972250   -7.795330    3.064760
  N      7.082360   -8.229210    1.806040
  C      7.004930   -9.561360    1.865630
  C      6.854770  -10.032460    3.260770
  C      6.783770  -11.506430    3.296750
  O      6.713920  -12.238360    4.260720
  C      6.846060  -11.866840    1.871460
  C      6.992490  -10.659440    1.035760
  N      7.040410  -10.987670   -0.276490
  C      6.927040  -12.295800   -0.305880
  C      6.795480  -12.907370    0.996960
  C      6.790420   -8.907910    4.030080
  C      6.575540   -8.797580    5.464400
  C      6.863930   -9.810920    6.298760
  C      6.001080   -7.606900    5.971230
  C      5.463070   -6.632540    6.442400
  C      4.853020   -5.481110    6.968380
  C      4.391120   -4.491250    6.208630
  H      9.447970    4.590960    8.229850
  H      8.985040    1.615210    8.840330
  H      9.351270    2.947160   10.049260
  H      8.708880    3.403540    3.453720
  H      8.312520    0.532470    4.495420
  H      7.814490    2.815230   -3.955910
  H      7.357380    0.155490   -3.926400
  H      7.406940   -3.702460    7.137920
  H      7.622700    0.101840    6.969390
  H      8.419140   -1.194160    7.890210
  H      6.660770   -1.102230    7.851830
  H      7.244100   -5.791160    1.389010
  H      7.086590   -6.139840    4.431810
  H      6.941390  -12.819570   -1.246170
  H      6.687050  -13.956920    1.187320
  H      7.266390  -10.740400    5.937800
  H      6.685540   -9.722750    7.356950
  H      4.775710   -5.442670    8.048850
  H      4.461270   -4.528600    5.134320
  H      3.925890   -3.619920    6.637570

 Total Charge           Charge          ....    0
 Multiplicity           Mult            ....    1
 Number of Electrons    NEL             ....  328
 Basis Dimension        Dim             ....  776

ORBITAL ENERGIES
----------------

  NO   OCC          E(Eh)            E(eV)
   0   2.0000     -88.985316     -2421.4136
   1   2.0000     -19.211970      -522.7843
   2   2.0000     -19.199635      -522.4486
   3   2.0000     -14.440322      -392.9411
   4   2.0000     -14.437192      -392.8560
   5   2.0000     -14.408546      -392.0765
   6   2.0000     -14.402501      -391.9120
   7   2.0000     -14.393993      -391.6805
   8   2.0000     -14.390400      -391.5827
   9   2.0000     -10.372837      -282.2592
  10   2.0000     -10.360487      -281.9232
  11   2.0000     -10.346582      -281.5448
  12   2.0000     -10.341860      -281.4163
  13   2.0000     -10.334009      -281.2027
  14   2.0000     -10.332997      -281.1751
  15   2.0000     -10.332790      -281.1695
  16   2.0000     -10.331386      -281.1313
  17   2.0000     -10.330152      -281.0977
  18   2.0000     -10.327612      -281.0286
  19   2.0000     -10.320826      -280.8439
  20   2.0000     -10.320546      -280.8363
  21   2.0000     -10.319913      -280.8191
  22   2.0000     -10.319599      -280.8106
  23   2.0000     -10.319122      -280.7976
  24   2.0000     -10.311710      -280.5959
  25   2.0000     -10.308337      -280.5041
  26   2.0000     -10.306666      -280.4586
  27   2.0000     -10.306433      -280.4523
  28   2.0000     -10.302279      -280.3393
  29   2.0000     -10.300613      -280.2939
  30   2.0000     -10.297026      -280.1963
  31   2.0000     -10.295083      -280.1434
  32   2.0000     -10.294061      -280.1156
  33   2.0000     -10.293292      -280.0947
  34   2.0000     -10.290312      -280.0136
  35   2.0000     -10.287060      -279.9251
  36   2.0000     -10.286135      -279.9000
  37   2.0000     -10.285773      -279.8901
  38   2.0000     -10.284428      -279.8535
  39   2.0000     -10.281373      -279.7704
  40   2.0000     -10.279409      -279.7169
  41   2.0000     -10.279183      -279.7108
  42   2.0000     -10.275070      -279.5989
  43   2.0000     -10.274420      -279.5812
  44   2.0000     -10.273509      -279.5564
  45   2.0000     -10.273185      -279.5476
  46   2.0000     -10.270344      -279.4703
  47   2.0000     -10.268023      -279.4071
  48   2.0000      -8.078992      -219.8406
  49   2.0000      -6.047811      -164.5693
  50   2.0000      -6.043514      -164.4524
  51   2.0000      -6.042172      -164.4159
  52   2.0000      -1.128051       -30.6958
  53   2.0000      -1.114233       -30.3198
  54   2.0000      -1.097519       -29.8650
  55   2.0000      -1.078441       -29.3459
  56   2.0000      -1.064240       -28.9594
  57   2.0000      -1.057024       -28.7631
  58   2.0000      -1.044057       -28.4102
  59   2.0000      -1.020628       -27.7727
  60   2.0000      -0.997182       -27.1347
  61   2.0000      -0.940707       -25.5979
  62   2.0000      -0.927376       -25.2352
  63   2.0000      -0.924524       -25.1576
  64   2.0000      -0.917542       -24.9676
  65   2.0000      -0.909941       -24.7608
  66   2.0000      -0.898207       -24.4415
  67   2.0000      -0.892738       -24.2926
  68   2.0000      -0.890804       -24.2400
  69   2.0000      -0.877567       -23.8798
  70   2.0000      -0.857821       -23.3425
  71   2.0000      -0.845053       -22.9951
  72   2.0000      -0.839613       -22.8470
  73   2.0000      -0.831602       -22.6290
  74   2.0000      -0.824325       -22.4310
  75   2.0000      -0.815956       -22.2033
  76   2.0000      -0.802925       -21.8487
  77   2.0000      -0.781604       -21.2685
  78   2.0000      -0.771011       -20.9803
  79   2.0000      -0.763278       -20.7699
  80   2.0000      -0.748957       -20.3802
  81   2.0000      -0.742333       -20.1999
  82   2.0000      -0.731832       -19.9142
  83   2.0000      -0.721665       -19.6375
  84   2.0000      -0.714390       -19.4395
  85   2.0000      -0.708167       -19.2702
  86   2.0000      -0.701431       -19.0869
  87   2.0000      -0.683268       -18.5927
  88   2.0000      -0.674287       -18.3483
  89   2.0000      -0.661141       -17.9906
  90   2.0000      -0.654976       -17.8228
  91   2.0000      -0.647999       -17.6329
  92   2.0000      -0.642841       -17.4926
  93   2.0000      -0.631904       -17.1950
  94   2.0000      -0.624758       -17.0005
  95   2.0000      -0.622664       -16.9435
  96   2.0000      -0.611899       -16.6506
  97   2.0000      -0.609438       -16.5837
  98   2.0000      -0.601329       -16.3630
  99   2.0000      -0.590279       -16.0623
 100   2.0000      -0.586445       -15.9580
 101   2.0000      -0.581488       -15.8231
 102   2.0000      -0.572340       -15.5742
 103   2.0000      -0.562509       -15.3067
 104   2.0000      -0.560180       -15.2433
 105   2.0000      -0.557594       -15.1729
 106   2.0000      -0.553218       -15.0538
 107   2.0000      -0.546352       -14.8670
 108   2.0000      -0.543504       -14.7895
 109   2.0000      -0.539129       -14.6704
 110   2.0000      -0.536609       -14.6019
 111   2.0000      -0.532558       -14.4916
 112   2.0000      -0.531731       -14.4691
 113   2.0000      -0.530704       -14.4412
 114   2.0000      -0.522611       -14.2210
 115   2.0000      -0.521311       -14.1856
 116   2.0000      -0.515633       -14.0311
 117   2.0000      -0.514322       -13.9954
 118   2.0000      -0.509874       -13.8744
 119   2.0000      -0.502469       -13.6729
 120   2.0000      -0.495146       -13.4736
 121   2.0000      -0.491722       -13.3804
 122   2.0000      -0.490367       -13.3436
 123   2.0000      -0.482647       -13.1335
 124   2.0000      -0.481057       -13.0902
 125   2.0000      -0.479565       -13.0496
 126   2.0000      -0.476680       -12.9711
 127   2.0000      -0.475270       -12.9328
 128   2.0000      -0.472926       -12.8690
 129   2.0000      -0.470262       -12.7965
 130   2.0000      -0.465675       -12.6717
 131   2.0000      -0.461135       -12.5481
 132   2.0000      -0.459404       -12.5010
 133   2.0000      -0.458508       -12.4766
 134   2.0000      -0.455025       -12.3819
 135   2.0000      -0.451521       -12.2865
 136   2.0000      -0.448333       -12.1998
 137   2.0000      -0.446004       -12.1364
 138   2.0000      -0.442534       -12.0420
 139   2.0000      -0.432891       -11.7796
 140   2.0000      -0.431330       -11.7371
 141   2.0000      -0.400580       -10.9003
 142   2.0000      -0.395334       -10.7576
 143   2.0000      -0.392615       -10.6836
 144   2.0000      -0.386594       -10.5197
 145   2.0000      -0.366172        -9.9641
 146   2.0000      -0.361094        -9.8259
 147   2.0000      -0.351629        -9.5683
 148   2.0000      -0.349078        -9.4989
 149   2.0000      -0.346814        -9.4373
 150   2.0000      -0.342397        -9.3171
 151   2.0000      -0.340910        -9.2766
 152   2.0000      -0.339425        -9.2362
 153   2.0000      -0.337624        -9.1872
 154   2.0000      -0.331452        -9.0193
 155   2.0000      -0.330339        -8.9890
 156   2.0000      -0.326327        -8.8798
 157   2.0000      -0.324379        -8.8268
 158   2.0000      -0.317612        -8.6427
 159   2.0000      -0.315060        -8.5732
 160   2.0000      -0.309517        -8.4224
 161   2.0000      -0.282134        -7.6773
 162   2.0000      -0.278741        -7.5849
 163   2.0000      -0.252430        -6.8690
 164   0.0000      -0.124507        -3.3880
 165   0.0000      -0.106839        -2.9072
 166   0.0000      -0.070438        -1.9167
 167   0.0000      -0.040888        -1.1126
 168   0.0000      -0.035559        -0.9676

MULLIKEN ATOMIC CHARGES
-----------------------
   0 C :   -0.085139
   1 C :    0.009237
   2 C :   -0.027285
   3 C :    0.083127
   4 C :   -0.019655
   5 C :   -0.017142
   6 C :   -0.003786
   7 N :   -0.038247
   8 C :    0.069927
   9 C :   -0.216419
  10 C :    0.215358
  11 O :   -0.150466
  12 C :   -0.016673
  13 C :   -0.039368
  14 N :   -0.051141
  15 C :    0.089203
  16 C :   -0.096496
  17 C :    0.134336
  18 C :   -0.255035
  19 C :    0.089807
  20 C :    0.005069
  21 N :    0.009153
  22 C :    0.047317
  23 C :   -0.124684
  24 C :    0.080194
  25 N :   -0.025811
  26 C :   -0.115840
  27 S :    0.261469
  28 C :    0.061273
  29 C :   -0.062654
  30 C :    0.041128
  31 N :   -0.046532
  32 C :    0.050775
  33 C :   -0.156018
  34 C :    0.208854
  35 O :   -0.142134
  36 C :   -0.029116
  37 C :   -0.025383
  38 N :   -0.058108
  39 C :    0.084276
  40 C :   -0.100055
  41 C :    0.068325
  42 C :   -0.086928
  43 C :    0.030662
  44 C :    0.038927
  45 C :   -0.055537
  46 C :   -0.114255
  47 C :    0.006288
  48 H :    0.039848
  49 H :    0.030266
  50 H :    0.039946
  51 H :    0.053204
  52 H :   -0.000851
  53 H :    0.007928
  54 H :   -0.006167
  55 H :    0.004087
  56 H :    0.046671
  57 H :    0.040237
  58 H :    0.036297
  59 H :    0.015438
  60 H :    0.024886
  61 H :    0.002019
  62 H :   -0.011372
  63 H :    0.040450
  64 H :    0.023247
  65 H :    0.027733
  66 H :    0.036890
  67 H :    0.024448
Sum of atomic charges:   -0.0000000

LOEWDIN ATOMIC CHARGES
----------------------
   0 C :   -0.041116
   1 C :    0.004283
   2 C :   -0.012726
   3 C :   -0.034407
   4 C :    0.038536
   5 C :   -0.033621
   6 C :    0.079068
   7 N :   -0.101819
   8 C :    0.045018
   9 C :   -0.057885
  10 C :    0.058803
  11 O :   -0.156462
  12 C :   -0.043502
  13 C :    0.016773
  14 N :   -0.096580
  15 C :    0.069638
  16 C :   -0.035916
  17 C :   -0.042804
  18 C :   -0.178642
  19 C :   -0.038556
  20 C :   -0.042421
  21 N :   -0.014825
  22 C :    0.018989
  23 C :    0.003654
  24 C :   -0.054413
  25 N :   -0.037972
  26 C :   -0.186814
  27 S :    0.590157
  28 C :    0.031307
  29 C :   -0.037066
  30 C :    0.072459
  31 N :   -0.112628
  32 C :    0.044857
  33 C :   -0.037522
  34 C :    0.066206
  35 O :   -0.145363
  36 C :   -0.045370
  37 C :    0.012312
  38 N :   -0.100101
  39 C :    0.063453
  40 C :   -0.044630
  41 C :   -0.013862
  42 C :   -0.055862
  43 C :    0.031815
  44 C :   -0.028579
  45 C :   -0.035659
  46 C :   -0.044574
  47 C :   -0.015095
  48 H :    0.046795
  49 H :    0.028563
  50 H :    0.031190
  51 H :    0.052359
  52 H :    0.024291
  53 H :    0.022943
  54 H :    0.034178
  55 H :    0.026350
  56 H :    0.041648
  57 H :    0.041775
  58 H :    0.042111
  59 H :    0.042601
  60 H :    0.036404
  61 H :    0.020542
  62 H :    0.031618
  63 H :    0.030184
  64 H :    0.030645
  65 H :    0.040784
  66 H :    0.029659
  67 H :    0.024824

  Mayer bond orders larger than 0.100000
B(  0-C ,  1-C ) :   1.9196 B(  0-C ,  2-C ) :   1.0147 B(  0-C , 48-H ) :   0.9630
B(  1-C , 49-H ) :   0.9627 B(  1-C , 50-H ) :   0.9560 B(  2-C ,  3-C ) :   2.2801
B(  3-C ,  4-C ) :   0.9446 B(  4-C ,  5-C ) :   1.6413 B(  4-C , 51-H ) :   0.9628
B(  5-C ,  6-C ) :   1.1924 B(  5-C , 52-H ) :   0.9278 B(  6-C ,  7-N ) :   1.5837
B(  6-C ,  8-C ) :   0.1033 B(  6-C , 17-C ) :   0.9856 B(  7-N ,  8-C ) :   1.3748
B(  8-C ,  9-C ) :   1.0644 B(  8-C , 13-C ) :   1.3974 B(  9-C , 10-C ) :   0.8898
B(  9-C , 17-C ) :   1.5388 B( 10-C , 11-O ) :   2.2082 B( 10-C , 12-C ) :   0.9302
B( 12-C , 13-C ) :   1.0786 B( 12-C , 16-C ) :   1.5922 B( 13-C , 14-N ) :   1.3285
B( 14-N , 15-C ) :   1.6387 B( 15-C , 16-C ) :   1.0816 B( 15-C , 53-H ) :   0.9897
B( 16-C , 54-H ) :   1.0111 B( 17-C , 18-C ) :   1.1529 B( 18-C , 19-C ) :   1.2858
B( 18-C , 26-C ) :   0.1399 B( 18-C , 27-S ) :   1.2193 B( 19-C , 20-C ) :   1.2360
B( 19-C , 25-N ) :   1.3986 B( 20-C , 21-N ) :   1.4234 B( 20-C , 26-C ) :   1.2792
B( 21-N , 22-C ) :   1.6752 B( 22-C , 23-C ) :   1.1737 B( 22-C , 55-H ) :   0.9807
B( 23-C , 24-C ) :   1.0460 B( 23-C , 25-N ) :   1.6501 B( 24-C , 56-H ) :   0.9553
B( 24-C , 57-H ) :   0.9524 B( 24-C , 58-H ) :   0.9498 B( 25-N , 52-H ) :   0.1085
B( 26-C , 27-S ) :   1.1472 B( 26-C , 28-C ) :   1.1587 B( 28-C , 29-C ) :   1.5801
B( 28-C , 59-H ) :   0.9639 B( 29-C , 30-C ) :   1.1713 B( 29-C , 60-H ) :   0.9453
B( 30-C , 31-N ) :   1.5440 B( 30-C , 32-C ) :   0.1074 B( 30-C , 41-C ) :   1.0078
B( 31-N , 32-C ) :   1.4045 B( 32-C , 33-C ) :   1.0411 B( 32-C , 37-C ) :   1.3801
B( 33-C , 34-C ) :   0.8774 B( 33-C , 41-C ) :   1.6389 B( 34-C , 35-O ) :   2.2289
B( 34-C , 36-C ) :   0.9285 B( 36-C , 37-C ) :   1.0717 B( 36-C , 40-C ) :   1.5763
B( 37-C , 38-N ) :   1.3313 B( 38-N , 39-C ) :   1.6358 B( 39-C , 40-C ) :   1.0943
B( 39-C , 61-H ) :   0.9894 B( 40-C , 62-H ) :   1.0120 B( 41-C , 42-C ) :   1.0290
B( 42-C , 43-C ) :   1.9407 B( 42-C , 44-C ) :   0.8726 B( 43-C , 63-H ) :   0.9198
B( 43-C , 64-H ) :   0.9393 B( 44-C , 45-C ) :   2.3601 B( 45-C , 46-C ) :   1.0107
B( 46-C , 47-C ) :   1.9390 B( 46-C , 65-H ) :   0.9586 B( 47-C , 66-H ) :   0.9599
B( 47-C , 67-H ) :   0.9537

-----------------------------------------------------------------------------
         ABSORPTION SPECTRUM VIA TRANSITION ELECTRIC DIPOLE MOMENTS
-----------------------------------------------------------------------------
State   Energy  Wavelength   fosc         T2         TX        TY        TZ
        (cm-1)    (nm)                  (au**2)     (au)      (au)      (au)
-----------------------------------------------------------------------------
   0   13437.7    744.2   0.498512247  12.21312   0.29948   3.42102  -0.64811
   1   16522.3    605.2   0.743578668  14.81606  -0.35561  -3.77745  -0.64844
   2   17863.2    559.8   0.005950965   0.10967   0.09575   0.06069  -0.31116
   3   19837.2    504.1   0.652549627  10.82949   0.44770   0.55433   3.21275
   4   20969.6    476.9   0.000825085   0.01295  -0.01310  -0.02897   0.10928
   5   21672.6    461.4   0.000559453   0.00850  -0.08130   0.03872  -0.01972
   6   22907.2    436.5   0.033370055   0.47958  -0.12297  -0.20296   0.65059
   7   23640.3    423.0   0.015322734   0.21338   0.09457   0.17041   0.41881
   8   24202.0    413.2   0.037803334   0.51423   0.03830   0.71583   0.01854
   9   24624.9    406.1   0.239461832   3.20138   0.29759   0.32595   1.73395
  10   24883.5    401.9   0.001391455   0.01841   0.01072   0.01536  -0.13438
  11   25017.8    399.7   0.004416179   0.05811   0.06585   0.08758   0.21473
  12   25162.7    397.4   0.015036145   0.19672  -0.10619  -0.21065  -0.37560
  13   25730.3    388.6   0.004481963   0.05735   0.20282  -0.12575   0.01987
  14   26140.7    382.5   0.041012031   0.51650  -0.11970  -0.68893   0.16598
  15   26241.7    381.1   0.026554572   0.33314  -0.11245   0.46959   0.31620
  16   26541.1    376.8   0.144668074   1.79444  -0.16843  -1.00737  -0.86676
  17   27320.2    366.0   0.004827009   0.05817  -0.14229  -0.19473  -0.00078
  18   28488.4    351.0   0.338871364   3.91600  -0.07014   0.13620  -1.97295
  19   28716.5    348.2   0.030624455   0.35108   0.06126  -0.33837   0.48253
  20   28987.5    345.0   0.002880741   0.03272   0.05114  -0.02421  -0.17180
  21   29401.0    340.1   0.182102952   2.03906   0.00467  -0.14859  -1.42020
  22   30095.1    332.3   0.001585261   0.01734  -0.10895   0.00596  -0.07372
  23   30327.9    329.7   0.027356002   0.29695  -0.10700   0.14813  -0.51338
  24   30662.4    326.1   0.104737946   1.12454   0.13568   1.00166  -0.32063
  25   31204.3    320.5   0.012203663   0.12875  -0.02189   0.35768   0.01837
  26   31368.1    318.8   0.015285930   0.16043   0.15152   0.36295  -0.07576
  27   32233.5    310.2   0.004205109   0.04295   0.03082   0.18238  -0.09347
  28   32421.6    308.4   0.029463766   0.29918   0.06157   0.53838  -0.07437
  29   32811.9    304.8   0.039774232   0.39907  -0.08359  -0.11938  -0.61468
  30   32960.9    303.4   0.074416188   0.74327   0.12063   0.79962  -0.29887
  31   33137.0    301.8   0.018887836   0.18765  -0.01354   0.39546  -0.17627
  32   33443.7    299.0   0.054169642   0.53323  -0.02158  -0.55667   0.47211
  33   34350.1    291.1   0.223136977   2.13855   0.12149   0.55866   1.34599
  34   34427.3    290.5   0.001373452   0.01313  -0.05410   0.09266   0.04025
  35   34569.3    289.3   0.130064849   1.23864   0.00278   0.50070   0.99395
  36   34779.0    287.5   0.015894767   0.15046   0.05794  -0.07941   0.37523
  37   35078.5    285.1   0.032035071   0.30065  -0.05108  -0.18371   0.51409
  38   35110.3    284.8   0.104847847   0.98311  -0.18966  -0.01449  -0.97310
  39   35880.1    278.7   0.130819153   1.20031   0.09891   0.54664   0.94430
  40   36007.4    277.7   0.067227999   0.61466   0.25050   0.48997   0.55842
  41   36119.9    276.9   0.009729631   0.08868  -0.01756   0.09088   0.28304
  42   36670.5    272.7   0.009864856   0.08856   0.05469   0.15387   0.24879
  43   36972.1    270.5   0.018284709   0.16281  -0.03547  -0.36144  -0.17583
  44   37262.0    268.4   0.000995844   0.00880   0.09162   0.01109   0.01674
  45   37483.1    266.8   0.092343497   0.81105  -0.00654   0.53615   0.72357
  46   37792.0    264.6   0.029880586   0.26029  -0.06775   0.04970  -0.50322
  47   37908.7    263.8   0.020604807   0.17894   0.04758  -0.18975  -0.37506
  48   38006.7    263.1   0.012332747   0.10683  -0.05827   0.12432   0.29660
  49   38046.2    262.8   0.024339023   0.21060  -0.01129  -0.18347  -0.42050
  50   39197.9    255.1   0.011717724   0.09841  -0.02192   0.15793   0.27017
  51   39304.8    254.4   0.081332172   0.68123  -0.08779   0.59680   0.56334
  52   39468.3    253.4   0.003749429   0.03127  -0.00929  -0.06689  -0.16345
  53   39551.2    252.8   0.065572399   0.54580   0.01289   0.43963   0.59360
  54   39942.4    250.4   0.000276544   0.00228   0.00170  -0.04752  -0.00427
  55   40180.2    248.9   0.081594773   0.66854   0.08804   0.43163   0.68883

FINAL SINGLE POINT ENERGY     -2372.351914879972

DIPOLE MOMENT
-------------
                                X             Y             Z
Electronic contribution:      2.31252      -9.92256     -32.23893
Nuclear contribution   :     -2.19428      11.89297      34.66233
                        -----------------------------------------
Total Dipole Moment    :      0.11824       1.97040       2.42340
                        -----------------------------------------
Magnitude (a.u.)       :      3.12559
Magnitude (Debye)      :      7.94463

Rotational constants in cm-1:     0.002839     0.001015     0.000768
Rotational constants in MHz :    85.111781    30.430736    23.037397

                             ****ORCA TERMINATED NORMALLY****
TOTAL RUN TIME: 0 days 0 hours 5 minutes 8 seconds 417 msec
