                         Program Version 4.2.0 -  RELEASE  -
|  1> # ORCA input file
|  2> # SCF done       -155.398131184720          0.000583323631
|  3> ! CAM-B3LYP def2-SVP def2/J RIJCOSX Grid4 TightSCF
|  4> %maxcore 5000
|  5> %tddft
|  6>     Mode sTDDFT
|  7>     Ethresh 5.0
|  8>     maxcore 5000
|  9> end
| 10>
| 11> %pal
| 12>   nprocs 6
| 13>   end
| 14> * xyz 0 1
| 15>    C       -6.23403        -0.20526        -1.70403
| 16>    S       -5.90914        -1.79010        -2.22398
| 17>    C       -4.77368        -2.08335        -0.93783
| 18>    C       -4.66933        -0.94205        -0.12411
| 19>    C       -5.51119         0.13237        -0.57973
| 20>    C       -5.52572         1.36781         0.10346
| 21>    C       -4.72177         1.54055         1.19925
| 22>    C       -4.71609         2.77098         1.89808
| 23>    N       -4.72221         3.77153         2.45553
| 24>    C       -3.86299         0.48284         1.64017
| 25>    C       -3.03041         0.68603         2.76403
| 26>    N       -2.35148         0.82163         3.67726
| 27>    C       -3.83820        -0.72756         0.98834
| 28>    C       -4.12789        -3.33569        -0.79306
| 29>    S       -3.56964        -3.87445         0.76109
| 30>    C       -2.94576        -5.37126         0.14588
| 31>    C       -3.19434        -5.46925        -1.23242
| 32>    C       -3.86332        -4.31739        -1.76460
| 33>    C       -4.13224        -4.25617        -3.14309
| 34>    C       -3.80971        -5.31749        -3.95465
| 35>    C       -4.08355        -5.25074        -5.34070
| 36>    N       -4.31576        -5.17689        -6.46000
| 37>    C       -3.20578        -6.49059        -3.41012
| 38>    C       -2.92234        -7.58645        -4.25803
| 39>    N       -2.69162        -8.48260        -4.93309
| 40>    C       -2.89498        -6.55445        -2.07288
| 41>    C       -2.24100        -6.23100         1.01416
| 42>    S       -1.07717        -7.42896         0.42726
| 43>    C       -0.60404        -7.86636         2.02997
| 44>    C       -1.29376        -7.16377         2.95492
| 45>    C       -2.23495        -6.23619         2.39872
| 46>    C       -2.94903        -5.62649         3.46638
| 47>    C       -2.48654        -6.10366         4.67420
| 48>    C       -1.37700        -7.08453         4.42767
| 49>    O       -0.71123        -7.68029         5.24102
| 50>    C       -3.00690        -5.78957         5.95041
| 51>    C       -2.43272        -6.17766         7.12387
| 52>    C       -2.99316        -5.96997         8.39624
| 53>    S       -4.62452        -5.42382         8.61214
| 54>    C       -4.54937        -5.52940        10.34476
| 55>    C       -3.26901        -5.95162        10.75059
| 56>    C       -2.39493        -6.21028         9.64624
| 57>    C       -1.07877        -6.64238         9.87251
| 58>    C       -0.63622        -6.82927        11.16120
| 59>    C        0.69122        -7.25038        11.40712
| 60>    N        1.76954        -7.58878        11.59431
| 61>    C       -1.51633        -6.60842        12.26320
| 62>    C       -1.05467        -6.83342        13.58105
| 63>    N       -0.70231        -7.00957        14.65679
| 64>    C       -2.80771        -6.18218        12.05787
| 65>    C       -5.66919        -5.18720        11.14043
| 66>    S       -5.48078        -4.60413        12.76957
| 67>    C       -7.15338        -4.39272        12.98816
| 68>    C       -7.87413        -4.75306        11.86978
| 69>    C       -7.03169        -5.20877        10.79585
| 70>    C       -7.63034        -5.66193         9.60847
| 71>    C       -8.99870        -5.63388         9.47595
| 72>    C       -9.59194        -6.09316         8.27851
| 73>    N      -10.04788        -6.46577         7.29519
| 74>    C       -9.83201        -5.14925        10.53506
| 75>    C      -11.23558        -5.13276        10.35692
| 76>    N      -12.37349        -5.11426        10.22663
| 77>    C       -9.27696        -4.72324        11.71296
| 78>    H       -6.92978         0.40398        -2.24521
| 79>    H       -6.16301         2.16613        -0.24501
| 80>    H       -3.16487        -1.49527         1.33558
| 81>    H       -4.58366        -3.38020        -3.58037
| 82>    H       -2.43312        -7.44389        -1.67525
| 83>    H        0.14432        -8.62180         2.16795
| 84>    H       -3.74407        -4.91062         3.35305
| 85>    H       -3.92390        -5.21024         5.97354
| 86>    H       -1.48510        -6.69512         7.08989
| 87>    H       -0.41357        -6.82713         9.04335
| 88>    H       -3.45432        -6.03835        12.90870
| 89>    H       -7.52893        -4.02341        13.92125
| 90>    H       -7.03302        -6.04909         8.79822
| 91>    H       -9.89998        -4.37371        12.52209
| 92> *
| 93>
| 94>                          ****END OF INPUT****

CARTESIAN COORDINATES (ANGSTROEM)
---------------------------------
  C     -6.234030   -0.205260   -1.704030
  S     -5.909140   -1.790100   -2.223980
  C     -4.773680   -2.083350   -0.937830
  C     -4.669330   -0.942050   -0.124110
  C     -5.511190    0.132370   -0.579730
  C     -5.525720    1.367810    0.103460
  C     -4.721770    1.540550    1.199250
  C     -4.716090    2.770980    1.898080
  N     -4.722210    3.771530    2.455530
  C     -3.862990    0.482840    1.640170
  C     -3.030410    0.686030    2.764030
  N     -2.351480    0.821630    3.677260
  C     -3.838200   -0.727560    0.988340
  C     -4.127890   -3.335690   -0.793060
  S     -3.569640   -3.874450    0.761090
  C     -2.945760   -5.371260    0.145880
  C     -3.194340   -5.469250   -1.232420
  C     -3.863320   -4.317390   -1.764600
  C     -4.132240   -4.256170   -3.143090
  C     -3.809710   -5.317490   -3.954650
  C     -4.083550   -5.250740   -5.340700
  N     -4.315760   -5.176890   -6.460000
  C     -3.205780   -6.490590   -3.410120
  C     -2.922340   -7.586450   -4.258030
  N     -2.691620   -8.482600   -4.933090
  C     -2.894980   -6.554450   -2.072880
  C     -2.241000   -6.231000    1.014160
  S     -1.077170   -7.428960    0.427260
  C     -0.604040   -7.866360    2.029970
  C     -1.293760   -7.163770    2.954920
  C     -2.234950   -6.236190    2.398720
  C     -2.949030   -5.626490    3.466380
  C     -2.486540   -6.103660    4.674200
  C     -1.377000   -7.084530    4.427670
  O     -0.711230   -7.680290    5.241020
  C     -3.006900   -5.789570    5.950410
  C     -2.432720   -6.177660    7.123870
  C     -2.993160   -5.969970    8.396240
  S     -4.624520   -5.423820    8.612140
  C     -4.549370   -5.529400   10.344760
  C     -3.269010   -5.951620   10.750590
  C     -2.394930   -6.210280    9.646240
  C     -1.078770   -6.642380    9.872510
  C     -0.636220   -6.829270   11.161200
  C      0.691220   -7.250380   11.407120
  N      1.769540   -7.588780   11.594310
  C     -1.516330   -6.608420   12.263200
  C     -1.054670   -6.833420   13.581050
  N     -0.702310   -7.009570   14.656790
  C     -2.807710   -6.182180   12.057870
  C     -5.669190   -5.187200   11.140430
  S     -5.480780   -4.604130   12.769570
  C     -7.153380   -4.392720   12.988160
  C     -7.874130   -4.753060   11.869780
  C     -7.031690   -5.208770   10.795850
  C     -7.630340   -5.661930    9.608470
  C     -8.998700   -5.633880    9.475950
  C     -9.591940   -6.093160    8.278510
  N    -10.047880   -6.465770    7.295190
  C     -9.832010   -5.149250   10.535060
  C    -11.235580   -5.132760   10.356920
  N    -12.373490   -5.114260   10.226630
  C     -9.276960   -4.723240   11.712960
  H     -6.929780    0.403980   -2.245210
  H     -6.163010    2.166130   -0.245010
  H     -3.164870   -1.495270    1.335580
  H     -4.583660   -3.380200   -3.580370
  H     -2.433120   -7.443890   -1.675250
  H      0.144320   -8.621800    2.167950
  H     -3.744070   -4.910620    3.353050
  H     -3.923900   -5.210240    5.973540
  H     -1.485100   -6.695120    7.089890
  H     -0.413570   -6.827130    9.043350
  H     -3.454320   -6.038350   12.908700
  H     -7.528930   -4.023410   13.921250
  H     -7.033020   -6.049090    8.798220
  H     -9.899980   -4.373710   12.522090

 Total Charge           Charge          ....    0
 Multiplicity           Mult            ....    1
 Number of Electrons    NEL             ....  452
 Basis Dimension        Dim             ....  972

ORBITAL ENERGIES
----------------

  NO   OCC          E(Eh)            E(eV)
   0   2.0000     -89.017557     -2422.2909
   1   2.0000     -89.017458     -2422.2882
   2   2.0000     -89.012103     -2422.1425
   3   2.0000     -89.007198     -2422.0090
   4   2.0000     -88.995083     -2421.6793
   5   2.0000     -19.243977      -523.6552
   6   2.0000     -14.425989      -392.5511
   7   2.0000     -14.425387      -392.5347
   8   2.0000     -14.424297      -392.5051
   9   2.0000     -14.424284      -392.5047
  10   2.0000     -14.421727      -392.4352
  11   2.0000     -14.420487      -392.4014
  12   2.0000     -14.419804      -392.3828
  13   2.0000     -14.418078      -392.3359
  14   2.0000     -10.392125      -282.7841
  15   2.0000     -10.361140      -281.9410
  16   2.0000     -10.359019      -281.8832
  17   2.0000     -10.358595      -281.8717
  18   2.0000     -10.354529      -281.7611
  19   2.0000     -10.353635      -281.7367
  20   2.0000     -10.352920      -281.7173
  21   2.0000     -10.351906      -281.6897
  22   2.0000     -10.351486      -281.6782
  23   2.0000     -10.351026      -281.6657
  24   2.0000     -10.350396      -281.6486
  25   2.0000     -10.346339      -281.5382
  26   2.0000     -10.345877      -281.5256
  27   2.0000     -10.345442      -281.5138
  28   2.0000     -10.344150      -281.4786
  29   2.0000     -10.343256      -281.4543
  30   2.0000     -10.342832      -281.4428
  31   2.0000     -10.342694      -281.4390
  32   2.0000     -10.337426      -281.2957
  33   2.0000     -10.335750      -281.2500
  34   2.0000     -10.334724      -281.2221
  35   2.0000     -10.334625      -281.2194
  36   2.0000     -10.334520      -281.2166
  37   2.0000     -10.334376      -281.2127
  38   2.0000     -10.333973      -281.2017
  39   2.0000     -10.333622      -281.1921
  40   2.0000     -10.330671      -281.1118
  41   2.0000     -10.329803      -281.0882
  42   2.0000     -10.329443      -281.0784
  43   2.0000     -10.328323      -281.0480
  44   2.0000     -10.328267      -281.0464
  45   2.0000     -10.327956      -281.0380
  46   2.0000     -10.327472      -281.0248
  47   2.0000     -10.325737      -280.9776
  48   2.0000     -10.325717      -280.9771
  49   2.0000     -10.325205      -280.9631
  50   2.0000     -10.324068      -280.9322
  51   2.0000     -10.323178      -280.9080
  52   2.0000     -10.322262      -280.8830
  53   2.0000     -10.322060      -280.8775
  54   2.0000     -10.320037      -280.8225
  55   2.0000     -10.319276      -280.8018
  56   2.0000     -10.318610      -280.7837
  57   2.0000     -10.317785      -280.7612
  58   2.0000     -10.316055      -280.7141
  59   2.0000     -10.316011      -280.7129
  60   2.0000     -10.312338      -280.6130
  61   2.0000     -10.311262      -280.5837
  62   2.0000     -10.305384      -280.4238
  63   2.0000      -8.112162      -220.7432
  64   2.0000      -8.111739      -220.7316
  65   2.0000      -8.106849      -220.5986
  66   2.0000      -8.101697      -220.4584
  67   2.0000      -8.090230      -220.1464
  68   2.0000      -6.081151      -165.4765
  69   2.0000      -6.080915      -165.4701
  70   2.0000      -6.076622      -165.3533
  71   2.0000      -6.076575      -165.3520
  72   2.0000      -6.075811      -165.3312
  73   2.0000      -6.075404      -165.3202
  74   2.0000      -6.074473      -165.2948
  75   2.0000      -6.071331      -165.2093
  76   2.0000      -6.070704      -165.1923
  77   2.0000      -6.070077      -165.1752
  78   2.0000      -6.066507      -165.0781
  79   2.0000      -6.064573      -165.0254
  80   2.0000      -6.060002      -164.9010
  81   2.0000      -6.055255      -164.7719
  82   2.0000      -6.051980      -164.6827
  83   2.0000      -1.157028       -31.4843
  84   2.0000      -1.057251       -28.7693
  85   2.0000      -1.049022       -28.5454
  86   2.0000      -1.042859       -28.3776
  87   2.0000      -1.034408       -28.1477
  88   2.0000      -1.030163       -28.0322
  89   2.0000      -1.021069       -27.7847
  90   2.0000      -1.016234       -27.6531
  91   2.0000      -1.015649       -27.6372
  92   2.0000      -1.011446       -27.5228
  93   2.0000      -1.005410       -27.3586
  94   2.0000      -1.005081       -27.3496
  95   2.0000      -1.001445       -27.2507
  96   2.0000      -0.999180       -27.1891
  97   2.0000      -0.982414       -26.7328
  98   2.0000      -0.980590       -26.6832
  99   2.0000      -0.976784       -26.5796
 100   2.0000      -0.975810       -26.5531
 101   2.0000      -0.968559       -26.3558
 102   2.0000      -0.938866       -25.5479
 103   2.0000      -0.934703       -25.4346
 104   2.0000      -0.915447       -24.9106
 105   2.0000      -0.912442       -24.8288
 106   2.0000      -0.903175       -24.5766
 107   2.0000      -0.899798       -24.4848
 108   2.0000      -0.894799       -24.3487
 109   2.0000      -0.892496       -24.2861
 110   2.0000      -0.889445       -24.2030
 111   2.0000      -0.885617       -24.0989
 112   2.0000      -0.871957       -23.7272
 113   2.0000      -0.865144       -23.5418
 114   2.0000      -0.844311       -22.9749
 115   2.0000      -0.827198       -22.5092
 116   2.0000      -0.814625       -22.1671
 117   2.0000      -0.786846       -21.4112
 118   2.0000      -0.782285       -21.2870
 119   2.0000      -0.778419       -21.1819
 120   2.0000      -0.777155       -21.1475
 121   2.0000      -0.774928       -21.0869
 122   2.0000      -0.769962       -20.9517
 123   2.0000      -0.764609       -20.8061
 124   2.0000      -0.759711       -20.6728
 125   2.0000      -0.754004       -20.5175
 126   2.0000      -0.738032       -20.0829
 127   2.0000      -0.732418       -19.9301
 128   2.0000      -0.709792       -19.3144
 129   2.0000      -0.703848       -19.1527
 130   2.0000      -0.700976       -19.0745
 131   2.0000      -0.691372       -18.8132
 132   2.0000      -0.674478       -18.3535
 133   2.0000      -0.672232       -18.2924
 134   2.0000      -0.667183       -18.1550
 135   2.0000      -0.649577       -17.6759
 136   2.0000      -0.646246       -17.5852
 137   2.0000      -0.642212       -17.4755
 138   2.0000      -0.636601       -17.3228
 139   2.0000      -0.633213       -17.2306
 140   2.0000      -0.630322       -17.1519
 141   2.0000      -0.627729       -17.0814
 142   2.0000      -0.625440       -17.0191
 143   2.0000      -0.619357       -16.8536
 144   2.0000      -0.613823       -16.7030
 145   2.0000      -0.603866       -16.4320
 146   2.0000      -0.594923       -16.1887
 147   2.0000      -0.582559       -15.8522
 148   2.0000      -0.579126       -15.7588
 149   2.0000      -0.577122       -15.7043
 150   2.0000      -0.574934       -15.6447
 151   2.0000      -0.571208       -15.5434
 152   2.0000      -0.568415       -15.4674
 153   2.0000      -0.563436       -15.3319
 154   2.0000      -0.560603       -15.2548
 155   2.0000      -0.559841       -15.2341
 156   2.0000      -0.552530       -15.0351
 157   2.0000      -0.550408       -14.9774
 158   2.0000      -0.549948       -14.9649
 159   2.0000      -0.545072       -14.8322
 160   2.0000      -0.542045       -14.7498
 161   2.0000      -0.539281       -14.6746
 162   2.0000      -0.536622       -14.6022
 163   2.0000      -0.535980       -14.5848
 164   2.0000      -0.528034       -14.3685
 165   2.0000      -0.525730       -14.3058
 166   2.0000      -0.520607       -14.1664
 167   2.0000      -0.516380       -14.0514
 168   2.0000      -0.514786       -14.0080
 169   2.0000      -0.510411       -13.8890
 170   2.0000      -0.506360       -13.7787
 171   2.0000      -0.504840       -13.7374
 172   2.0000      -0.499817       -13.6007
 173   2.0000      -0.496018       -13.4973
 174   2.0000      -0.493590       -13.4313
 175   2.0000      -0.489354       -13.3160
 176   2.0000      -0.485307       -13.2059
 177   2.0000      -0.483690       -13.1619
 178   2.0000      -0.481370       -13.0988
 179   2.0000      -0.475079       -12.9276
 180   2.0000      -0.467956       -12.7337
 181   2.0000      -0.466571       -12.6960
 182   2.0000      -0.462508       -12.5855
 183   2.0000      -0.461580       -12.5602
 184   2.0000      -0.460127       -12.5207
 185   2.0000      -0.457943       -12.4613
 186   2.0000      -0.456438       -12.4203
 187   2.0000      -0.454045       -12.3552
 188   2.0000      -0.452639       -12.3169
 189   2.0000      -0.452049       -12.3009
 190   2.0000      -0.451325       -12.2812
 191   2.0000      -0.450461       -12.2577
 192   2.0000      -0.449682       -12.2365
 193   2.0000      -0.448637       -12.2080
 194   2.0000      -0.446915       -12.1612
 195   2.0000      -0.446068       -12.1381
 196   2.0000      -0.445148       -12.1131
 197   2.0000      -0.443653       -12.0724
 198   2.0000      -0.432958       -11.7814
 199   2.0000      -0.431087       -11.7305
 200   2.0000      -0.430261       -11.7080
 201   2.0000      -0.428588       -11.6625
 202   2.0000      -0.426859       -11.6154
 203   2.0000      -0.426568       -11.6075
 204   2.0000      -0.426065       -11.5938
 205   2.0000      -0.425473       -11.5777
 206   2.0000      -0.424619       -11.5545
 207   2.0000      -0.422727       -11.5030
 208   2.0000      -0.421098       -11.4587
 209   2.0000      -0.420353       -11.4384
 210   2.0000      -0.420109       -11.4318
 211   2.0000      -0.416966       -11.3462
 212   2.0000      -0.392684       -10.6855
 213   2.0000      -0.390013       -10.6128
 214   2.0000      -0.376876       -10.2553
 215   2.0000      -0.361110        -9.8263
 216   2.0000      -0.357338        -9.7237
 217   2.0000      -0.355125        -9.6634
 218   2.0000      -0.353564        -9.6210
 219   2.0000      -0.349378        -9.5071
 220   2.0000      -0.348171        -9.4742
 221   2.0000      -0.337740        -9.1904
 222   2.0000      -0.329539        -8.9672
 223   2.0000      -0.311596        -8.4790
 224   2.0000      -0.276250        -7.5172
 225   2.0000      -0.252970        -6.8837
 226   0.0000      -0.128109        -3.4860
 227   0.0000      -0.107140        -2.9154
 228   0.0000      -0.084150        -2.2898
 229   0.0000      -0.073014        -1.9868
 230   0.0000      -0.067322        -1.8319

MULLIKEN ATOMIC CHARGES
-----------------------
   0 C :   -0.110418
   1 S :    0.199540
   2 C :   -0.149213
   3 C :    0.138457
   4 C :    0.094853
   5 C :   -0.010093
   6 C :   -0.072802
   7 C :   -0.174199
   8 N :    0.180048
   9 C :   -0.065518
  10 C :   -0.179247
  11 N :    0.175354
  12 C :   -0.055831
  13 C :   -0.109055
  14 S :    0.170579
  15 C :   -0.107808
  16 C :    0.105514
  17 C :    0.122765
  18 C :   -0.062703
  19 C :   -0.065739
  20 C :   -0.181868
  21 N :    0.183099
  22 C :   -0.068085
  23 C :   -0.179444
  24 N :    0.185595
  25 C :   -0.054250
  26 C :   -0.123853
  27 S :    0.130643
  28 C :   -0.105887
  29 C :    0.023304
  30 C :    0.083035
  31 C :   -0.024892
  32 C :   -0.007785
  33 C :    0.168864
  34 O :   -0.127162
  35 C :   -0.037712
  36 C :   -0.003014
  37 C :   -0.077064
  38 S :    0.173420
  39 C :   -0.114632
  40 C :    0.127576
  41 C :    0.122233
  42 C :   -0.046202
  43 C :   -0.068707
  44 C :   -0.177589
  45 N :    0.182427
  46 C :   -0.072440
  47 C :   -0.179541
  48 N :    0.181657
  49 C :   -0.062244
  50 C :   -0.150814
  51 S :    0.197966
  52 C :   -0.112364
  53 C :    0.095509
  54 C :    0.136749
  55 C :   -0.051228
  56 C :   -0.073863
  57 C :   -0.177582
  58 N :    0.176250
  59 C :   -0.069689
  60 C :   -0.175468
  61 N :    0.175376
  62 C :   -0.009793
  63 H :    0.041821
  64 H :    0.001371
  65 H :    0.000827
  66 H :    0.001637
  67 H :    0.006896
  68 H :    0.048914
  69 H :   -0.002299
  70 H :   -0.011396
  71 H :    0.028315
  72 H :    0.007980
  73 H :    0.000457
  74 H :    0.039634
  75 H :    0.001423
  76 H :   -0.000590
Sum of atomic charges:   -0.0000000

LOEWDIN ATOMIC CHARGES
----------------------
   0 C :   -0.176395
   1 S :    0.537221
   2 C :   -0.193735
   3 C :   -0.046848
   4 C :   -0.048299
   5 C :    0.040283
   6 C :   -0.052915
   7 C :   -0.033372
   8 N :   -0.027536
   9 C :   -0.049203
  10 C :   -0.033556
  11 N :   -0.031313
  12 C :    0.017127
  13 C :   -0.184517
  14 S :    0.524500
  15 C :   -0.178783
  16 C :   -0.043614
  17 C :   -0.043879
  18 C :    0.019679
  19 C :   -0.046743
  20 C :   -0.033416
  21 N :   -0.026742
  22 C :   -0.048641
  23 C :   -0.033488
  24 N :   -0.025852
  25 C :    0.026496
  26 C :   -0.180157
  27 S :    0.448062
  28 C :   -0.113666
  29 C :   -0.093495
  30 C :   -0.056128
  31 C :    0.010714
  32 C :   -0.050328
  33 C :    0.095834
  34 O :   -0.116214
  35 C :   -0.024625
  36 C :   -0.023465
  37 C :   -0.163424
  38 S :    0.514632
  39 C :   -0.183118
  40 C :   -0.045195
  41 C :   -0.036982
  42 C :    0.039202
  43 C :   -0.050824
  44 C :   -0.033216
  45 N :   -0.028205
  46 C :   -0.047409
  47 C :   -0.032953
  48 N :   -0.029755
  49 C :    0.018232
  50 C :   -0.191733
  51 S :    0.535333
  52 C :   -0.178647
  53 C :   -0.048376
  54 C :   -0.047368
  55 C :    0.019885
  56 C :   -0.051543
  57 C :   -0.033076
  58 N :   -0.034162
  59 C :   -0.053342
  60 C :   -0.032791
  61 N :   -0.029991
  62 C :    0.039254
  63 H :    0.034961
  64 H :    0.048105
  65 H :    0.026688
  66 H :    0.027217
  67 H :    0.030903
  68 H :    0.040752
  69 H :    0.024203
  70 H :    0.025247
  71 H :    0.040062
  72 H :    0.048695
  73 H :    0.026817
  74 H :    0.034060
  75 H :    0.027491
  76 H :    0.047378

  Mayer bond orders larger than 0.100000
B(  0-C ,  1-S ) :   1.2138 B(  0-C ,  2-C ) :   0.1095 B(  0-C ,  4-C ) :   1.4059
B(  0-C , 63-H ) :   0.9704 B(  1-S ,  2-C ) :   1.1871 B(  2-C ,  3-C ) :   1.3283
B(  2-C , 13-C ) :   1.1607 B(  3-C ,  4-C ) :   1.1907 B(  3-C , 12-C ) :   1.1820
B(  4-C ,  5-C ) :   1.1587 B(  5-C ,  6-C ) :   1.5746 B(  5-C , 64-H ) :   1.0070
B(  6-C ,  7-C ) :   1.0755 B(  6-C ,  9-C ) :   1.2299 B(  7-C ,  8-N ) :   3.0477
B(  9-C , 10-C ) :   1.0821 B(  9-C , 12-C ) :   1.5897 B( 10-C , 11-N ) :   3.0422
B( 12-C , 65-H ) :   0.9767 B( 13-C , 14-S ) :   1.1622 B( 13-C , 15-C ) :   0.1114
B( 13-C , 17-C ) :   1.3330 B( 14-S , 15-C ) :   1.1633 B( 15-C , 16-C ) :   1.3249
B( 15-C , 26-C ) :   1.1872 B( 16-C , 17-C ) :   1.1949 B( 16-C , 25-C ) :   1.1908
B( 17-C , 18-C ) :   1.1803 B( 18-C , 19-C ) :   1.5888 B( 18-C , 66-H ) :   0.9760
B( 19-C , 20-C ) :   1.0780 B( 19-C , 22-C ) :   1.2456 B( 20-C , 21-N ) :   3.0451
B( 22-C , 23-C ) :   1.0776 B( 22-C , 25-C ) :   1.5763 B( 23-C , 24-N ) :   3.0445
B( 25-C , 67-H ) :   0.9788 B( 26-C , 27-S ) :   1.0898 B( 26-C , 30-C ) :   1.4484
B( 27-S , 28-C ) :   1.1427 B( 28-C , 29-C ) :   1.6019 B( 28-C , 68-H ) :   0.9694
B( 29-C , 30-C ) :   1.2012 B( 29-C , 33-C ) :   0.9264 B( 30-C , 31-C ) :   1.0592
B( 31-C , 32-C ) :   1.5549 B( 31-C , 69-H ) :   1.0062 B( 32-C , 33-C ) :   0.9441
B( 32-C , 35-C ) :   1.1633 B( 33-C , 34-O ) :   2.2069 B( 35-C , 36-C ) :   1.5974
B( 35-C , 70-H ) :   0.9767 B( 36-C , 37-C ) :   1.1852 B( 36-C , 71-H ) :   0.9529
B( 37-C , 38-S ) :   1.1385 B( 37-C , 39-C ) :   0.1058 B( 37-C , 41-C ) :   1.2960
B( 38-S , 39-C ) :   1.1683 B( 39-C , 40-C ) :   1.3270 B( 39-C , 50-C ) :   1.1632
B( 40-C , 41-C ) :   1.1989 B( 40-C , 49-C ) :   1.1798 B( 41-C , 42-C ) :   1.2065
B( 42-C , 43-C ) :   1.5555 B( 42-C , 72-H ) :   0.9975 B( 43-C , 44-C ) :   1.0786
B( 43-C , 46-C ) :   1.2459 B( 44-C , 45-N ) :   3.0443 B( 46-C , 47-C ) :   1.0802
B( 46-C , 49-C ) :   1.5850 B( 47-C , 48-N ) :   3.0456 B( 49-C , 73-H ) :   0.9774
B( 50-C , 51-S ) :   1.1890 B( 50-C , 52-C ) :   0.1090 B( 50-C , 54-C ) :   1.3279
B( 51-S , 52-C ) :   1.2109 B( 52-C , 53-C ) :   1.4067 B( 52-C , 74-H ) :   0.9704
B( 53-C , 54-C ) :   1.1894 B( 53-C , 62-C ) :   1.1589 B( 54-C , 55-C ) :   1.1856
B( 55-C , 56-C ) :   1.5893 B( 55-C , 75-H ) :   0.9761 B( 56-C , 57-C ) :   1.0835
B( 56-C , 59-C ) :   1.2281 B( 57-C , 58-N ) :   3.0426 B( 59-C , 60-C ) :   1.0758
B( 59-C , 62-C ) :   1.5754 B( 60-C , 61-N ) :   3.0472 B( 62-C , 76-H ) :   1.0065

-----------------------------------------------------------------------------
         ABSORPTION SPECTRUM VIA TRANSITION ELECTRIC DIPOLE MOMENTS
-----------------------------------------------------------------------------
State   Energy  Wavelength   fosc         T2         TX        TY        TZ
        (cm-1)    (nm)                  (au**2)     (au)      (au)      (au)
-----------------------------------------------------------------------------
   0   12925.6    773.7   0.868289246  22.11506   0.55429   1.51636  -4.41684
   1   17741.9    563.6   0.707635885  13.13062   2.64482  -2.18042  -1.17529
   2   18326.7    545.7   0.141653829   2.54460   0.81942  -1.36239  -0.13056
   3   21241.8    470.8   0.135439794   2.09909   0.63662   0.51520   1.19515
   4   23411.4    427.1   0.014453147   0.20324  -0.14049  -0.42092  -0.07959
   5   23714.2    421.7   0.036257552   0.50335   0.01721  -0.39396  -0.58979
   6   24124.0    414.5   0.130119534   1.77570   0.62527   0.47210   1.07789
   7   25629.3    390.2   0.027692960   0.35572   0.52856  -0.03605   0.27394
   8   27662.8    361.5   0.003974325   0.04730   0.02800  -0.12388  -0.17655
   9   27969.7    357.5   0.077023234   0.90659   0.60644  -0.53346   0.50422
  10   28208.7    354.5   0.263488416   3.07507  -0.11694  -0.44964  -1.69092
  11   29094.7    343.7   0.242297242   2.74164   0.34053   0.05903   1.61932
  12   29576.5    338.1   0.095754123   1.06583  -0.84792   0.31927  -0.49491
  13   30474.4    328.1   0.013613298   0.14706  -0.05844  -0.18000  -0.33354
  14   30699.6    325.7   0.012820457   0.13748  -0.27270   0.22807  -0.10537
  15   31583.7    316.6   0.049715146   0.51820  -0.09481  -0.11183   0.70478
  16   31660.6    315.8   0.027926534   0.29038   0.37021   0.22640  -0.31949
  17   32242.0    310.2   0.042456515   0.43351   0.50757  -0.41807   0.03315
  18   32878.7    304.1   0.031930876   0.31972  -0.10853  -0.10431   0.54503
  19   33495.6    298.5   0.011350955   0.11156  -0.31479  -0.09747   0.05452
  20   33839.8    295.5   0.278536952   2.70976  -0.24292  -0.15112  -1.62108
  21   34408.2    290.6   0.133862985   1.28078  -0.60616   0.22940  -0.92776
  22   34657.5    288.5   0.069730466   0.66237  -0.15910  -0.16551  -0.78081
  23   35037.1    285.4   0.303850974   2.85501   0.76180   0.71018   1.33053
  24   35414.7    282.4   0.425759498   3.95782  -1.52208   0.18953  -1.26695
  25   35734.5    279.8   0.156537054   1.44213   0.35472  -0.73648  -0.87972
  26   36130.6    276.8   0.010984358   0.10009   0.13732   0.25403   0.12921
  27   36324.4    275.3   0.089157713   0.80804  -0.72792   0.18019  -0.49570
  28   36571.3    273.4   0.036447923   0.32810  -0.33835   0.45394  -0.08696
  29   37087.4    269.6   0.204557135   1.81578   0.15703  -0.85000  -1.03374
  30   37789.3    264.6   0.013123169   0.11433   0.00361  -0.06184  -0.33240
  31   38074.9    262.6   0.093447824   0.80799  -0.17756   0.04281  -0.88013
  32   38251.8    261.4   0.079837015   0.68711  -0.15030  -0.20625  -0.78866
  33   38663.5    258.6   0.011633018   0.09905   0.06603  -0.29429   0.08993
  34   39036.5    256.2   0.006986804   0.05892  -0.18929  -0.11961   0.09372
  35   39236.5    254.9   0.012842059   0.10775   0.12805  -0.10156  -0.28467
  36   39664.6    252.1   0.033716415   0.27984  -0.30937   0.27820   0.32671
  37   39910.3    250.6   0.050928075   0.42009   0.35125  -0.27810   0.46838
  38   39945.5    250.3   0.188832573   1.55627   0.88896   0.33514   0.80852
  39   40283.5    248.2   0.020825233   0.17019  -0.10954  -0.03179  -0.39646

FINAL SINGLE POINT ENERGY     -4376.034293176554

DIPOLE MOMENT
-------------
                                X             Y             Z
Electronic contribution:      1.29897      -0.88558      -5.13097
Nuclear contribution   :     -2.45495       2.13786       4.66999
                        -----------------------------------------
Total Dipole Moment    :     -1.15598       1.25229      -0.46098
                        -----------------------------------------
Magnitude (a.u.)       :      1.76551
Magnitude (Debye)      :      4.48757

Rotational constants in cm-1:     0.001284     0.000477     0.000422
Rotational constants in MHz :    38.490026    14.304940    12.658162

                             ****ORCA TERMINATED NORMALLY****
TOTAL RUN TIME: 0 days 0 hours 7 minutes 0 seconds 180 msec
