                         Program Version 4.2.0 -  RELEASE  -
|  1> # ORCA input file
|  2> # SCF done       -142.115754513565          0.000957051453
|  3> ! CAM-B3LYP def2-SVP def2/J RIJCOSX Grid4 TightSCF
|  4> %maxcore 5000
|  5> %tddft
|  6>     Mode sTDDFT
|  7>     Ethresh 5.0
|  8>     maxcore 5000
|  9> end
| 10>
| 11> %pal
| 12>   nprocs 6
| 13>   end
| 14> * xyz 0 1
| 15>    C        5.03839         3.95618         2.98802
| 16>    C        3.79621         4.30981         3.78945
| 17>    O        3.72868         4.99371         4.76503
| 18>    O        2.71966         3.72145         3.23332
| 19>    C        3.09056         2.87528         2.15354
| 20>    C        4.45673         3.41590         1.68457
| 21>    C        5.31892         2.41181         0.93093
| 22>    C        5.42452         1.07319         1.64637
| 23>    C        4.05872         0.46772         1.93471
| 24>    C        3.08423         1.40921         2.65664
| 25>    O        1.80147         0.83790         2.40996
| 26>    C        1.80666         0.08703         1.29781
| 27>    O        0.83509        -0.45144         0.86149
| 28>    C        3.22005         0.06891         0.71134
| 29>    C        3.64241        -1.21650         0.07255
| 30>    C        4.52362        -1.18710        -0.99421
| 31>    C        4.96744        -2.37559        -1.57842
| 32>    C        4.47635        -3.56554        -1.02788
| 33>    N        3.63486        -3.59979        -0.01715
| 34>    C        3.22406        -2.46776         0.52447
| 35>    C        5.90240        -2.33692        -2.67256
| 36>    S        6.89749        -0.92256        -2.90045
| 37>    C        7.69332        -1.54421        -4.31885
| 38>    C        7.19712        -2.80367        -4.60714
| 39>    C        6.20661        -3.24403        -3.66305
| 40>    N        5.79496        -4.48761        -4.03434
| 41>    C        6.49125        -4.84980        -5.17257
| 42>    C        6.28403        -6.08834        -5.79717
| 43>    N        6.10553        -7.09633        -6.31508
| 44>    C        7.36033        -3.85189        -5.54782
| 45>    C        8.64753        -0.70534        -4.99053
| 46>    C        9.29065         0.31542        -4.28459
| 47>    C       10.10975         1.21590        -4.94321
| 48>    C       10.31793         1.00254        -6.30643
| 49>    N        9.74732         0.02152        -6.98110
| 50>    C        8.92842        -0.80002        -6.35997
| 51>    C       10.75789         2.36890        -4.22402
| 52>    C       10.99563         2.00552        -2.75659
| 53>    O       11.78887         1.22231        -2.33281
| 54>    O       10.15925         2.69775        -1.96446
| 55>    C        9.28177         3.53638        -2.70337
| 56>    C        9.92999         3.66471        -4.09737
| 57>    C        8.96040         4.02248        -5.22032
| 58>    C        7.65602         3.23565        -5.19700
| 59>    C        6.95215         3.28063        -3.84761
| 60>    C        7.85286         2.94903        -2.64550
| 61>    O        7.17101         3.50946        -1.52683
| 62>    C        6.32390         4.48384        -1.90535
| 63>    O        5.65685         5.09388        -1.12429
| 64>    C        6.35959         4.62203        -3.41777
| 65>    H        5.60360         3.20305         3.53981
| 66>    H        5.67097         4.83050         2.85456
| 67>    H        2.31443         2.97674         1.38832
| 68>    H        4.27284         4.26499         1.01789
| 69>    H        6.31166         2.83917         0.79137
| 70>    H        4.89514         2.26905        -0.06474
| 71>    H        5.95601         1.19694         2.59145
| 72>    H        6.00173         0.37362         1.03876
| 73>    H        4.19036        -0.42772         2.55473
| 74>    H        3.22605         1.41675         3.74144
| 75>    H        3.25449         0.86693        -0.03953
| 76>    H        4.87192        -0.24171        -1.38913
| 77>    H        4.79725        -4.52957        -1.39908
| 78>    H        2.52743        -2.56473         1.34477
| 79>    H        5.07488        -5.04023        -3.60160
| 80>    H        8.02906        -3.88442        -6.38367
| 81>    H        9.14912         0.37540        -3.21544
| 82>    H       10.97323         1.64454        -6.87972
| 83>    H        8.46047        -1.55579        -6.97386
| 84>    H       11.71888         2.56968        -4.70390
| 85>    H        9.25811         4.50209        -2.18549
| 86>    H       10.65949         4.48008        -4.02612
| 87>    H        9.45622         3.86193        -6.17860
| 88>    H        8.73763         5.08910        -5.14583
| 89>    H        7.84654         2.19390        -5.45293
| 90>    H        6.98433         3.63997        -5.95610
| 91>    H        6.14202         2.54232        -3.86206
| 92>    H        7.91834         1.87517        -2.45795
| 93>    H        7.00885         5.46105        -3.67383
| 94>    H        5.36712         4.82054        -3.81522
| 95> *
| 96>
| 97>                          ****END OF INPUT****

CARTESIAN COORDINATES (ANGSTROEM)
---------------------------------
  C      5.038390    3.956180    2.988020
  C      3.796210    4.309810    3.789450
  O      3.728680    4.993710    4.765030
  O      2.719660    3.721450    3.233320
  C      3.090560    2.875280    2.153540
  C      4.456730    3.415900    1.684570
  C      5.318920    2.411810    0.930930
  C      5.424520    1.073190    1.646370
  C      4.058720    0.467720    1.934710
  C      3.084230    1.409210    2.656640
  O      1.801470    0.837900    2.409960
  C      1.806660    0.087030    1.297810
  O      0.835090   -0.451440    0.861490
  C      3.220050    0.068910    0.711340
  C      3.642410   -1.216500    0.072550
  C      4.523620   -1.187100   -0.994210
  C      4.967440   -2.375590   -1.578420
  C      4.476350   -3.565540   -1.027880
  N      3.634860   -3.599790   -0.017150
  C      3.224060   -2.467760    0.524470
  C      5.902400   -2.336920   -2.672560
  S      6.897490   -0.922560   -2.900450
  C      7.693320   -1.544210   -4.318850
  C      7.197120   -2.803670   -4.607140
  C      6.206610   -3.244030   -3.663050
  N      5.794960   -4.487610   -4.034340
  C      6.491250   -4.849800   -5.172570
  C      6.284030   -6.088340   -5.797170
  N      6.105530   -7.096330   -6.315080
  C      7.360330   -3.851890   -5.547820
  C      8.647530   -0.705340   -4.990530
  C      9.290650    0.315420   -4.284590
  C     10.109750    1.215900   -4.943210
  C     10.317930    1.002540   -6.306430
  N      9.747320    0.021520   -6.981100
  C      8.928420   -0.800020   -6.359970
  C     10.757890    2.368900   -4.224020
  C     10.995630    2.005520   -2.756590
  O     11.788870    1.222310   -2.332810
  O     10.159250    2.697750   -1.964460
  C      9.281770    3.536380   -2.703370
  C      9.929990    3.664710   -4.097370
  C      8.960400    4.022480   -5.220320
  C      7.656020    3.235650   -5.197000
  C      6.952150    3.280630   -3.847610
  C      7.852860    2.949030   -2.645500
  O      7.171010    3.509460   -1.526830
  C      6.323900    4.483840   -1.905350
  O      5.656850    5.093880   -1.124290
  C      6.359590    4.622030   -3.417770
  H      5.603600    3.203050    3.539810
  H      5.670970    4.830500    2.854560
  H      2.314430    2.976740    1.388320
  H      4.272840    4.264990    1.017890
  H      6.311660    2.839170    0.791370
  H      4.895140    2.269050   -0.064740
  H      5.956010    1.196940    2.591450
  H      6.001730    0.373620    1.038760
  H      4.190360   -0.427720    2.554730
  H      3.226050    1.416750    3.741440
  H      3.254490    0.866930   -0.039530
  H      4.871920   -0.241710   -1.389130
  H      4.797250   -4.529570   -1.399080
  H      2.527430   -2.564730    1.344770
  H      5.074880   -5.040230   -3.601600
  H      8.029060   -3.884420   -6.383670
  H      9.149120    0.375400   -3.215440
  H     10.973230    1.644540   -6.879720
  H      8.460470   -1.555790   -6.973860
  H     11.718880    2.569680   -4.703900
  H      9.258110    4.502090   -2.185490
  H     10.659490    4.480080   -4.026120
  H      9.456220    3.861930   -6.178600
  H      8.737630    5.089100   -5.145830
  H      7.846540    2.193900   -5.452930
  H      6.984330    3.639970   -5.956100
  H      6.142020    2.542320   -3.862060
  H      7.918340    1.875170   -2.457950
  H      7.008850    5.461050   -3.673830
  H      5.367120    4.820540   -3.815220

 Total Charge           Charge          ....    0
 Multiplicity           Mult            ....    1
 Number of Electrons    NEL             ....  360
 Basis Dimension        Dim             ....  854

ORBITAL ENERGIES
----------------

  NO   OCC          E(Eh)            E(eV)
   0   2.0000     -88.986043     -2421.4333
   1   2.0000     -19.283050      -524.7185
   2   2.0000     -19.280394      -524.6462
   3   2.0000     -19.263698      -524.1919
   4   2.0000     -19.252889      -523.8977
   5   2.0000     -19.222836      -523.0800
   6   2.0000     -19.216013      -522.8943
   7   2.0000     -19.204730      -522.5873
   8   2.0000     -19.190336      -522.1956
   9   2.0000     -14.488915      -394.2634
  10   2.0000     -14.427469      -392.5914
  11   2.0000     -14.423860      -392.4932
  12   2.0000     -14.413814      -392.2198
  13   2.0000     -10.419544      -283.5302
  14   2.0000     -10.414069      -283.3812
  15   2.0000     -10.401973      -283.0521
  16   2.0000     -10.388848      -282.6949
  17   2.0000     -10.362843      -281.9873
  18   2.0000     -10.362204      -281.9699
  19   2.0000     -10.360901      -281.9344
  20   2.0000     -10.342785      -281.4415
  21   2.0000     -10.338956      -281.3373
  22   2.0000     -10.338263      -281.3184
  23   2.0000     -10.329121      -281.0697
  24   2.0000     -10.325956      -280.9835
  25   2.0000     -10.325515      -280.9715
  26   2.0000     -10.325067      -280.9593
  27   2.0000     -10.323690      -280.9219
  28   2.0000     -10.319015      -280.7947
  29   2.0000     -10.317784      -280.7612
  30   2.0000     -10.316925      -280.7378
  31   2.0000     -10.316201      -280.7181
  32   2.0000     -10.314038      -280.6592
  33   2.0000     -10.313417      -280.6423
  34   2.0000     -10.311770      -280.5975
  35   2.0000     -10.311442      -280.5886
  36   2.0000     -10.310597      -280.5656
  37   2.0000     -10.308097      -280.4976
  38   2.0000     -10.305633      -280.4305
  39   2.0000     -10.304693      -280.4049
  40   2.0000     -10.303036      -280.3599
  41   2.0000     -10.303002      -280.3589
  42   2.0000     -10.302239      -280.3382
  43   2.0000     -10.300538      -280.2919
  44   2.0000     -10.299243      -280.2566
  45   2.0000     -10.295081      -280.1434
  46   2.0000     -10.285174      -279.8738
  47   2.0000     -10.282523      -279.8017
  48   2.0000     -10.280321      -279.7417
  49   2.0000     -10.275212      -279.6027
  50   2.0000      -8.080321      -219.8767
  51   2.0000      -6.049621      -164.6185
  52   2.0000      -6.045510      -164.5067
  53   2.0000      -6.042667      -164.4293
  54   2.0000      -1.221548       -33.2400
  55   2.0000      -1.213072       -33.0094
  56   2.0000      -1.201941       -32.7065
  57   2.0000      -1.187778       -32.3211
  58   2.0000      -1.130598       -30.7651
  59   2.0000      -1.123713       -30.5778
  60   2.0000      -1.112814       -30.2812
  61   2.0000      -1.112327       -30.2680
  62   2.0000      -1.098551       -29.8931
  63   2.0000      -1.059909       -28.8416
  64   2.0000      -1.050067       -28.5738
  65   2.0000      -1.009997       -27.4834
  66   2.0000      -0.999655       -27.2020
  67   2.0000      -0.970664       -26.4131
  68   2.0000      -0.956235       -26.0205
  69   2.0000      -0.942327       -25.6420
  70   2.0000      -0.934896       -25.4398
  71   2.0000      -0.921645       -25.0792
  72   2.0000      -0.912145       -24.8207
  73   2.0000      -0.895878       -24.3781
  74   2.0000      -0.892610       -24.2891
  75   2.0000      -0.875128       -23.8135
  76   2.0000      -0.870577       -23.6896
  77   2.0000      -0.861089       -23.4314
  78   2.0000      -0.855711       -23.2851
  79   2.0000      -0.849153       -23.1066
  80   2.0000      -0.835164       -22.7260
  81   2.0000      -0.818228       -22.2651
  82   2.0000      -0.814856       -22.1734
  83   2.0000      -0.800863       -21.7926
  84   2.0000      -0.768157       -20.9026
  85   2.0000      -0.761246       -20.7146
  86   2.0000      -0.752707       -20.4822
  87   2.0000      -0.750040       -20.4096
  88   2.0000      -0.739684       -20.1278
  89   2.0000      -0.731568       -19.9070
  90   2.0000      -0.729157       -19.8414
  91   2.0000      -0.719834       -19.5877
  92   2.0000      -0.711001       -19.3473
  93   2.0000      -0.703114       -19.1327
  94   2.0000      -0.685211       -18.6455
  95   2.0000      -0.682427       -18.5698
  96   2.0000      -0.670455       -18.2440
  97   2.0000      -0.660848       -17.9826
  98   2.0000      -0.658965       -17.9314
  99   2.0000      -0.651188       -17.7197
 100   2.0000      -0.641422       -17.4540
 101   2.0000      -0.635770       -17.3002
 102   2.0000      -0.632832       -17.2202
 103   2.0000      -0.628460       -17.1013
 104   2.0000      -0.620685       -16.8897
 105   2.0000      -0.617807       -16.8114
 106   2.0000      -0.612431       -16.6651
 107   2.0000      -0.604789       -16.4572
 108   2.0000      -0.602615       -16.3980
 109   2.0000      -0.596596       -16.2342
 110   2.0000      -0.589831       -16.0501
 111   2.0000      -0.583374       -15.8744
 112   2.0000      -0.577717       -15.7205
 113   2.0000      -0.568996       -15.4832
 114   2.0000      -0.564311       -15.3557
 115   2.0000      -0.562547       -15.3077
 116   2.0000      -0.561814       -15.2877
 117   2.0000      -0.561215       -15.2714
 118   2.0000      -0.556074       -15.1316
 119   2.0000      -0.553128       -15.0514
 120   2.0000      -0.551602       -15.0099
 121   2.0000      -0.547127       -14.8881
 122   2.0000      -0.544770       -14.8239
 123   2.0000      -0.540084       -14.6964
 124   2.0000      -0.535046       -14.5593
 125   2.0000      -0.531864       -14.4728
 126   2.0000      -0.525290       -14.2939
 127   2.0000      -0.522955       -14.2303
 128   2.0000      -0.519921       -14.1478
 129   2.0000      -0.517349       -14.0778
 130   2.0000      -0.514725       -14.0064
 131   2.0000      -0.511138       -13.9088
 132   2.0000      -0.508355       -13.8330
 133   2.0000      -0.503867       -13.7109
 134   2.0000      -0.501092       -13.6354
 135   2.0000      -0.498524       -13.5655
 136   2.0000      -0.495261       -13.4767
 137   2.0000      -0.491144       -13.3647
 138   2.0000      -0.487603       -13.2683
 139   2.0000      -0.483327       -13.1520
 140   2.0000      -0.481886       -13.1128
 141   2.0000      -0.480102       -13.0643
 142   2.0000      -0.478162       -13.0115
 143   2.0000      -0.474290       -12.9061
 144   2.0000      -0.472567       -12.8592
 145   2.0000      -0.465088       -12.6557
 146   2.0000      -0.459271       -12.4974
 147   2.0000      -0.457739       -12.4557
 148   2.0000      -0.455744       -12.4014
 149   2.0000      -0.455133       -12.3848
 150   2.0000      -0.454163       -12.3584
 151   2.0000      -0.446941       -12.1619
 152   2.0000      -0.445960       -12.1352
 153   2.0000      -0.441309       -12.0086
 154   2.0000      -0.439815       -11.9680
 155   2.0000      -0.438880       -11.9425
 156   2.0000      -0.437270       -11.8987
 157   2.0000      -0.432446       -11.7675
 158   2.0000      -0.426243       -11.5987
 159   2.0000      -0.420846       -11.4518
 160   2.0000      -0.419700       -11.4206
 161   2.0000      -0.412720       -11.2307
 162   2.0000      -0.408099       -11.1049
 163   2.0000      -0.400238       -10.8910
 164   2.0000      -0.397354       -10.8126
 165   2.0000      -0.386305       -10.5119
 166   2.0000      -0.381961       -10.3937
 167   2.0000      -0.373925       -10.1750
 168   2.0000      -0.367466        -9.9993
 169   2.0000      -0.365073        -9.9341
 170   2.0000      -0.364291        -9.9129
 171   2.0000      -0.355259        -9.6671
 172   2.0000      -0.351062        -9.5529
 173   2.0000      -0.347714        -9.4618
 174   2.0000      -0.342667        -9.3245
 175   2.0000      -0.339656        -9.2425
 176   2.0000      -0.335977        -9.1424
 177   2.0000      -0.334462        -9.1012
 178   2.0000      -0.320226        -8.7138
 179   2.0000      -0.265987        -7.2379
 180   0.0000      -0.071119        -1.9352
 181   0.0000      -0.016424        -0.4469
 182   0.0000      -0.006048        -0.1646
 183   0.0000      -0.002592        -0.0705
 184   0.0000       0.001561         0.0425

MULLIKEN ATOMIC CHARGES
-----------------------
   0 C :    0.026924
   1 C :    0.134434
   2 O :   -0.160241
   3 O :   -0.264015
   4 C :    0.153387
   5 C :   -0.132440
   6 C :    0.074326
   7 C :    0.105940
   8 C :   -0.056461
   9 C :    0.168944
  10 O :   -0.251485
  11 C :    0.183547
  12 O :   -0.144811
  13 C :   -0.088259
  14 C :    0.047987
  15 C :   -0.053654
  16 C :    0.082120
  17 C :   -0.039202
  18 N :   -0.044582
  19 C :   -0.004493
  20 C :   -0.155024
  21 S :    0.094601
  22 C :   -0.144275
  23 C :    0.133271
  24 C :    0.111603
  25 N :   -0.040596
  26 C :   -0.087037
  27 C :   -0.149460
  28 N :    0.172869
  29 C :   -0.041158
  30 C :    0.097274
  31 C :   -0.062593
  32 C :   -0.027734
  33 C :   -0.017323
  34 N :   -0.038277
  35 C :   -0.027408
  36 C :    0.007114
  37 C :    0.158204
  38 O :   -0.143619
  39 O :   -0.260464
  40 C :    0.168800
  41 C :   -0.081503
  42 C :    0.085652
  43 C :    0.107439
  44 C :   -0.158488
  45 C :    0.172912
  46 O :   -0.276965
  47 C :    0.143880
  48 O :   -0.167260
  49 C :    0.055026
  50 H :    0.038592
  51 H :    0.049290
  52 H :    0.017794
  53 H :    0.034138
  54 H :    0.028138
  55 H :   -0.008700
  56 H :    0.007488
  57 H :    0.006121
  58 H :    0.013453
  59 H :    0.022304
  60 H :    0.032940
  61 H :   -0.014458
  62 H :   -0.023651
  63 H :    0.013571
  64 H :    0.136389
  65 H :   -0.003412
  66 H :    0.032496
  67 H :   -0.000337
  68 H :   -0.003333
  69 H :    0.032171
  70 H :    0.018382
  71 H :    0.023254
  72 H :    0.011139
  73 H :    0.008830
  74 H :    0.030777
  75 H :    0.011922
  76 H :    0.019083
  77 H :    0.005994
  78 H :    0.044172
  79 H :    0.048027
Sum of atomic charges:    0.0000000

LOEWDIN ATOMIC CHARGES
----------------------
   0 C :   -0.056920
   1 C :    0.075541
   2 O :   -0.149547
   3 O :   -0.077149
   4 C :    0.065352
   5 C :   -0.038059
   6 C :   -0.027805
   7 C :   -0.028009
   8 C :   -0.027263
   9 C :    0.069396
  10 O :   -0.066176
  11 C :    0.077424
  12 O :   -0.142006
  13 C :   -0.057472
  14 C :   -0.024735
  15 C :   -0.007723
  16 C :   -0.057183
  17 C :    0.007170
  18 N :   -0.053842
  19 C :    0.026004
  20 C :   -0.203537
  21 S :    0.461817
  22 C :   -0.172911
  23 C :   -0.059185
  24 C :   -0.000158
  25 N :    0.066728
  26 C :   -0.018080
  27 C :   -0.044410
  28 N :   -0.029527
  29 C :   -0.035056
  30 C :   -0.052516
  31 C :   -0.010615
  32 C :   -0.034595
  33 C :    0.010829
  34 N :   -0.053329
  35 C :    0.021367
  36 C :   -0.047790
  37 C :    0.077135
  38 O :   -0.137716
  39 O :   -0.069783
  40 C :    0.068080
  41 C :   -0.030597
  42 C :   -0.027346
  43 C :   -0.028158
  44 C :   -0.038268
  45 C :    0.063919
  46 O :   -0.072593
  47 C :    0.081608
  48 O :   -0.150400
  49 C :   -0.053739
  50 H :    0.039250
  51 H :    0.048723
  52 H :    0.027928
  53 H :    0.038673
  54 H :    0.033126
  55 H :    0.014581
  56 H :    0.026063
  57 H :    0.029231
  58 H :    0.033726
  59 H :    0.031521
  60 H :    0.043973
  61 H :    0.017904
  62 H :    0.013139
  63 H :    0.025413
  64 H :    0.095344
  65 H :    0.037442
  66 H :    0.022434
  67 H :    0.020841
  68 H :    0.022975
  69 H :    0.051635
  70 H :    0.030851
  71 H :    0.039406
  72 H :    0.033959
  73 H :    0.025979
  74 H :    0.030723
  75 H :    0.033912
  76 H :    0.033748
  77 H :    0.018418
  78 H :    0.043166
  79 H :    0.047748

  Mayer bond orders larger than 0.100000
B(  0-C ,  1-C ) :   0.9641 B(  0-C ,  5-C ) :   1.0295 B(  0-C , 50-H ) :   0.9275
B(  0-C , 51-H ) :   0.9280 B(  1-C ,  2-O ) :   2.2343 B(  1-C ,  3-O ) :   1.1182
B(  3-O ,  4-C ) :   0.9659 B(  4-C ,  5-C ) :   1.0185 B(  4-C ,  9-C ) :   0.9610
B(  4-C , 52-H ) :   0.9192 B(  5-C ,  6-C ) :   1.0626 B(  5-C , 53-H ) :   0.9082
B(  6-C ,  7-C ) :   1.0637 B(  6-C , 54-H ) :   0.9219 B(  6-C , 55-H ) :   0.9352
B(  7-C ,  8-C ) :   1.0623 B(  7-C , 56-H ) :   0.9337 B(  7-C , 57-H ) :   0.9200
B(  8-C ,  9-C ) :   1.0067 B(  8-C , 13-C ) :   0.9906 B(  8-C , 58-H ) :   0.9095
B(  9-C , 10-O ) :   0.9529 B(  9-C , 59-H ) :   0.9212 B( 10-O , 11-C ) :   1.1483
B( 11-C , 12-O ) :   2.2601 B( 11-C , 13-C ) :   0.8740 B( 13-C , 14-C ) :   0.9818
B( 13-C , 60-H ) :   0.8833 B( 14-C , 15-C ) :   1.4362 B( 14-C , 19-C ) :   1.3577
B( 15-C , 16-C ) :   1.3433 B( 15-C , 61-H ) :   0.9813 B( 16-C , 17-C ) :   1.3345
B( 16-C , 20-C ) :   1.0346 B( 17-C , 18-N ) :   1.5821 B( 17-C , 62-H ) :   0.9899
B( 18-N , 19-C ) :   1.5565 B( 19-C , 63-H ) :   0.9829 B( 20-C , 21-S ) :   1.1091
B( 20-C , 22-C ) :   0.1304 B( 20-C , 24-C ) :   1.4583 B( 21-S , 22-C ) :   1.1391
B( 22-C , 23-C ) :   1.3828 B( 22-C , 30-C ) :   1.0489 B( 23-C , 24-C ) :   1.2024
B( 23-C , 29-C ) :   1.1525 B( 24-C , 25-N ) :   1.1680 B( 25-N , 26-C ) :   1.1941
B( 25-N , 64-H ) :   0.9318 B( 26-C , 27-C ) :   1.0522 B( 26-C , 29-C ) :   1.6007
B( 27-C , 28-N ) :   3.0575 B( 29-C , 65-H ) :   1.0103 B( 30-C , 31-C ) :   1.3414
B( 30-C , 35-C ) :   1.3372 B( 31-C , 32-C ) :   1.4219 B( 31-C , 66-H ) :   0.9599
B( 32-C , 33-C ) :   1.3617 B( 32-C , 36-C ) :   0.9857 B( 33-C , 34-N ) :   1.5616
B( 33-C , 67-H ) :   0.9887 B( 34-N , 35-C ) :   1.5755 B( 35-C , 68-H ) :   0.9887
B( 36-C , 37-C ) :   0.8982 B( 36-C , 41-C ) :   1.0087 B( 36-C , 69-H ) :   0.8822
B( 37-C , 38-O ) :   2.2588 B( 37-C , 39-O ) :   1.1171 B( 39-O , 40-C ) :   0.9692
B( 40-C , 41-C ) :   1.0148 B( 40-C , 45-C ) :   0.9671 B( 40-C , 70-H ) :   0.9157
B( 41-C , 42-C ) :   1.0714 B( 41-C , 71-H ) :   0.9062 B( 42-C , 43-C ) :   1.0602
B( 42-C , 72-H ) :   0.9239 B( 42-C , 73-H ) :   0.9358 B( 43-C , 44-C ) :   1.0668
B( 43-C , 74-H ) :   0.9359 B( 43-C , 75-H ) :   0.9234 B( 44-C , 45-C ) :   1.0180
B( 44-C , 49-C ) :   1.0235 B( 44-C , 76-H ) :   0.9146 B( 45-C , 46-O ) :   0.9381
B( 45-C , 77-H ) :   0.9160 B( 46-O , 47-C ) :   1.1048 B( 47-C , 48-O ) :   2.1831
B( 47-C , 49-C ) :   0.9681 B( 49-C , 78-H ) :   0.9228 B( 49-C , 79-H ) :   0.9313

-----------------------------------------------------------------------------
         ABSORPTION SPECTRUM VIA TRANSITION ELECTRIC DIPOLE MOMENTS
-----------------------------------------------------------------------------
State   Energy  Wavelength   fosc         T2         TX        TY        TZ
        (cm-1)    (nm)                  (au**2)     (au)      (au)      (au)
-----------------------------------------------------------------------------
   0   25589.1    390.8   0.780280519  10.03857   2.20936   1.38462  -1.80004
   1   34745.1    287.8   0.021049138   0.19944   0.00134  -0.27788  -0.34961
   2   35966.8    278.0   0.185428918   1.69727  -0.30762  -1.20556  -0.38636
   3   36918.1    270.9   0.059678573   0.53218  -0.04543   0.63661   0.35332
   4   37508.9    266.6   0.005138158   0.04510  -0.17483  -0.12003   0.01116
   5   38983.1    256.5   0.367737613   3.10554  -0.41384   1.07297   1.33530
   6   39703.4    251.9   0.005707834   0.04733  -0.11335  -0.14518  -0.11577
   7   40292.5    248.2   0.304144577   2.48503  -0.31385   1.07840   1.10615

FINAL SINGLE POINT ENERGY     -2644.191753599736

DIPOLE MOMENT
-------------
                                X             Y             Z
Electronic contribution:     -4.89742     -28.80518      -1.37652
Nuclear contribution   :      7.01439      30.30190      -1.47521
                        -----------------------------------------
Total Dipole Moment    :      2.11697       1.49672      -2.85173
                        -----------------------------------------
Magnitude (a.u.)       :      3.85410
Magnitude (Debye)      :      9.79634

Rotational constants in cm-1:     0.002261     0.001464     0.000969
Rotational constants in MHz :    67.779354    43.889570    29.049166

                             ****ORCA TERMINATED NORMALLY****
TOTAL RUN TIME: 0 days 0 hours 6 minutes 2 seconds 118 msec
