                         Program Version 4.2.0 -  RELEASE  -
|  1> # ORCA input file
|  2> # SCF done       -151.738593254973          0.000377284554
|  3> ! CAM-B3LYP def2-SVP def2/J RIJCOSX Grid4 TightSCF
|  4> %maxcore 5000
|  5> %tddft
|  6>     Mode sTDDFT
|  7>     Ethresh 5.0
|  8>     maxcore 5000
|  9> end
| 10>
| 11> %pal
| 12>   nprocs 6
| 13>   end
| 14> * xyz 0 1
| 15>    C        3.25132         7.39732        -9.00774
| 16>    N        3.12996         8.72033        -8.72242
| 17>    C        3.65694         9.80702        -9.50907
| 18>    C        2.83453        10.03657       -10.77444
| 19>    C        2.35127         8.92966        -7.55655
| 20>    O        2.10715        10.02754        -7.10163
| 21>    C        1.99941         7.59466        -7.13898
| 22>    C        2.57946         6.67106        -8.06427
| 23>    C        2.22737         5.33995        -7.62322
| 24>    O        2.46523         4.24047        -8.07060
| 25>    N        1.47320         5.54679        -6.44136
| 26>    C        0.85520         4.41247        -5.79875
| 27>    C       -0.65874         4.39438        -5.99152
| 28>    C        1.33340         6.88821        -6.15281
| 29>    C        0.67216         7.53308        -5.06336
| 30>    C        0.20682         7.00498        -3.91344
| 31>    C       -0.43537         7.74687        -2.85362
| 32>    C       -0.83675         9.07891        -2.98023
| 33>    C       -1.46802         9.72802        -1.93610
| 34>    N       -1.72771        11.13782        -2.11814
| 35>    O       -2.16666        11.48486        -3.19269
| 36>    O       -1.44683        11.88206        -1.20473
| 37>    C       -1.76274         9.08223        -0.72414
| 38>    C       -1.31386         7.76252        -0.59348
| 39>    C       -0.67842         7.11295        -1.62546
| 40>    C       -2.55191         9.67524         0.33313
| 41>    C       -3.60483        10.48828         0.13153
| 42>    C       -4.41226        11.05248         1.16498
| 43>    S       -5.86950        11.90675         0.74544
| 44>    C       -6.24615        12.25275         2.40585
| 45>    C       -5.25481        11.72501         3.24992
| 46>    C       -4.24246        11.05641         2.52484
| 47>    C       -5.14683        11.78204         4.69606
| 48>    O       -5.89745        12.28928         5.49644
| 49>    C       -7.45037        12.97379         2.60971
| 50>    C       -7.99714        13.37898         3.78138
| 51>    C       -9.22208        14.08512         3.86719
| 52>    S      -10.17557        14.49387         2.45384
| 53>    C      -11.39288        15.27223         3.41874
| 54>    C      -11.05844        15.20680         4.77838
| 55>    C       -9.84136        14.53767         5.00698
| 56>    C      -11.84999        15.75385         5.86597
| 57>    O      -11.57003        15.66677         7.03743
| 58>    C      -12.53879        15.85314         2.82964
| 59>    C      -12.75791        15.89116         1.48815
| 60>    C      -13.86560        16.43476         0.80068
| 61>    S      -13.67382        16.69460        -0.91259
| 62>    C      -15.21911        17.38001        -1.07161
| 63>    C      -15.90527        17.40380         0.12472
| 64>    C      -15.14401        16.84952         1.20992
| 65>    C      -15.75221        16.73899         2.47386
| 66>    C      -17.02859        17.20711         2.65281
| 67>    S      -17.85490        17.09829         4.20583
| 68>    C      -17.75841        17.79766         1.59178
| 69>    C      -17.21674        17.88671         0.34943
| 70>    H        3.81682         7.06512        -9.85893
| 71>    H        4.69928         9.59366        -9.76484
| 72>    H        3.61769        10.69519        -8.87250
| 73>    H        2.84158         9.14952       -11.40432
| 74>    H        3.24852        10.86817       -11.33767
| 75>    H        1.80523        10.27042       -10.51373
| 76>    H        1.12269         4.38580        -4.73887
| 77>    H        1.29524         3.53439        -6.28261
| 78>    H       -1.12338         5.27678        -5.55752
| 79>    H       -1.07811         3.50940        -5.52075
| 80>    H       -0.89413         4.36643        -7.05261
| 81>    H        0.61235         8.60236        -5.21876
| 82>    H        0.32320         5.95164        -3.70796
| 83>    H       -0.65533         9.63149        -3.88926
| 84>    H       -1.50566         7.24094         0.33225
| 85>    H       -0.36032         6.08927        -1.49070
| 86>    H       -2.30381         9.35855         1.33597
| 87>    H       -3.91966        10.73098        -0.87545
| 88>    H       -3.39784        10.59863         3.00861
| 89>    H       -4.22983        11.27300         5.05274
| 90>    H       -7.97995        13.21287         1.69272
| 91>    H       -7.50348        13.16820         4.71923
| 92>    H       -9.43809        14.39958         5.99425
| 93>    H      -12.76982        16.28456         5.54893
| 94>    H      -13.24168        16.30822         3.50837
| 95>    H      -11.97787        15.49429         0.84778
| 96>    H      -15.55758        17.73400        -2.02512
| 97>    H      -15.23245        16.26343         3.28946
| 98>    H      -16.86142        16.50458         4.86662
| 99>    H      -18.75605        18.15630         1.79287
|100>    H      -17.76972        18.31240        -0.47343
|101> *
|102>
|103>                          ****END OF INPUT****

CARTESIAN COORDINATES (ANGSTROEM)
---------------------------------
  C      3.251320    7.397320   -9.007740
  N      3.129960    8.720330   -8.722420
  C      3.656940    9.807020   -9.509070
  C      2.834530   10.036570  -10.774440
  C      2.351270    8.929660   -7.556550
  O      2.107150   10.027540   -7.101630
  C      1.999410    7.594660   -7.138980
  C      2.579460    6.671060   -8.064270
  C      2.227370    5.339950   -7.623220
  O      2.465230    4.240470   -8.070600
  N      1.473200    5.546790   -6.441360
  C      0.855200    4.412470   -5.798750
  C     -0.658740    4.394380   -5.991520
  C      1.333400    6.888210   -6.152810
  C      0.672160    7.533080   -5.063360
  C      0.206820    7.004980   -3.913440
  C     -0.435370    7.746870   -2.853620
  C     -0.836750    9.078910   -2.980230
  C     -1.468020    9.728020   -1.936100
  N     -1.727710   11.137820   -2.118140
  O     -2.166660   11.484860   -3.192690
  O     -1.446830   11.882060   -1.204730
  C     -1.762740    9.082230   -0.724140
  C     -1.313860    7.762520   -0.593480
  C     -0.678420    7.112950   -1.625460
  C     -2.551910    9.675240    0.333130
  C     -3.604830   10.488280    0.131530
  C     -4.412260   11.052480    1.164980
  S     -5.869500   11.906750    0.745440
  C     -6.246150   12.252750    2.405850
  C     -5.254810   11.725010    3.249920
  C     -4.242460   11.056410    2.524840
  C     -5.146830   11.782040    4.696060
  O     -5.897450   12.289280    5.496440
  C     -7.450370   12.973790    2.609710
  C     -7.997140   13.378980    3.781380
  C     -9.222080   14.085120    3.867190
  S    -10.175570   14.493870    2.453840
  C    -11.392880   15.272230    3.418740
  C    -11.058440   15.206800    4.778380
  C     -9.841360   14.537670    5.006980
  C    -11.849990   15.753850    5.865970
  O    -11.570030   15.666770    7.037430
  C    -12.538790   15.853140    2.829640
  C    -12.757910   15.891160    1.488150
  C    -13.865600   16.434760    0.800680
  S    -13.673820   16.694600   -0.912590
  C    -15.219110   17.380010   -1.071610
  C    -15.905270   17.403800    0.124720
  C    -15.144010   16.849520    1.209920
  C    -15.752210   16.738990    2.473860
  C    -17.028590   17.207110    2.652810
  S    -17.854900   17.098290    4.205830
  C    -17.758410   17.797660    1.591780
  C    -17.216740   17.886710    0.349430
  H      3.816820    7.065120   -9.858930
  H      4.699280    9.593660   -9.764840
  H      3.617690   10.695190   -8.872500
  H      2.841580    9.149520  -11.404320
  H      3.248520   10.868170  -11.337670
  H      1.805230   10.270420  -10.513730
  H      1.122690    4.385800   -4.738870
  H      1.295240    3.534390   -6.282610
  H     -1.123380    5.276780   -5.557520
  H     -1.078110    3.509400   -5.520750
  H     -0.894130    4.366430   -7.052610
  H      0.612350    8.602360   -5.218760
  H      0.323200    5.951640   -3.707960
  H     -0.655330    9.631490   -3.889260
  H     -1.505660    7.240940    0.332250
  H     -0.360320    6.089270   -1.490700
  H     -2.303810    9.358550    1.335970
  H     -3.919660   10.730980   -0.875450
  H     -3.397840   10.598630    3.008610
  H     -4.229830   11.273000    5.052740
  H     -7.979950   13.212870    1.692720
  H     -7.503480   13.168200    4.719230
  H     -9.438090   14.399580    5.994250
  H    -12.769820   16.284560    5.548930
  H    -13.241680   16.308220    3.508370
  H    -11.977870   15.494290    0.847780
  H    -15.557580   17.734000   -2.025120
  H    -15.232450   16.263430    3.289460
  H    -16.861420   16.504580    4.866620
  H    -18.756050   18.156300    1.792870
  H    -17.769720   18.312400   -0.473430

 Total Charge           Charge          ....    0
 Multiplicity           Mult            ....    1
 Number of Electrons    NEL             ....  416
 Basis Dimension        Dim             ....  941

ORBITAL ENERGIES
----------------

  NO   OCC          E(Eh)            E(eV)
   0   2.0000     -88.972654     -2421.0690
   1   2.0000     -88.964362     -2420.8434
   2   2.0000     -88.957153     -2420.6472
   3   2.0000     -88.934254     -2420.0241
   4   2.0000     -19.244272      -523.6633
   5   2.0000     -19.242841      -523.6243
   6   2.0000     -19.209707      -522.7227
   7   2.0000     -19.200541      -522.4733
   8   2.0000     -19.188801      -522.1538
   9   2.0000     -19.185418      -522.0618
  10   2.0000     -14.647430      -398.5768
  11   2.0000     -14.452667      -393.2771
  12   2.0000     -14.450504      -393.2182
  13   2.0000     -10.371696      -282.2282
  14   2.0000     -10.371587      -282.2252
  15   2.0000     -10.355861      -281.7973
  16   2.0000     -10.348393      -281.5941
  17   2.0000     -10.339948      -281.3643
  18   2.0000     -10.332830      -281.1706
  19   2.0000     -10.332483      -281.1611
  20   2.0000     -10.322821      -280.8982
  21   2.0000     -10.319346      -280.8037
  22   2.0000     -10.312618      -280.6206
  23   2.0000     -10.311391      -280.5872
  24   2.0000     -10.308409      -280.5061
  25   2.0000     -10.306402      -280.4514
  26   2.0000     -10.306319      -280.4492
  27   2.0000     -10.306070      -280.4424
  28   2.0000     -10.306033      -280.4414
  29   2.0000     -10.302577      -280.3474
  30   2.0000     -10.301143      -280.3084
  31   2.0000     -10.300190      -280.2824
  32   2.0000     -10.299712      -280.2694
  33   2.0000     -10.298064      -280.2246
  34   2.0000     -10.296830      -280.1910
  35   2.0000     -10.295405      -280.1522
  36   2.0000     -10.294322      -280.1228
  37   2.0000     -10.294280      -280.1216
  38   2.0000     -10.291177      -280.0372
  39   2.0000     -10.287629      -279.9406
  40   2.0000     -10.287278      -279.9311
  41   2.0000     -10.287022      -279.9241
  42   2.0000     -10.286654      -279.9141
  43   2.0000     -10.285748      -279.8894
  44   2.0000     -10.283642      -279.8321
  45   2.0000     -10.283088      -279.8170
  46   2.0000     -10.282962      -279.8136
  47   2.0000     -10.280638      -279.7504
  48   2.0000     -10.280479      -279.7460
  49   2.0000     -10.276222      -279.6302
  50   2.0000     -10.275498      -279.6105
  51   2.0000     -10.264698      -279.3166
  52   2.0000     -10.263256      -279.2774
  53   2.0000     -10.258968      -279.1607
  54   2.0000     -10.258332      -279.1434
  55   2.0000      -8.068237      -219.5479
  56   2.0000      -8.060426      -219.3354
  57   2.0000      -8.052819      -219.1283
  58   2.0000      -8.030019      -218.5079
  59   2.0000      -6.037092      -164.2776
  60   2.0000      -6.032880      -164.1630
  61   2.0000      -6.031354      -164.1215
  62   2.0000      -6.029490      -164.0708
  63   2.0000      -6.025422      -163.9601
  64   2.0000      -6.022817      -163.8892
  65   2.0000      -6.021993      -163.8668
  66   2.0000      -6.018066      -163.7599
  67   2.0000      -6.014925      -163.6744
  68   2.0000      -6.000342      -163.2776
  69   2.0000      -5.996171      -163.1641
  70   2.0000      -5.990091      -162.9987
  71   2.0000      -1.324438       -36.0398
  72   2.0000      -1.143305       -31.1109
  73   2.0000      -1.130074       -30.7509
  74   2.0000      -1.123395       -30.5691
  75   2.0000      -1.122323       -30.5400
  76   2.0000      -1.113382       -30.2967
  77   2.0000      -1.060766       -28.8649
  78   2.0000      -1.051248       -28.6059
  79   2.0000      -1.001938       -27.2641
  80   2.0000      -0.995672       -27.0936
  81   2.0000      -0.991835       -26.9892
  82   2.0000      -0.987583       -26.8735
  83   2.0000      -0.949403       -25.8346
  84   2.0000      -0.931513       -25.3478
  85   2.0000      -0.926004       -25.1978
  86   2.0000      -0.916318       -24.9343
  87   2.0000      -0.905609       -24.6429
  88   2.0000      -0.895630       -24.3713
  89   2.0000      -0.890117       -24.2213
  90   2.0000      -0.877011       -23.8647
  91   2.0000      -0.873594       -23.7717
  92   2.0000      -0.862646       -23.4738
  93   2.0000      -0.859268       -23.3819
  94   2.0000      -0.853209       -23.2170
  95   2.0000      -0.839865       -22.8539
  96   2.0000      -0.833315       -22.6757
  97   2.0000      -0.819659       -22.3041
  98   2.0000      -0.815581       -22.1931
  99   2.0000      -0.805548       -21.9201
 100   2.0000      -0.797340       -21.6967
 101   2.0000      -0.789578       -21.4855
 102   2.0000      -0.778654       -21.1882
 103   2.0000      -0.769668       -20.9437
 104   2.0000      -0.760160       -20.6850
 105   2.0000      -0.737030       -20.0556
 106   2.0000      -0.734682       -19.9917
 107   2.0000      -0.725147       -19.7322
 108   2.0000      -0.712580       -19.3903
 109   2.0000      -0.710185       -19.3251
 110   2.0000      -0.709587       -19.3088
 111   2.0000      -0.697969       -18.9927
 112   2.0000      -0.684134       -18.6162
 113   2.0000      -0.681516       -18.5450
 114   2.0000      -0.678797       -18.4710
 115   2.0000      -0.670626       -18.2487
 116   2.0000      -0.660268       -17.9668
 117   2.0000      -0.651534       -17.7291
 118   2.0000      -0.649798       -17.6819
 119   2.0000      -0.640068       -17.4171
 120   2.0000      -0.630605       -17.1596
 121   2.0000      -0.623563       -16.9680
 122   2.0000      -0.623011       -16.9530
 123   2.0000      -0.609608       -16.5883
 124   2.0000      -0.604653       -16.4534
 125   2.0000      -0.598912       -16.2972
 126   2.0000      -0.595782       -16.2121
 127   2.0000      -0.592928       -16.1344
 128   2.0000      -0.591970       -16.1083
 129   2.0000      -0.586895       -15.9702
 130   2.0000      -0.581446       -15.8219
 131   2.0000      -0.580125       -15.7860
 132   2.0000      -0.576849       -15.6969
 133   2.0000      -0.575432       -15.6583
 134   2.0000      -0.570197       -15.5158
 135   2.0000      -0.564004       -15.3473
 136   2.0000      -0.555072       -15.1043
 137   2.0000      -0.551120       -14.9967
 138   2.0000      -0.547181       -14.8895
 139   2.0000      -0.542672       -14.7669
 140   2.0000      -0.537395       -14.6233
 141   2.0000      -0.533061       -14.5053
 142   2.0000      -0.532281       -14.4841
 143   2.0000      -0.528166       -14.3721
 144   2.0000      -0.526358       -14.3229
 145   2.0000      -0.524307       -14.2671
 146   2.0000      -0.516400       -14.0519
 147   2.0000      -0.513442       -13.9715
 148   2.0000      -0.506404       -13.7800
 149   2.0000      -0.506255       -13.7759
 150   2.0000      -0.504765       -13.7353
 151   2.0000      -0.504253       -13.7214
 152   2.0000      -0.502449       -13.6723
 153   2.0000      -0.500327       -13.6146
 154   2.0000      -0.498302       -13.5595
 155   2.0000      -0.496616       -13.5136
 156   2.0000      -0.494657       -13.4603
 157   2.0000      -0.490749       -13.3540
 158   2.0000      -0.487738       -13.2720
 159   2.0000      -0.486105       -13.2276
 160   2.0000      -0.475551       -12.9404
 161   2.0000      -0.468924       -12.7601
 162   2.0000      -0.467429       -12.7194
 163   2.0000      -0.464088       -12.6285
 164   2.0000      -0.463364       -12.6088
 165   2.0000      -0.462651       -12.5894
 166   2.0000      -0.461524       -12.5587
 167   2.0000      -0.459135       -12.4937
 168   2.0000      -0.456169       -12.4130
 169   2.0000      -0.453830       -12.3493
 170   2.0000      -0.453160       -12.3311
 171   2.0000      -0.451572       -12.2879
 172   2.0000      -0.451294       -12.2803
 173   2.0000      -0.446482       -12.1494
 174   2.0000      -0.444937       -12.1074
 175   2.0000      -0.441615       -12.0170
 176   2.0000      -0.438277       -11.9261
 177   2.0000      -0.434050       -11.8111
 178   2.0000      -0.431290       -11.7360
 179   2.0000      -0.428304       -11.6548
 180   2.0000      -0.424857       -11.5609
 181   2.0000      -0.422906       -11.5078
 182   2.0000      -0.419091       -11.4040
 183   2.0000      -0.411069       -11.1858
 184   2.0000      -0.408683       -11.1208
 185   2.0000      -0.408164       -11.1067
 186   2.0000      -0.403926       -10.9914
 187   2.0000      -0.391836       -10.6624
 188   2.0000      -0.386721       -10.5232
 189   2.0000      -0.381641       -10.3850
 190   2.0000      -0.374908       -10.2018
 191   2.0000      -0.371221       -10.1014
 192   2.0000      -0.355627        -9.6771
 193   2.0000      -0.345539        -9.4026
 194   2.0000      -0.344402        -9.3716
 195   2.0000      -0.342034        -9.3072
 196   2.0000      -0.332129        -9.0377
 197   2.0000      -0.328286        -8.9331
 198   2.0000      -0.327995        -8.9252
 199   2.0000      -0.324226        -8.8226
 200   2.0000      -0.322664        -8.7801
 201   2.0000      -0.321174        -8.7396
 202   2.0000      -0.313054        -8.5186
 203   2.0000      -0.302558        -8.2330
 204   2.0000      -0.289836        -7.8869
 205   2.0000      -0.263757        -7.1772
 206   2.0000      -0.247088        -6.7236
 207   2.0000      -0.230778        -6.2798
 208   0.0000      -0.080106        -2.1798
 209   0.0000      -0.070994        -1.9319
 210   0.0000      -0.048056        -1.3077
 211   0.0000      -0.039161        -1.0656
 212   0.0000      -0.017859        -0.4860

MULLIKEN ATOMIC CHARGES
-----------------------
   0 C :    0.049745
   1 N :   -0.266564
   2 C :    0.111384
   3 C :   -0.004645
   4 C :    0.163619
   5 O :   -0.193158
   6 C :   -0.078556
   7 C :    0.005274
   8 C :    0.163965
   9 O :   -0.187694
  10 N :   -0.278897
  11 C :    0.098897
  12 C :   -0.001203
  13 C :    0.127649
  14 C :   -0.019031
  15 C :    0.016698
  16 C :    0.092173
  17 C :   -0.020195
  18 C :    0.097221
  19 N :    0.222729
  20 O :   -0.230426
  21 O :   -0.215583
  22 C :    0.090969
  23 C :   -0.022769
  24 C :    0.006632
  25 C :   -0.030285
  26 C :    0.099507
  27 C :   -0.090143
  28 S :    0.146784
  29 C :   -0.093504
  30 C :    0.012179
  31 C :   -0.019222
  32 C :    0.148243
  33 O :   -0.184475
  34 C :    0.030961
  35 C :    0.025809
  36 C :   -0.031469
  37 S :    0.091568
  38 C :   -0.039316
  39 C :    0.012856
  40 C :   -0.014256
  41 C :    0.136404
  42 O :   -0.186807
  43 C :   -0.032346
  44 C :    0.058501
  45 C :   -0.172990
  46 S :    0.165365
  47 C :   -0.113791
  48 C :    0.070960
  49 C :    0.147965
  50 C :   -0.050538
  51 C :   -0.057792
  52 S :    0.033804
  53 C :    0.031265
  54 C :    0.008705
  55 H :    0.016883
  56 H :    0.018434
  57 H :    0.044379
  58 H :    0.015420
  59 H :    0.024339
  60 H :    0.031689
  61 H :    0.022837
  62 H :    0.045078
  63 H :    0.022277
  64 H :    0.019887
  65 H :    0.026014
  66 H :    0.012153
  67 H :   -0.029119
  68 H :    0.004363
  69 H :   -0.015603
  70 H :   -0.014182
  71 H :   -0.005486
  72 H :   -0.003644
  73 H :   -0.013248
  74 H :   -0.016849
  75 H :   -0.014518
  76 H :    0.016985
  77 H :    0.005484
  78 H :   -0.031947
  79 H :   -0.016708
  80 H :   -0.005017
  81 H :    0.022423
  82 H :   -0.044007
  83 H :    0.061141
  84 H :   -0.011836
  85 H :   -0.019799
Sum of atomic charges:   -0.0000000

LOEWDIN ATOMIC CHARGES
----------------------
   0 C :    0.098809
   1 N :   -0.003621
   2 C :    0.038086
   3 C :   -0.060755
   4 C :    0.077324
   5 O :   -0.195380
   6 C :   -0.119861
   7 C :   -0.133451
   8 C :    0.084342
   9 O :   -0.189426
  10 N :   -0.014183
  11 C :    0.033437
  12 C :   -0.063224
  13 C :    0.077478
  14 C :   -0.025174
  15 C :   -0.000419
  16 C :   -0.028430
  17 C :    0.016447
  18 C :   -0.021421
  19 N :    0.279240
  20 O :   -0.199581
  21 O :   -0.188999
  22 C :   -0.004061
  23 C :   -0.009504
  24 C :    0.002390
  25 C :   -0.026919
  26 C :   -0.019061
  27 C :   -0.180359
  28 S :    0.463594
  29 C :   -0.115810
  30 C :   -0.127174
  31 C :   -0.029062
  32 C :    0.108147
  33 O :   -0.138867
  34 C :   -0.076679
  35 C :    0.000321
  36 C :   -0.167500
  37 S :    0.428645
  38 C :   -0.123698
  39 C :   -0.127789
  40 C :   -0.006850
  41 C :    0.100054
  42 O :   -0.143331
  43 C :   -0.068827
  44 C :   -0.024822
  45 C :   -0.195355
  46 S :    0.492610
  47 C :   -0.183717
  48 C :   -0.057679
  49 C :   -0.031639
  50 C :   -0.062394
  51 C :   -0.140395
  52 S :    0.234530
  53 C :   -0.042976
  54 C :    0.002510
  55 H :    0.033462
  56 H :    0.024510
  57 H :    0.037073
  58 H :    0.022245
  59 H :    0.030649
  60 H :    0.032031
  61 H :    0.017379
  62 H :    0.037759
  63 H :    0.021838
  64 H :    0.029855
  65 H :    0.031658
  66 H :    0.045098
  67 H :    0.028739
  68 H :    0.041870
  69 H :    0.034204
  70 H :    0.032254
  71 H :    0.030663
  72 H :    0.027470
  73 H :    0.029615
  74 H :   -0.000629
  75 H :    0.016981
  76 H :    0.037497
  77 H :    0.041314
  78 H :   -0.009970
  79 H :    0.026906
  80 H :    0.022556
  81 H :    0.026256
  82 H :    0.021448
  83 H :   -0.023644
  84 H :    0.029959
  85 H :    0.033385

  Mayer bond orders larger than 0.100000
B(  0-C ,  1-N ) :   1.1982 B(  0-C ,  7-C ) :   1.4543 B(  0-C , 55-H ) :   0.9893
B(  1-N ,  2-C ) :   0.9402 B(  1-N ,  4-C ) :   1.0293 B(  2-C ,  3-C ) :   1.1177
B(  2-C , 56-H ) :   0.9542 B(  2-C , 57-H ) :   0.9348 B(  3-C , 58-H ) :   0.9694
B(  3-C , 59-H ) :   0.9689 B(  3-C , 60-H ) :   0.9675 B(  4-C ,  5-O ) :   2.1236
B(  4-C ,  6-C ) :   0.9883 B(  6-C ,  7-C ) :   1.1882 B(  6-C , 13-C ) :   1.4062
B(  7-C ,  8-C ) :   0.9561 B(  8-C ,  9-O ) :   2.1653 B(  8-C , 10-N ) :   1.0141
B( 10-N , 11-C ) :   0.9477 B( 10-N , 13-C ) :   1.1617 B( 11-C , 12-C ) :   1.1147
B( 11-C , 61-H ) :   0.9506 B( 11-C , 62-H ) :   0.9215 B( 12-C , 63-H ) :   0.9678
B( 12-C , 64-H ) :   0.9676 B( 12-C , 65-H ) :   0.9626 B( 13-C , 14-C ) :   1.1586
B( 14-C , 15-C ) :   1.6232 B( 14-C , 66-H ) :   0.9424 B( 15-C , 16-C ) :   1.0700
B( 15-C , 67-H ) :   0.9894 B( 16-C , 17-C ) :   1.3083 B( 16-C , 24-C ) :   1.3184
B( 17-C , 18-C ) :   1.4148 B( 17-C , 68-H ) :   0.9869 B( 18-C , 19-N ) :   0.8520
B( 18-C , 22-C ) :   1.3592 B( 19-N , 20-O ) :   1.5293 B( 19-N , 21-O ) :   1.5528
B( 20-O , 21-O ) :   0.2742 B( 22-C , 23-C ) :   1.3380 B( 22-C , 25-C ) :   1.0606
B( 23-C , 24-C ) :   1.3955 B( 23-C , 69-H ) :   0.9920 B( 24-C , 70-H ) :   0.9987
B( 25-C , 26-C ) :   1.7537 B( 25-C , 71-H ) :   0.9597 B( 26-C , 27-C ) :   1.1192
B( 26-C , 72-H ) :   0.9519 B( 27-C , 28-S ) :   1.0948 B( 27-C , 31-C ) :   1.5334
B( 28-S , 29-C ) :   1.1850 B( 29-C , 30-C ) :   1.3831 B( 29-C , 34-C ) :   1.1720
B( 30-C , 31-C ) :   1.2201 B( 30-C , 32-C ) :   1.0178 B( 31-C , 73-H ) :   0.9885
B( 32-C , 33-O ) :   2.0851 B( 32-C , 74-H ) :   0.9605 B( 33-O , 76-H ) :   0.1170
B( 34-C , 35-C ) :   1.6381 B( 34-C , 75-H ) :   0.9405 B( 35-C , 36-C ) :   1.1651
B( 35-C , 76-H ) :   0.9493 B( 36-C , 37-S ) :   1.0571 B( 36-C , 40-C ) :   1.4839
B( 37-S , 38-C ) :   1.1441 B( 38-C , 39-C ) :   1.3786 B( 38-C , 43-C ) :   1.1977
B( 39-C , 40-C ) :   1.2127 B( 39-C , 41-C ) :   1.0042 B( 40-C , 77-H ) :   1.0123
B( 41-C , 42-O ) :   2.1777 B( 41-C , 78-H ) :   0.9593 B( 43-C , 44-C ) :   1.6274
B( 43-C , 79-H ) :   0.9633 B( 44-C , 45-C ) :   1.1781 B( 44-C , 80-H ) :   0.9446
B( 45-C , 46-S ) :   1.1546 B( 45-C , 47-C ) :   0.1035 B( 45-C , 49-C ) :   1.3270
B( 46-S , 47-C ) :   1.2249 B( 47-C , 48-C ) :   1.4035 B( 47-C , 81-H ) :   0.9703
B( 48-C , 49-C ) :   1.2087 B( 48-C , 54-C ) :   1.1680 B( 49-C , 50-C ) :   1.2355
B( 50-C , 51-C ) :   1.5221 B( 50-C , 82-H ) :   0.9773 B( 51-C , 52-S ) :   1.0497
B( 51-C , 53-C ) :   1.1981 B( 52-S , 83-H ) :   0.9559 B( 53-C , 54-C ) :   1.5939
B( 53-C , 84-H ) :   0.9836 B( 54-C , 85-H ) :   1.0001

-----------------------------------------------------------------------------
         ABSORPTION SPECTRUM VIA TRANSITION ELECTRIC DIPOLE MOMENTS
-----------------------------------------------------------------------------
State   Energy  Wavelength   fosc         T2         TX        TY        TZ
        (cm-1)    (nm)                  (au**2)     (au)      (au)      (au)
-----------------------------------------------------------------------------
   0   18572.2    538.4   1.757234441  31.14885   5.00359  -2.43773  -0.41280
   1   21619.8    462.5   0.792838812  12.07281   0.74937   0.71765  -3.31606
   2   23828.0    419.7   0.153243703   2.11725  -0.04167  -1.02013  -1.03674
   3   26086.1    383.3   0.024504149   0.30925  -0.07967   0.47944   0.27025
   4   26424.0    378.4   0.029601570   0.36880   0.23546  -0.34901  -0.43766
   5   26838.7    372.6   0.041687362   0.51135   0.28359  -0.46486  -0.46350
   6   29285.6    341.5   0.017029799   0.19144  -0.24942  -0.06225   0.35405
   7   29624.3    337.6   0.024473237   0.27197  -0.33038  -0.36047   0.18133
   8   29934.7    334.1   0.146985540   1.61650   0.76527  -0.64811  -0.78154
   9   30437.0    328.5   0.188777652   2.04185  -0.67609   0.66108   1.07132
  10   31059.6    322.0   0.000385686   0.00409  -0.06289  -0.01152   0.00004
  11   31244.0    320.1   0.067174692   0.70781   0.28768  -0.21302  -0.76136
  12   32582.7    306.9   0.103638659   1.04715   0.11056   0.68316  -0.75380
  13   33156.8    301.6   0.184593660   1.83282   0.59573  -0.88724  -0.83110
  14   33809.0    295.8   0.166129968   1.61767  -0.05956  -0.04769   1.26959
  15   35099.7    284.9   0.084210487   0.78984  -0.45711   0.42528   0.63248
  16   35454.6    282.1   0.058935243   0.54724   0.00701   0.62533   0.39516
  17   35772.4    279.5   0.015321737   0.14101  -0.08103  -0.27105  -0.24692
  18   36409.1    274.7   0.174064535   1.57390  -0.73878   0.36513   0.94593
  19   36916.4    270.9   0.011795543   0.10519  -0.00110  -0.27371   0.17399
  20   37557.1    266.3   0.048691152   0.42681   0.56993  -0.30211  -0.10354
  21   37805.8    264.5   0.025321897   0.22050  -0.19022   0.00339   0.42931
  22   38164.1    262.0   0.225401630   1.94436  -0.50358   1.20160   0.49691
  23   38787.5    257.8   0.023328054   0.19800   0.34404   0.01491  -0.28181
  24   39579.7    252.7   0.179088996   1.48961  -0.22507   0.17991   1.18599
  25   40032.7    249.8   0.026197370   0.21544   0.22455  -0.39488  -0.09530

FINAL SINGLE POINT ENERGY     -3824.091144031109

DIPOLE MOMENT
-------------
                                X             Y             Z
Electronic contribution:    -39.88628      30.59982      35.27463
Nuclear contribution   :     39.37727     -31.63156     -37.25893
                        -----------------------------------------
Total Dipole Moment    :     -0.50901      -1.03174      -1.98430
                        -----------------------------------------
Magnitude (a.u.)       :      2.29369
Magnitude (Debye)      :      5.83010

Rotational constants in cm-1:     0.002339     0.000275     0.000256
Rotational constants in MHz :    70.112369     8.239906     7.666221

                             ****ORCA TERMINATED NORMALLY****
TOTAL RUN TIME: 0 days 0 hours 5 minutes 57 seconds 202 msec
