                         Program Version 4.2.0 -  RELEASE  -
|  1> # ORCA input file
|  2> # SCF done       -157.036726443592          0.000297205377
|  3> ! CAM-B3LYP def2-SVP def2/J RIJCOSX Grid4 TightSCF
|  4> %maxcore 5000
|  5> %tddft
|  6>     Mode sTDDFT
|  7>     Ethresh 5.0
|  8>     maxcore 5000
|  9> end
| 10>
| 11> %pal
| 12>   nprocs 6
| 13>   end
| 14> * xyz 0 1
| 15>    C       -0.79891         2.92268        -6.30564
| 16>    C       -1.61078         3.88979        -5.72314
| 17>    O       -2.15666         3.55398        -4.51184
| 18>    C       -3.51631         3.84997        -4.26926
| 19>    C       -1.81982         5.10237        -6.40525
| 20>    C       -1.29343         5.23668        -7.68893
| 21>    C       -0.49965         4.25738        -8.27181
| 22>    C       -0.22806         3.09787        -7.55137
| 23>    O       -0.03750         4.52968        -9.52635
| 24>    C        0.77240         3.57126       -10.16139
| 25>    C       -2.49667         6.26052        -5.84161
| 26>    C       -2.39098         6.63482        -4.55779
| 27>    C       -2.99675         7.78437        -3.93348
| 28>    C       -3.70408         8.81563        -4.55307
| 29>    C       -4.25585         9.90051        -3.82846
| 30>    N       -4.90092        10.82332        -4.59893
| 31>    C       -4.87437        10.51978        -5.83423
| 32>    S       -4.05126         9.03834        -6.24597
| 33>    C       -4.14866        10.01897        -2.42739
| 34>    C       -3.44168         8.98698        -1.80742
| 35>    C       -2.88085         7.90783        -2.53443
| 36>    N       -2.22980         6.98736        -1.76612
| 37>    C       -2.25273         7.29022        -0.53119
| 38>    S       -3.08835         8.76543        -0.11617
| 39>    C       -4.77168        11.15846        -1.80568
| 40>    C       -4.82219        11.44219        -0.49422
| 41>    C       -5.48835        12.58650         0.08996
| 42>    C       -5.58070        12.68822         1.47972
| 43>    C       -6.24000        13.76591         2.06005
| 44>    C       -6.80611        14.70826         1.19690
| 45>    N       -6.70436        14.64012        -0.11612
| 46>    C       -6.06053        13.62596        -0.65610
| 47>    C       -6.37063        13.88960         3.51137
| 48>    C       -6.25502        15.09682         4.19073
| 49>    C       -6.40847        15.22902         5.59715
| 50>    N       -6.21980        16.50128         6.05171
| 51>    C       -5.93048        17.31250         5.11309
| 52>    S       -5.85027        16.64738         3.50446
| 53>    C       -6.71916        14.11722         6.40360
| 54>    C       -6.82139        12.90845         5.71280
| 55>    C       -6.64576        12.77413         4.31447
| 56>    N       -6.79573        11.49813         3.85137
| 57>    C       -7.06048        10.68112         4.79140
| 58>    S       -7.17249        11.34768         6.39987
| 59>    C       -6.93152        14.14515         7.82863
| 60>    C       -6.85548        15.23544         8.60901
| 61>    C       -7.08900        15.29040        10.04005
| 62>    C       -7.04346        14.18112        10.89531
| 63>    O       -6.74120        12.91807        10.41095
| 64>    C       -5.36462        12.60829        10.45472
| 65>    C       -7.28492        14.33418        12.27060
| 66>    C       -7.58424        15.59263        12.77194
| 67>    C       -7.62478        16.70743        11.93753
| 68>    C       -7.36967        16.54970        10.58571
| 69>    O       -7.92203        17.89042        12.54460
| 70>    C       -8.00218        19.05028        11.75232
| 71>    C       -7.24050        13.15541        13.13378
| 72>    C       -7.00767        13.16487        14.43916
| 73>    H       -0.62710         2.01134        -5.75409
| 74>    H       -4.04886         4.09130        -5.19145
| 75>    H       -3.61827         4.68470        -3.57027
| 76>    H       -3.95665         2.95620        -3.82127
| 77>    H       -1.46720         6.14678        -8.24235
| 78>    H        0.39868         2.31879        -7.95437
| 79>    H        1.01498         3.99041       -11.13670
| 80>    H        0.24272         2.62266       -10.29798
| 81>    H        1.69846         3.39362        -9.60479
| 82>    H       -3.03617         6.86917        -6.55462
| 83>    H       -1.79472         6.04105        -3.87874
| 84>    H       -5.32461        11.11515        -6.60429
| 85>    H       -1.79684         6.69705         0.23705
| 86>    H       -5.24772        11.81350        -2.52071
| 87>    H       -4.36306        10.77877         0.22639
| 88>    H       -5.14212        11.92693         2.10739
| 89>    H       -7.38328        15.54116         1.57542
| 90>    H       -6.00013        13.64464        -1.73511
| 91>    H       -5.74546        18.35743         5.26977
| 92>    H       -7.21089         9.63048         4.63611
| 93>    H       -7.18789        13.18866         8.26291
| 94>    H       -6.63267        16.18509         8.14193
| 95>    H       -4.78455        13.29738         9.83036
| 96>    H       -5.26719        11.59592        10.06586
| 97>    H       -4.98121        12.64633        11.48061
| 98>    H       -7.80583        15.72946        13.81757
| 99>    H       -7.39881        17.39245         9.91289
|100>    H       -8.26402        19.85608        12.43633
|101>    H       -8.77842        18.96054        10.98557
|102>    H       -7.04374        19.27906        11.27505
|103>    H       -7.39525        12.21580        12.61950
|104>    H       -6.81605        14.07355        14.98459
|105>    H       -6.98974        12.25401        15.01280
|106> *
|107>
|108>                          ****END OF INPUT****

CARTESIAN COORDINATES (ANGSTROEM)
---------------------------------
  C     -0.798910    2.922680   -6.305640
  C     -1.610780    3.889790   -5.723140
  O     -2.156660    3.553980   -4.511840
  C     -3.516310    3.849970   -4.269260
  C     -1.819820    5.102370   -6.405250
  C     -1.293430    5.236680   -7.688930
  C     -0.499650    4.257380   -8.271810
  C     -0.228060    3.097870   -7.551370
  O     -0.037500    4.529680   -9.526350
  C      0.772400    3.571260  -10.161390
  C     -2.496670    6.260520   -5.841610
  C     -2.390980    6.634820   -4.557790
  C     -2.996750    7.784370   -3.933480
  C     -3.704080    8.815630   -4.553070
  C     -4.255850    9.900510   -3.828460
  N     -4.900920   10.823320   -4.598930
  C     -4.874370   10.519780   -5.834230
  S     -4.051260    9.038340   -6.245970
  C     -4.148660   10.018970   -2.427390
  C     -3.441680    8.986980   -1.807420
  C     -2.880850    7.907830   -2.534430
  N     -2.229800    6.987360   -1.766120
  C     -2.252730    7.290220   -0.531190
  S     -3.088350    8.765430   -0.116170
  C     -4.771680   11.158460   -1.805680
  C     -4.822190   11.442190   -0.494220
  C     -5.488350   12.586500    0.089960
  C     -5.580700   12.688220    1.479720
  C     -6.240000   13.765910    2.060050
  C     -6.806110   14.708260    1.196900
  N     -6.704360   14.640120   -0.116120
  C     -6.060530   13.625960   -0.656100
  C     -6.370630   13.889600    3.511370
  C     -6.255020   15.096820    4.190730
  C     -6.408470   15.229020    5.597150
  N     -6.219800   16.501280    6.051710
  C     -5.930480   17.312500    5.113090
  S     -5.850270   16.647380    3.504460
  C     -6.719160   14.117220    6.403600
  C     -6.821390   12.908450    5.712800
  C     -6.645760   12.774130    4.314470
  N     -6.795730   11.498130    3.851370
  C     -7.060480   10.681120    4.791400
  S     -7.172490   11.347680    6.399870
  C     -6.931520   14.145150    7.828630
  C     -6.855480   15.235440    8.609010
  C     -7.089000   15.290400   10.040050
  C     -7.043460   14.181120   10.895310
  O     -6.741200   12.918070   10.410950
  C     -5.364620   12.608290   10.454720
  C     -7.284920   14.334180   12.270600
  C     -7.584240   15.592630   12.771940
  C     -7.624780   16.707430   11.937530
  C     -7.369670   16.549700   10.585710
  O     -7.922030   17.890420   12.544600
  C     -8.002180   19.050280   11.752320
  C     -7.240500   13.155410   13.133780
  C     -7.007670   13.164870   14.439160
  H     -0.627100    2.011340   -5.754090
  H     -4.048860    4.091300   -5.191450
  H     -3.618270    4.684700   -3.570270
  H     -3.956650    2.956200   -3.821270
  H     -1.467200    6.146780   -8.242350
  H      0.398680    2.318790   -7.954370
  H      1.014980    3.990410  -11.136700
  H      0.242720    2.622660  -10.297980
  H      1.698460    3.393620   -9.604790
  H     -3.036170    6.869170   -6.554620
  H     -1.794720    6.041050   -3.878740
  H     -5.324610   11.115150   -6.604290
  H     -1.796840    6.697050    0.237050
  H     -5.247720   11.813500   -2.520710
  H     -4.363060   10.778770    0.226390
  H     -5.142120   11.926930    2.107390
  H     -7.383280   15.541160    1.575420
  H     -6.000130   13.644640   -1.735110
  H     -5.745460   18.357430    5.269770
  H     -7.210890    9.630480    4.636110
  H     -7.187890   13.188660    8.262910
  H     -6.632670   16.185090    8.141930
  H     -4.784550   13.297380    9.830360
  H     -5.267190   11.595920   10.065860
  H     -4.981210   12.646330   11.480610
  H     -7.805830   15.729460   13.817570
  H     -7.398810   17.392450    9.912890
  H     -8.264020   19.856080   12.436330
  H     -8.778420   18.960540   10.985570
  H     -7.043740   19.279060   11.275050
  H     -7.395250   12.215800   12.619500
  H     -6.816050   14.073550   14.984590
  H     -6.989740   12.254010   15.012800

 Total Charge           Charge          ....    0
 Multiplicity           Mult            ....    1
 Number of Electrons    NEL             ....  434
 Basis Dimension        Dim             ....  993

ORBITAL ENERGIES
----------------

  NO   OCC          E(Eh)            E(eV)
   0   2.0000     -88.960453     -2420.7370
   1   2.0000     -88.959957     -2420.7235
   2   2.0000     -88.959293     -2420.7054
   3   2.0000     -88.957674     -2420.6614
   4   2.0000     -19.234351      -523.3933
   5   2.0000     -19.230189      -523.2801
   6   2.0000     -19.223667      -523.1026
   7   2.0000     -19.220507      -523.0166
   8   2.0000     -14.411824      -392.1657
   9   2.0000     -14.411278      -392.1508
  10   2.0000     -14.411164      -392.1477
  11   2.0000     -14.410377      -392.1263
  12   2.0000     -14.390332      -391.5808
  13   2.0000     -10.335548      -281.2446
  14   2.0000     -10.334642      -281.2199
  15   2.0000     -10.334169      -281.2070
  16   2.0000     -10.334119      -281.2057
  17   2.0000     -10.320514      -280.8355
  18   2.0000     -10.315919      -280.7104
  19   2.0000     -10.314977      -280.6848
  20   2.0000     -10.313579      -280.6467
  21   2.0000     -10.311807      -280.5985
  22   2.0000     -10.310529      -280.5637
  23   2.0000     -10.307858      -280.4911
  24   2.0000     -10.307738      -280.4878
  25   2.0000     -10.307729      -280.4876
  26   2.0000     -10.307654      -280.4855
  27   2.0000     -10.307273      -280.4751
  28   2.0000     -10.306499      -280.4541
  29   2.0000     -10.306046      -280.4418
  30   2.0000     -10.305365      -280.4232
  31   2.0000     -10.302932      -280.3570
  32   2.0000     -10.301758      -280.3251
  33   2.0000     -10.293105      -280.0896
  34   2.0000     -10.292052      -280.0610
  35   2.0000     -10.291473      -280.0452
  36   2.0000     -10.290929      -280.0304
  37   2.0000     -10.290763      -280.0259
  38   2.0000     -10.289213      -279.9837
  39   2.0000     -10.280453      -279.7453
  40   2.0000     -10.275800      -279.6187
  41   2.0000     -10.275453      -279.6093
  42   2.0000     -10.272450      -279.5276
  43   2.0000     -10.271827      -279.5106
  44   2.0000     -10.270441      -279.4729
  45   2.0000     -10.269894      -279.4580
  46   2.0000     -10.269720      -279.4533
  47   2.0000     -10.268766      -279.4273
  48   2.0000     -10.264272      -279.3050
  49   2.0000     -10.262709      -279.2625
  50   2.0000     -10.262028      -279.2440
  51   2.0000     -10.261008      -279.2162
  52   2.0000     -10.260794      -279.2104
  53   2.0000     -10.259942      -279.1872
  54   2.0000     -10.257254      -279.1141
  55   2.0000     -10.256393      -279.0907
  56   2.0000     -10.255706      -279.0720
  57   2.0000     -10.255591      -279.0688
  58   2.0000      -8.056098      -219.2176
  59   2.0000      -8.055687      -219.2064
  60   2.0000      -8.055376      -219.1979
  61   2.0000      -8.053803      -219.1551
  62   2.0000      -6.025525      -163.9629
  63   2.0000      -6.025078      -163.9507
  64   2.0000      -6.024710      -163.9407
  65   2.0000      -6.023115      -163.8973
  66   2.0000      -6.021322      -163.8485
  67   2.0000      -6.020928      -163.8378
  68   2.0000      -6.020597      -163.8288
  69   2.0000      -6.019082      -163.7876
  70   2.0000      -6.017916      -163.7558
  71   2.0000      -6.017505      -163.7446
  72   2.0000      -6.017163      -163.7353
  73   2.0000      -6.015592      -163.6926
  74   2.0000      -1.138617       -30.9834
  75   2.0000      -1.134220       -30.8637
  76   2.0000      -1.126675       -30.6584
  77   2.0000      -1.122791       -30.5527
  78   2.0000      -1.070253       -29.1231
  79   2.0000      -1.069945       -29.1147
  80   2.0000      -1.063271       -28.9331
  81   2.0000      -1.062879       -28.9224
  82   2.0000      -1.026429       -27.9306
  83   2.0000      -0.949453       -25.8359
  84   2.0000      -0.948462       -25.8090
  85   2.0000      -0.942891       -25.6574
  86   2.0000      -0.938175       -25.5290
  87   2.0000      -0.927601       -25.2413
  88   2.0000      -0.926674       -25.2161
  89   2.0000      -0.900686       -24.5089
  90   2.0000      -0.888074       -24.1657
  91   2.0000      -0.885362       -24.0919
  92   2.0000      -0.881816       -23.9954
  93   2.0000      -0.874641       -23.8002
  94   2.0000      -0.868677       -23.6379
  95   2.0000      -0.858513       -23.3613
  96   2.0000      -0.847817       -23.0703
  97   2.0000      -0.836688       -22.7674
  98   2.0000      -0.835910       -22.7463
  99   2.0000      -0.823489       -22.4083
 100   2.0000      -0.821553       -22.3556
 101   2.0000      -0.818355       -22.2686
 102   2.0000      -0.810886       -22.0653
 103   2.0000      -0.794056       -21.6074
 104   2.0000      -0.791438       -21.5361
 105   2.0000      -0.781012       -21.2524
 106   2.0000      -0.780417       -21.2362
 107   2.0000      -0.751263       -20.4429
 108   2.0000      -0.743457       -20.2305
 109   2.0000      -0.737510       -20.0687
 110   2.0000      -0.735483       -20.0135
 111   2.0000      -0.726337       -19.7646
 112   2.0000      -0.716903       -19.5079
 113   2.0000      -0.707249       -19.2452
 114   2.0000      -0.702225       -19.1085
 115   2.0000      -0.692541       -18.8450
 116   2.0000      -0.687317       -18.7028
 117   2.0000      -0.679104       -18.4794
 118   2.0000      -0.675725       -18.3874
 119   2.0000      -0.665131       -18.0991
 120   2.0000      -0.650967       -17.7137
 121   2.0000      -0.649370       -17.6703
 122   2.0000      -0.648990       -17.6599
 123   2.0000      -0.644248       -17.5309
 124   2.0000      -0.633619       -17.2416
 125   2.0000      -0.628419       -17.1001
 126   2.0000      -0.620019       -16.8716
 127   2.0000      -0.613796       -16.7022
 128   2.0000      -0.607084       -16.5196
 129   2.0000      -0.596168       -16.2226
 130   2.0000      -0.595274       -16.1982
 131   2.0000      -0.591115       -16.0850
 132   2.0000      -0.584020       -15.8920
 133   2.0000      -0.583019       -15.8647
 134   2.0000      -0.581501       -15.8234
 135   2.0000      -0.578441       -15.7402
 136   2.0000      -0.572682       -15.5835
 137   2.0000      -0.568451       -15.4683
 138   2.0000      -0.564655       -15.3650
 139   2.0000      -0.546659       -14.8753
 140   2.0000      -0.546317       -14.8661
 141   2.0000      -0.541824       -14.7438
 142   2.0000      -0.539586       -14.6829
 143   2.0000      -0.538261       -14.6468
 144   2.0000      -0.535938       -14.5836
 145   2.0000      -0.533467       -14.5164
 146   2.0000      -0.531683       -14.4678
 147   2.0000      -0.531350       -14.4588
 148   2.0000      -0.530309       -14.4304
 149   2.0000      -0.527148       -14.3444
 150   2.0000      -0.523142       -14.2354
 151   2.0000      -0.521718       -14.1967
 152   2.0000      -0.518243       -14.1021
 153   2.0000      -0.513722       -13.9791
 154   2.0000      -0.511552       -13.9200
 155   2.0000      -0.510522       -13.8920
 156   2.0000      -0.505483       -13.7549
 157   2.0000      -0.504440       -13.7265
 158   2.0000      -0.497081       -13.5263
 159   2.0000      -0.496833       -13.5195
 160   2.0000      -0.496613       -13.5135
 161   2.0000      -0.492165       -13.3925
 162   2.0000      -0.491524       -13.3751
 163   2.0000      -0.485304       -13.2058
 164   2.0000      -0.483241       -13.1496
 165   2.0000      -0.482006       -13.1160
 166   2.0000      -0.479874       -13.0580
 167   2.0000      -0.477312       -12.9883
 168   2.0000      -0.470955       -12.8153
 169   2.0000      -0.469856       -12.7854
 170   2.0000      -0.468179       -12.7398
 171   2.0000      -0.459051       -12.4914
 172   2.0000      -0.457153       -12.4398
 173   2.0000      -0.454819       -12.3763
 174   2.0000      -0.452817       -12.3218
 175   2.0000      -0.446825       -12.1587
 176   2.0000      -0.444676       -12.1002
 177   2.0000      -0.440032       -11.9739
 178   2.0000      -0.439444       -11.9579
 179   2.0000      -0.433141       -11.7864
 180   2.0000      -0.430058       -11.7025
 181   2.0000      -0.425894       -11.5892
 182   2.0000      -0.424313       -11.5462
 183   2.0000      -0.421958       -11.4820
 184   2.0000      -0.419358       -11.4113
 185   2.0000      -0.412202       -11.2166
 186   2.0000      -0.411699       -11.2029
 187   2.0000      -0.407477       -11.0880
 188   2.0000      -0.405849       -11.0437
 189   2.0000      -0.405090       -11.0231
 190   2.0000      -0.398019       -10.8307
 191   2.0000      -0.393456       -10.7065
 192   2.0000      -0.392439       -10.6788
 193   2.0000      -0.386979       -10.5302
 194   2.0000      -0.377584       -10.2746
 195   2.0000      -0.375081       -10.2065
 196   2.0000      -0.356691        -9.7061
 197   2.0000      -0.356180        -9.6922
 198   2.0000      -0.351595        -9.5674
 199   2.0000      -0.351148        -9.5552
 200   2.0000      -0.348637        -9.4869
 201   2.0000      -0.348354        -9.4792
 202   2.0000      -0.345142        -9.3918
 203   2.0000      -0.342781        -9.3275
 204   2.0000      -0.337153        -9.1744
 205   2.0000      -0.332897        -9.0586
 206   2.0000      -0.329051        -8.9539
 207   2.0000      -0.314666        -8.5625
 208   2.0000      -0.314080        -8.5465
 209   2.0000      -0.301977        -8.2172
 210   2.0000      -0.301964        -8.2169
 211   2.0000      -0.295366        -8.0373
 212   2.0000      -0.290012        -7.8916
 213   2.0000      -0.273456        -7.4411
 214   2.0000      -0.261379        -7.1125
 215   2.0000      -0.247499        -6.7348
 216   2.0000      -0.242376        -6.5954
 217   0.0000      -0.049901        -1.3579
 218   0.0000      -0.041098        -1.1183
 219   0.0000      -0.004219        -0.1148
 220   0.0000      -0.000844        -0.0230
 221   0.0000       0.007500         0.2041

MULLIKEN ATOMIC CHARGES
-----------------------
   0 C :   -0.015772
   1 C :    0.150970
   2 O :   -0.334284
   3 C :    0.194236
   4 C :    0.052482
   5 C :   -0.084170
   6 C :    0.254420
   7 C :   -0.083708
   8 O :   -0.316462
   9 C :    0.179849
  10 C :   -0.049897
  11 C :   -0.031400
  12 C :    0.011405
  13 C :   -0.109769
  14 C :    0.025372
  15 N :   -0.062298
  16 C :    0.026017
  17 S :    0.079434
  18 C :    0.025398
  19 C :   -0.108596
  20 C :    0.028231
  21 N :   -0.063693
  22 C :    0.026587
  23 S :    0.075792
  24 C :   -0.018799
  25 C :    0.003266
  26 C :    0.063264
  27 C :    0.014373
  28 C :   -0.030366
  29 C :   -0.025359
  30 N :   -0.053792
  31 C :   -0.021725
  32 C :    0.046578
  33 C :   -0.115985
  34 C :    0.015970
  35 N :   -0.059403
  36 C :    0.014439
  37 S :    0.109248
  38 C :    0.076795
  39 C :   -0.125142
  40 C :    0.018319
  41 N :   -0.062563
  42 C :    0.014778
  43 S :    0.091603
  44 C :   -0.076233
  45 C :   -0.032529
  46 C :    0.139128
  47 C :    0.061388
  48 O :   -0.356393
  49 C :    0.204965
  50 C :    0.076920
  51 C :   -0.099219
  52 C :    0.281274
  53 C :   -0.185010
  54 O :   -0.313370
  55 C :    0.179049
  56 C :   -0.020350
  57 C :   -0.014295
  58 H :   -0.023778
  59 H :    0.019967
  60 H :    0.031567
  61 H :    0.020654
  62 H :   -0.032002
  63 H :   -0.031001
  64 H :    0.033192
  65 H :    0.018176
  66 H :    0.018959
  67 H :    0.000416
  68 H :    0.022097
  69 H :    0.042823
  70 H :    0.042476
  71 H :   -0.001523
  72 H :   -0.017569
  73 H :   -0.010156
  74 H :   -0.000041
  75 H :    0.002173
  76 H :    0.040246
  77 H :    0.041694
  78 H :    0.001014
  79 H :   -0.004005
  80 H :    0.019012
  81 H :    0.026133
  82 H :    0.018068
  83 H :   -0.031799
  84 H :   -0.037587
  85 H :    0.033913
  86 H :    0.023077
  87 H :    0.019537
  88 H :    0.006062
  89 H :    0.016490
  90 H :    0.020742
Sum of atomic charges:    0.0000000

LOEWDIN ATOMIC CHARGES
----------------------
   0 C :   -0.031130
   1 C :    0.037795
   2 O :   -0.124098
   3 C :    0.079276
   4 C :   -0.050449
   5 C :   -0.034683
   6 C :    0.042084
   7 C :   -0.069314
   8 O :   -0.112425
   9 C :    0.074468
  10 C :   -0.021026
  11 C :   -0.019973
  12 C :   -0.037336
  13 C :   -0.166192
  14 C :   -0.026109
  15 N :   -0.086018
  16 C :   -0.104348
  17 S :    0.400399
  18 C :   -0.038908
  19 C :   -0.164781
  20 C :   -0.029318
  21 N :   -0.083873
  22 C :   -0.104923
  23 S :    0.399030
  24 C :   -0.014231
  25 C :   -0.022954
  26 C :   -0.045847
  27 C :    0.029837
  28 C :   -0.045924
  29 C :    0.007249
  30 N :   -0.066325
  31 C :    0.029026
  32 C :   -0.038796
  33 C :   -0.161324
  34 C :   -0.028335
  35 N :   -0.082943
  36 C :   -0.105332
  37 S :    0.405784
  38 C :   -0.034311
  39 C :   -0.164346
  40 C :   -0.031295
  41 N :   -0.087713
  42 C :   -0.104908
  43 S :    0.393180
  44 C :   -0.037485
  45 C :    0.000409
  46 C :   -0.031490
  47 C :    0.037402
  48 O :   -0.134945
  49 C :    0.077099
  50 C :   -0.034123
  51 C :   -0.031356
  52 C :    0.050888
  53 C :   -0.065745
  54 O :   -0.108618
  55 C :    0.075024
  56 C :   -0.018060
  57 C :   -0.042559
  58 H :    0.032088
  59 H :    0.015936
  60 H :    0.015886
  61 H :    0.018360
  62 H :    0.030328
  63 H :    0.026985
  64 H :    0.027107
  65 H :    0.012587
  66 H :    0.012862
  67 H :    0.009130
  68 H :    0.036626
  69 H :    0.020919
  70 H :    0.020755
  71 H :    0.031922
  72 H :    0.008819
  73 H :    0.030028
  74 H :    0.012759
  75 H :    0.021441
  76 H :    0.019648
  77 H :    0.019990
  78 H :    0.018562
  79 H :    0.026116
  80 H :    0.012779
  81 H :    0.021613
  82 H :    0.012865
  83 H :    0.030843
  84 H :    0.027121
  85 H :    0.027813
  86 H :    0.014623
  87 H :    0.013402
  88 H :    0.030489
  89 H :    0.020209
  90 H :    0.024313

  Mayer bond orders larger than 0.100000
B(  0-C ,  1-C ) :   1.4066 B(  0-C ,  7-C ) :   1.3356 B(  0-C , 58-H ) :   0.9890
B(  1-C ,  2-O ) :   1.1189 B(  1-C ,  4-C ) :   1.3036 B(  2-O ,  3-C ) :   0.9498
B(  3-C , 59-H ) :   0.9643 B(  3-C , 60-H ) :   0.9669 B(  3-C , 61-H ) :   0.9766
B(  4-C ,  5-C ) :   1.3307 B(  4-C , 10-C ) :   1.0353 B(  5-C ,  6-C ) :   1.3585
B(  5-C , 62-H ) :   1.0041 B(  6-C ,  7-C ) :   1.3024 B(  6-C ,  8-O ) :   1.1267
B(  7-C , 63-H ) :   1.0004 B(  8-O ,  9-C ) :   0.9765 B(  9-C , 64-H ) :   0.9797
B(  9-C , 65-H ) :   0.9685 B(  9-C , 66-H ) :   0.9682 B( 10-C , 11-C ) :   1.7001
B( 10-C , 67-H ) :   0.9514 B( 11-C , 12-C ) :   1.1468 B( 11-C , 68-H ) :   0.9590
B( 12-C , 13-C ) :   1.3599 B( 12-C , 18-C ) :   0.1066 B( 12-C , 20-C ) :   1.3028
B( 13-C , 14-C ) :   1.2986 B( 13-C , 17-S ) :   1.0630 B( 14-C , 15-N ) :   1.3230
B( 14-C , 18-C ) :   1.2980 B( 15-N , 16-C ) :   1.7731 B( 15-N , 17-S ) :   0.1050
B( 16-C , 17-S ) :   1.1049 B( 16-C , 69-H ) :   0.9631 B( 18-C , 19-C ) :   1.3610
B( 18-C , 24-C ) :   1.1373 B( 19-C , 20-C ) :   1.3005 B( 19-C , 23-S ) :   1.0647
B( 20-C , 21-N ) :   1.3174 B( 21-N , 22-C ) :   1.7758 B( 21-N , 23-S ) :   0.1056
B( 22-C , 23-S ) :   1.1037 B( 22-C , 70-H ) :   0.9629 B( 24-C , 25-C ) :   1.6560
B( 24-C , 71-H ) :   0.9603 B( 25-C , 26-C ) :   1.0707 B( 25-C , 72-H ) :   0.9671
B( 26-C , 27-C ) :   1.3556 B( 26-C , 31-C ) :   1.3221 B( 27-C , 28-C ) :   1.3935
B( 27-C , 73-H ) :   0.9886 B( 28-C , 29-C ) :   1.3526 B( 28-C , 32-C ) :   0.9441
B( 29-C , 30-N ) :   1.5521 B( 29-C , 74-H ) :   0.9835 B( 30-N , 31-C ) :   1.5775
B( 31-C , 75-H ) :   0.9841 B( 32-C , 33-C ) :   1.4074 B( 32-C , 38-C ) :   0.1067
B( 32-C , 40-C ) :   1.3792 B( 33-C , 34-C ) :   1.2833 B( 33-C , 37-S ) :   1.0692
B( 34-C , 35-N ) :   1.3186 B( 34-C , 38-C ) :   1.2953 B( 35-N , 36-C ) :   1.7518
B( 35-N , 37-S ) :   0.1073 B( 35-N , 79-H ) :   0.1004 B( 36-C , 37-S ) :   1.1148
B( 36-C , 76-H ) :   0.9638 B( 38-C , 39-C ) :   1.3658 B( 38-C , 44-C ) :   1.0811
B( 39-C , 40-C ) :   1.2806 B( 39-C , 43-S ) :   1.0668 B( 40-C , 41-N ) :   1.3152
B( 41-N , 42-C ) :   1.7656 B( 41-N , 43-S ) :   0.1076 B( 42-C , 43-S ) :   1.1130
B( 42-C , 77-H ) :   0.9631 B( 44-C , 45-C ) :   1.7191 B( 44-C , 78-H ) :   0.9640
B( 45-C , 46-C ) :   1.0352 B( 45-C , 79-H ) :   0.9501 B( 46-C , 47-C ) :   1.3583
B( 46-C , 53-C ) :   1.2799 B( 47-C , 48-O ) :   1.0963 B( 47-C , 50-C ) :   1.3440
B( 48-O , 49-C ) :   0.9349 B( 49-C , 80-H ) :   0.9655 B( 49-C , 81-H ) :   0.9830
B( 49-C , 82-H ) :   0.9663 B( 50-C , 51-C ) :   1.3487 B( 50-C , 56-C ) :   1.0408
B( 51-C , 52-C ) :   1.3308 B( 51-C , 83-H ) :   1.0053 B( 52-C , 53-C ) :   1.2812
B( 52-C , 54-O ) :   1.1372 B( 53-C , 84-H ) :   1.0085 B( 54-O , 55-C ) :   0.9728
B( 55-C , 85-H ) :   0.9788 B( 55-C , 86-H ) :   0.9686 B( 55-C , 87-H ) :   0.9689
B( 56-C , 57-C ) :   1.9541 B( 56-C , 88-H ) :   0.9634 B( 57-C , 89-H ) :   0.9526
B( 57-C , 90-H ) :   0.9523

-----------------------------------------------------------------------------
         ABSORPTION SPECTRUM VIA TRANSITION ELECTRIC DIPOLE MOMENTS
-----------------------------------------------------------------------------
State   Energy  Wavelength   fosc         T2         TX        TY        TZ
        (cm-1)    (nm)                  (au**2)     (au)      (au)      (au)
-----------------------------------------------------------------------------
   0   26501.4    377.3   1.838053491  22.83313   1.45788  -2.85124  -3.54657
   1   28201.2    354.6   0.755161531   8.81552  -0.18491  -0.59179   2.90364
   2   30465.1    328.2   0.088913540   0.96082   0.35711  -0.41360  -0.81377
   3   31263.5    319.9   0.023803650   0.25066  -0.08328   0.28555   0.40272
   4   32010.6    312.4   0.074237218   0.76349  -0.46111   0.70536   0.23096
   5   32787.7    305.0   0.149957603   1.50568  -0.37690   0.85466   0.79573
   6   33173.7    301.4   0.058452157   0.58007   0.05904  -0.28655  -0.70319
   7   34682.2    288.3   0.204412753   1.94033   0.09828  -0.45197  -1.31393
   8   37455.3    267.0   0.010738167   0.09438  -0.19004   0.24111   0.01154
   9   37582.9    266.1   0.031559259   0.27645   0.11509  -0.50538   0.08826
  10   37955.4    263.5   0.431929976   3.74641   0.82009  -0.94240   1.47842
  11   39603.9    252.5   0.001498886   0.01246  -0.02979   0.02424  -0.10481
  12   39683.7    252.0   0.165307852   1.37138  -0.20111   1.12638   0.24942
  13   40179.9    248.9   0.082047389   0.67225   0.05261   0.73916   0.35090

FINAL SINGLE POINT ENERGY     -3898.650643345066

DIPOLE MOMENT
-------------
                                X             Y             Z
Electronic contribution:     -7.40719      13.59397     -19.84137
Nuclear contribution   :      8.06145     -13.92159      19.94595
                        -----------------------------------------
Total Dipole Moment    :      0.65426      -0.32763       0.10458
                        -----------------------------------------
Magnitude (a.u.)       :      0.73915
Magnitude (Debye)      :      1.87876

Rotational constants in cm-1:     0.003463     0.000311     0.000291
Rotational constants in MHz :   103.806023     9.322202     8.713270

                             ****ORCA TERMINATED NORMALLY****
TOTAL RUN TIME: 0 days 0 hours 5 minutes 53 seconds 293 msec
