                         Program Version 4.2.0 -  RELEASE  -
|  1> # ORCA input file
|  2> # SCF done       -149.333337196845          0.000347319206
|  3> ! CAM-B3LYP def2-SVP def2/J RIJCOSX Grid4 TightSCF
|  4> %maxcore 5000
|  5> %tddft
|  6>     Mode sTDDFT
|  7>     Ethresh 5.0
|  8>     maxcore 5000
|  9> end
| 10>
| 11> %pal
| 12>   nprocs 6
| 13>   end
| 14> * xyz 0 1
| 15>    C        2.31893       -13.14307         5.12592
| 16>    S        1.52299       -11.67169         4.79593
| 17>    C        0.83328       -12.28167         3.31522
| 18>    C        1.23669       -13.61033         3.11006
| 19>    C        2.08899       -14.09507         4.15236
| 20>    C        2.57950       -15.41586         4.09128
| 21>    C        2.24585       -16.23302         3.04134
| 22>    C        2.74737       -17.60669         2.99099
| 23>    C        3.94140       -17.98742         3.42353
| 24>    C        1.39344       -15.74751         1.99944
| 25>    C        1.04705       -16.63624         0.84419
| 26>    C        0.91102       -14.46728         2.04413
| 27>    C        0.00863       -11.49877         2.49206
| 28>    C       -0.34155       -10.20083         2.72995
| 29>    C       -1.15593        -9.43428         1.88454
| 30>    S       -1.83018       -10.08126         0.42053
| 31>    C       -2.61336        -8.58238         0.00134
| 32>    C       -2.35310        -7.60689         0.98516
| 33>    C       -1.53618        -8.08394         2.04700
| 34>    C       -1.20208        -7.22071         3.09797
| 35>    C       -1.65245        -5.91801         3.10957
| 36>    C       -1.30559        -5.03337         4.22025
| 37>    C       -0.16749        -5.08314         4.89999
| 38>    C       -2.46934        -5.44090         2.04397
| 39>    C       -2.94667        -4.02052         2.03803
| 40>    C       -2.80335        -6.27719         1.01007
| 41>    C       -3.36893        -8.43510        -1.16768
| 42>    C       -3.58064        -9.43981        -2.06790
| 43>    C       -4.30856        -9.37276        -3.28095
| 44>    C       -4.39682       -10.56096        -4.06268
| 45>    C       -5.08008       -10.58657        -5.31871
| 46>    N       -5.11741       -11.72816        -6.04809
| 47>    C       -4.53857       -12.78831        -5.56050
| 48>    C       -3.88299       -12.76858        -4.31413
| 49>    N       -3.81162       -11.68169        -3.59469
| 50>    C       -5.69103        -9.42803        -5.82983
| 51>    C       -5.63282        -8.25333        -5.05868
| 52>    C       -4.95249        -8.21416        -3.79665
| 53>    N       -4.92375        -7.06144        -3.09847
| 54>    C       -5.52819        -6.01247        -3.58806
| 55>    C       -6.22278        -6.06280        -4.81094
| 56>    N       -6.27267        -7.15289        -5.52102
| 57>    C       -6.34113        -9.43359        -7.13620
| 58>    C       -7.18584       -10.46317        -7.53517
| 59>    C       -7.76457       -10.44592        -8.80504
| 60>    C       -7.48034        -9.33875        -9.61219
| 61>    N       -6.67302        -8.36243        -9.24837
| 62>    C       -6.10948        -8.40676        -8.05886
| 63>    C       -8.64045       -11.52826        -9.21086
| 64>    C       -9.03932       -11.78274       -10.46401
| 65>    C       -9.91262       -12.86881       -10.86667
| 66>    C      -10.71312       -13.59198        -9.98299
| 67>    C      -11.52763       -14.62228       -10.44799
| 68>    C      -11.50014       -14.87778       -11.82332
| 69>    N      -10.75561       -14.20101       -12.67619
| 70>    C       -9.99104       -13.22985       -12.21728
| 71>    C      -12.36084       -15.35956        -9.50678
| 72>    C      -13.13468       -16.40087        -9.78620
| 73>    H        2.91604       -13.23771         6.01093
| 74>    H        3.20318       -15.78018         4.89329
| 75>    H        2.07977       -18.34099         2.56063
| 76>    H        4.65413       -17.28677         3.82573
| 77>    H        4.25998       -19.01455         3.37295
| 78>    H        1.94827       -17.04832         0.39241
| 79>    H        0.49953       -16.08076         0.08686
| 80>    H        0.42406       -17.46871         1.17246
| 81>    H        0.27322       -14.10625         1.25090
| 82>    H       -0.36732       -11.97644         1.59681
| 83>    H        0.03207        -9.71600         3.62216
| 84>    H       -0.60440        -7.58496         3.91886
| 85>    H       -2.04460        -4.28823         4.48210
| 86>    H        0.61708        -5.77991         4.65616
| 87>    H        0.03116        -4.41146         5.71753
| 88>    H       -2.11060        -3.33301         2.15743
| 89>    H       -3.64627        -3.84612         2.85585
| 90>    H       -3.45369        -3.79359         1.10358
| 91>    H       -3.41878        -5.91434         0.20065
| 92>    H       -3.80074        -7.46469        -1.35866
| 93>    H       -3.15131       -10.41341        -1.86371
| 94>    H       -4.58189       -13.68582        -6.16379
| 95>    H       -3.40660       -13.65151        -3.90898
| 96>    H       -5.47886        -5.10540        -2.99970
| 97>    H       -6.74749        -5.20178        -5.20332
| 98>    H       -7.39637       -11.27671        -6.85695
| 99>    H       -7.93226        -9.22330       -10.58794
|100>    H       -5.43417        -7.59638        -7.82514
|101>    H       -8.95166       -12.18101        -8.40504
|102>    H       -8.67662       -11.16941       -11.27795
|103>    H      -10.72003       -13.34704        -8.93000
|104>    H      -12.11009       -15.65404       -12.26334
|105>    H       -9.39982       -12.71000       -12.96070
|106>    H      -12.31381       -14.99554        -8.48677
|107>    H      -13.21961       -16.81429       -10.77627
|108>    H      -13.71763       -16.88428        -9.02097
|109> *
|110>
|111>                          ****END OF INPUT****

CARTESIAN COORDINATES (ANGSTROEM)
---------------------------------
  C      2.318930  -13.143070    5.125920
  S      1.522990  -11.671690    4.795930
  C      0.833280  -12.281670    3.315220
  C      1.236690  -13.610330    3.110060
  C      2.088990  -14.095070    4.152360
  C      2.579500  -15.415860    4.091280
  C      2.245850  -16.233020    3.041340
  C      2.747370  -17.606690    2.990990
  C      3.941400  -17.987420    3.423530
  C      1.393440  -15.747510    1.999440
  C      1.047050  -16.636240    0.844190
  C      0.911020  -14.467280    2.044130
  C      0.008630  -11.498770    2.492060
  C     -0.341550  -10.200830    2.729950
  C     -1.155930   -9.434280    1.884540
  S     -1.830180  -10.081260    0.420530
  C     -2.613360   -8.582380    0.001340
  C     -2.353100   -7.606890    0.985160
  C     -1.536180   -8.083940    2.047000
  C     -1.202080   -7.220710    3.097970
  C     -1.652450   -5.918010    3.109570
  C     -1.305590   -5.033370    4.220250
  C     -0.167490   -5.083140    4.899990
  C     -2.469340   -5.440900    2.043970
  C     -2.946670   -4.020520    2.038030
  C     -2.803350   -6.277190    1.010070
  C     -3.368930   -8.435100   -1.167680
  C     -3.580640   -9.439810   -2.067900
  C     -4.308560   -9.372760   -3.280950
  C     -4.396820  -10.560960   -4.062680
  C     -5.080080  -10.586570   -5.318710
  N     -5.117410  -11.728160   -6.048090
  C     -4.538570  -12.788310   -5.560500
  C     -3.882990  -12.768580   -4.314130
  N     -3.811620  -11.681690   -3.594690
  C     -5.691030   -9.428030   -5.829830
  C     -5.632820   -8.253330   -5.058680
  C     -4.952490   -8.214160   -3.796650
  N     -4.923750   -7.061440   -3.098470
  C     -5.528190   -6.012470   -3.588060
  C     -6.222780   -6.062800   -4.810940
  N     -6.272670   -7.152890   -5.521020
  C     -6.341130   -9.433590   -7.136200
  C     -7.185840  -10.463170   -7.535170
  C     -7.764570  -10.445920   -8.805040
  C     -7.480340   -9.338750   -9.612190
  N     -6.673020   -8.362430   -9.248370
  C     -6.109480   -8.406760   -8.058860
  C     -8.640450  -11.528260   -9.210860
  C     -9.039320  -11.782740  -10.464010
  C     -9.912620  -12.868810  -10.866670
  C    -10.713120  -13.591980   -9.982990
  C    -11.527630  -14.622280  -10.447990
  C    -11.500140  -14.877780  -11.823320
  N    -10.755610  -14.201010  -12.676190
  C     -9.991040  -13.229850  -12.217280
  C    -12.360840  -15.359560   -9.506780
  C    -13.134680  -16.400870   -9.786200
  H      2.916040  -13.237710    6.010930
  H      3.203180  -15.780180    4.893290
  H      2.079770  -18.340990    2.560630
  H      4.654130  -17.286770    3.825730
  H      4.259980  -19.014550    3.372950
  H      1.948270  -17.048320    0.392410
  H      0.499530  -16.080760    0.086860
  H      0.424060  -17.468710    1.172460
  H      0.273220  -14.106250    1.250900
  H     -0.367320  -11.976440    1.596810
  H      0.032070   -9.716000    3.622160
  H     -0.604400   -7.584960    3.918860
  H     -2.044600   -4.288230    4.482100
  H      0.617080   -5.779910    4.656160
  H      0.031160   -4.411460    5.717530
  H     -2.110600   -3.333010    2.157430
  H     -3.646270   -3.846120    2.855850
  H     -3.453690   -3.793590    1.103580
  H     -3.418780   -5.914340    0.200650
  H     -3.800740   -7.464690   -1.358660
  H     -3.151310  -10.413410   -1.863710
  H     -4.581890  -13.685820   -6.163790
  H     -3.406600  -13.651510   -3.908980
  H     -5.478860   -5.105400   -2.999700
  H     -6.747490   -5.201780   -5.203320
  H     -7.396370  -11.276710   -6.856950
  H     -7.932260   -9.223300  -10.587940
  H     -5.434170   -7.596380   -7.825140
  H     -8.951660  -12.181010   -8.405040
  H     -8.676620  -11.169410  -11.277950
  H    -10.720030  -13.347040   -8.930000
  H    -12.110090  -15.654040  -12.263340
  H     -9.399820  -12.710000  -12.960700
  H    -12.313810  -14.995540   -8.486770
  H    -13.219610  -16.814290  -10.776270
  H    -13.717630  -16.884280   -9.020970

 Total Charge           Charge          ....    0
 Multiplicity           Mult            ....    1
 Number of Electrons    NEL             ....  410
 Basis Dimension        Dim             .... 1000

ORBITAL ENERGIES
----------------

  NO   OCC          E(Eh)            E(eV)
   0   2.0000     -88.961354     -2420.7615
   1   2.0000     -88.952853     -2420.5302
   2   2.0000     -14.423217      -392.4757
   3   2.0000     -14.422087      -392.4450
   4   2.0000     -14.419719      -392.3805
   5   2.0000     -14.419625      -392.3779
   6   2.0000     -14.390262      -391.5789
   7   2.0000     -14.380940      -391.3253
   8   2.0000     -10.317977      -280.7664
   9   2.0000     -10.317421      -280.7513
  10   2.0000     -10.316908      -280.7373
  11   2.0000     -10.315616      -280.7022
  12   2.0000     -10.315188      -280.6905
  13   2.0000     -10.314695      -280.6771
  14   2.0000     -10.314497      -280.6717
  15   2.0000     -10.313062      -280.6327
  16   2.0000     -10.301739      -280.3246
  17   2.0000     -10.296170      -280.1730
  18   2.0000     -10.293451      -280.0990
  19   2.0000     -10.291011      -280.0327
  20   2.0000     -10.290147      -280.0091
  21   2.0000     -10.290135      -280.0088
  22   2.0000     -10.288267      -279.9580
  23   2.0000     -10.285345      -279.8785
  24   2.0000     -10.283223      -279.8207
  25   2.0000     -10.282416      -279.7988
  26   2.0000     -10.279773      -279.7268
  27   2.0000     -10.277642      -279.6688
  28   2.0000     -10.277089      -279.6538
  29   2.0000     -10.276163      -279.6286
  30   2.0000     -10.275856      -279.6203
  31   2.0000     -10.275581      -279.6128
  32   2.0000     -10.275019      -279.5975
  33   2.0000     -10.274956      -279.5958
  34   2.0000     -10.274344      -279.5791
  35   2.0000     -10.273699      -279.5616
  36   2.0000     -10.273305      -279.5508
  37   2.0000     -10.272832      -279.5380
  38   2.0000     -10.271883      -279.5121
  39   2.0000     -10.271760      -279.5088
  40   2.0000     -10.270053      -279.4623
  41   2.0000     -10.269931      -279.4590
  42   2.0000     -10.269826      -279.4562
  43   2.0000     -10.269675      -279.4521
  44   2.0000     -10.269331      -279.4427
  45   2.0000     -10.269189      -279.4388
  46   2.0000     -10.269163      -279.4381
  47   2.0000     -10.267771      -279.4002
  48   2.0000     -10.267719      -279.3988
  49   2.0000     -10.266932      -279.3774
  50   2.0000     -10.266097      -279.3547
  51   2.0000     -10.263647      -279.2880
  52   2.0000     -10.262876      -279.2671
  53   2.0000     -10.262237      -279.2497
  54   2.0000     -10.262146      -279.2472
  55   2.0000     -10.261798      -279.2377
  56   2.0000     -10.260895      -279.2132
  57   2.0000     -10.256989      -279.1069
  58   2.0000      -8.056546      -219.2298
  59   2.0000      -8.047669      -218.9882
  60   2.0000      -6.025462      -163.9612
  61   2.0000      -6.021317      -163.8484
  62   2.0000      -6.019580      -163.8011
  63   2.0000      -6.016595      -163.7199
  64   2.0000      -6.012747      -163.6152
  65   2.0000      -6.010389      -163.5510
  66   2.0000      -1.080714       -29.4077
  67   2.0000      -1.073555       -29.2129
  68   2.0000      -1.024880       -27.8884
  69   2.0000      -1.018253       -27.7081
  70   2.0000      -1.003340       -27.3023
  71   2.0000      -0.997590       -27.1458
  72   2.0000      -0.990349       -26.9488
  73   2.0000      -0.986423       -26.8419
  74   2.0000      -0.945686       -25.7334
  75   2.0000      -0.939134       -25.5551
  76   2.0000      -0.935868       -25.4663
  77   2.0000      -0.914358       -24.8810
  78   2.0000      -0.905361       -24.6361
  79   2.0000      -0.899832       -24.4857
  80   2.0000      -0.891868       -24.2690
  81   2.0000      -0.877635       -23.8817
  82   2.0000      -0.873438       -23.7675
  83   2.0000      -0.869270       -23.6540
  84   2.0000      -0.866597       -23.5813
  85   2.0000      -0.860557       -23.4169
  86   2.0000      -0.852298       -23.1922
  87   2.0000      -0.847007       -23.0482
  88   2.0000      -0.837853       -22.7991
  89   2.0000      -0.822754       -22.3883
  90   2.0000      -0.818609       -22.2755
  91   2.0000      -0.810147       -22.0452
  92   2.0000      -0.799484       -21.7551
  93   2.0000      -0.790234       -21.5034
  94   2.0000      -0.786729       -21.4080
  95   2.0000      -0.776447       -21.1282
  96   2.0000      -0.764846       -20.8125
  97   2.0000      -0.759170       -20.6581
  98   2.0000      -0.751721       -20.4554
  99   2.0000      -0.735125       -20.0038
 100   2.0000      -0.726715       -19.7749
 101   2.0000      -0.720896       -19.6166
 102   2.0000      -0.715419       -19.4675
 103   2.0000      -0.710574       -19.3357
 104   2.0000      -0.707654       -19.2562
 105   2.0000      -0.705946       -19.2098
 106   2.0000      -0.692443       -18.8423
 107   2.0000      -0.685195       -18.6451
 108   2.0000      -0.674708       -18.3597
 109   2.0000      -0.667010       -18.1503
 110   2.0000      -0.653137       -17.7728
 111   2.0000      -0.651573       -17.7302
 112   2.0000      -0.647124       -17.6092
 113   2.0000      -0.639482       -17.4012
 114   2.0000      -0.631392       -17.1810
 115   2.0000      -0.629853       -17.1392
 116   2.0000      -0.621173       -16.9030
 117   2.0000      -0.616879       -16.7861
 118   2.0000      -0.613513       -16.6945
 119   2.0000      -0.607943       -16.5430
 120   2.0000      -0.597694       -16.2641
 121   2.0000      -0.590342       -16.0640
 122   2.0000      -0.588278       -16.0078
 123   2.0000      -0.587586       -15.9890
 124   2.0000      -0.585373       -15.9288
 125   2.0000      -0.573371       -15.6022
 126   2.0000      -0.572396       -15.5757
 127   2.0000      -0.564318       -15.3559
 128   2.0000      -0.558942       -15.2096
 129   2.0000      -0.555900       -15.1268
 130   2.0000      -0.551517       -15.0076
 131   2.0000      -0.546866       -14.8810
 132   2.0000      -0.538564       -14.6551
 133   2.0000      -0.536419       -14.5967
 134   2.0000      -0.533704       -14.5228
 135   2.0000      -0.527231       -14.3467
 136   2.0000      -0.526649       -14.3309
 137   2.0000      -0.522770       -14.2253
 138   2.0000      -0.520475       -14.1629
 139   2.0000      -0.517783       -14.0896
 140   2.0000      -0.511979       -13.9317
 141   2.0000      -0.509845       -13.8736
 142   2.0000      -0.508818       -13.8456
 143   2.0000      -0.507698       -13.8152
 144   2.0000      -0.504077       -13.7166
 145   2.0000      -0.502740       -13.6802
 146   2.0000      -0.500115       -13.6088
 147   2.0000      -0.497883       -13.5481
 148   2.0000      -0.493641       -13.4327
 149   2.0000      -0.490876       -13.3574
 150   2.0000      -0.487129       -13.2555
 151   2.0000      -0.483865       -13.1666
 152   2.0000      -0.482939       -13.1414
 153   2.0000      -0.480819       -13.0837
 154   2.0000      -0.480425       -13.0730
 155   2.0000      -0.479675       -13.0526
 156   2.0000      -0.472575       -12.8594
 157   2.0000      -0.470084       -12.7916
 158   2.0000      -0.466924       -12.7057
 159   2.0000      -0.464972       -12.6525
 160   2.0000      -0.459777       -12.5112
 161   2.0000      -0.458693       -12.4817
 162   2.0000      -0.454399       -12.3648
 163   2.0000      -0.452736       -12.3196
 164   2.0000      -0.449876       -12.2418
 165   2.0000      -0.448157       -12.1950
 166   2.0000      -0.440555       -11.9881
 167   2.0000      -0.439664       -11.9639
 168   2.0000      -0.436602       -11.8805
 169   2.0000      -0.432544       -11.7701
 170   2.0000      -0.422950       -11.5091
 171   2.0000      -0.422557       -11.4984
 172   2.0000      -0.419089       -11.4040
 173   2.0000      -0.418265       -11.3816
 174   2.0000      -0.413922       -11.2634
 175   2.0000      -0.412015       -11.2115
 176   2.0000      -0.410237       -11.1631
 177   2.0000      -0.408080       -11.1044
 178   2.0000      -0.407212       -11.0808
 179   2.0000      -0.406730       -11.0677
 180   2.0000      -0.400618       -10.9014
 181   2.0000      -0.398759       -10.8508
 182   2.0000      -0.396971       -10.8021
 183   2.0000      -0.386926       -10.5288
 184   2.0000      -0.382677       -10.4132
 185   2.0000      -0.375080       -10.2065
 186   2.0000      -0.369475       -10.0539
 187   2.0000      -0.360316        -9.8047
 188   2.0000      -0.355851        -9.6832
 189   2.0000      -0.348310        -9.4780
 190   2.0000      -0.340691        -9.2707
 191   2.0000      -0.327102        -8.9009
 192   2.0000      -0.326051        -8.8723
 193   2.0000      -0.319356        -8.6901
 194   2.0000      -0.317437        -8.6379
 195   2.0000      -0.314484        -8.5576
 196   2.0000      -0.313198        -8.5225
 197   2.0000      -0.305074        -8.3015
 198   2.0000      -0.298219        -8.1150
 199   2.0000      -0.294072        -8.0021
 200   2.0000      -0.292192        -7.9510
 201   2.0000      -0.277741        -7.5577
 202   2.0000      -0.264097        -7.1865
 203   2.0000      -0.251604        -6.8465
 204   2.0000      -0.202297        -5.5048
 205   0.0000      -0.087464        -2.3800
 206   0.0000      -0.055067        -1.4984
 207   0.0000      -0.021466        -0.5841
 208   0.0000      -0.020251        -0.5511
 209   0.0000      -0.003251        -0.0885

MULLIKEN ATOMIC CHARGES
-----------------------
   0 C :   -0.120064
   1 S :    0.136925
   2 C :   -0.121331
   3 C :    0.151948
   4 C :    0.103084
   5 C :   -0.077702
   6 C :    0.079495
   7 C :   -0.037338
   8 C :   -0.013240
   9 C :   -0.072058
  10 C :    0.096146
  11 C :   -0.096061
  12 C :   -0.006367
  13 C :   -0.029212
  14 C :   -0.070551
  15 S :    0.116568
  16 C :   -0.077900
  17 C :    0.137804
  18 C :    0.128075
  19 C :   -0.110108
  20 C :    0.085138
  21 C :   -0.038414
  22 C :   -0.014401
  23 C :   -0.073299
  24 C :    0.099844
  25 C :   -0.103310
  26 C :    0.020612
  27 C :   -0.128097
  28 C :    0.129902
  29 C :   -0.059600
  30 C :   -0.046108
  31 N :   -0.016804
  32 C :    0.026307
  33 C :    0.021293
  34 N :   -0.012601
  35 C :    0.068735
  36 C :   -0.054545
  37 C :   -0.054439
  38 N :   -0.025474
  39 C :    0.029619
  40 C :    0.029200
  41 N :   -0.008762
  42 C :   -0.037472
  43 C :    0.025440
  44 C :    0.060748
  45 C :   -0.019336
  46 N :   -0.062806
  47 C :    0.033897
  48 C :    0.014390
  49 C :    0.014088
  50 C :    0.076563
  51 C :   -0.033393
  52 C :    0.068688
  53 C :   -0.021085
  54 N :   -0.053558
  55 C :   -0.026189
  56 C :   -0.000183
  57 C :   -0.011912
  58 H :    0.015865
  59 H :   -0.037277
  60 H :   -0.002572
  61 H :    0.018568
  62 H :    0.021563
  63 H :    0.030459
  64 H :    0.008810
  65 H :    0.029866
  66 H :   -0.043828
  67 H :   -0.004077
  68 H :   -0.011735
  69 H :   -0.038986
  70 H :   -0.004626
  71 H :    0.018491
  72 H :    0.020806
  73 H :    0.030958
  74 H :    0.029977
  75 H :    0.006191
  76 H :   -0.041326
  77 H :    0.000947
  78 H :   -0.011192
  79 H :    0.012418
  80 H :    0.008046
  81 H :    0.007029
  82 H :    0.013605
  83 H :   -0.024873
  84 H :   -0.009674
  85 H :   -0.012878
  86 H :   -0.024226
  87 H :   -0.013873
  88 H :   -0.020878
  89 H :   -0.010691
  90 H :   -0.008178
  91 H :   -0.015735
  92 H :    0.018518
  93 H :    0.023713
Sum of atomic charges:   -0.0000000

LOEWDIN ATOMIC CHARGES
----------------------
   0 C :   -0.190148
   1 S :    0.472164
   2 C :   -0.185702
   3 C :   -0.039730
   4 C :   -0.055263
   5 C :   -0.003765
   6 C :   -0.031119
   7 C :   -0.020594
   8 C :   -0.039872
   9 C :   -0.015235
  10 C :   -0.045226
  11 C :   -0.029158
  12 C :   -0.034025
  13 C :   -0.059517
  14 C :   -0.155210
  15 S :    0.463670
  16 C :   -0.178387
  17 C :   -0.032181
  18 C :   -0.050935
  19 C :   -0.003133
  20 C :   -0.031340
  21 C :   -0.020749
  22 C :   -0.041219
  23 C :   -0.014127
  24 C :   -0.045074
  25 C :   -0.025989
  26 C :   -0.012479
  27 C :   -0.048417
  28 C :   -0.008526
  29 C :   -0.012274
  30 C :   -0.005740
  31 N :   -0.033773
  32 C :    0.006536
  33 C :   -0.001721
  34 N :   -0.028455
  35 C :   -0.032276
  36 C :   -0.002947
  37 C :   -0.013535
  38 N :   -0.025772
  39 C :    0.002008
  40 C :    0.006663
  41 N :   -0.026993
  42 C :   -0.034615
  43 C :    0.028105
  44 C :   -0.055761
  45 C :    0.023922
  46 N :   -0.073144
  47 C :    0.035835
  48 C :   -0.010566
  49 C :   -0.020453
  50 C :   -0.043988
  51 C :    0.011635
  52 C :   -0.046649
  53 C :    0.023062
  54 N :   -0.065187
  55 C :    0.015102
  56 C :   -0.021329
  57 C :   -0.037351
  58 H :    0.023155
  59 H :    0.027338
  60 H :    0.028058
  61 H :    0.021332
  62 H :    0.024374
  63 H :    0.035192
  64 H :    0.029682
  65 H :    0.034366
  66 H :    0.023909
  67 H :    0.026535
  68 H :    0.024668
  69 H :    0.025165
  70 H :    0.027890
  71 H :    0.020891
  72 H :    0.024223
  73 H :    0.035367
  74 H :    0.034437
  75 H :    0.029058
  76 H :    0.025973
  77 H :    0.027993
  78 H :    0.018213
  79 H :    0.026450
  80 H :    0.024825
  81 H :    0.023946
  82 H :    0.027393
  83 H :    0.025545
  84 H :    0.016480
  85 H :    0.016425
  86 H :    0.024553
  87 H :    0.028501
  88 H :    0.026051
  89 H :    0.017720
  90 H :    0.018684
  91 H :    0.027719
  92 H :    0.022124
  93 H :    0.026712

  Mayer bond orders larger than 0.100000
B(  0-C ,  1-S ) :   1.1960 B(  0-C ,  2-C ) :   0.1024 B(  0-C ,  4-C ) :   1.4075
B(  0-C , 58-H ) :   0.9681 B(  1-S ,  2-C ) :   1.1381 B(  2-C ,  3-C ) :   1.3121
B(  2-C , 12-C ) :   1.2193 B(  3-C ,  4-C ) :   1.2024 B(  3-C , 11-C ) :   1.1934
B(  4-C ,  5-C ) :   1.1492 B(  5-C ,  6-C ) :   1.5385 B(  5-C , 59-H ) :   1.0039
B(  6-C ,  7-C ) :   1.0238 B(  6-C ,  9-C ) :   1.1883 B(  7-C ,  8-C ) :   1.9851
B(  7-C , 60-H ) :   0.9502 B(  8-C , 61-H ) :   0.9575 B(  8-C , 62-H ) :   0.9507
B(  9-C , 10-C ) :   1.0874 B(  9-C , 11-C ) :   1.5649 B( 10-C , 63-H ) :   0.9433
B( 10-C , 64-H ) :   0.9546 B( 10-C , 65-H ) :   0.9404 B( 11-C , 66-H ) :   0.9899
B( 12-C , 13-C ) :   1.5762 B( 12-C , 67-H ) :   0.9659 B( 13-C , 14-C ) :   1.2318
B( 13-C , 68-H ) :   0.9682 B( 14-C , 15-S ) :   1.1406 B( 14-C , 18-C ) :   1.2728
B( 15-S , 16-C ) :   1.0969 B( 16-C , 17-C ) :   1.2883 B( 16-C , 26-C ) :   1.2223
B( 17-C , 18-C ) :   1.2124 B( 17-C , 25-C ) :   1.2070 B( 18-C , 19-C ) :   1.2042
B( 19-C , 20-C ) :   1.5062 B( 19-C , 69-H ) :   0.9918 B( 20-C , 21-C ) :   1.0298
B( 20-C , 23-C ) :   1.2099 B( 21-C , 22-C ) :   1.9765 B( 21-C , 70-H ) :   0.9512
B( 22-C , 71-H ) :   0.9569 B( 22-C , 72-H ) :   0.9502 B( 23-C , 24-C ) :   1.0879
B( 23-C , 25-C ) :   1.5372 B( 24-C , 73-H ) :   0.9435 B( 24-C , 74-H ) :   0.9402
B( 24-C , 75-H ) :   0.9539 B( 25-C , 76-H ) :   0.9922 B( 26-C , 27-C ) :   1.5195
B( 26-C , 77-H ) :   0.9439 B( 27-C , 28-C ) :   1.2441 B( 27-C , 78-H ) :   0.9506
B( 28-C , 29-C ) :   1.2043 B( 28-C , 35-C ) :   0.1382 B( 28-C , 37-C ) :   1.1928
B( 29-C , 30-C ) :   1.1515 B( 29-C , 34-N ) :   1.4731 B( 30-C , 31-N ) :   1.4418
B( 30-C , 35-C ) :   1.3158 B( 31-N , 32-C ) :   1.6912 B( 32-C , 33-C ) :   1.1919
B( 32-C , 79-H ) :   0.9741 B( 33-C , 34-N ) :   1.6822 B( 33-C , 80-H ) :   0.9750
B( 35-C , 36-C ) :   1.3103 B( 35-C , 42-C ) :   0.9540 B( 36-C , 37-C ) :   1.1424
B( 36-C , 41-N ) :   1.4543 B( 37-C , 38-N ) :   1.4615 B( 38-N , 39-C ) :   1.6626
B( 38-N , 77-H ) :   0.1006 B( 39-C , 40-C ) :   1.1964 B( 39-C , 81-H ) :   0.9728
B( 40-C , 41-N ) :   1.6901 B( 40-C , 82-H ) :   0.9749 B( 42-C , 43-C ) :   1.3993
B( 42-C , 47-C ) :   1.3537 B( 43-C , 44-C ) :   1.3537 B( 43-C , 83-H ) :   0.9874
B( 44-C , 45-C ) :   1.3353 B( 44-C , 48-C ) :   1.0479 B( 45-C , 46-N ) :   1.5673
B( 45-C , 84-H ) :   0.9821 B( 46-N , 47-C ) :   1.5559 B( 47-C , 85-H ) :   0.9795
B( 48-C , 49-C ) :   1.7470 B( 48-C , 86-H ) :   0.9739 B( 49-C , 50-C ) :   1.0450
B( 49-C , 87-H ) :   0.9748 B( 50-C , 51-C ) :   1.3614 B( 50-C , 55-C ) :   1.3274
B( 51-C , 52-C ) :   1.3862 B( 51-C , 88-H ) :   0.9886 B( 52-C , 53-C ) :   1.3223
B( 52-C , 56-C ) :   1.0515 B( 53-C , 54-N ) :   1.5769 B( 53-C , 89-H ) :   0.9858
B( 54-N , 55-C ) :   1.5540 B( 55-C , 90-H ) :   0.9878 B( 56-C , 57-C ) :   1.9594
B( 56-C , 91-H ) :   0.9695 B( 57-C , 92-H ) :   0.9500 B( 57-C , 93-H ) :   0.9491

-----------------------------------------------------------------------------
         ABSORPTION SPECTRUM VIA TRANSITION ELECTRIC DIPOLE MOMENTS
-----------------------------------------------------------------------------
State   Energy  Wavelength   fosc         T2         TX        TY        TZ
        (cm-1)    (nm)                  (au**2)     (au)      (au)      (au)
-----------------------------------------------------------------------------
   0   10757.7    929.6   0.837869779  25.64086  -2.86601   1.01226  -4.04996
   1   17654.3    566.4   0.395498049   7.37514  -1.34391   2.22372  -0.79000
   2   21386.7    467.6   0.107520737   1.65510   0.07107  -1.07792  -0.69866
   3   23800.9    420.2   0.015494352   0.21432  -0.09006   0.02405  -0.45346
   4   24713.4    404.6   0.054299678   0.72334  -0.07389  -0.82279  -0.20222
   5   26044.2    384.0   0.061419295   0.77637   0.39319  -0.78045  -0.11256
   6   26941.6    371.2   0.001011113   0.01236  -0.08325  -0.00201  -0.07362
   7   27114.6    368.8   0.019982358   0.24262   0.21892  -0.43834   0.05047
   8   27304.3    366.2   0.020921369   0.25225  -0.03631   0.46040   0.19740
   9   27686.1    361.2   0.009283785   0.11039  -0.08293  -0.10886  -0.30276
  10   28307.9    353.3   0.049165848   0.57178  -0.02613   0.68680   0.31529
  11   29011.0    344.7   0.295678870   3.35531   0.71710   0.46299   1.62072
  12   29698.7    336.7   0.008097900   0.08977  -0.22418  -0.18727  -0.06661
  13   30614.6    326.6   0.131435117   1.41338   0.49389   0.55924   0.92558
  14   31046.4    322.1   0.177581152   1.88305  -0.38374  -0.89040  -0.97107
  15   31317.4    319.3   0.005586643   0.05873  -0.10598  -0.21745   0.01462
  16   32577.7    307.0   0.164253869   1.65986  -0.04691  -1.03575  -0.76478
  17   33249.9    300.8   0.209675913   2.07603  -0.14413   1.30781   0.58728
  18   33910.5    294.9   0.430287813   4.17734  -0.45801   1.95969   0.35662
  19   34275.2    291.8   0.066466452   0.63841   0.15283   0.56117   0.54785
  20   35373.7    282.7   0.350061915   3.25792   0.71180   0.86022   1.41820
  21   35688.3    280.2   0.097142691   0.89611  -0.38121   0.86489   0.05239
  22   36053.6    277.4   0.040070548   0.36589  -0.38578  -0.11055  -0.45259
  23   36677.6    272.6   0.002916762   0.02618  -0.01503   0.11817   0.10950
  24   36773.2    271.9   0.017037849   0.15253  -0.13089   0.34324  -0.13262
  25   36836.3    271.5   0.025530268   0.22817  -0.29515   0.33915  -0.16134
  26   37097.4    269.6   0.035109199   0.31157  -0.43376  -0.10157  -0.33631
  27   38297.2    261.1   0.292375588   2.51333   0.28704  -1.50410  -0.41063
  28   38380.3    260.6   0.417522031   3.58135   1.08999   1.26260   0.89393
  29   38597.0    259.1   0.006073007   0.05180   0.00375   0.21769   0.06630
  30   38873.7    257.2   0.315621123   2.67292   0.55583   1.35104   0.73394
  31   38918.4    256.9   0.096998461   0.82051   0.58963   0.51340   0.45747
  32   39575.7    252.7   0.004885776   0.04064   0.19677  -0.00497   0.04360
  33   39951.7    250.3   0.035899541   0.29582  -0.21435   0.48732   0.11134
  34   40179.3    248.9   0.180802880   1.48142   0.83928   0.11452   0.87402
  35   40220.7    248.6   0.052378909   0.42873  -0.07873   0.57451   0.30409

FINAL SINGLE POINT ENERGY     -3048.658191466830

DIPOLE MOMENT
-------------
                                X             Y             Z
Electronic contribution:     -1.18274      14.81386      -8.52983
Nuclear contribution   :      2.07146     -15.22501      11.28077
                        -----------------------------------------
Total Dipole Moment    :      0.88872      -0.41115       2.75094
                        -----------------------------------------
Magnitude (a.u.)       :      2.92003
Magnitude (Debye)      :      7.42212

Rotational constants in cm-1:     0.001602     0.000445     0.000361
Rotational constants in MHz :    48.023639    13.342253    10.808214

                             ****ORCA TERMINATED NORMALLY****
TOTAL RUN TIME: 0 days 0 hours 7 minutes 31 seconds 538 msec
