                         Program Version 4.2.0 -  RELEASE  -
|  1> # ORCA input file
|  2> # SCF done       -164.633363573899          0.000520226302
|  3> ! CAM-B3LYP def2-SVP def2/J RIJCOSX Grid4 TightSCF
|  4> %maxcore 5000
|  5> %tddft
|  6>     Mode sTDDFT
|  7>     Ethresh 5.0
|  8>     maxcore 5000
|  9> end
| 10>
| 11> %pal
| 12>   nprocs 6
| 13>   end
| 14> * xyz 0 1
| 15>    C        0.98746         1.69923        -1.51648
| 16>    C       -0.11399         2.39389        -1.91106
| 17>    S       -1.45163         1.33902        -2.18561
| 18>    C       -0.51118        -0.07141        -1.75978
| 19>   Cl       -1.18609        -1.62424        -1.78681
| 20>    C        0.76187         0.28707        -1.42818
| 21>    C        1.98670        -0.39226        -0.99585
| 22>    O        2.15627        -1.57703        -0.82158
| 23>    C        3.00032         0.70424        -0.86862
| 24>    C        2.35896         1.98337        -1.14888
| 25>    C        2.90149         3.23590        -1.05199
| 26>    C        2.14370         4.38857        -1.35028
| 27>    N        1.54082         5.33329        -1.59429
| 28>    C        4.21811         3.52712        -0.64230
| 29>    N        5.27432         3.82480        -0.30563
| 30>    C        4.32962         0.49879        -0.69721
| 31>    C        4.94059        -0.77276        -0.42666
| 32>    C        6.10181        -1.18747        -1.10601
| 33>    N        6.63599        -2.36628        -0.93368
| 34>    C        6.03951        -3.21005        -0.08721
| 35>    N        5.00307        -2.87478         0.68472
| 36>    C        4.47668        -1.68551         0.53503
| 37>    C        6.58638        -4.54086        -0.03842
| 38>    N        6.27547        -5.50661         0.88230
| 39>    C        5.33254        -5.41923         1.97217
| 40>    C        3.90653        -5.68818         1.50192
| 41>    C        6.97053        -6.70096         0.62956
| 42>    O        6.86969        -7.69903         1.31892
| 43>    C        7.75958        -6.41792        -0.54712
| 44>    C        7.50869        -5.07487        -0.92823
| 45>    C        8.28068        -4.79644        -2.12780
| 46>    O        8.39953        -3.82494        -2.83278
| 47>    N        8.96730        -6.01215        -2.37481
| 48>    C        9.80786        -6.16435        -3.53748
| 49>    C        9.08220        -6.88626        -4.67061
| 50>    C        8.65526        -6.97954        -1.45626
| 51>    C        9.17895        -8.29811        -1.48539
| 52>    C        8.81408        -9.24602        -0.58783
| 53>    C        9.28604       -10.58358        -0.60684
| 54>    S       10.44940       -11.16662        -1.75532
| 55>    C       10.36090       -12.77325        -1.11374
| 56>    C       11.23244       -13.77328        -1.67156
| 57>    O       11.26192       -14.94861        -1.37533
| 58>    C        9.46812       -12.84104        -0.03904
| 59>    C        8.89751       -11.59345         0.25079
| 60>    C        9.18094       -14.01421         0.75355
| 61>    C        8.96328       -15.27851         0.34953
| 62>    C        9.02453       -16.38991         1.36008
| 63>    O        8.96989       -16.26908         2.55818
| 64>    C        9.21813       -17.59538         0.55030
| 65>    C        9.47252       -18.91719         0.76819
| 66>    S        9.61007       -19.77144        -0.74986
| 67>    C        9.31345       -18.33772        -1.66115
| 68>    C        9.12753       -17.26717        -0.84382
| 69>    C        8.83182       -15.85746        -0.98312
| 70>    C        8.34161       -15.26528        -2.11186
| 71>    C        8.22672       -15.97790        -3.32490
| 72>    N        8.13522       -16.53881        -4.32103
| 73>    C        7.86783       -13.94157        -2.18984
| 74>    N        7.43487       -12.88459        -2.30620
| 75>   Cl        9.64734       -19.71729         2.25010
| 76>    H       -0.23464         3.44787        -2.06477
| 77>    H        5.01357         1.32918        -0.82493
| 78>    H        6.58572        -0.54742        -1.83200
| 79>    H        3.68553        -1.42434         1.22399
| 80>    H        5.39962        -4.42836         2.42307
| 81>    H        5.63478        -6.18160         2.69594
| 82>    H        3.59367        -4.92455         0.79506
| 83>    H        3.23314        -5.67269         2.35389
| 84>    H        3.84650        -6.66437         1.02673
| 85>    H       10.72436        -6.69271        -3.26103
| 86>    H       10.06696        -5.15083        -3.85633
| 87>    H        8.77293        -7.88363        -4.36588
| 88>    H        9.73794        -6.97089        -5.53262
| 89>    H        8.19845        -6.32352        -4.96066
| 90>    H        9.88540        -8.55025        -2.26486
| 91>    H        8.10378        -9.00499         0.19355
| 92>    H       11.91316       -13.36556        -2.44300
| 93>    H        8.18427       -11.43583         1.04003
| 94>    H        9.16563       -13.85369         1.82771
| 95>    H        9.31302       -18.38241        -2.73212
| 96> *
| 97>
| 98>                          ****END OF INPUT****

CARTESIAN COORDINATES (ANGSTROEM)
---------------------------------
  C      0.987460    1.699230   -1.516480
  C     -0.113990    2.393890   -1.911060
  S     -1.451630    1.339020   -2.185610
  C     -0.511180   -0.071410   -1.759780
  Cl    -1.186090   -1.624240   -1.786810
  C      0.761870    0.287070   -1.428180
  C      1.986700   -0.392260   -0.995850
  O      2.156270   -1.577030   -0.821580
  C      3.000320    0.704240   -0.868620
  C      2.358960    1.983370   -1.148880
  C      2.901490    3.235900   -1.051990
  C      2.143700    4.388570   -1.350280
  N      1.540820    5.333290   -1.594290
  C      4.218110    3.527120   -0.642300
  N      5.274320    3.824800   -0.305630
  C      4.329620    0.498790   -0.697210
  C      4.940590   -0.772760   -0.426660
  C      6.101810   -1.187470   -1.106010
  N      6.635990   -2.366280   -0.933680
  C      6.039510   -3.210050   -0.087210
  N      5.003070   -2.874780    0.684720
  C      4.476680   -1.685510    0.535030
  C      6.586380   -4.540860   -0.038420
  N      6.275470   -5.506610    0.882300
  C      5.332540   -5.419230    1.972170
  C      3.906530   -5.688180    1.501920
  C      6.970530   -6.700960    0.629560
  O      6.869690   -7.699030    1.318920
  C      7.759580   -6.417920   -0.547120
  C      7.508690   -5.074870   -0.928230
  C      8.280680   -4.796440   -2.127800
  O      8.399530   -3.824940   -2.832780
  N      8.967300   -6.012150   -2.374810
  C      9.807860   -6.164350   -3.537480
  C      9.082200   -6.886260   -4.670610
  C      8.655260   -6.979540   -1.456260
  C      9.178950   -8.298110   -1.485390
  C      8.814080   -9.246020   -0.587830
  C      9.286040  -10.583580   -0.606840
  S     10.449400  -11.166620   -1.755320
  C     10.360900  -12.773250   -1.113740
  C     11.232440  -13.773280   -1.671560
  O     11.261920  -14.948610   -1.375330
  C      9.468120  -12.841040   -0.039040
  C      8.897510  -11.593450    0.250790
  C      9.180940  -14.014210    0.753550
  C      8.963280  -15.278510    0.349530
  C      9.024530  -16.389910    1.360080
  O      8.969890  -16.269080    2.558180
  C      9.218130  -17.595380    0.550300
  C      9.472520  -18.917190    0.768190
  S      9.610070  -19.771440   -0.749860
  C      9.313450  -18.337720   -1.661150
  C      9.127530  -17.267170   -0.843820
  C      8.831820  -15.857460   -0.983120
  C      8.341610  -15.265280   -2.111860
  C      8.226720  -15.977900   -3.324900
  N      8.135220  -16.538810   -4.321030
  C      7.867830  -13.941570   -2.189840
  N      7.434870  -12.884590   -2.306200
  Cl     9.647340  -19.717290    2.250100
  H     -0.234640    3.447870   -2.064770
  H      5.013570    1.329180   -0.824930
  H      6.585720   -0.547420   -1.832000
  H      3.685530   -1.424340    1.223990
  H      5.399620   -4.428360    2.423070
  H      5.634780   -6.181600    2.695940
  H      3.593670   -4.924550    0.795060
  H      3.233140   -5.672690    2.353890
  H      3.846500   -6.664370    1.026730
  H     10.724360   -6.692710   -3.261030
  H     10.066960   -5.150830   -3.856330
  H      8.772930   -7.883630   -4.365880
  H      9.737940   -6.970890   -5.532620
  H      8.198450   -6.323520   -4.960660
  H      9.885400   -8.550250   -2.264860
  H      8.103780   -9.004990    0.193550
  H     11.913160  -13.365560   -2.443000
  H      8.184270  -11.435830    1.040030
  H      9.165630  -13.853690    1.827710
  H      9.313020  -18.382410   -2.732120

 Total Charge           Charge          ....    0
 Multiplicity           Mult            ....    1
 Number of Electrons    NEL             ....  456
 Basis Dimension        Dim             ....  974

ORBITAL ENERGIES
----------------

  NO   OCC          E(Eh)            E(eV)
   0   2.0000    -101.624532     -2765.3441
   1   2.0000    -101.615511     -2765.0986
   2   2.0000     -89.002051     -2421.8689
   3   2.0000     -88.991508     -2421.5820
   4   2.0000     -88.982485     -2421.3365
   5   2.0000     -19.232221      -523.3353
   6   2.0000     -19.226923      -523.1912
   7   2.0000     -19.220047      -523.0041
   8   2.0000     -19.191986      -522.2405
   9   2.0000     -19.188183      -522.1370
  10   2.0000     -14.455260      -393.3476
  11   2.0000     -14.451141      -393.2355
  12   2.0000     -14.429444      -392.6451
  13   2.0000     -14.428281      -392.6135
  14   2.0000     -14.424619      -392.5138
  15   2.0000     -14.419166      -392.3654
  16   2.0000     -14.418633      -392.3509
  17   2.0000     -14.418170      -392.3383
  18   2.0000     -10.389384      -282.7095
  19   2.0000     -10.384613      -282.5797
  20   2.0000     -10.376368      -282.3553
  21   2.0000     -10.375929      -282.3434
  22   2.0000     -10.375265      -282.3253
  23   2.0000     -10.374020      -282.2914
  24   2.0000     -10.371005      -282.2094
  25   2.0000     -10.363088      -281.9940
  26   2.0000     -10.358381      -281.8659
  27   2.0000     -10.357778      -281.8495
  28   2.0000     -10.348828      -281.6059
  29   2.0000     -10.348168      -281.5880
  30   2.0000     -10.346093      -281.5315
  31   2.0000     -10.339418      -281.3499
  32   2.0000     -10.337917      -281.3090
  33   2.0000     -10.336241      -281.2634
  34   2.0000     -10.334221      -281.2084
  35   2.0000     -10.332562      -281.1633
  36   2.0000     -10.331117      -281.1240
  37   2.0000     -10.329993      -281.0934
  38   2.0000     -10.329933      -281.0918
  39   2.0000     -10.326338      -280.9939
  40   2.0000     -10.322292      -280.8838
  41   2.0000     -10.321431      -280.8604
  42   2.0000     -10.321013      -280.8491
  43   2.0000     -10.320711      -280.8408
  44   2.0000     -10.319870      -280.8179
  45   2.0000     -10.319323      -280.8031
  46   2.0000     -10.317609      -280.7564
  47   2.0000     -10.311074      -280.5786
  48   2.0000     -10.310034      -280.5503
  49   2.0000     -10.308827      -280.5174
  50   2.0000     -10.308671      -280.5132
  51   2.0000     -10.307676      -280.4861
  52   2.0000     -10.306062      -280.4422
  53   2.0000     -10.302262      -280.3388
  54   2.0000     -10.299477      -280.2630
  55   2.0000     -10.298648      -280.2405
  56   2.0000     -10.291273      -280.0398
  57   2.0000     -10.268982      -279.4332
  58   2.0000     -10.265697      -279.3438
  59   2.0000     -10.262348      -279.2527
  60   2.0000     -10.244954      -278.7794
  61   2.0000      -9.579304      -260.6661
  62   2.0000      -9.570307      -260.4213
  63   2.0000      -8.097731      -220.3505
  64   2.0000      -8.087265      -220.0657
  65   2.0000      -8.078017      -219.8140
  66   2.0000      -7.349971      -200.0029
  67   2.0000      -7.340952      -199.7575
  68   2.0000      -7.339331      -199.7133
  69   2.0000      -7.338771      -199.6981
  70   2.0000      -7.330329      -199.4684
  71   2.0000      -7.329808      -199.4542
  72   2.0000      -6.067119      -165.0947
  73   2.0000      -6.062453      -164.9677
  74   2.0000      -6.060021      -164.9016
  75   2.0000      -6.056612      -164.8088
  76   2.0000      -6.052026      -164.6840
  77   2.0000      -6.049547      -164.6165
  78   2.0000      -6.046975      -164.5465
  79   2.0000      -6.043114      -164.4415
  80   2.0000      -6.040498      -164.3703
  81   2.0000      -1.149415       -31.2772
  82   2.0000      -1.139013       -30.9941
  83   2.0000      -1.137039       -30.9404
  84   2.0000      -1.134575       -30.8734
  85   2.0000      -1.126116       -30.6432
  86   2.0000      -1.100234       -29.9389
  87   2.0000      -1.064913       -28.9778
  88   2.0000      -1.052555       -28.6415
  89   2.0000      -1.046805       -28.4850
  90   2.0000      -1.036175       -28.1957
  91   2.0000      -1.026009       -27.9191
  92   2.0000      -1.018078       -27.7033
  93   2.0000      -1.010285       -27.4913
  94   2.0000      -1.007271       -27.4092
  95   2.0000      -0.997180       -27.1347
  96   2.0000      -0.996515       -27.1166
  97   2.0000      -0.992947       -27.0194
  98   2.0000      -0.986347       -26.8399
  99   2.0000      -0.964709       -26.2511
 100   2.0000      -0.953026       -25.9331
 101   2.0000      -0.937249       -25.5038
 102   2.0000      -0.930998       -25.3338
 103   2.0000      -0.922645       -25.1064
 104   2.0000      -0.913750       -24.8644
 105   2.0000      -0.908091       -24.7104
 106   2.0000      -0.894337       -24.3362
 107   2.0000      -0.879885       -23.9429
 108   2.0000      -0.869086       -23.6490
 109   2.0000      -0.863265       -23.4906
 110   2.0000      -0.843367       -22.9492
 111   2.0000      -0.841382       -22.8952
 112   2.0000      -0.830603       -22.6019
 113   2.0000      -0.827131       -22.5074
 114   2.0000      -0.815812       -22.1994
 115   2.0000      -0.798523       -21.7289
 116   2.0000      -0.781018       -21.2526
 117   2.0000      -0.779376       -21.2079
 118   2.0000      -0.765264       -20.8239
 119   2.0000      -0.761176       -20.7127
 120   2.0000      -0.755484       -20.5578
 121   2.0000      -0.754772       -20.5384
 122   2.0000      -0.742377       -20.2011
 123   2.0000      -0.732401       -19.9296
 124   2.0000      -0.705262       -19.1912
 125   2.0000      -0.702753       -19.1229
 126   2.0000      -0.697526       -18.9806
 127   2.0000      -0.696127       -18.9426
 128   2.0000      -0.685621       -18.6567
 129   2.0000      -0.682920       -18.5832
 130   2.0000      -0.675571       -18.3832
 131   2.0000      -0.674320       -18.3492
 132   2.0000      -0.670244       -18.2383
 133   2.0000      -0.650307       -17.6958
 134   2.0000      -0.638989       -17.3878
 135   2.0000      -0.636808       -17.3284
 136   2.0000      -0.627149       -17.0656
 137   2.0000      -0.625629       -17.0242
 138   2.0000      -0.622360       -16.9353
 139   2.0000      -0.615457       -16.7474
 140   2.0000      -0.612097       -16.6560
 141   2.0000      -0.610057       -16.6005
 142   2.0000      -0.602489       -16.3946
 143   2.0000      -0.586368       -15.9559
 144   2.0000      -0.584745       -15.9117
 145   2.0000      -0.579504       -15.7691
 146   2.0000      -0.576053       -15.6752
 147   2.0000      -0.568057       -15.4576
 148   2.0000      -0.563675       -15.3384
 149   2.0000      -0.555353       -15.1119
 150   2.0000      -0.552109       -15.0236
 151   2.0000      -0.549744       -14.9593
 152   2.0000      -0.547290       -14.8925
 153   2.0000      -0.545530       -14.8446
 154   2.0000      -0.544324       -14.8118
 155   2.0000      -0.538579       -14.6555
 156   2.0000      -0.534474       -14.5438
 157   2.0000      -0.533679       -14.5221
 158   2.0000      -0.531549       -14.4642
 159   2.0000      -0.529283       -14.4025
 160   2.0000      -0.528383       -14.3780
 161   2.0000      -0.524336       -14.2679
 162   2.0000      -0.521919       -14.2021
 163   2.0000      -0.521448       -14.1893
 164   2.0000      -0.517482       -14.0814
 165   2.0000      -0.514795       -14.0083
 166   2.0000      -0.513428       -13.9711
 167   2.0000      -0.508275       -13.8309
 168   2.0000      -0.506179       -13.7738
 169   2.0000      -0.505050       -13.7431
 170   2.0000      -0.503768       -13.7082
 171   2.0000      -0.501503       -13.6466
 172   2.0000      -0.498829       -13.5738
 173   2.0000      -0.496953       -13.5228
 174   2.0000      -0.494974       -13.4689
 175   2.0000      -0.491737       -13.3808
 176   2.0000      -0.486031       -13.2256
 177   2.0000      -0.482910       -13.1407
 178   2.0000      -0.477177       -12.9846
 179   2.0000      -0.473057       -12.8725
 180   2.0000      -0.467621       -12.7246
 181   2.0000      -0.464157       -12.6303
 182   2.0000      -0.460927       -12.5424
 183   2.0000      -0.459591       -12.5061
 184   2.0000      -0.457476       -12.4486
 185   2.0000      -0.455382       -12.3916
 186   2.0000      -0.455078       -12.3833
 187   2.0000      -0.454112       -12.3570
 188   2.0000      -0.452902       -12.3241
 189   2.0000      -0.452774       -12.3206
 190   2.0000      -0.445597       -12.1253
 191   2.0000      -0.445062       -12.1108
 192   2.0000      -0.442297       -12.0355
 193   2.0000      -0.440635       -11.9903
 194   2.0000      -0.439969       -11.9722
 195   2.0000      -0.437776       -11.9125
 196   2.0000      -0.435169       -11.8415
 197   2.0000      -0.432586       -11.7713
 198   2.0000      -0.430582       -11.7167
 199   2.0000      -0.429276       -11.6812
 200   2.0000      -0.426397       -11.6029
 201   2.0000      -0.426169       -11.5966
 202   2.0000      -0.419041       -11.4027
 203   2.0000      -0.416953       -11.3459
 204   2.0000      -0.412761       -11.2318
 205   2.0000      -0.410136       -11.1604
 206   2.0000      -0.409191       -11.1346
 207   2.0000      -0.401802       -10.9336
 208   2.0000      -0.401647       -10.9294
 209   2.0000      -0.391025       -10.6403
 210   2.0000      -0.384545       -10.4640
 211   2.0000      -0.377033       -10.2596
 212   2.0000      -0.368935       -10.0392
 213   2.0000      -0.357915        -9.7394
 214   2.0000      -0.351107        -9.5541
 215   2.0000      -0.347674        -9.4607
 216   2.0000      -0.345385        -9.3984
 217   2.0000      -0.341140        -9.2829
 218   2.0000      -0.335267        -9.1231
 219   2.0000      -0.333096        -9.0640
 220   2.0000      -0.330355        -8.9894
 221   2.0000      -0.325130        -8.8472
 222   2.0000      -0.322555        -8.7772
 223   2.0000      -0.315082        -8.5738
 224   2.0000      -0.312912        -8.5148
 225   2.0000      -0.309184        -8.4133
 226   2.0000      -0.304250        -8.2791
 227   2.0000      -0.244918        -6.6646
 228   0.0000      -0.110431        -3.0050
 229   0.0000      -0.097746        -2.6598
 230   0.0000      -0.081919        -2.2291
 231   0.0000      -0.060691        -1.6515
 232   0.0000      -0.045383        -1.2349

MULLIKEN ATOMIC CHARGES
-----------------------
   0 C :    0.032375
   1 C :   -0.129956
   2 S :    0.194740
   3 C :   -0.167667
   4 Cl:    0.005584
   5 C :    0.074801
   6 C :    0.144316
   7 O :   -0.124432
   8 C :   -0.096687
   9 C :    0.285186
  10 C :   -0.319088
  11 C :   -0.193380
  12 N :    0.160376
  13 C :   -0.194516
  14 N :    0.171774
  15 C :   -0.014293
  16 C :   -0.027043
  17 C :    0.059283
  18 N :   -0.005604
  19 C :   -0.172091
  20 N :   -0.067741
  21 C :    0.121096
  22 C :    0.194386
  23 N :   -0.257775
  24 C :    0.140368
  25 C :    0.002170
  26 C :    0.171152
  27 O :   -0.220686
  28 C :   -0.079160
  29 C :   -0.050959
  30 C :    0.153476
  31 O :   -0.151230
  32 N :   -0.268589
  33 C :    0.097688
  34 C :    0.001225
  35 C :    0.147980
  36 C :   -0.031521
  37 C :    0.051290
  38 C :   -0.025333
  39 S :    0.153560
  40 C :   -0.179501
  41 C :    0.200568
  42 O :   -0.196090
  43 C :    0.099405
  44 C :   -0.001205
  45 C :    0.000956
  46 C :   -0.101617
  47 C :    0.129085
  48 O :   -0.124773
  49 C :    0.096048
  50 C :   -0.172212
  51 S :    0.186150
  52 C :   -0.123783
  53 C :    0.019259
  54 C :    0.316535
  55 C :   -0.331892
  56 C :   -0.191794
  57 N :    0.158181
  58 C :   -0.198374
  59 N :    0.177548
  60 Cl:   -0.001020
  61 H :    0.056936
  62 H :    0.042481
  63 H :    0.017277
  64 H :    0.008430
  65 H :    0.021973
  66 H :    0.029396
  67 H :    0.025661
  68 H :    0.013404
  69 H :    0.016200
  70 H :    0.022384
  71 H :    0.044303
  72 H :    0.018681
  73 H :    0.024870
  74 H :    0.031824
  75 H :   -0.016045
  76 H :    0.024795
  77 H :   -0.008739
  78 H :    0.010619
  79 H :    0.035092
  80 H :    0.053910
Sum of atomic charges:    0.0000000

LOEWDIN ATOMIC CHARGES
----------------------
   0 C :   -0.059570
   1 C :   -0.147416
   2 S :    0.483028
   3 C :   -0.270186
   4 Cl:    0.196785
   5 C :   -0.118172
   6 C :    0.082266
   7 O :   -0.122382
   8 C :   -0.078739
   9 C :    0.072877
  10 C :   -0.129650
  11 C :   -0.015485
  12 N :   -0.045149
  13 C :   -0.024847
  14 N :   -0.039022
  15 C :    0.074872
  16 C :   -0.086356
  17 C :    0.070204
  18 N :   -0.048730
  19 C :    0.031006
  20 N :   -0.069056
  21 C :    0.086304
  22 C :    0.046532
  23 N :    0.014076
  24 C :    0.036757
  25 C :   -0.061605
  26 C :    0.077593
  27 O :   -0.208368
  28 C :   -0.127072
  29 C :   -0.089262
  30 C :    0.086747
  31 O :   -0.159507
  32 N :   -0.006081
  33 C :    0.035394
  34 C :   -0.061060
  35 C :    0.090515
  36 C :   -0.046637
  37 C :    0.026730
  38 C :   -0.142866
  39 S :    0.478292
  40 C :   -0.222104
  41 C :    0.085042
  42 O :   -0.139380
  43 C :   -0.032258
  44 C :   -0.015398
  45 C :    0.061399
  46 C :   -0.056639
  47 C :    0.084794
  48 O :   -0.127607
  49 C :   -0.115304
  50 C :   -0.272692
  51 S :    0.478340
  52 C :   -0.147675
  53 C :   -0.048859
  54 C :    0.082006
  55 C :   -0.131661
  56 C :   -0.015108
  57 N :   -0.049879
  58 C :   -0.021670
  59 N :   -0.048082
  60 Cl:    0.191738
  61 H :    0.038837
  62 H :    0.049824
  63 H :    0.032222
  64 H :    0.027862
  65 H :    0.023157
  66 H :    0.029700
  67 H :    0.022336
  68 H :    0.027547
  69 H :    0.025240
  70 H :    0.022289
  71 H :    0.038099
  72 H :    0.022866
  73 H :    0.031185
  74 H :    0.033245
  75 H :    0.023763
  76 H :    0.046370
  77 H :   -0.000313
  78 H :    0.043640
  79 H :    0.051912
  80 H :    0.038457

  Mayer bond orders larger than 0.100000
B(  0-C ,  1-C ) :   1.5407 B(  0-C ,  5-C ) :   1.2209 B(  0-C ,  9-C ) :   1.0060
B(  1-C ,  2-S ) :   1.1661 B(  1-C , 61-H ) :   0.9547 B(  2-S ,  3-C ) :   1.1545
B(  3-C ,  4-Cl) :   1.1337 B(  3-C ,  5-C ) :   1.4726 B(  5-C ,  6-C ) :   0.9539
B(  6-C ,  7-O ) :   2.2386 B(  6-C ,  8-C ) :   0.9229 B(  8-C ,  9-C ) :   1.0422
B(  8-C , 15-C ) :   1.7190 B(  9-C , 10-C ) :   1.6767 B( 10-C , 11-C ) :   1.1431
B( 10-C , 13-C ) :   1.1355 B( 11-C , 12-N ) :   2.9928 B( 13-C , 14-N ) :   2.9856
B( 15-C , 16-C ) :   1.0436 B( 15-C , 62-H ) :   0.9457 B( 16-C , 17-C ) :   1.2869
B( 16-C , 21-C ) :   1.3058 B( 17-C , 18-N ) :   1.5887 B( 17-C , 63-H ) :   0.9920
B( 18-N , 19-C ) :   1.6250 B( 18-N , 22-C ) :  -0.1235 B( 19-C , 20-N ) :   1.4880
B( 19-C , 22-C ) :   0.9896 B( 20-N , 21-C ) :   1.5636 B( 21-C , 64-H ) :   0.9822
B( 22-C , 23-N ) :   1.1983 B( 22-C , 29-C ) :   1.3941 B( 23-N , 24-C ) :   0.9365
B( 23-N , 26-C ) :   1.0727 B( 24-C , 25-C ) :   1.1241 B( 24-C , 65-H ) :   0.9375
B( 24-C , 66-H ) :   0.9284 B( 25-C , 67-H ) :   0.9645 B( 25-C , 68-H ) :   0.9674
B( 25-C , 69-H ) :   0.9652 B( 26-C , 27-O ) :   2.0025 B( 26-C , 28-C ) :   0.9916
B( 27-O , 76-H ) :   0.1245 B( 28-C , 29-C ) :   1.2518 B( 28-C , 35-C ) :   1.3226
B( 29-C , 30-C ) :   0.9410 B( 30-C , 31-O ) :   2.1899 B( 30-C , 32-N ) :   1.0071
B( 32-N , 33-C ) :   0.9467 B( 32-N , 35-C ) :   1.1844 B( 33-C , 34-C ) :   1.1198
B( 33-C , 70-H ) :   0.9504 B( 33-C , 71-H ) :   0.9271 B( 34-C , 72-H ) :   0.9687
B( 34-C , 73-H ) :   0.9678 B( 34-C , 74-H ) :   0.9636 B( 35-C , 36-C ) :   1.1620
B( 36-C , 37-C ) :   1.5909 B( 36-C , 75-H ) :   0.9611 B( 37-C , 38-C ) :   1.1454
B( 37-C , 76-H ) :   0.9501 B( 38-C , 39-S ) :   1.1365 B( 38-C , 44-C ) :   1.4388
B( 39-S , 40-C ) :   1.1178 B( 40-C , 41-C ) :   1.0369 B( 40-C , 43-C ) :   1.4295
B( 41-C , 42-O ) :   2.0899 B( 41-C , 77-H ) :   0.9560 B( 43-C , 44-C ) :   1.2721
B( 43-C , 45-C ) :   1.0054 B( 44-C , 78-H ) :   1.0133 B( 45-C , 46-C ) :   1.8102
B( 45-C , 79-H ) :   0.9410 B( 46-C , 47-C ) :   0.9275 B( 46-C , 54-C ) :   0.9876
B( 47-C , 48-O ) :   2.2856 B( 47-C , 49-C ) :   0.9256 B( 49-C , 50-C ) :   1.4756
B( 49-C , 53-C ) :   1.2261 B( 50-C , 51-S ) :   1.1555 B( 50-C , 60-Cl) :   1.1277
B( 51-S , 52-C ) :   1.1598 B( 52-C , 53-C ) :   1.5485 B( 52-C , 80-H ) :   0.9564
B( 53-C , 54-C ) :   1.0191 B( 54-C , 55-C ) :   1.6891 B( 55-C , 56-C ) :   1.1308
B( 55-C , 58-C ) :   1.1646 B( 56-C , 57-N ) :   3.0064 B( 58-C , 59-N ) :   3.0112

-----------------------------------------------------------------------------
         ABSORPTION SPECTRUM VIA TRANSITION ELECTRIC DIPOLE MOMENTS
-----------------------------------------------------------------------------
State   Energy  Wavelength   fosc         T2         TX        TY        TZ
        (cm-1)    (nm)                  (au**2)     (au)      (au)      (au)
-----------------------------------------------------------------------------
   0   14461.5    691.5   0.832289239  18.94684  -2.37386   3.58592   0.67292
   1   18947.2    527.8   0.011312898   0.19656  -0.14689   0.14039  -0.39405
   2   21445.8    466.3   0.031534828   0.48409  -0.12502   0.37889   0.57000
   3   24502.6    408.1   0.047246596   0.63479   0.36821  -0.69748   0.11288
   4   25281.7    395.5   0.029074479   0.37860   0.43661  -0.42243  -0.09758
   5   25803.0    387.6   0.040387898   0.51530   0.47930   0.53274  -0.04191
   6   26413.2    378.6   0.072345978   0.90171   0.45794  -0.80087   0.22499
   7   26727.9    374.1   0.038774240   0.47759  -0.61237  -0.03763  -0.31809
   8   26951.7    371.0   0.036499897   0.44584   0.04447  -0.59771   0.29428
   9   27505.4    363.6   0.005758080   0.06892  -0.23959   0.10651  -0.01303
  10   28016.7    356.9   0.125431610   1.47389   0.49488  -1.07125  -0.28533
  11   29164.1    342.9   0.231481090   2.61301   0.16826  -1.60352   0.11591
  12   29324.1    341.0   0.034083343   0.38264  -0.33480  -0.50988  -0.10281
  13   29744.6    336.2   0.311651654   3.44934  -0.09610   1.85355  -0.06688
  14   29962.0    333.8   0.198793180   2.18427   0.33417  -1.34751   0.50677
  15   30489.9    328.0   0.018249927   0.19705  -0.28369  -0.32207  -0.11332
  16   30585.4    327.0   0.166959036   1.79710  -0.19464   1.29275  -0.29665
  17   32352.2    309.1   0.136924797   1.39333   0.40861  -1.07030   0.28431
  18   32359.1    309.0   0.012492396   0.12709  -0.12086  -0.31299   0.12051
  19   32620.0    306.6   0.076788205   0.77497   0.48996  -0.72871   0.06246
  20   32844.0    304.5   0.028018018   0.28084   0.25888   0.30470   0.34782
  21   33128.7    301.9   0.002836744   0.02819   0.11362  -0.10010  -0.07252
  22   33351.6    299.8   0.081633932   0.80580   0.52270  -0.62221   0.38137
  23   33490.4    298.6   0.198871840   1.95492  -0.15537   1.27846  -0.54435
  24   33570.4    297.9   0.019919686   0.19534   0.17709  -0.38992  -0.10928
  25   34949.5    286.1   0.065766958   0.61950   0.12558  -0.52054   0.57687
  26   35250.0    283.7   0.249580543   2.33092  -1.47324   0.32880  -0.22888
  27   35889.4    278.6   0.126235822   1.15796  -0.18768   1.05143  -0.13127
  28   36006.7    277.7   0.020704979   0.18931   0.10194  -0.16334   0.39017
  29   36179.3    276.4   0.017787484   0.16186   0.16995   0.34171  -0.12730
  30   36499.3    274.0   0.178259977   1.60785  -1.20213  -0.02748  -0.40247
  31   36833.9    271.5   0.003829862   0.03423  -0.10815  -0.12477   0.08347
  32   36956.3    270.6   0.274751424   2.44752   1.22840   0.91156   0.32803
  33   37467.2    266.9   0.166550002   1.46342   0.97959   0.66680   0.24330
  34   37650.5    265.6   0.124774995   1.09102   0.02742   0.99782  -0.30761
  35   37762.4    264.8   0.013065192   0.11390   0.14175  -0.29631  -0.07755
  36   37992.7    263.2   0.569183054   4.93205  -0.31739   1.80899  -1.24855
  37   38625.6    258.9   0.096743571   0.82456  -0.66617  -0.49966  -0.36209
  38   39149.5    255.4   0.020538099   0.17271  -0.11939  -0.30601   0.25458
  39   39196.0    255.1   0.097475163   0.81870   0.20628   0.79334  -0.38309
  40   39238.8    254.9   0.121020275   1.01536  -0.19472   0.85306  -0.49972
  41   39705.9    251.9   0.003149732   0.02612  -0.03256  -0.15166  -0.04532

FINAL SINGLE POINT ENERGY     -4575.892088254364

DIPOLE MOMENT
-------------
                                X             Y             Z
Electronic contribution:    -18.53068     -25.60505       6.11006
Nuclear contribution   :     18.14150      25.25601      -6.31709
                        -----------------------------------------
Total Dipole Moment    :     -0.38918      -0.34904      -0.20704
                        -----------------------------------------
Magnitude (a.u.)       :      0.56228
Magnitude (Debye)      :      1.42920

Rotational constants in cm-1:     0.002859     0.000283     0.000274
Rotational constants in MHz :    85.697478     8.470484     8.200412

                             ****ORCA TERMINATED NORMALLY****
TOTAL RUN TIME: 0 days 0 hours 7 minutes 25 seconds 257 msec
