                         Program Version 4.2.0 -  RELEASE  -
|  1> # ORCA input file
|  2> # SCF done       -167.279648174652          0.000605500126
|  3> ! CAM-B3LYP def2-SVP def2/J RIJCOSX Grid4 TightSCF
|  4> %maxcore 5000
|  5> %tddft
|  6>     Mode sTDDFT
|  7>     Ethresh 5.0
|  8>     maxcore 5000
|  9> end
| 10>
| 11> %pal
| 12>   nprocs 6
| 13>   end
| 14> * xyz 0 1
| 15>    C        8.71975         1.33452         3.39321
| 16>    C        9.66144         1.79922         4.25960
| 17>    S       10.13089         3.40992         3.86281
| 18>    C        9.04749         3.45808         2.48969
| 19>   Cl        8.93237         4.82996         1.50621
| 20>    C        8.36507         2.28455         2.37981
| 21>    C        7.37179         1.70129         1.47100
| 22>    O        6.93369         2.16027         0.44651
| 23>    C        7.05674         0.36483         2.07680
| 24>    C        7.98486         0.10966         3.17080
| 25>    C        8.21793        -1.07871         3.80680
| 26>    C        9.17824        -1.18743         4.83524
| 27>    N        9.96032        -1.30157         5.66688
| 28>    C        7.62804        -2.31272         3.46942
| 29>    N        7.21879        -3.35604         3.21726
| 30>    C        6.09915        -0.47260         1.62585
| 31>    C        5.24373        -0.18396         0.50501
| 32>    C        5.07548        -1.10347        -0.53003
| 33>    N        4.25409        -0.91518        -1.59505
| 34>    C        3.58543         0.17942        -1.75257
| 35>    C        3.64970         1.20288        -0.77628
| 36>    C        4.47899         1.00096         0.38468
| 37>    N        4.28430         2.03261         1.18646
| 38>    O        3.41995         2.82147         0.56033
| 39>    N        3.02284         2.35190        -0.61321
| 40>    C        5.83628        -2.33920        -0.51355
| 41>    N        5.30983        -3.53888        -0.89830
| 42>    C        3.94288        -3.80441        -1.28089
| 43>    C        3.00645        -3.75472        -0.07724
| 44>    C        6.23114        -4.59143        -0.73058
| 45>    O        5.96922        -5.75190        -0.97448
| 46>    C        7.42646        -3.94238        -0.24995
| 47>    C        7.15472        -2.55023        -0.12169
| 48>    C        8.40058        -1.90524         0.25543
| 49>    O        8.70279        -0.74260         0.44632
| 50>    N        9.32397        -2.95718         0.36932
| 51>    C       10.69983        -2.70769         0.73073
| 52>    C       11.03196        -3.18134         2.14299
| 53>    C        8.76249        -4.17043         0.05900
| 54>    C        9.48205        -5.39552         0.03952
| 55>    C        8.88683        -6.58504        -0.21710
| 56>    C        9.61117        -7.80699        -0.26277
| 57>    S        8.78673        -9.32562        -0.65877
| 58>    C       10.28046       -10.12029        -0.52171
| 59>    C       11.29741        -9.23193        -0.21188
| 60>    N       10.87917        -7.95223        -0.06699
| 61>    C       12.66223        -9.60979        -0.00164
| 62>    C       13.72647        -8.78558         0.14151
| 63>    C       14.98232        -9.29518         0.78122
| 64>    O       15.29856       -10.44920         0.93195
| 65>    C       15.67571        -8.07712         1.22281
| 66>    C       16.79595        -7.76526         1.93395
| 67>    S       16.97720        -6.03119         2.06429
| 68>    C       15.54400        -5.74729         1.14462
| 69>    C       14.96106        -6.91716         0.77149
| 70>    C       13.83295        -7.34569        -0.02995
| 71>    C       13.15685        -6.56462        -0.92437
| 72>    C       13.28944        -5.16477        -0.93361
| 73>    N       13.32535        -4.01704        -0.90353
| 74>    C       12.32124        -7.07244        -1.94237
| 75>    N       11.72404        -7.43864        -2.85117
| 76>   Cl       17.91978        -8.82242         2.63201
| 77>    H       10.10824         1.31251         5.10398
| 78>    H        6.00110        -1.46164         2.05517
| 79>    H        2.96584         0.27165        -2.63211
| 80>    H        3.94395        -4.81026        -1.70897
| 81>    H        3.63719        -3.08008        -2.03740
| 82>    H        3.33001        -4.46313         0.68188
| 83>    H        1.99765        -4.01203        -0.38667
| 84>    H        2.99132        -2.75797         0.35907
| 85>    H       10.83355        -1.62423         0.66390
| 86>    H       11.36547        -3.18266         0.00359
| 87>    H       10.44084        -2.64423         2.88030
| 88>    H       12.08307        -2.99664         2.34583
| 89>    H       10.83437        -4.24404         2.25989
| 90>    H       10.54450        -5.36964         0.23149
| 91>    H        7.82547        -6.63893        -0.41614
| 92>    H       10.36904       -11.17647        -0.68013
| 93>    H       12.84668       -10.66720         0.14587
| 94>    H       15.22966        -4.74061         0.95231
| 95> *
| 96>
| 97>                          ****END OF INPUT****

CARTESIAN COORDINATES (ANGSTROEM)
---------------------------------
  C      8.719750    1.334520    3.393210
  C      9.661440    1.799220    4.259600
  S     10.130890    3.409920    3.862810
  C      9.047490    3.458080    2.489690
  Cl     8.932370    4.829960    1.506210
  C      8.365070    2.284550    2.379810
  C      7.371790    1.701290    1.471000
  O      6.933690    2.160270    0.446510
  C      7.056740    0.364830    2.076800
  C      7.984860    0.109660    3.170800
  C      8.217930   -1.078710    3.806800
  C      9.178240   -1.187430    4.835240
  N      9.960320   -1.301570    5.666880
  C      7.628040   -2.312720    3.469420
  N      7.218790   -3.356040    3.217260
  C      6.099150   -0.472600    1.625850
  C      5.243730   -0.183960    0.505010
  C      5.075480   -1.103470   -0.530030
  N      4.254090   -0.915180   -1.595050
  C      3.585430    0.179420   -1.752570
  C      3.649700    1.202880   -0.776280
  C      4.478990    1.000960    0.384680
  N      4.284300    2.032610    1.186460
  O      3.419950    2.821470    0.560330
  N      3.022840    2.351900   -0.613210
  C      5.836280   -2.339200   -0.513550
  N      5.309830   -3.538880   -0.898300
  C      3.942880   -3.804410   -1.280890
  C      3.006450   -3.754720   -0.077240
  C      6.231140   -4.591430   -0.730580
  O      5.969220   -5.751900   -0.974480
  C      7.426460   -3.942380   -0.249950
  C      7.154720   -2.550230   -0.121690
  C      8.400580   -1.905240    0.255430
  O      8.702790   -0.742600    0.446320
  N      9.323970   -2.957180    0.369320
  C     10.699830   -2.707690    0.730730
  C     11.031960   -3.181340    2.142990
  C      8.762490   -4.170430    0.059000
  C      9.482050   -5.395520    0.039520
  C      8.886830   -6.585040   -0.217100
  C      9.611170   -7.806990   -0.262770
  S      8.786730   -9.325620   -0.658770
  C     10.280460  -10.120290   -0.521710
  C     11.297410   -9.231930   -0.211880
  N     10.879170   -7.952230   -0.066990
  C     12.662230   -9.609790   -0.001640
  C     13.726470   -8.785580    0.141510
  C     14.982320   -9.295180    0.781220
  O     15.298560  -10.449200    0.931950
  C     15.675710   -8.077120    1.222810
  C     16.795950   -7.765260    1.933950
  S     16.977200   -6.031190    2.064290
  C     15.544000   -5.747290    1.144620
  C     14.961060   -6.917160    0.771490
  C     13.832950   -7.345690   -0.029950
  C     13.156850   -6.564620   -0.924370
  C     13.289440   -5.164770   -0.933610
  N     13.325350   -4.017040   -0.903530
  C     12.321240   -7.072440   -1.942370
  N     11.724040   -7.438640   -2.851170
  Cl    17.919780   -8.822420    2.632010
  H     10.108240    1.312510    5.103980
  H      6.001100   -1.461640    2.055170
  H      2.965840    0.271650   -2.632110
  H      3.943950   -4.810260   -1.708970
  H      3.637190   -3.080080   -2.037400
  H      3.330010   -4.463130    0.681880
  H      1.997650   -4.012030   -0.386670
  H      2.991320   -2.757970    0.359070
  H     10.833550   -1.624230    0.663900
  H     11.365470   -3.182660    0.003590
  H     10.440840   -2.644230    2.880300
  H     12.083070   -2.996640    2.345830
  H     10.834370   -4.244040    2.259890
  H     10.544500   -5.369640    0.231490
  H      7.825470   -6.638930   -0.416140
  H     10.369040  -11.176470   -0.680130
  H     12.846680  -10.667200    0.145870
  H     15.229660   -4.740610    0.952310

 Total Charge           Charge          ....    0
 Multiplicity           Mult            ....    1
 Number of Electrons    NEL             ....  462
 Basis Dimension        Dim             ....  978

ORBITAL ENERGIES
----------------

  NO   OCC          E(Eh)            E(eV)
   0   2.0000    -101.618524     -2765.1806
   1   2.0000    -101.613106     -2765.0332
   2   2.0000     -88.994478     -2421.6629
   3   2.0000     -88.991055     -2421.5697
   4   2.0000     -88.985771     -2421.4259
   5   2.0000     -19.369859      -527.0807
   6   2.0000     -19.221391      -523.0406
   7   2.0000     -19.216972      -522.9204
   8   2.0000     -19.203394      -522.5509
   9   2.0000     -19.197596      -522.3931
  10   2.0000     -14.495970      -394.4554
  11   2.0000     -14.488322      -394.2473
  12   2.0000     -14.460245      -393.4833
  13   2.0000     -14.459897      -393.4738
  14   2.0000     -14.442133      -392.9904
  15   2.0000     -14.429758      -392.6537
  16   2.0000     -14.427464      -392.5913
  17   2.0000     -14.423528      -392.4842
  18   2.0000     -14.421214      -392.4212
  19   2.0000     -14.414194      -392.2302
  20   2.0000     -10.385074      -282.5922
  21   2.0000     -10.378980      -282.4264
  22   2.0000     -10.378061      -282.4014
  23   2.0000     -10.377632      -282.3897
  24   2.0000     -10.372170      -282.2411
  25   2.0000     -10.371941      -282.2349
  26   2.0000     -10.353948      -281.7453
  27   2.0000     -10.351047      -281.6663
  28   2.0000     -10.349921      -281.6357
  29   2.0000     -10.348460      -281.5959
  30   2.0000     -10.348337      -281.5926
  31   2.0000     -10.348303      -281.5916
  32   2.0000     -10.347915      -281.5811
  33   2.0000     -10.347337      -281.5653
  34   2.0000     -10.346732      -281.5489
  35   2.0000     -10.338405      -281.3223
  36   2.0000     -10.336081      -281.2591
  37   2.0000     -10.332784      -281.1693
  38   2.0000     -10.332257      -281.1550
  39   2.0000     -10.330459      -281.1061
  40   2.0000     -10.328869      -281.0628
  41   2.0000     -10.327748      -281.0323
  42   2.0000     -10.327202      -281.0174
  43   2.0000     -10.326118      -280.9880
  44   2.0000     -10.324003      -280.9304
  45   2.0000     -10.323435      -280.9149
  46   2.0000     -10.318307      -280.7754
  47   2.0000     -10.315350      -280.6950
  48   2.0000     -10.314703      -280.6773
  49   2.0000     -10.310033      -280.5503
  50   2.0000     -10.307347      -280.4772
  51   2.0000     -10.306973      -280.4670
  52   2.0000     -10.302509      -280.3455
  53   2.0000     -10.302005      -280.3318
  54   2.0000     -10.301705      -280.3237
  55   2.0000     -10.301085      -280.3068
  56   2.0000     -10.299199      -280.2554
  57   2.0000     -10.295891      -280.1654
  58   2.0000     -10.278730      -279.6985
  59   2.0000     -10.267307      -279.3876
  60   2.0000     -10.262371      -279.2533
  61   2.0000     -10.261455      -279.2284
  62   2.0000      -9.573278      -260.5021
  63   2.0000      -9.567914      -260.3562
  64   2.0000      -8.090250      -220.1469
  65   2.0000      -8.086673      -220.0495
  66   2.0000      -8.082056      -219.9239
  67   2.0000      -7.343922      -199.8383
  68   2.0000      -7.338544      -199.6919
  69   2.0000      -7.333308      -199.5495
  70   2.0000      -7.332783      -199.5352
  71   2.0000      -7.327936      -199.4033
  72   2.0000      -7.327426      -199.3894
  73   2.0000      -6.059632      -164.8910
  74   2.0000      -6.056036      -164.7931
  75   2.0000      -6.055040      -164.7660
  76   2.0000      -6.052464      -164.6959
  77   2.0000      -6.051452      -164.6684
  78   2.0000      -6.050917      -164.6538
  79   2.0000      -6.048985      -164.6013
  80   2.0000      -6.046751      -164.5405
  81   2.0000      -6.044818      -164.4879
  82   2.0000      -1.323956       -36.0267
  83   2.0000      -1.143358       -31.1123
  84   2.0000      -1.138525       -30.9808
  85   2.0000      -1.135797       -30.9066
  86   2.0000      -1.134563       -30.8730
  87   2.0000      -1.087586       -29.5947
  88   2.0000      -1.083282       -29.4776
  89   2.0000      -1.069532       -29.1035
  90   2.0000      -1.058608       -28.8062
  91   2.0000      -1.039286       -28.2804
  92   2.0000      -1.035270       -28.1711
  93   2.0000      -1.024080       -27.8666
  94   2.0000      -1.020905       -27.7802
  95   2.0000      -1.018647       -27.7188
  96   2.0000      -1.001108       -27.2415
  97   2.0000      -0.999811       -27.2062
  98   2.0000      -0.989017       -26.9125
  99   2.0000      -0.986693       -26.8493
 100   2.0000      -0.978844       -26.6357
 101   2.0000      -0.956308       -26.0225
 102   2.0000      -0.953559       -25.9477
 103   2.0000      -0.937260       -25.5042
 104   2.0000      -0.931670       -25.3520
 105   2.0000      -0.925171       -25.1752
 106   2.0000      -0.917666       -24.9710
 107   2.0000      -0.909279       -24.7428
 108   2.0000      -0.904067       -24.6009
 109   2.0000      -0.893982       -24.3265
 110   2.0000      -0.875366       -23.8199
 111   2.0000      -0.866746       -23.5854
 112   2.0000      -0.849402       -23.1134
 113   2.0000      -0.833774       -22.6881
 114   2.0000      -0.831586       -22.6286
 115   2.0000      -0.829427       -22.5699
 116   2.0000      -0.821729       -22.3604
 117   2.0000      -0.810333       -22.0503
 118   2.0000      -0.797781       -21.7087
 119   2.0000      -0.780815       -21.2471
 120   2.0000      -0.774187       -21.0667
 121   2.0000      -0.762042       -20.7362
 122   2.0000      -0.756303       -20.5801
 123   2.0000      -0.751763       -20.4565
 124   2.0000      -0.751434       -20.4476
 125   2.0000      -0.721493       -19.6328
 126   2.0000      -0.717226       -19.5167
 127   2.0000      -0.708631       -19.2828
 128   2.0000      -0.704879       -19.1807
 129   2.0000      -0.697209       -18.9720
 130   2.0000      -0.691246       -18.8098
 131   2.0000      -0.687117       -18.6974
 132   2.0000      -0.676579       -18.4107
 133   2.0000      -0.674607       -18.3570
 134   2.0000      -0.662994       -18.0410
 135   2.0000      -0.658749       -17.9255
 136   2.0000      -0.654279       -17.8038
 137   2.0000      -0.649098       -17.6629
 138   2.0000      -0.639782       -17.4093
 139   2.0000      -0.634244       -17.2587
 140   2.0000      -0.620861       -16.8945
 141   2.0000      -0.620169       -16.8756
 142   2.0000      -0.615288       -16.7428
 143   2.0000      -0.613548       -16.6955
 144   2.0000      -0.608026       -16.5452
 145   2.0000      -0.604770       -16.4566
 146   2.0000      -0.597614       -16.2619
 147   2.0000      -0.589924       -16.0526
 148   2.0000      -0.582724       -15.8567
 149   2.0000      -0.577642       -15.7184
 150   2.0000      -0.570050       -15.5119
 151   2.0000      -0.565830       -15.3970
 152   2.0000      -0.561684       -15.2842
 153   2.0000      -0.556378       -15.1398
 154   2.0000      -0.554711       -15.0944
 155   2.0000      -0.549505       -14.9528
 156   2.0000      -0.547284       -14.8924
 157   2.0000      -0.544648       -14.8206
 158   2.0000      -0.543406       -14.7868
 159   2.0000      -0.539697       -14.6859
 160   2.0000      -0.533386       -14.5142
 161   2.0000      -0.532474       -14.4894
 162   2.0000      -0.530714       -14.4415
 163   2.0000      -0.527619       -14.3572
 164   2.0000      -0.525714       -14.3054
 165   2.0000      -0.524635       -14.2760
 166   2.0000      -0.521860       -14.2005
 167   2.0000      -0.517410       -14.0794
 168   2.0000      -0.515510       -14.0277
 169   2.0000      -0.512239       -13.9387
 170   2.0000      -0.507937       -13.8217
 171   2.0000      -0.505138       -13.7455
 172   2.0000      -0.504900       -13.7390
 173   2.0000      -0.501112       -13.6360
 174   2.0000      -0.496455       -13.5092
 175   2.0000      -0.495787       -13.4911
 176   2.0000      -0.494308       -13.4508
 177   2.0000      -0.490830       -13.3562
 178   2.0000      -0.486212       -13.2305
 179   2.0000      -0.484691       -13.1891
 180   2.0000      -0.475548       -12.9403
 181   2.0000      -0.473768       -12.8919
 182   2.0000      -0.468659       -12.7529
 183   2.0000      -0.466371       -12.6906
 184   2.0000      -0.465867       -12.6769
 185   2.0000      -0.461608       -12.5610
 186   2.0000      -0.456661       -12.4264
 187   2.0000      -0.455003       -12.3813
 188   2.0000      -0.454645       -12.3715
 189   2.0000      -0.452137       -12.3033
 190   2.0000      -0.448787       -12.2121
 191   2.0000      -0.448262       -12.1978
 192   2.0000      -0.447379       -12.1738
 193   2.0000      -0.445866       -12.1326
 194   2.0000      -0.444502       -12.0955
 195   2.0000      -0.441854       -12.0234
 196   2.0000      -0.438466       -11.9313
 197   2.0000      -0.437128       -11.8948
 198   2.0000      -0.436014       -11.8646
 199   2.0000      -0.434915       -11.8346
 200   2.0000      -0.433241       -11.7891
 201   2.0000      -0.428894       -11.6708
 202   2.0000      -0.425590       -11.5809
 203   2.0000      -0.420811       -11.4509
 204   2.0000      -0.419206       -11.4072
 205   2.0000      -0.416405       -11.3310
 206   2.0000      -0.415591       -11.3088
 207   2.0000      -0.412294       -11.2191
 208   2.0000      -0.405736       -11.0406
 209   2.0000      -0.404619       -11.0102
 210   2.0000      -0.403212       -10.9720
 211   2.0000      -0.399376       -10.8676
 212   2.0000      -0.393894       -10.7184
 213   2.0000      -0.389186       -10.5903
 214   2.0000      -0.378726       -10.3057
 215   2.0000      -0.370709       -10.0875
 216   2.0000      -0.368444       -10.0259
 217   2.0000      -0.361476        -9.8363
 218   2.0000      -0.351096        -9.5538
 219   2.0000      -0.348081        -9.4718
 220   2.0000      -0.345593        -9.4041
 221   2.0000      -0.340962        -9.2780
 222   2.0000      -0.336047        -9.1443
 223   2.0000      -0.333689        -9.0801
 224   2.0000      -0.330870        -9.0034
 225   2.0000      -0.321364        -8.7448
 226   2.0000      -0.318516        -8.6673
 227   2.0000      -0.314589        -8.5604
 228   2.0000      -0.304495        -8.2857
 229   2.0000      -0.299322        -8.1450
 230   2.0000      -0.254747        -6.9320
 231   0.0000      -0.103993        -2.8298
 232   0.0000      -0.093870        -2.5543
 233   0.0000      -0.081876        -2.2280
 234   0.0000      -0.066068        -1.7978
 235   0.0000      -0.049964        -1.3596

MULLIKEN ATOMIC CHARGES
-----------------------
   0 C :    0.024835
   1 C :   -0.126893
   2 S :    0.184299
   3 C :   -0.173507
   4 Cl:   -0.000120
   5 C :    0.088009
   6 C :    0.173727
   7 O :   -0.126423
   8 C :   -0.019181
   9 C :    0.306336
  10 C :   -0.338730
  11 C :   -0.210590
  12 N :    0.162114
  13 C :   -0.205413
  14 N :    0.171814
  15 C :   -0.124943
  16 C :    0.124249
  17 C :   -0.116869
  18 N :   -0.034515
  19 C :    0.023449
  20 C :   -0.029457
  21 C :   -0.034827
  22 N :    0.063065
  23 O :   -0.088439
  24 N :    0.075753
  25 C :    0.087602
  26 N :   -0.246039
  27 C :    0.119035
  28 C :   -0.004759
  29 C :    0.174983
  30 O :   -0.206092
  31 C :   -0.070081
  32 C :   -0.033694
  33 C :    0.167038
  34 O :   -0.198586
  35 N :   -0.253439
  36 C :    0.094107
  37 C :    0.008936
  38 C :    0.161272
  39 C :   -0.017556
  40 C :    0.102482
  41 C :   -0.110923
  42 S :    0.181549
  43 C :   -0.065029
  44 C :    0.052416
  45 N :   -0.082699
  46 C :    0.052537
  47 C :   -0.126862
  48 C :    0.138659
  49 O :   -0.126013
  50 C :    0.079427
  51 C :   -0.169813
  52 S :    0.185628
  53 C :   -0.134695
  54 C :    0.030683
  55 C :    0.272297
  56 C :   -0.281844
  57 C :   -0.154181
  58 N :    0.120209
  59 C :   -0.194419
  60 N :    0.168574
  61 Cl:    0.000868
  62 H :    0.052002
  63 H :    0.052240
  64 H :    0.019644
  65 H :    0.038864
  66 H :    0.035967
  67 H :    0.028896
  68 H :    0.022739
  69 H :    0.014632
  70 H :    0.041173
  71 H :    0.032474
  72 H :    0.018477
  73 H :    0.023623
  74 H :    0.018294
  75 H :   -0.007607
  76 H :    0.014919
  77 H :    0.036716
  78 H :    0.017677
  79 H :    0.049950
Sum of atomic charges:   -0.0000000

LOEWDIN ATOMIC CHARGES
----------------------
   0 C :   -0.055558
   1 C :   -0.150299
   2 S :    0.475210
   3 C :   -0.272275
   4 Cl:    0.192997
   5 C :   -0.107528
   6 C :    0.091101
   7 O :   -0.118681
   8 C :   -0.049395
   9 C :    0.085593
  10 C :   -0.141331
  11 C :   -0.018919
  12 N :   -0.054191
  13 C :   -0.024556
  14 N :   -0.052609
  15 C :    0.046782
  16 C :   -0.012756
  17 C :   -0.000657
  18 N :   -0.042760
  19 C :    0.058495
  20 C :   -0.080646
  21 C :   -0.039215
  22 N :   -0.013383
  23 O :    0.094167
  24 N :   -0.003944
  25 C :    0.073684
  26 N :    0.017498
  27 C :    0.033389
  28 C :   -0.060800
  29 C :    0.084863
  30 O :   -0.193666
  31 C :   -0.117102
  32 C :   -0.104735
  33 C :    0.085952
  34 O :   -0.182953
  35 N :    0.011165
  36 C :    0.032641
  37 C :   -0.059311
  38 C :    0.092913
  39 C :   -0.011014
  40 C :    0.002245
  41 C :   -0.113891
  42 S :    0.476062
  43 C :   -0.158258
  44 C :   -0.054208
  45 N :   -0.078729
  46 C :    0.065758
  47 C :   -0.074139
  48 C :    0.081546
  49 O :   -0.130961
  50 C :   -0.118360
  51 C :   -0.271686
  52 S :    0.474052
  53 C :   -0.156971
  54 C :   -0.054648
  55 C :    0.073767
  56 C :   -0.124704
  57 C :   -0.004665
  58 N :   -0.058750
  59 C :   -0.023000
  60 N :   -0.050751
  61 Cl:    0.192887
  62 H :    0.037009
  63 H :    0.047796
  64 H :    0.035596
  65 H :    0.034074
  66 H :    0.024750
  67 H :    0.030721
  68 H :    0.031368
  69 H :    0.019137
  70 H :    0.037024
  71 H :    0.023536
  72 H :    0.027269
  73 H :    0.032533
  74 H :    0.023799
  75 H :    0.035891
  76 H :    0.038235
  77 H :    0.035024
  78 H :    0.049417
  79 H :    0.036060

  Mayer bond orders larger than 0.100000
B(  0-C ,  1-C ) :   1.5363 B(  0-C ,  5-C ) :   1.2252 B(  0-C ,  9-C ) :   1.0120
B(  1-C ,  2-S ) :   1.1655 B(  1-C , 62-H ) :   0.9538 B(  2-S ,  3-C ) :   1.1454
B(  3-C ,  4-Cl) :   1.1279 B(  3-C ,  5-C ) :   1.4817 B(  5-C ,  6-C ) :   0.9542
B(  6-C ,  7-O ) :   2.2368 B(  6-C ,  8-C ) :   0.9097 B(  8-C ,  9-C ) :   1.0534
B(  8-C , 15-C ) :   1.7364 B(  9-C , 10-C ) :   1.6656 B( 10-C , 11-C ) :   1.1421
B( 10-C , 13-C ) :   1.1558 B( 11-C , 12-N ) :   2.9826 B( 13-C , 14-N ) :   2.9511
B( 15-C , 16-C ) :   1.0511 B( 15-C , 63-H ) :   0.9085 B( 16-C , 17-C ) :   1.4838
B( 16-C , 21-C ) :   1.1401 B( 17-C , 18-N ) :   1.3435 B( 17-C , 25-C ) :   1.0285
B( 18-N , 19-C ) :   1.7496 B( 19-C , 20-C ) :   1.0993 B( 19-C , 64-H ) :   0.9890
B( 20-C , 21-C ) :   1.1743 B( 20-C , 24-N ) :   1.5925 B( 21-C , 22-N ) :   1.5874
B( 22-N , 23-O ) :   1.0660 B( 22-N , 24-N ) :   0.1863 B( 23-O , 24-N ) :   1.0937
B( 25-C , 26-N ) :   1.2394 B( 25-C , 32-C ) :   1.3830 B( 26-N , 27-C ) :   0.9391
B( 26-N , 29-C ) :   1.0445 B( 27-C , 28-C ) :   1.1230 B( 27-C , 65-H ) :   0.9266
B( 27-C , 66-H ) :   0.9336 B( 28-C , 67-H ) :   0.9656 B( 28-C , 68-H ) :   0.9674
B( 28-C , 69-H ) :   0.9671 B( 29-C , 30-O ) :   2.0266 B( 29-C , 31-C ) :   0.9974
B( 30-O , 76-H ) :   0.1135 B( 31-C , 32-C ) :   1.2356 B( 31-C , 38-C ) :   1.3481
B( 32-C , 33-C ) :   0.9675 B( 33-C , 34-O ) :   2.0516 B( 33-C , 35-N ) :   1.0536
B( 35-N , 36-C ) :   0.9236 B( 35-N , 38-C ) :   1.1699 B( 36-C , 37-C ) :   1.1172
B( 36-C , 70-H ) :   0.9251 B( 36-C , 71-H ) :   0.9375 B( 37-C , 72-H ) :   0.9619
B( 37-C , 73-H ) :   0.9630 B( 37-C , 74-H ) :   0.9653 B( 38-C , 39-C ) :   1.1362
B( 39-C , 40-C ) :   1.6616 B( 39-C , 75-H ) :   0.9702 B( 40-C , 41-C ) :   1.0890
B( 40-C , 76-H ) :   0.9225 B( 41-C , 42-S ) :   1.1065 B( 41-C , 45-N ) :   1.6790
B( 42-S , 43-C ) :   1.2169 B( 43-C , 44-C ) :   1.4555 B( 43-C , 77-H ) :   0.9671
B( 44-C , 45-N ) :   1.3177 B( 44-C , 46-C ) :   1.0768 B( 46-C , 47-C ) :   1.6969
B( 46-C , 78-H ) :   0.9527 B( 47-C , 48-C ) :   0.9295 B( 47-C , 55-C ) :   1.0234
B( 48-C , 49-O ) :   2.2873 B( 48-C , 50-C ) :   0.9232 B( 50-C , 51-C ) :   1.4854
B( 50-C , 54-C ) :   1.2209 B( 51-C , 52-S ) :   1.1545 B( 51-C , 61-Cl) :   1.1297
B( 52-S , 53-C ) :   1.1558 B( 53-C , 54-C ) :   1.5500 B( 53-C , 79-H ) :   0.9579
B( 54-C , 55-C ) :   1.0175 B( 55-C , 56-C ) :   1.6892 B( 56-C , 57-C ) :   1.1556
B( 56-C , 59-C ) :   1.1371 B( 57-C , 58-N ) :   2.8810 B( 59-C , 60-N ) :   3.0040

-----------------------------------------------------------------------------
         ABSORPTION SPECTRUM VIA TRANSITION ELECTRIC DIPOLE MOMENTS
-----------------------------------------------------------------------------
State   Energy  Wavelength   fosc         T2         TX        TY        TZ
        (cm-1)    (nm)                  (au**2)     (au)      (au)      (au)
-----------------------------------------------------------------------------
   0   15547.3    643.2   0.370561910   7.84661   1.52607  -2.17346  -0.89095
   1   19870.4    503.3   0.223981441   3.71092   1.82869  -0.20881   0.56853
   2   21325.7    468.9   0.113462746   1.75156   0.90618  -0.81581   0.51463
   3   24052.4    415.8   0.017803790   0.24369  -0.29288   0.35847   0.17148
   4   25246.9    396.1   0.108642453   1.41667  -0.93951   0.11160  -0.72217
   5   25821.3    387.3   0.061757091   0.78738  -0.57348   0.12633   0.66524
   6   26552.4    376.6   0.099867307   1.23821   0.84947  -0.07872   0.71444
   7   27047.3    369.7   0.001942655   0.02365   0.02967   0.15010   0.01531
   8   28558.4    350.2   0.100368347   1.15701  -0.24794   1.03804  -0.13420
   9   28739.0    348.0   0.057127742   0.65441   0.71330  -0.20411   0.32242
  10   29197.7    342.5   0.129597785   1.46125   0.49295   1.09912   0.10090
  11   29546.2    338.5   0.037631399   0.41930   0.51929   0.36387   0.13128
  12   29794.6    335.6   0.071386291   0.78877   0.55949  -0.10010   0.68244
  13   30020.3    333.1   0.057853521   0.63444   0.53512  -0.41981   0.41454
  14   30110.3    332.1   0.029009000   0.31717  -0.02371   0.56258   0.01050
  15   30948.0    323.1   0.008447112   0.08986  -0.07356  -0.17069  -0.23518
  16   31254.0    320.0   0.155812801   1.64125   1.20160  -0.20373   0.39484
  17   31753.0    314.9   0.091582196   0.94952  -0.65389  -0.24177  -0.68081
  18   32057.9    311.9   0.083973018   0.86234  -0.25147   0.85165  -0.27167
  19   32565.1    307.1   0.032170242   0.32522  -0.06497   0.56586   0.02822
  20   32664.4    306.1   0.302363239   3.04740   0.24033   1.70757   0.27172
  21   32904.4    303.9   0.025451810   0.25465  -0.27496   0.41191  -0.09682
  22   32924.7    303.7   0.048272837   0.48268  -0.48656   0.06592  -0.49152
  23   33485.2    298.6   0.089533574   0.88025   0.10690   0.85915   0.36151
  24   33692.5    296.8   0.118209822   1.15504   0.06098  -1.06875   0.09539
  25   34208.9    292.3   0.014195867   0.13662   0.19232  -0.31492  -0.02118
  26   34430.5    290.4   0.006608757   0.06319   0.17747   0.15511   0.08739
  27   34603.1    289.0   0.013430426   0.12778  -0.23703   0.24662  -0.10380
  28   34773.7    287.6   0.129860930   1.22943  -0.51979  -0.97522  -0.09053
  29   34959.4    286.0   0.037483839   0.35298   0.52481   0.18282   0.21008
  30   35393.0    282.5   0.034276838   0.31883   0.33820   0.03390   0.45089
  31   35875.9    278.7   0.065652410   0.60245  -0.71616   0.08718  -0.28630
  32   36173.8    276.4   0.042051237   0.38270  -0.49701   0.34331  -0.13350
  33   36369.2    275.0   0.055474004   0.50215  -0.01963   0.68282  -0.18846
  34   36839.0    271.5   0.020254215   0.18100   0.36081  -0.01351  -0.22502
  35   37028.5    270.1   0.036189120   0.32175  -0.42832   0.05902  -0.36717
  36   37167.6    269.1   0.159023114   1.40855   0.97017  -0.27408   0.62625
  37   37416.1    267.3   0.063783299   0.56121  -0.18709   0.31667  -0.65263
  38   37528.7    266.5   0.594537828   5.21544   1.96520  -0.09356   1.15961
  39   38167.0    262.0   0.018036810   0.15558  -0.21694   0.24014  -0.22549
  40   38393.3    260.5   0.069956190   0.59986   0.47818   0.05363   0.60689
  41   38477.2    259.9   0.069808697   0.59729   0.10789  -0.65524   0.39536
  42   38697.5    258.4   0.371740000   3.16251   0.29369   1.69107  -0.46534
  43   38941.7    256.8   0.140916250   1.19130   0.28162   1.05450   0.00480
  44   39413.2    253.7   0.064179379   0.53608   0.18648   0.70621  -0.05071
  45   39541.8    252.9   0.018907404   0.15742  -0.37954  -0.08993   0.07266
  46   39566.3    252.7   0.051766324   0.43072   0.40728   0.48828  -0.16257
  47   39970.6    250.2   0.073465400   0.60509   0.64135  -0.38343   0.21621
  48   40232.4    248.6   0.032820634   0.26856   0.20516  -0.47480  -0.03219

FINAL SINGLE POINT ENERGY     -4645.921703646409

DIPOLE MOMENT
-------------
                                X             Y             Z
Electronic contribution:     34.20714      16.02092       9.26409
Nuclear contribution   :    -33.96864     -16.43623      -8.69310
                        -----------------------------------------
Total Dipole Moment    :      0.23849      -0.41531       0.57099
                        -----------------------------------------
Magnitude (a.u.)       :      0.74525
Magnitude (Debye)      :      1.89426

Rotational constants in cm-1:     0.001815     0.000628     0.000505
Rotational constants in MHz :    54.423948    18.833489    15.143043

                             ****ORCA TERMINATED NORMALLY****
TOTAL RUN TIME: 0 days 0 hours 8 minutes 19 seconds 547 msec
