                         Program Version 4.2.0 -  RELEASE  -
|  1> # ORCA input file
|  2> # SCF done       -197.366160522498          0.000458518491
|  3> ! CAM-B3LYP def2-SVP def2/J RIJCOSX Grid4 TightSCF
|  4> %maxcore 5000
|  5> %tddft
|  6>     Mode sTDDFT
|  7>     Ethresh 5.0
|  8>     maxcore 5000
|  9> end
| 10>
| 11> %pal
| 12>   nprocs 6
| 13>   end
| 14> * xyz 0 1
| 15>    C        0.65345         0.14833        -0.19546
| 16>    C       -0.57018         0.54627        -0.64019
| 17>    S       -1.55607        -0.80876        -1.04723
| 18>    C       -0.30161        -1.94258        -0.60243
| 19>   Cl       -0.52344        -3.61236        -0.73659
| 20>    C        0.80829        -1.27867        -0.17200
| 21>    C        2.14010        -1.62202         0.32283
| 22>    O        2.60890        -2.69713         0.61457
| 23>    C        2.82475        -0.30245         0.50057
| 24>    C        1.87492         0.77466         0.26816
| 25>    C        2.07207         2.11567         0.44377
| 26>    C        1.05830         3.05675         0.16422
| 27>    N        0.24187         3.83065        -0.05815
| 28>    C        3.26616         2.67991         0.93622
| 29>    N        4.21662         3.17008         1.35212
| 30>    C        4.13919        -0.26659         0.81675
| 31>    C        4.88714        -1.48028         0.75179
| 32>    C        5.64586        -2.19627         1.59017
| 33>    C        5.81132        -1.79327         3.02675
| 34>    C        4.50505        -1.98391         3.80148
| 35>    C        6.18895        -3.43815         1.02572
| 36>    C        7.05579        -4.35519         1.83802
| 37>    C        6.29660        -5.12208         2.92364
| 38>    C        5.91106        -3.66073        -0.27359
| 39>    S        5.10433        -2.16684        -0.92008
| 40>    O        3.93044        -2.37598        -1.71340
| 41>    O        6.11194        -1.31599        -1.49935
| 42>    C        6.13567        -4.80885        -1.09302
| 43>    N        6.78483        -4.79497        -2.29952
| 44>    C        7.34957        -3.65865        -2.99064
| 45>    C        6.40669        -3.16151        -4.08288
| 46>    C        6.83993        -6.07937        -2.87561
| 47>    O        7.40110        -6.31958        -3.92893
| 48>    C        6.13506        -6.92158        -1.94323
| 49>    C        5.71470        -6.11184        -0.85331
| 50>    C        4.92068        -6.94101         0.03247
| 51>    O        4.33571        -6.70675         1.06789
| 52>    N        4.94046        -8.21003        -0.57270
| 53>    C        4.22986        -9.32930         0.00004
| 54>    C        2.90631        -9.59075        -0.71443
| 55>    C        5.65540        -8.21624        -1.74575
| 56>    C        5.84339        -9.36374        -2.54766
| 57>    C        6.63902        -9.36159        -3.65475
| 58>    C        6.81220       -10.51516        -4.43285
| 59>    C        7.61787       -10.75953        -5.50833
| 60>    C        8.50906        -9.70285        -6.09023
| 61>    C        7.70852        -8.63675        -6.84793
| 62>    C        7.51107       -12.08943        -6.05661
| 63>    C        8.29390       -12.54484        -7.25229
| 64>    C        7.66534       -12.06534        -8.56349
| 65>    C        6.66620       -12.93890        -5.40363
| 66>    S        5.95578       -12.03825        -4.00036
| 67>    O        6.39582       -12.48257        -2.70289
| 68>    O        4.53118       -11.95309        -4.18231
| 69>    C        6.11254       -14.15808        -5.84093
| 70>    C        5.49131       -15.09085        -5.06805
| 71>    C        4.46230       -16.00059        -5.65935
| 72>    O        4.25503       -16.18805        -6.83422
| 73>    C        3.75828       -16.54467        -4.49109
| 74>    C        2.67252       -17.33387        -4.25306
| 75>    S        2.43544       -17.54975        -2.53510
| 76>    C        3.81451       -16.57979        -2.15681
| 77>    C        4.40845       -16.11495        -3.28550
| 78>    C        5.56692       -15.31857        -3.64005
| 79>    C        6.64773       -15.06799        -2.84054
| 80>    C        6.65174       -15.40835        -1.47419
| 81>    N        6.65074       -15.69459        -0.36336
| 82>    C        7.84640       -14.52241        -3.34355
| 83>    N        8.84179       -14.14538        -3.77247
| 84>   Cl        1.63659       -18.05402        -5.38258
| 85>    H       -0.95910         1.53819        -0.76052
| 86>    H        4.66004         0.66063         1.02461
| 87>    H        6.08741        -0.73604         3.05934
| 88>    H        6.60834        -2.36612         3.49554
| 89>    H        3.73532        -1.32549         3.40693
| 90>    H        4.65619        -1.75228         4.85289
| 91>    H        4.15053        -3.00703         3.71106
| 92>    H        7.85602        -3.76437         2.29292
| 93>    H        7.51452        -5.07667         1.15994
| 94>    H        5.95829        -4.46914         3.72048
| 95>    H        6.95329        -5.87431         3.35381
| 96>    H        5.43412        -5.62124         2.49288
| 97>    H        8.28761        -3.99552        -3.44297
| 98>    H        7.54923        -2.86218        -2.27332
| 99>    H        6.23179        -3.94973        -4.81139
|100>    H        6.85261        -2.30759        -4.58363
|101>    H        5.45785        -2.85224        -3.65164
|102>    H        4.03764        -9.06074         1.04274
|103>    H        4.86670       -10.21750        -0.02840
|104>    H        2.28623        -8.69776        -0.68606
|105>    H        2.37714       -10.39771        -0.21538
|106>    H        3.06791        -9.87281        -1.75234
|107>    H        5.35399       -10.28146        -2.25997
|108>    H        7.14767        -8.45069        -3.94486
|109>    H        9.23666       -10.15227        -6.76362
|110>    H        9.05326        -9.21432        -5.28014
|111>    H        7.04261        -9.09311        -7.57623
|112>    H        8.39217        -7.97174        -7.36914
|113>    H        7.11184        -8.04091        -6.16480
|114>    H        8.33427       -13.63415        -7.24745
|115>    H        9.31931       -12.17986        -7.18173
|116>    H        6.63142       -12.39429        -8.63263
|117>    H        8.21569       -12.47691        -9.40565
|118>    H        7.68671       -10.98229        -8.63511
|119>    H        6.03725       -14.31576        -6.91362
|120>    H        4.08170       -16.41307        -1.13227
|121> *
|122>
|123>                          ****END OF INPUT****

CARTESIAN COORDINATES (ANGSTROEM)
---------------------------------
  C      0.653450    0.148330   -0.195460
  C     -0.570180    0.546270   -0.640190
  S     -1.556070   -0.808760   -1.047230
  C     -0.301610   -1.942580   -0.602430
  Cl    -0.523440   -3.612360   -0.736590
  C      0.808290   -1.278670   -0.172000
  C      2.140100   -1.622020    0.322830
  O      2.608900   -2.697130    0.614570
  C      2.824750   -0.302450    0.500570
  C      1.874920    0.774660    0.268160
  C      2.072070    2.115670    0.443770
  C      1.058300    3.056750    0.164220
  N      0.241870    3.830650   -0.058150
  C      3.266160    2.679910    0.936220
  N      4.216620    3.170080    1.352120
  C      4.139190   -0.266590    0.816750
  C      4.887140   -1.480280    0.751790
  C      5.645860   -2.196270    1.590170
  C      5.811320   -1.793270    3.026750
  C      4.505050   -1.983910    3.801480
  C      6.188950   -3.438150    1.025720
  C      7.055790   -4.355190    1.838020
  C      6.296600   -5.122080    2.923640
  C      5.911060   -3.660730   -0.273590
  S      5.104330   -2.166840   -0.920080
  O      3.930440   -2.375980   -1.713400
  O      6.111940   -1.315990   -1.499350
  C      6.135670   -4.808850   -1.093020
  N      6.784830   -4.794970   -2.299520
  C      7.349570   -3.658650   -2.990640
  C      6.406690   -3.161510   -4.082880
  C      6.839930   -6.079370   -2.875610
  O      7.401100   -6.319580   -3.928930
  C      6.135060   -6.921580   -1.943230
  C      5.714700   -6.111840   -0.853310
  C      4.920680   -6.941010    0.032470
  O      4.335710   -6.706750    1.067890
  N      4.940460   -8.210030   -0.572700
  C      4.229860   -9.329300    0.000040
  C      2.906310   -9.590750   -0.714430
  C      5.655400   -8.216240   -1.745750
  C      5.843390   -9.363740   -2.547660
  C      6.639020   -9.361590   -3.654750
  C      6.812200  -10.515160   -4.432850
  C      7.617870  -10.759530   -5.508330
  C      8.509060   -9.702850   -6.090230
  C      7.708520   -8.636750   -6.847930
  C      7.511070  -12.089430   -6.056610
  C      8.293900  -12.544840   -7.252290
  C      7.665340  -12.065340   -8.563490
  C      6.666200  -12.938900   -5.403630
  S      5.955780  -12.038250   -4.000360
  O      6.395820  -12.482570   -2.702890
  O      4.531180  -11.953090   -4.182310
  C      6.112540  -14.158080   -5.840930
  C      5.491310  -15.090850   -5.068050
  C      4.462300  -16.000590   -5.659350
  O      4.255030  -16.188050   -6.834220
  C      3.758280  -16.544670   -4.491090
  C      2.672520  -17.333870   -4.253060
  S      2.435440  -17.549750   -2.535100
  C      3.814510  -16.579790   -2.156810
  C      4.408450  -16.114950   -3.285500
  C      5.566920  -15.318570   -3.640050
  C      6.647730  -15.067990   -2.840540
  C      6.651740  -15.408350   -1.474190
  N      6.650740  -15.694590   -0.363360
  C      7.846400  -14.522410   -3.343550
  N      8.841790  -14.145380   -3.772470
  Cl     1.636590  -18.054020   -5.382580
  H     -0.959100    1.538190   -0.760520
  H      4.660040    0.660630    1.024610
  H      6.087410   -0.736040    3.059340
  H      6.608340   -2.366120    3.495540
  H      3.735320   -1.325490    3.406930
  H      4.656190   -1.752280    4.852890
  H      4.150530   -3.007030    3.711060
  H      7.856020   -3.764370    2.292920
  H      7.514520   -5.076670    1.159940
  H      5.958290   -4.469140    3.720480
  H      6.953290   -5.874310    3.353810
  H      5.434120   -5.621240    2.492880
  H      8.287610   -3.995520   -3.442970
  H      7.549230   -2.862180   -2.273320
  H      6.231790   -3.949730   -4.811390
  H      6.852610   -2.307590   -4.583630
  H      5.457850   -2.852240   -3.651640
  H      4.037640   -9.060740    1.042740
  H      4.866700  -10.217500   -0.028400
  H      2.286230   -8.697760   -0.686060
  H      2.377140  -10.397710   -0.215380
  H      3.067910   -9.872810   -1.752340
  H      5.353990  -10.281460   -2.259970
  H      7.147670   -8.450690   -3.944860
  H      9.236660  -10.152270   -6.763620
  H      9.053260   -9.214320   -5.280140
  H      7.042610   -9.093110   -7.576230
  H      8.392170   -7.971740   -7.369140
  H      7.111840   -8.040910   -6.164800
  H      8.334270  -13.634150   -7.247450
  H      9.319310  -12.179860   -7.181730
  H      6.631420  -12.394290   -8.632630
  H      8.215690  -12.476910   -9.405650
  H      7.686710  -10.982290   -8.635110
  H      6.037250  -14.315760   -6.913620
  H      4.081700  -16.413070   -1.132270

 Total Charge           Charge          ....    0
 Multiplicity           Mult            ....    1
 Number of Electrons    NEL             ....  540
 Basis Dimension        Dim             .... 1184

ORBITAL ENERGIES
----------------

  NO   OCC          E(Eh)            E(eV)
   0   2.0000    -101.620754     -2765.2413
   1   2.0000    -101.613330     -2765.0393
   2   2.0000     -89.153263     -2425.9836
   3   2.0000     -89.149218     -2425.8736
   4   2.0000     -89.000078     -2421.8152
   5   2.0000     -88.987164     -2421.4638
   6   2.0000     -19.228809      -523.2425
   7   2.0000     -19.217790      -522.9427
   8   2.0000     -19.215386      -522.8772
   9   2.0000     -19.212641      -522.8025
  10   2.0000     -19.209188      -522.7086
  11   2.0000     -19.200348      -522.4680
  12   2.0000     -19.199078      -522.4335
  13   2.0000     -19.194643      -522.3128
  14   2.0000     -14.459480      -393.4625
  15   2.0000     -14.456798      -393.3895
  16   2.0000     -14.431911      -392.7123
  17   2.0000     -14.430623      -392.6772
  18   2.0000     -14.415431      -392.2638
  19   2.0000     -14.412631      -392.1876
  20   2.0000     -10.383764      -282.5566
  21   2.0000     -10.381710      -282.5007
  22   2.0000     -10.380158      -282.4585
  23   2.0000     -10.378700      -282.4188
  24   2.0000     -10.374134      -282.2945
  25   2.0000     -10.371527      -282.2236
  26   2.0000     -10.361735      -281.9571
  27   2.0000     -10.359672      -281.9010
  28   2.0000     -10.352270      -281.6996
  29   2.0000     -10.346604      -281.5454
  30   2.0000     -10.345609      -281.5183
  31   2.0000     -10.337790      -281.3056
  32   2.0000     -10.336796      -281.2785
  33   2.0000     -10.336710      -281.2762
  34   2.0000     -10.332954      -281.1740
  35   2.0000     -10.331681      -281.1393
  36   2.0000     -10.328172      -281.0439
  37   2.0000     -10.323434      -280.9149
  38   2.0000     -10.323288      -280.9110
  39   2.0000     -10.323166      -280.9076
  40   2.0000     -10.322011      -280.8762
  41   2.0000     -10.321240      -280.8552
  42   2.0000     -10.320844      -280.8444
  43   2.0000     -10.319201      -280.7997
  44   2.0000     -10.318744      -280.7873
  45   2.0000     -10.317767      -280.7607
  46   2.0000     -10.316591      -280.7287
  47   2.0000     -10.315334      -280.6945
  48   2.0000     -10.315007      -280.6856
  49   2.0000     -10.314292      -280.6662
  50   2.0000     -10.307087      -280.4701
  51   2.0000     -10.306818      -280.4628
  52   2.0000     -10.306714      -280.4599
  53   2.0000     -10.306311      -280.4490
  54   2.0000     -10.305719      -280.4329
  55   2.0000     -10.302066      -280.3335
  56   2.0000     -10.297017      -280.1961
  57   2.0000     -10.295583      -280.1570
  58   2.0000     -10.294549      -280.1289
  59   2.0000     -10.290001      -280.0052
  60   2.0000     -10.289562      -279.9932
  61   2.0000     -10.284458      -279.8543
  62   2.0000     -10.279138      -279.7096
  63   2.0000     -10.270284      -279.4686
  64   2.0000     -10.269640      -279.4511
  65   2.0000     -10.267951      -279.4052
  66   2.0000     -10.267320      -279.3880
  67   2.0000     -10.259928      -279.1868
  68   2.0000     -10.253400      -279.0092
  69   2.0000     -10.244248      -278.7602
  70   2.0000      -9.575556      -260.5641
  71   2.0000      -9.568093      -260.3611
  72   2.0000      -8.218936      -223.6486
  73   2.0000      -8.215530      -223.5559
  74   2.0000      -8.095841      -220.2990
  75   2.0000      -8.082954      -219.9484
  76   2.0000      -7.346220      -199.9008
  77   2.0000      -7.338714      -199.6966
  78   2.0000      -7.335588      -199.6115
  79   2.0000      -7.335007      -199.5957
  80   2.0000      -7.328144      -199.4089
  81   2.0000      -7.327608      -199.3944
  82   2.0000      -6.187936      -168.3823
  83   2.0000      -6.187453      -168.3692
  84   2.0000      -6.187044      -168.3580
  85   2.0000      -6.184403      -168.2862
  86   2.0000      -6.184186      -168.2802
  87   2.0000      -6.183380      -168.2583
  88   2.0000      -6.065194      -165.0423
  89   2.0000      -6.060569      -164.9165
  90   2.0000      -6.058130      -164.8501
  91   2.0000      -6.052354      -164.6929
  92   2.0000      -6.047773      -164.5683
  93   2.0000      -6.045124      -164.4962
  94   2.0000      -1.216176       -33.0938
  95   2.0000      -1.214532       -33.0491
  96   2.0000      -1.146679       -31.2027
  97   2.0000      -1.139169       -30.9984
  98   2.0000      -1.133973       -30.8570
  99   2.0000      -1.132433       -30.8151
 100   2.0000      -1.092747       -29.7352
 101   2.0000      -1.090890       -29.6846
 102   2.0000      -1.069787       -29.1104
 103   2.0000      -1.060948       -28.8699
 104   2.0000      -1.045311       -28.4444
 105   2.0000      -1.032990       -28.1091
 106   2.0000      -1.027082       -27.9483
 107   2.0000      -1.011668       -27.5289
 108   2.0000      -1.009342       -27.4656
 109   2.0000      -0.999494       -27.1976
 110   2.0000      -0.998549       -27.1719
 111   2.0000      -0.992121       -26.9970
 112   2.0000      -0.989996       -26.9392
 113   2.0000      -0.983623       -26.7657
 114   2.0000      -0.962245       -26.1840
 115   2.0000      -0.952032       -25.9061
 116   2.0000      -0.936643       -25.4874
 117   2.0000      -0.931221       -25.3398
 118   2.0000      -0.927096       -25.2276
 119   2.0000      -0.912474       -24.8297
 120   2.0000      -0.908395       -24.7187
 121   2.0000      -0.897995       -24.4357
 122   2.0000      -0.892385       -24.2830
 123   2.0000      -0.887106       -24.1394
 124   2.0000      -0.871857       -23.7244
 125   2.0000      -0.870524       -23.6882
 126   2.0000      -0.869038       -23.6477
 127   2.0000      -0.847292       -23.0560
 128   2.0000      -0.840046       -22.8588
 129   2.0000      -0.837578       -22.7917
 130   2.0000      -0.826886       -22.5007
 131   2.0000      -0.816250       -22.2113
 132   2.0000      -0.813384       -22.1333
 133   2.0000      -0.806257       -21.9394
 134   2.0000      -0.785706       -21.3802
 135   2.0000      -0.778024       -21.1711
 136   2.0000      -0.775410       -21.1000
 137   2.0000      -0.769393       -20.9363
 138   2.0000      -0.761671       -20.7261
 139   2.0000      -0.755799       -20.5663
 140   2.0000      -0.748278       -20.3617
 141   2.0000      -0.729735       -19.8571
 142   2.0000      -0.723206       -19.6794
 143   2.0000      -0.716938       -19.5089
 144   2.0000      -0.710761       -19.3408
 145   2.0000      -0.707268       -19.2457
 146   2.0000      -0.705052       -19.1855
 147   2.0000      -0.699028       -19.0215
 148   2.0000      -0.696912       -18.9639
 149   2.0000      -0.690388       -18.7864
 150   2.0000      -0.685325       -18.6486
 151   2.0000      -0.684405       -18.6236
 152   2.0000      -0.669370       -18.2145
 153   2.0000      -0.660097       -17.9622
 154   2.0000      -0.657752       -17.8983
 155   2.0000      -0.657151       -17.8820
 156   2.0000      -0.647331       -17.6148
 157   2.0000      -0.645776       -17.5725
 158   2.0000      -0.629300       -17.1241
 159   2.0000      -0.625009       -17.0074
 160   2.0000      -0.619695       -16.8628
 161   2.0000      -0.614362       -16.7176
 162   2.0000      -0.611865       -16.6497
 163   2.0000      -0.608242       -16.5511
 164   2.0000      -0.598034       -16.2733
 165   2.0000      -0.591869       -16.1056
 166   2.0000      -0.585262       -15.9258
 167   2.0000      -0.584274       -15.8989
 168   2.0000      -0.581214       -15.8156
 169   2.0000      -0.577491       -15.7143
 170   2.0000      -0.570861       -15.5339
 171   2.0000      -0.560718       -15.2579
 172   2.0000      -0.558872       -15.2077
 173   2.0000      -0.554092       -15.0776
 174   2.0000      -0.552820       -15.0430
 175   2.0000      -0.550987       -14.9931
 176   2.0000      -0.548876       -14.9357
 177   2.0000      -0.548076       -14.9139
 178   2.0000      -0.545093       -14.8327
 179   2.0000      -0.540384       -14.7046
 180   2.0000      -0.539649       -14.6846
 181   2.0000      -0.537041       -14.6136
 182   2.0000      -0.536590       -14.6014
 183   2.0000      -0.535004       -14.5582
 184   2.0000      -0.531107       -14.4522
 185   2.0000      -0.530232       -14.4283
 186   2.0000      -0.529467       -14.4075
 187   2.0000      -0.528758       -14.3882
 188   2.0000      -0.527429       -14.3521
 189   2.0000      -0.525196       -14.2913
 190   2.0000      -0.520947       -14.1757
 191   2.0000      -0.519732       -14.1426
 192   2.0000      -0.518316       -14.1041
 193   2.0000      -0.516503       -14.0548
 194   2.0000      -0.514674       -14.0050
 195   2.0000      -0.513157       -13.9637
 196   2.0000      -0.507691       -13.8150
 197   2.0000      -0.507497       -13.8097
 198   2.0000      -0.505007       -13.7420
 199   2.0000      -0.502996       -13.6872
 200   2.0000      -0.501549       -13.6478
 201   2.0000      -0.500731       -13.6256
 202   2.0000      -0.493688       -13.4339
 203   2.0000      -0.491905       -13.3854
 204   2.0000      -0.491660       -13.3787
 205   2.0000      -0.489709       -13.3257
 206   2.0000      -0.484777       -13.1914
 207   2.0000      -0.481987       -13.1155
 208   2.0000      -0.473940       -12.8966
 209   2.0000      -0.471573       -12.8322
 210   2.0000      -0.469382       -12.7725
 211   2.0000      -0.466091       -12.6830
 212   2.0000      -0.463853       -12.6221
 213   2.0000      -0.462696       -12.5906
 214   2.0000      -0.461742       -12.5646
 215   2.0000      -0.457619       -12.4524
 216   2.0000      -0.456755       -12.4289
 217   2.0000      -0.453903       -12.3513
 218   2.0000      -0.453535       -12.3413
 219   2.0000      -0.451061       -12.2740
 220   2.0000      -0.449275       -12.2254
 221   2.0000      -0.448727       -12.2105
 222   2.0000      -0.447838       -12.1863
 223   2.0000      -0.447118       -12.1667
 224   2.0000      -0.443744       -12.0749
 225   2.0000      -0.443413       -12.0659
 226   2.0000      -0.443060       -12.0563
 227   2.0000      -0.442275       -12.0349
 228   2.0000      -0.441589       -12.0162
 229   2.0000      -0.440105       -11.9759
 230   2.0000      -0.439446       -11.9579
 231   2.0000      -0.434943       -11.8354
 232   2.0000      -0.434434       -11.8215
 233   2.0000      -0.431765       -11.7489
 234   2.0000      -0.430643       -11.7184
 235   2.0000      -0.428293       -11.6544
 236   2.0000      -0.428201       -11.6520
 237   2.0000      -0.427483       -11.6324
 238   2.0000      -0.427135       -11.6229
 239   2.0000      -0.423730       -11.5303
 240   2.0000      -0.421703       -11.4751
 241   2.0000      -0.417802       -11.3690
 242   2.0000      -0.414589       -11.2815
 243   2.0000      -0.412442       -11.2231
 244   2.0000      -0.408459       -11.1147
 245   2.0000      -0.408294       -11.1102
 246   2.0000      -0.406265       -11.0550
 247   2.0000      -0.404482       -11.0065
 248   2.0000      -0.399720       -10.8769
 249   2.0000      -0.398199       -10.8356
 250   2.0000      -0.393437       -10.7060
 251   2.0000      -0.378512       -10.2998
 252   2.0000      -0.375639       -10.2217
 253   2.0000      -0.374078       -10.1792
 254   2.0000      -0.369080       -10.0432
 255   2.0000      -0.367611       -10.0032
 256   2.0000      -0.357722        -9.7341
 257   2.0000      -0.351685        -9.5698
 258   2.0000      -0.348120        -9.4728
 259   2.0000      -0.347257        -9.4493
 260   2.0000      -0.340973        -9.2783
 261   2.0000      -0.338996        -9.2245
 262   2.0000      -0.336573        -9.1586
 263   2.0000      -0.326898        -8.8954
 264   2.0000      -0.318603        -8.6696
 265   2.0000      -0.317961        -8.6522
 266   2.0000      -0.308614        -8.3978
 267   2.0000      -0.306680        -8.3452
 268   2.0000      -0.292681        -7.9642
 269   2.0000      -0.247653        -6.7390
 270   0.0000      -0.115174        -3.1340
 271   0.0000      -0.105575        -2.8728
 272   0.0000      -0.075431        -2.0526
 273   0.0000      -0.056775        -1.5449
 274   0.0000      -0.050925        -1.3857

MULLIKEN ATOMIC CHARGES
-----------------------
   0 C :    0.027450
   1 C :   -0.128361
   2 S :    0.194866
   3 C :   -0.166338
   4 Cl:    0.010298
   5 C :    0.097098
   6 C :    0.150940
   7 O :   -0.120150
   8 C :   -0.072237
   9 C :    0.297171
  10 C :   -0.309004
  11 C :   -0.195550
  12 N :    0.167060
  13 C :   -0.195255
  14 N :    0.173559
  15 C :   -0.034207
  16 C :   -0.141336
  17 C :    0.018421
  18 C :    0.067597
  19 C :    0.012944
  20 C :    0.023952
  21 C :    0.052014
  22 C :   -0.006666
  23 C :   -0.196243
  24 S :    0.788226
  25 O :   -0.408393
  26 O :   -0.452039
  27 C :    0.084406
  28 N :   -0.246385
  29 C :    0.091191
  30 C :    0.004586
  31 C :    0.169407
  32 O :   -0.215871
  33 C :   -0.078093
  34 C :   -0.018529
  35 C :    0.157078
  36 O :   -0.191521
  37 N :   -0.261353
  38 C :    0.092810
  39 C :   -0.000661
  40 C :    0.155079
  41 C :   -0.012307
  42 C :   -0.003054
  43 C :   -0.053101
  44 C :   -0.028445
  45 C :    0.068233
  46 C :    0.006325
  47 C :   -0.003716
  48 C :    0.051390
  49 C :    0.009093
  50 C :   -0.128108
  51 S :    0.775682
  52 O :   -0.441607
  53 O :   -0.450163
  54 C :    0.025338
  55 C :   -0.124200
  56 C :    0.142890
  57 O :   -0.127453
  58 C :    0.080999
  59 C :   -0.172206
  60 S :    0.177954
  61 C :   -0.133704
  62 C :    0.040251
  63 C :    0.219434
  64 C :   -0.254221
  65 C :   -0.181266
  66 N :    0.162730
  67 C :   -0.193897
  68 N :    0.157097
  69 Cl:   -0.003107
  70 H :    0.055317
  71 H :    0.055923
  72 H :    0.021743
  73 H :    0.009816
  74 H :    0.017189
  75 H :    0.023591
  76 H :    0.039533
  77 H :    0.023103
  78 H :    0.017721
  79 H :    0.003427
  80 H :    0.016107
  81 H :    0.054254
  82 H :    0.023952
  83 H :    0.046173
  84 H :    0.021587
  85 H :    0.019896
  86 H :    0.022080
  87 H :    0.041092
  88 H :    0.038152
  89 H :    0.027164
  90 H :    0.025766
  91 H :    0.027768
  92 H :    0.002890
  93 H :    0.020739
  94 H :    0.002219
  95 H :    0.038643
  96 H :    0.017057
  97 H :    0.027686
  98 H :    0.037494
  99 H :    0.025493
 100 H :    0.037117
 101 H :    0.026271
 102 H :    0.032031
 103 H :    0.018368
 104 H :    0.027776
 105 H :    0.050038
Sum of atomic charges:   -0.0000000

LOEWDIN ATOMIC CHARGES
----------------------
   0 C :   -0.057923
   1 C :   -0.147064
   2 S :    0.484830
   3 C :   -0.268201
   4 Cl:    0.202886
   5 C :   -0.112448
   6 C :    0.079517
   7 O :   -0.115895
   8 C :   -0.055122
   9 C :    0.071943
  10 C :   -0.120479
  11 C :   -0.016017
  12 N :   -0.039287
  13 C :   -0.019669
  14 N :   -0.036460
  15 C :    0.043812
  16 C :   -0.143787
  17 C :   -0.007972
  18 C :   -0.027985
  19 C :   -0.043766
  20 C :    0.029614
  21 C :   -0.027554
  22 C :   -0.055615
  23 C :   -0.184511
  24 S :    1.188416
  25 O :   -0.467750
  26 O :   -0.495485
  27 C :    0.055270
  28 N :    0.013579
  29 C :    0.030564
  30 C :   -0.063874
  31 C :    0.081384
  32 O :   -0.203573
  33 C :   -0.119675
  34 C :   -0.115162
  35 C :    0.088989
  36 O :   -0.182789
  37 N :    0.001122
  38 C :    0.036231
  39 C :   -0.060604
  40 C :    0.081336
  41 C :   -0.022835
  42 C :    0.010071
  43 C :   -0.145768
  44 C :   -0.003395
  45 C :   -0.028436
  46 C :   -0.043343
  47 C :    0.025406
  48 C :   -0.024335
  49 C :   -0.045257
  50 C :   -0.175176
  51 S :    1.182195
  52 O :   -0.471678
  53 O :   -0.494646
  54 C :    0.034400
  55 C :   -0.065714
  56 C :    0.082453
  57 O :   -0.133131
  58 C :   -0.118125
  59 C :   -0.271806
  60 S :    0.468504
  61 C :   -0.154586
  62 C :   -0.050404
  63 C :    0.045309
  64 C :   -0.110343
  65 C :   -0.009651
  66 N :   -0.046573
  67 C :   -0.022505
  68 N :   -0.056290
  69 Cl:    0.190072
  70 H :    0.038811
  71 H :    0.054097
  72 H :    0.038484
  73 H :    0.029616
  74 H :    0.024026
  75 H :    0.029017
  76 H :    0.031448
  77 H :    0.033872
  78 H :    0.034492
  79 H :    0.017645
  80 H :    0.029170
  81 H :    0.031226
  82 H :    0.030112
  83 H :    0.024073
  84 H :    0.025046
  85 H :    0.031308
  86 H :    0.015768
  87 H :    0.036920
  88 H :    0.029297
  89 H :    0.031122
  90 H :    0.032413
  91 H :    0.026053
  92 H :    0.025358
  93 H :    0.042272
  94 H :    0.029400
  95 H :    0.044806
  96 H :    0.021236
  97 H :    0.032155
  98 H :    0.031139
  99 H :    0.037895
 100 H :    0.041011
 101 H :    0.029007
 102 H :    0.033995
 103 H :    0.025531
 104 H :    0.049504
 105 H :    0.037439

  Mayer bond orders larger than 0.100000
B(  0-C ,  1-C ) :   1.5339 B(  0-C ,  5-C ) :   1.2283 B(  0-C ,  9-C ) :   1.0134
B(  1-C ,  2-S ) :   1.1705 B(  1-C , 70-H ) :   0.9558 B(  2-S ,  3-C ) :   1.1505
B(  3-C ,  4-Cl) :   1.1408 B(  3-C ,  5-C ) :   1.4731 B(  5-C ,  6-C ) :   0.9513
B(  6-C ,  7-O ) :   2.2140 B(  6-C ,  8-C ) :   0.9247 B(  8-C ,  9-C ) :   1.0152
B(  8-C , 15-C ) :   1.7319 B(  9-C , 10-C ) :   1.6902 B( 10-C , 11-C ) :   1.1373
B( 10-C , 13-C ) :   1.1449 B( 11-C , 12-N ) :   2.9964 B( 13-C , 14-N ) :   2.9816
B( 15-C , 16-C ) :   0.9948 B( 15-C , 71-H ) :   0.9609 B( 16-C , 17-C ) :   1.7269
B( 16-C , 23-C ) :   0.1016 B( 16-C , 24-S ) :   0.8002 B( 17-C , 18-C ) :   1.0957
B( 17-C , 20-C ) :   1.0441 B( 18-C , 19-C ) :   1.1028 B( 18-C , 72-H ) :   0.9160
B( 18-C , 73-H ) :   0.9150 B( 19-C , 74-H ) :   0.9675 B( 19-C , 75-H ) :   0.9663
B( 19-C , 76-H ) :   0.9640 B( 20-C , 21-C ) :   1.1001 B( 20-C , 23-C ) :   1.7661
B( 21-C , 22-C ) :   1.0892 B( 21-C , 77-H ) :   0.9193 B( 21-C , 78-H ) :   0.9120
B( 22-C , 79-H ) :   0.9646 B( 22-C , 80-H ) :   0.9581 B( 22-C , 81-H ) :   0.9444
B( 23-C , 24-S ) :   0.7804 B( 23-C , 27-C ) :   1.0208 B( 24-S , 25-O ) :   1.7197
B( 24-S , 26-O ) :   1.6675 B( 27-C , 28-N ) :   1.2259 B( 27-C , 34-C ) :   1.4233
B( 28-N , 29-C ) :   0.9328 B( 28-N , 31-C ) :   1.0538 B( 29-C , 30-C ) :   1.1158
B( 29-C , 82-H ) :   0.9316 B( 29-C , 83-H ) :   0.9378 B( 30-C , 84-H ) :   0.9639
B( 30-C , 85-H ) :   0.9650 B( 30-C , 86-H ) :   0.9551 B( 31-C , 32-O ) :   2.0013
B( 31-C , 33-C ) :   1.0039 B( 32-O , 93-H ) :   0.1032 B( 33-C , 34-C ) :   1.2176
B( 33-C , 40-C ) :   1.3408 B( 34-C , 35-C ) :   0.9637 B( 35-C , 36-O ) :   2.0592
B( 35-C , 37-N ) :   1.0459 B( 37-N , 38-C ) :   0.9392 B( 37-N , 40-C ) :   1.1649
B( 38-C , 39-C ) :   1.1224 B( 38-C , 87-H ) :   0.9274 B( 38-C , 88-H ) :   0.9498
B( 39-C , 89-H ) :   0.9629 B( 39-C , 90-H ) :   0.9673 B( 39-C , 91-H ) :   0.9677
B( 40-C , 41-C ) :   1.1609 B( 41-C , 42-C ) :   1.5610 B( 41-C , 92-H ) :   0.9426
B( 42-C , 43-C ) :   1.2227 B( 42-C , 93-H ) :   0.9474 B( 43-C , 44-C ) :   1.5902
B( 43-C , 51-S ) :   0.8110 B( 44-C , 45-C ) :   1.0894 B( 44-C , 47-C ) :   1.1277
B( 45-C , 46-C ) :   1.1001 B( 45-C , 94-H ) :   0.9162 B( 45-C , 95-H ) :   0.9100
B( 46-C , 96-H ) :   0.9618 B( 46-C , 97-H ) :   0.9669 B( 46-C , 98-H ) :   0.9654
B( 47-C , 48-C ) :   1.0847 B( 47-C , 50-C ) :   1.6273 B( 48-C , 49-C ) :   1.0893
B( 48-C , 99-H ) :   0.9193 B( 48-C ,100-H ) :   0.9200 B( 49-C ,101-H ) :   0.9687
B( 49-C ,102-H ) :   0.9623 B( 49-C ,103-H ) :   0.9686 B( 50-C , 51-S ) :   0.7911
B( 50-C , 54-C ) :   1.1261 B( 51-S , 52-O ) :   1.6432 B( 51-S , 53-O ) :   1.7044
B( 54-C , 55-C ) :   1.6858 B( 54-C ,104-H ) :   0.9401 B( 55-C , 56-C ) :   0.9316
B( 55-C , 63-C ) :   1.0399 B( 56-C , 57-O ) :   2.2809 B( 56-C , 58-C ) :   0.9309
B( 58-C , 59-C ) :   1.4801 B( 58-C , 62-C ) :   1.2213 B( 59-C , 60-S ) :   1.1553
B( 59-C , 69-Cl) :   1.1261 B( 60-S , 61-C ) :   1.1475 B( 61-C , 62-C ) :   1.5618
B( 61-C ,105-H ) :   0.9593 B( 62-C , 63-C ) :   1.0100 B( 63-C , 64-C ) :   1.7064
B( 64-C , 65-C ) :   1.1496 B( 64-C , 67-C ) :   1.1196 B( 65-C , 66-N ) :   3.0082
B( 67-C , 68-N ) :   3.0142

-----------------------------------------------------------------------------
         ABSORPTION SPECTRUM VIA TRANSITION ELECTRIC DIPOLE MOMENTS
-----------------------------------------------------------------------------
State   Energy  Wavelength   fosc         T2         TX        TY        TZ
        (cm-1)    (nm)                  (au**2)     (au)      (au)      (au)
-----------------------------------------------------------------------------
   0   13780.5    725.7   0.686513763  16.40059  -0.04825  -3.93994  -0.93549
   1   17026.0    587.3   0.005309329   0.10266   0.27988   0.15190   0.03537
   2   21982.4    454.9   0.143348729   2.14682   0.18880  -1.44661   0.13594
   3   22273.9    449.0   0.045863491   0.67787  -0.02770  -0.77029  -0.28941
   4   23770.6    420.7   0.066500766   0.92100  -0.86389   0.38822  -0.15483
   5   24242.0    412.5   0.192524398   2.61453   0.15540   1.55697   0.40772
   6   25436.8    393.1   0.003553874   0.04600  -0.03943  -0.18567  -0.09983
   7   26883.5    372.0   0.032032458   0.39227  -0.02033  -0.38751  -0.49162
   8   27320.7    366.0   0.003868405   0.04661   0.15118  -0.12060   0.09599
   9   27410.5    364.8   0.001229004   0.01476  -0.01926  -0.00875  -0.11964
  10   27678.9    361.3   0.014574685   0.17335   0.23124  -0.23931   0.25022
  11   28166.9    355.0   0.067478034   0.78868  -0.00234  -0.83998  -0.28828
  12   28883.3    346.2   0.030876635   0.35193   0.36254  -0.40128  -0.24386
  13   29565.6    338.2   0.008437510   0.09395   0.30056   0.06008   0.00266
  14   29645.6    337.3   0.101524985   1.12743   0.76917  -0.72469   0.10308
  15   30300.9    330.0   0.156999447   1.70576   0.31399  -0.61832  -1.10673
  16   31030.8    322.3   0.114861939   1.21859  -0.10010   0.15741   1.08802
  17   31154.1    321.0   0.055034219   0.58156  -0.12975  -0.32035  -0.67978
  18   31592.7    316.5   0.004744184   0.04944  -0.01665   0.12129   0.18560
  19   32014.1    312.4   0.066521789   0.68407   0.34758   0.70627   0.25384
  20   32132.9    311.2   0.014680373   0.15041   0.33968   0.18186   0.04416
  21   32566.3    307.1   0.021178420   0.21409   0.37407   0.06239   0.26509
  22   32762.3    305.2   0.009451988   0.09498   0.15025   0.17902   0.20088
  23   32988.4    303.1   0.059027211   0.58907   0.62267   0.43729   0.10064
  24   33701.0    296.7   0.056640348   0.55330  -0.20874  -0.07806   0.70967
  25   33979.3    294.3   0.056876917   0.55106   0.62286  -0.21043   0.34471
  26   34645.0    288.6   0.117625039   1.11772   0.60853  -0.62843  -0.59371
  27   34959.1    286.0   0.131588522   1.23918   0.00366  -0.10356   1.10835
  28   35210.2    284.0   0.339534043   3.17461  -1.43270  -0.42602   0.96979
  29   35630.2    280.7   0.023212318   0.21447  -0.10193  -0.12745  -0.43341
  30   35855.8    278.9   0.031307582   0.28745  -0.44542  -0.15482   0.25511
  31   36116.5    276.9   0.018911623   0.17238  -0.40979  -0.06118   0.02665
  32   36442.4    274.4   0.112872610   1.01966  -0.99201  -0.17447   0.07167
  33   36665.1    272.7   0.114826463   1.03101  -0.87549  -0.51432  -0.00351
  34   36821.1    271.6   0.112577851   1.00654  -0.49281  -0.86239   0.14127
  35   36969.1    270.5   0.190723104   1.69840   0.31519  -1.24752  -0.20673
  36   37212.0    268.7   0.070527149   0.62395  -0.59742  -0.15094   0.49422
  37   37307.9    268.0   0.192815046   1.70144  -1.09813  -0.68544  -0.16038
  38   37504.6    266.6   0.299794775   2.63157  -1.39524  -0.82758   0.00208
  39   38080.8    262.6   0.080130683   0.69274   0.59299   0.52610   0.25362
  40   38900.9    257.1   0.107984688   0.91386   0.71589   0.63313   0.02258
  41   39090.5    255.8   0.023346951   0.19662  -0.17161  -0.10449  -0.39529
  42   39313.3    254.4   0.043983690   0.36832   0.34755  -0.47626  -0.14389
  43   39522.3    253.0   0.047447883   0.39523  -0.27464   0.04339   0.56384
  44   39621.1    252.4   0.047735913   0.39664  -0.33384  -0.36599  -0.38890
  45   40019.6    249.9   0.083616387   0.68785  -0.34183  -0.26773  -0.70663

FINAL SINGLE POINT ENERGY     -5365.824234454321

DIPOLE MOMENT
-------------
                                X             Y             Z
Electronic contribution:    -62.68500     -28.22429       0.63669
Nuclear contribution   :     62.14397      27.89912      -0.83940
                        -----------------------------------------
Total Dipole Moment    :     -0.54103      -0.32517      -0.20271
                        -----------------------------------------
Magnitude (a.u.)       :      0.66298
Magnitude (Debye)      :      1.68515

Rotational constants in cm-1:     0.001711     0.000338     0.000321
Rotational constants in MHz :    51.308945    10.147329     9.614122

                             ****ORCA TERMINATED NORMALLY****
TOTAL RUN TIME: 0 days 0 hours 14 minutes 36 seconds 427 msec
