                         Program Version 4.2.0 -  RELEASE  -
|  1> # ORCA input file
|  2> # SCF done       -148.921749440974          0.000673718710
|  3> ! CAM-B3LYP def2-SVP def2/J RIJCOSX Grid4 TightSCF
|  4> %maxcore 5000
|  5> %tddft
|  6>     Mode sTDDFT
|  7>     Ethresh 5.0
|  8>     maxcore 5000
|  9> end
| 10>
| 11> %pal
| 12>   nprocs 6
| 13>   end
| 14> * xyz 0 1
| 15>    C        4.41174         3.67278         6.20403
| 16>    N        4.68723         4.95008         5.82736
| 17>    C        5.84237         5.71572         6.22390
| 18>    C        7.09668         5.26675         5.47890
| 19>    C        3.72121         5.43976         4.92141
| 20>    O        3.75806         6.56015         4.44735
| 21>    C        2.79762         4.34279         4.76815
| 22>    C        3.26501         3.26273         5.58508
| 23>    C        2.33375         2.16135         5.44370
| 24>    O        2.29591         1.05443         5.93069
| 25>    N        1.35914         2.65280         4.54986
| 26>    C        0.26076         1.82370         4.11662
| 27>    C        0.50471         1.23360         2.72980
| 28>    C        1.62728         3.93945         4.14190
| 29>    C        0.79643         4.66649         3.24516
| 30>    C        1.07308         5.93389         2.85912
| 31>    C        0.22854         6.64566         1.96359
| 32>    S        0.54027         8.31987         1.52257
| 33>    C       -0.91355         8.19015         0.53440
| 34>    N       -1.45817         7.00934         0.60838
| 35>    N       -0.83893         6.16864         1.38613
| 36>    C       -1.44900         9.25497        -0.24620
| 37>    C       -0.90877        10.48655        -0.29139
| 38>    C       -1.41302        11.61951        -1.02812
| 39>    C       -2.48563        11.54526        -1.91379
| 40>    C       -2.94175        12.66810        -2.58643
| 41>    N       -4.02128        12.45021        -3.51184
| 42>    O       -4.74780        11.49959        -3.30202
| 43>    O       -4.14611        13.20411        -4.45660
| 44>    C       -2.36611        13.94228        -2.38694
| 45>    C       -1.28199        13.99339        -1.49540
| 46>    C       -0.81183        12.87644        -0.85122
| 47>    C       -2.90486        15.13728        -2.98224
| 48>    C       -2.24638        16.30868        -3.10182
| 49>    C       -2.79841        17.49203        -3.67578
| 50>    S       -1.88217        18.97156        -3.63169
| 51>    C       -3.12056        19.82807        -4.44795
| 52>    C       -4.18311        19.03867        -4.75196
| 53>    C       -4.00940        17.70271        -4.31792
| 54>    O       -4.94610        16.71730        -4.43223
| 55>    C       -5.59029        16.50099        -5.60253
| 56>    C       -5.27766        16.99796        -6.80249
| 57>    C       -5.99432        16.73972        -8.03473
| 58>    C       -5.66287        17.47793        -9.16726
| 59>    C       -6.32077        17.28576       -10.37392
| 60>    N       -5.87396        18.07734       -11.48756
| 61>    O       -5.28881        19.11250       -11.23582
| 62>    O       -6.09087        17.67337       -12.61135
| 63>    C       -7.35168        16.34312       -10.50572
| 64>    C       -7.66805        15.60396        -9.36131
| 65>    C       -7.01209        15.78582        -8.16471
| 66>    C       -8.11442        16.15622       -11.73448
| 67>    C       -8.57438        14.98186       -12.14645
| 68>    H        5.04905         3.15011         6.89318
| 69>    H        5.98436         5.61693         7.30416
| 70>    H        5.61961         6.75899         5.98458
| 71>    H        7.31324         4.22105         5.68621
| 72>    H        7.94630         5.86784         5.79027
| 73>    H        6.95796         5.38754         4.40735
| 74>    H       -0.66591         2.40377         4.13455
| 75>    H        0.18697         1.01607         4.85065
| 76>    H        0.61630         2.01870         1.98534
| 77>    H       -0.33238         0.60108         2.44791
| 78>    H        1.40932         0.63041         2.73753
| 79>    H       -0.09387         4.19283         2.85874
| 80>    H        1.94936         6.44889         3.22743
| 81>    H       -2.34502         8.99549        -0.79031
| 82>    H       -0.01746        10.67775         0.29487
| 83>    H       -2.97671        10.60485        -2.11123
| 84>    H       -0.82130        14.94700        -1.29315
| 85>    H        0.02695        12.96555        -0.17636
| 86>    H       -3.90823        15.08083        -3.37367
| 87>    H       -1.21883        16.40465        -2.77748
| 88>    H       -2.99742        20.87304        -4.65037
| 89>    H       -5.07156        19.38970        -5.24532
| 90>    H       -6.40652        15.81305        -5.43727
| 91>    H       -4.43036        17.66402        -6.89511
| 92>    H       -4.87542        18.21673        -9.12945
| 93>    H       -8.46730        14.88160        -9.42381
| 94>    H       -7.28744        15.17716        -7.31862
| 95>    H       -8.29108        17.03821       -12.33443
| 96>    H       -8.36903        14.06659       -11.61626
| 97>    H       -9.14377        14.89169       -13.05454
| 98> *
| 99>
|100>                          ****END OF INPUT****

CARTESIAN COORDINATES (ANGSTROEM)
---------------------------------
  C      4.411740    3.672780    6.204030
  N      4.687230    4.950080    5.827360
  C      5.842370    5.715720    6.223900
  C      7.096680    5.266750    5.478900
  C      3.721210    5.439760    4.921410
  O      3.758060    6.560150    4.447350
  C      2.797620    4.342790    4.768150
  C      3.265010    3.262730    5.585080
  C      2.333750    2.161350    5.443700
  O      2.295910    1.054430    5.930690
  N      1.359140    2.652800    4.549860
  C      0.260760    1.823700    4.116620
  C      0.504710    1.233600    2.729800
  C      1.627280    3.939450    4.141900
  C      0.796430    4.666490    3.245160
  C      1.073080    5.933890    2.859120
  C      0.228540    6.645660    1.963590
  S      0.540270    8.319870    1.522570
  C     -0.913550    8.190150    0.534400
  N     -1.458170    7.009340    0.608380
  N     -0.838930    6.168640    1.386130
  C     -1.449000    9.254970   -0.246200
  C     -0.908770   10.486550   -0.291390
  C     -1.413020   11.619510   -1.028120
  C     -2.485630   11.545260   -1.913790
  C     -2.941750   12.668100   -2.586430
  N     -4.021280   12.450210   -3.511840
  O     -4.747800   11.499590   -3.302020
  O     -4.146110   13.204110   -4.456600
  C     -2.366110   13.942280   -2.386940
  C     -1.281990   13.993390   -1.495400
  C     -0.811830   12.876440   -0.851220
  C     -2.904860   15.137280   -2.982240
  C     -2.246380   16.308680   -3.101820
  C     -2.798410   17.492030   -3.675780
  S     -1.882170   18.971560   -3.631690
  C     -3.120560   19.828070   -4.447950
  C     -4.183110   19.038670   -4.751960
  C     -4.009400   17.702710   -4.317920
  O     -4.946100   16.717300   -4.432230
  C     -5.590290   16.500990   -5.602530
  C     -5.277660   16.997960   -6.802490
  C     -5.994320   16.739720   -8.034730
  C     -5.662870   17.477930   -9.167260
  C     -6.320770   17.285760  -10.373920
  N     -5.873960   18.077340  -11.487560
  O     -5.288810   19.112500  -11.235820
  O     -6.090870   17.673370  -12.611350
  C     -7.351680   16.343120  -10.505720
  C     -7.668050   15.603960   -9.361310
  C     -7.012090   15.785820   -8.164710
  C     -8.114420   16.156220  -11.734480
  C     -8.574380   14.981860  -12.146450
  H      5.049050    3.150110    6.893180
  H      5.984360    5.616930    7.304160
  H      5.619610    6.758990    5.984580
  H      7.313240    4.221050    5.686210
  H      7.946300    5.867840    5.790270
  H      6.957960    5.387540    4.407350
  H     -0.665910    2.403770    4.134550
  H      0.186970    1.016070    4.850650
  H      0.616300    2.018700    1.985340
  H     -0.332380    0.601080    2.447910
  H      1.409320    0.630410    2.737530
  H     -0.093870    4.192830    2.858740
  H      1.949360    6.448890    3.227430
  H     -2.345020    8.995490   -0.790310
  H     -0.017460   10.677750    0.294870
  H     -2.976710   10.604850   -2.111230
  H     -0.821300   14.947000   -1.293150
  H      0.026950   12.965550   -0.176360
  H     -3.908230   15.080830   -3.373670
  H     -1.218830   16.404650   -2.777480
  H     -2.997420   20.873040   -4.650370
  H     -5.071560   19.389700   -5.245320
  H     -6.406520   15.813050   -5.437270
  H     -4.430360   17.664020   -6.895110
  H     -4.875420   18.216730   -9.129450
  H     -8.467300   14.881600   -9.423810
  H     -7.287440   15.177160   -7.318620
  H     -8.291080   17.038210  -12.334430
  H     -8.369030   14.066590  -11.616260
  H     -9.143770   14.891690  -13.054540

 Total Charge           Charge          ....    0
 Multiplicity           Mult            ....    1
 Number of Electrons    NEL             ....  388
 Basis Dimension        Dim             ....  900

ORBITAL ENERGIES
----------------

  NO   OCC          E(Eh)            E(eV)
   0   2.0000     -88.972572     -2421.0668
   1   2.0000     -88.964366     -2420.8435
   2   2.0000     -19.278975      -524.6076
   3   2.0000     -19.245261      -523.6902
   4   2.0000     -19.243401      -523.6396
   5   2.0000     -19.236048      -523.4395
   6   2.0000     -19.233717      -523.3760
   7   2.0000     -19.191855      -522.2369
   8   2.0000     -19.184909      -522.0479
   9   2.0000     -14.649780      -398.6408
  10   2.0000     -14.640321      -398.3834
  11   2.0000     -14.454036      -393.3143
  12   2.0000     -14.449806      -393.1992
  13   2.0000     -14.437718      -392.8703
  14   2.0000     -14.437114      -392.8538
  15   2.0000     -10.373341      -282.2730
  16   2.0000     -10.371311      -282.2177
  17   2.0000     -10.344250      -281.4814
  18   2.0000     -10.342769      -281.4411
  19   2.0000     -10.342439      -281.4321
  20   2.0000     -10.341907      -281.4176
  21   2.0000     -10.341147      -281.3969
  22   2.0000     -10.333501      -281.1889
  23   2.0000     -10.329706      -281.0856
  24   2.0000     -10.322365      -280.8858
  25   2.0000     -10.313493      -280.6444
  26   2.0000     -10.310143      -280.5532
  27   2.0000     -10.306569      -280.4560
  28   2.0000     -10.306040      -280.4416
  29   2.0000     -10.304350      -280.3956
  30   2.0000     -10.302214      -280.3375
  31   2.0000     -10.300561      -280.2925
  32   2.0000     -10.300281      -280.2849
  33   2.0000     -10.298912      -280.2476
  34   2.0000     -10.298190      -280.2280
  35   2.0000     -10.297444      -280.2077
  36   2.0000     -10.296501      -280.1820
  37   2.0000     -10.294596      -280.1302
  38   2.0000     -10.294499      -280.1276
  39   2.0000     -10.294353      -280.1236
  40   2.0000     -10.293459      -280.0993
  41   2.0000     -10.287046      -279.9248
  42   2.0000     -10.286094      -279.8988
  43   2.0000     -10.284868      -279.8655
  44   2.0000     -10.283363      -279.8245
  45   2.0000     -10.278242      -279.6852
  46   2.0000     -10.273949      -279.5684
  47   2.0000     -10.273282      -279.5502
  48   2.0000     -10.266222      -279.3581
  49   2.0000     -10.262942      -279.2689
  50   2.0000     -10.259546      -279.1764
  51   2.0000     -10.259386      -279.1721
  52   2.0000     -10.259083      -279.1639
  53   2.0000      -8.068780      -219.5627
  54   2.0000      -8.060423      -219.3353
  55   2.0000      -6.037407      -164.2862
  56   2.0000      -6.034128      -164.1970
  57   2.0000      -6.031144      -164.1158
  58   2.0000      -6.029706      -164.0767
  59   2.0000      -6.025538      -163.9632
  60   2.0000      -6.022533      -163.8815
  61   2.0000      -1.324680       -36.0464
  62   2.0000      -1.315465       -35.7956
  63   2.0000      -1.185865       -32.2690
  64   2.0000      -1.142151       -31.0795
  65   2.0000      -1.141683       -31.0668
  66   2.0000      -1.133257       -30.8375
  67   2.0000      -1.131500       -30.7897
  68   2.0000      -1.124161       -30.5900
  69   2.0000      -1.062121       -28.9018
  70   2.0000      -1.053226       -28.6597
  71   2.0000      -0.993664       -27.0390
  72   2.0000      -0.989917       -26.9370
  73   2.0000      -0.981463       -26.7070
  74   2.0000      -0.950302       -25.8590
  75   2.0000      -0.935074       -25.4447
  76   2.0000      -0.925099       -25.1732
  77   2.0000      -0.915404       -24.9094
  78   2.0000      -0.913940       -24.8696
  79   2.0000      -0.905471       -24.6391
  80   2.0000      -0.888491       -24.1771
  81   2.0000      -0.887701       -24.1556
  82   2.0000      -0.878562       -23.9069
  83   2.0000      -0.868923       -23.6446
  84   2.0000      -0.864978       -23.5373
  85   2.0000      -0.846605       -23.0373
  86   2.0000      -0.839914       -22.8552
  87   2.0000      -0.819324       -22.2949
  88   2.0000      -0.816881       -22.2285
  89   2.0000      -0.810457       -22.0537
  90   2.0000      -0.804715       -21.8974
  91   2.0000      -0.788901       -21.4671
  92   2.0000      -0.783627       -21.3236
  93   2.0000      -0.776177       -21.1208
  94   2.0000      -0.759746       -20.6737
  95   2.0000      -0.758849       -20.6493
  96   2.0000      -0.736011       -20.0279
  97   2.0000      -0.721674       -19.6378
  98   2.0000      -0.711242       -19.3539
  99   2.0000      -0.708581       -19.2815
 100   2.0000      -0.708292       -19.2736
 101   2.0000      -0.692093       -18.8328
 102   2.0000      -0.686009       -18.6672
 103   2.0000      -0.676203       -18.4004
 104   2.0000      -0.673097       -18.3159
 105   2.0000      -0.668510       -18.1911
 106   2.0000      -0.657650       -17.8956
 107   2.0000      -0.655192       -17.8287
 108   2.0000      -0.650357       -17.6971
 109   2.0000      -0.640842       -17.4382
 110   2.0000      -0.628205       -17.0943
 111   2.0000      -0.626340       -17.0436
 112   2.0000      -0.621113       -16.9013
 113   2.0000      -0.617359       -16.7992
 114   2.0000      -0.610938       -16.6245
 115   2.0000      -0.608121       -16.5478
 116   2.0000      -0.603053       -16.4099
 117   2.0000      -0.595457       -16.2032
 118   2.0000      -0.593468       -16.1491
 119   2.0000      -0.592584       -16.1250
 120   2.0000      -0.586282       -15.9535
 121   2.0000      -0.582271       -15.8444
 122   2.0000      -0.578529       -15.7426
 123   2.0000      -0.577015       -15.7014
 124   2.0000      -0.573461       -15.6047
 125   2.0000      -0.571449       -15.5499
 126   2.0000      -0.559360       -15.2210
 127   2.0000      -0.556205       -15.1351
 128   2.0000      -0.547915       -14.9095
 129   2.0000      -0.547142       -14.8885
 130   2.0000      -0.545530       -14.8446
 131   2.0000      -0.540839       -14.7170
 132   2.0000      -0.535687       -14.5768
 133   2.0000      -0.533565       -14.5190
 134   2.0000      -0.529470       -14.4076
 135   2.0000      -0.526489       -14.3265
 136   2.0000      -0.523432       -14.2433
 137   2.0000      -0.522057       -14.2059
 138   2.0000      -0.519122       -14.1260
 139   2.0000      -0.515490       -14.0272
 140   2.0000      -0.513107       -13.9624
 141   2.0000      -0.506180       -13.7738
 142   2.0000      -0.504880       -13.7385
 143   2.0000      -0.502156       -13.6644
 144   2.0000      -0.495098       -13.4723
 145   2.0000      -0.492647       -13.4056
 146   2.0000      -0.490688       -13.3523
 147   2.0000      -0.486872       -13.2484
 148   2.0000      -0.480854       -13.0847
 149   2.0000      -0.475602       -12.9418
 150   2.0000      -0.473657       -12.8889
 151   2.0000      -0.472833       -12.8664
 152   2.0000      -0.471105       -12.8194
 153   2.0000      -0.465148       -12.6573
 154   2.0000      -0.461132       -12.5480
 155   2.0000      -0.459049       -12.4914
 156   2.0000      -0.457538       -12.4502
 157   2.0000      -0.455259       -12.3882
 158   2.0000      -0.452917       -12.3245
 159   2.0000      -0.447211       -12.1692
 160   2.0000      -0.446186       -12.1413
 161   2.0000      -0.444140       -12.0857
 162   2.0000      -0.435867       -11.8605
 163   2.0000      -0.433126       -11.7859
 164   2.0000      -0.432245       -11.7620
 165   2.0000      -0.429901       -11.6982
 166   2.0000      -0.428658       -11.6644
 167   2.0000      -0.428082       -11.6487
 168   2.0000      -0.422118       -11.4864
 169   2.0000      -0.405764       -11.0414
 170   2.0000      -0.403317       -10.9748
 171   2.0000      -0.398100       -10.8329
 172   2.0000      -0.389178       -10.5901
 173   2.0000      -0.387344       -10.5402
 174   2.0000      -0.381693       -10.3864
 175   2.0000      -0.381059       -10.3691
 176   2.0000      -0.378016       -10.2863
 177   2.0000      -0.373949       -10.1757
 178   2.0000      -0.372735       -10.1426
 179   2.0000      -0.364090        -9.9074
 180   2.0000      -0.361028        -9.8241
 181   2.0000      -0.347343        -9.4517
 182   2.0000      -0.346427        -9.4268
 183   2.0000      -0.342531        -9.3207
 184   2.0000      -0.336650        -9.1607
 185   2.0000      -0.334783        -9.1099
 186   2.0000      -0.329065        -8.9543
 187   2.0000      -0.324185        -8.8215
 188   2.0000      -0.319566        -8.6958
 189   2.0000      -0.312668        -8.5081
 190   2.0000      -0.300387        -8.1739
 191   2.0000      -0.277667        -7.5557
 192   2.0000      -0.262545        -7.1442
 193   2.0000      -0.247190        -6.7264
 194   0.0000      -0.085292        -2.3209
 195   0.0000      -0.060771        -1.6537
 196   0.0000      -0.044260        -1.2044
 197   0.0000      -0.043298        -1.1782
 198   0.0000      -0.015623        -0.4251

MULLIKEN ATOMIC CHARGES
-----------------------
   0 C :    0.035996
   1 N :   -0.258077
   2 C :    0.109431
   3 C :   -0.001909
   4 C :    0.176224
   5 O :   -0.215656
   6 C :   -0.101987
   7 C :    0.007331
   8 C :    0.164857
   9 O :   -0.183640
  10 N :   -0.270893
  11 C :    0.095081
  12 C :    0.001914
  13 C :    0.161577
  14 C :   -0.026439
  15 C :    0.080416
  16 C :   -0.105221
  17 S :    0.099824
  18 C :   -0.089312
  19 N :   -0.040755
  20 N :   -0.047698
  21 C :    0.068471
  22 C :   -0.008298
  23 C :    0.108735
  24 C :   -0.048883
  25 C :    0.125083
  26 N :    0.245276
  27 O :   -0.234504
  28 O :   -0.236229
  29 C :    0.081978
  30 C :   -0.037570
  31 C :    0.013114
  32 C :   -0.021336
  33 C :    0.049392
  34 C :   -0.155583
  35 S :    0.127852
  36 C :   -0.059124
  37 C :    0.000223
  38 C :    0.181815
  39 O :   -0.253574
  40 C :    0.179377
  41 C :   -0.048470
  42 C :    0.119621
  43 C :   -0.091912
  44 C :    0.145265
  45 N :    0.242157
  46 O :   -0.241145
  47 O :   -0.232263
  48 C :    0.041842
  49 C :   -0.035889
  50 C :    0.013905
  51 C :   -0.001472
  52 C :   -0.024705
  53 H :    0.016810
  54 H :    0.019603
  55 H :    0.042073
  56 H :    0.015345
  57 H :    0.023649
  58 H :    0.031394
  59 H :    0.027425
  60 H :    0.043810
  61 H :    0.020348
  62 H :    0.024966
  63 H :    0.027755
  64 H :    0.004823
  65 H :    0.012827
  66 H :    0.014695
  67 H :   -0.007807
  68 H :    0.001928
  69 H :   -0.015788
  70 H :   -0.013223
  71 H :    0.017165
  72 H :   -0.019901
  73 H :    0.037962
  74 H :    0.003768
  75 H :    0.020130
  76 H :    0.014557
  77 H :   -0.002700
  78 H :   -0.012560
  79 H :   -0.016229
  80 H :    0.013290
  81 H :    0.020501
  82 H :    0.029172
Sum of atomic charges:   -0.0000000

LOEWDIN ATOMIC CHARGES
----------------------
   0 C :    0.090467
   1 N :    0.000484
   2 C :    0.038195
   3 C :   -0.060626
   4 C :    0.077942
   5 O :   -0.206269
   6 C :   -0.128256
   7 C :   -0.127190
   8 C :    0.082246
   9 O :   -0.188301
  10 N :   -0.006919
  11 C :    0.035709
  12 C :   -0.060950
  13 C :    0.082525
  14 C :   -0.013351
  15 C :   -0.005297
  16 C :   -0.149351
  17 S :    0.393341
  18 C :   -0.144026
  19 N :   -0.072905
  20 N :   -0.075269
  21 C :   -0.035215
  22 C :   -0.006228
  23 C :   -0.032829
  24 C :    0.017767
  25 C :   -0.027902
  26 N :    0.286347
  27 O :   -0.203060
  28 O :   -0.197226
  29 C :    0.003034
  30 C :   -0.009335
  31 C :    0.008500
  32 C :   -0.026075
  33 C :   -0.024567
  34 C :   -0.199668
  35 S :    0.444026
  36 C :   -0.173521
  37 C :   -0.077849
  38 C :    0.018691
  39 O :   -0.034709
  40 C :    0.081389
  41 C :   -0.090065
  42 C :   -0.015043
  43 C :   -0.001732
  44 C :   -0.028456
  45 N :    0.285278
  46 O :   -0.208987
  47 O :   -0.191944
  48 C :   -0.008008
  49 C :   -0.005620
  50 C :    0.004044
  51 C :   -0.018109
  52 C :   -0.036148
  53 H :    0.033101
  54 H :    0.024952
  55 H :    0.035993
  56 H :    0.022633
  57 H :    0.030268
  58 H :    0.031826
  59 H :    0.024861
  60 H :    0.037600
  61 H :    0.023836
  62 H :    0.031540
  63 H :    0.031286
  64 H :    0.037887
  65 H :    0.037748
  66 H :    0.044746
  67 H :    0.024704
  68 H :    0.038502
  69 H :    0.032561
  70 H :    0.033329
  71 H :    0.026686
  72 H :    0.024511
  73 H :    0.028218
  74 H :    0.037276
  75 H :    0.027759
  76 H :    0.035779
  77 H :    0.037227
  78 H :    0.034208
  79 H :    0.031374
  80 H :    0.031313
  81 H :    0.021387
  82 H :    0.027913

  Mayer bond orders larger than 0.100000
B(  0-C ,  1-N ) :   1.1879 B(  0-C ,  7-C ) :   1.4578 B(  0-C , 53-H ) :   0.9906
B(  1-N ,  2-C ) :   0.9424 B(  1-N ,  4-C ) :   1.0583 B(  2-C ,  3-C ) :   1.1186
B(  2-C , 54-H ) :   0.9539 B(  2-C , 55-H ) :   0.9351 B(  3-C , 56-H ) :   0.9691
B(  3-C , 57-H ) :   0.9687 B(  3-C , 58-H ) :   0.9673 B(  4-C ,  5-O ) :   2.0180
B(  4-C ,  6-C ) :   1.0032 B(  5-O , 65-H ) :   0.1109 B(  6-C ,  7-C ) :   1.2057
B(  6-C , 13-C ) :   1.3828 B(  7-C ,  8-C ) :   0.9474 B(  8-C ,  9-O ) :   2.1783
B(  8-C , 10-N ) :   1.0178 B( 10-N , 11-C ) :   0.9432 B( 10-N , 13-C ) :   1.1605
B( 11-C , 12-C ) :   1.1215 B( 11-C , 59-H ) :   0.9506 B( 11-C , 60-H ) :   0.9284
B( 12-C , 61-H ) :   0.9687 B( 12-C , 62-H ) :   0.9679 B( 12-C , 63-H ) :   0.9640
B( 13-C , 14-C ) :   1.1200 B( 14-C , 15-C ) :   1.6715 B( 14-C , 64-H ) :   0.9726
B( 15-C , 16-C ) :   1.1008 B( 15-C , 65-H ) :   0.9253 B( 16-C , 17-S ) :   1.0961
B( 16-C , 20-N ) :   1.6774 B( 17-S , 18-C ) :   1.0907 B( 18-C , 19-N ) :   1.6692
B( 18-C , 21-C ) :   1.1129 B( 19-N , 20-N ) :   1.2268 B( 21-C , 22-C ) :   1.6718
B( 21-C , 66-H ) :   0.9739 B( 22-C , 23-C ) :   1.0808 B( 22-C , 67-H ) :   0.9806
B( 23-C , 24-C ) :   1.3114 B( 23-C , 31-C ) :   1.3023 B( 24-C , 25-C ) :   1.3836
B( 24-C , 68-H ) :   0.9861 B( 25-C , 26-N ) :   0.8826 B( 25-C , 29-C ) :   1.3291
B( 26-N , 27-O ) :   1.5493 B( 26-N , 28-O ) :   1.5175 B( 27-O , 28-O ) :   0.2630
B( 29-C , 30-C ) :   1.3274 B( 29-C , 32-C ) :   1.0836 B( 30-C , 31-C ) :   1.4134
B( 30-C , 69-H ) :   0.9875 B( 31-C , 70-H ) :   0.9982 B( 32-C , 33-C ) :   1.7327
B( 32-C , 71-H ) :   0.9487 B( 33-C , 34-C ) :   1.1224 B( 33-C , 72-H ) :   0.9506
B( 34-C , 35-S ) :   1.1261 B( 34-C , 38-C ) :   1.4972 B( 35-S , 36-C ) :   1.1745
B( 36-C , 37-C ) :   1.5469 B( 36-C , 73-H ) :   0.9692 B( 37-C , 38-C ) :   1.2450
B( 37-C , 74-H ) :   0.9972 B( 38-C , 39-O ) :   1.0564 B( 39-O , 40-C ) :   1.0615
B( 40-C , 41-C ) :   1.7228 B( 40-C , 75-H ) :   0.9848 B( 41-C , 42-C ) :   1.0703
B( 41-C , 76-H ) :   0.9646 B( 42-C , 43-C ) :   1.3119 B( 42-C , 50-C ) :   1.3256
B( 43-C , 44-C ) :   1.3558 B( 43-C , 77-H ) :   1.0004 B( 44-C , 45-N ) :   0.8819
B( 44-C , 48-C ) :   1.3675 B( 45-N , 46-O ) :   1.5492 B( 45-N , 47-O ) :   1.5301
B( 46-O , 47-O ) :   0.2648 B( 48-C , 49-C ) :   1.3507 B( 48-C , 51-C ) :   1.0425
B( 49-C , 50-C ) :   1.4111 B( 49-C , 78-H ) :   0.9887 B( 50-C , 79-H ) :   0.9906
B( 51-C , 52-C ) :   1.9743 B( 51-C , 80-H ) :   0.9454 B( 52-C , 81-H ) :   0.9615
B( 52-C , 82-H ) :   0.9518

-----------------------------------------------------------------------------
         ABSORPTION SPECTRUM VIA TRANSITION ELECTRIC DIPOLE MOMENTS
-----------------------------------------------------------------------------
State   Energy  Wavelength   fosc         T2         TX        TY        TZ
        (cm-1)    (nm)                  (au**2)     (au)      (au)      (au)
-----------------------------------------------------------------------------
   0   19537.2    511.8   0.689394041  11.61663   2.11224  -1.66176   2.09609
   1   24585.0    406.8   1.057773628  14.16437   0.50859  -3.37994   1.57534
   2   26529.0    376.9   0.295433325   3.66619  -0.77488   1.30665  -1.16551
   3   28131.6    355.5   0.000936693   0.01096  -0.09817  -0.01906   0.03100
   4   28286.0    353.5   0.009656174   0.11239   0.04618   0.31525  -0.10425
   5   29277.5    341.6   0.218040478   2.45176   0.28957   1.47764  -0.42954
   6   29709.2    336.6   0.159417948   1.76654   0.65276   1.10026   0.36037
   7   29952.5    333.9   0.004861011   0.05343   0.07298   0.18357   0.12002
   8   30345.1    329.5   0.077990718   0.84612  -0.68577  -0.49419  -0.36279
   9   31853.6    313.9   0.044801302   0.46303  -0.37288  -0.42215  -0.38181
  10   33108.1    302.0   0.286276492   2.84660  -0.32520   1.42865  -0.83655
  11   33621.3    297.4   0.194373135   1.90325  -0.59636   0.91999  -0.83739
  12   33957.0    294.5   0.000133065   0.00129   0.02106   0.02855  -0.00560
  13   34930.7    286.3   0.053915781   0.50814   0.28164  -0.44888   0.47679
  14   35242.6    283.7   0.046964021   0.43871   0.33454   0.41479   0.39337
  15   35369.8    282.7   0.025951946   0.24155  -0.45553  -0.08802  -0.16216
  16   36324.8    275.3   0.015850380   0.14365   0.03265   0.03979  -0.37550
  17   36673.6    272.7   0.031100245   0.27918   0.02415   0.43899  -0.29307
  18   37766.0    264.8   0.044016359   0.38370   0.25818   0.10742   0.55272
  19   38162.5    262.0   0.151492991   1.30687   0.41803   1.05481   0.13963
  20   38606.6    259.0   0.004014218   0.03423   0.11874  -0.02037  -0.14042
  21   39114.9    255.7   0.018420581   0.15504  -0.05311   0.37998   0.08849
  22   39380.2    253.9   0.100072071   0.83659   0.37126   0.02617   0.83551
  23   39948.3    250.3   0.242973588   2.00234   0.76950   0.10378   1.18298
  24   40216.3    248.7   0.093373066   0.76435   0.23192  -0.23157   0.81052

FINAL SINGLE POINT ENERGY     -3114.196094990825

DIPOLE MOMENT
-------------
                                X             Y             Z
Electronic contribution:    -14.34112      31.29552     -14.60168
Nuclear contribution   :     15.60585     -30.23905      16.55927
                        -----------------------------------------
Total Dipole Moment    :      1.26473       1.05647       1.95759
                        -----------------------------------------
Magnitude (a.u.)       :      2.55888
Magnitude (Debye)      :      6.50414

Rotational constants in cm-1:     0.003499     0.000303     0.000286
Rotational constants in MHz :   104.883372     9.098112     8.572970

                             ****ORCA TERMINATED NORMALLY****
TOTAL RUN TIME: 0 days 0 hours 5 minutes 28 seconds 488 msec
