                         Program Version 4.2.0 -  RELEASE  -
|  1> # ORCA input file
|  2> # SCF done       -213.550415441181          0.000191387434
|  3> ! CAM-B3LYP def2-SVP def2/J RIJCOSX Grid4 TightSCF
|  4> %maxcore 5000
|  5> %tddft
|  6>     Mode sTDDFT
|  7>     Ethresh 5.0
|  8>     maxcore 5000
|  9> end
| 10>
| 11> %pal
| 12>   nprocs 6
| 13>   end
| 14> * xyz 0 1
| 15>    C        1.91171         0.13543        -2.07941
| 16>    C        1.16015        -0.37965        -3.12932
| 17>    N        0.27632        -1.34205        -2.94712
| 18>    C        0.12616        -1.81255        -1.70388
| 19>    C        0.89047        -1.28636        -0.65288
| 20>    N        1.77060        -0.32395        -0.84333
| 21>    C       -0.83881        -2.86775        -1.51125
| 22>    C       -1.60968        -3.44268        -2.47710
| 23>    C       -2.46210        -4.46359        -1.99237
| 24>    C       -3.40644        -5.22721        -2.71165
| 25>    C       -3.57830        -5.11483        -4.14530
| 26>    C       -4.73815        -5.21852        -4.85969
| 27>    C       -4.53147        -5.14003        -6.25333
| 28>    C       -3.22623        -4.99264        -6.62403
| 29>    S       -2.21685        -4.93307        -5.21996
| 30>    C       -2.65105        -4.88967        -7.98878
| 31>   Cl       -5.83006        -5.23087        -7.37913
| 32>    C       -4.15725        -6.14130        -1.97927
| 33>    C       -3.98765        -6.33722        -0.58545
| 34>    C       -3.07128        -5.54750         0.14524
| 35>    C       -2.31835        -4.64114        -0.59184
| 36>    S       -1.12854        -3.55317         0.06762
| 37>    C       -2.96199        -5.68271         1.58050
| 38>    C       -3.97313        -5.89867         2.47539
| 39>    C       -3.51328        -5.98887         3.80522
| 40>    C       -2.16311        -5.84617         3.94789
| 41>    S       -1.42823        -5.58532         2.40222
| 42>    C       -1.34951        -5.88441         5.18885
| 43>   Cl       -4.58309        -6.26106         5.12779
| 44>    C       -4.76679        -7.41104        -0.11074
| 45>    C       -5.54541        -8.00040        -1.07555
| 46>    S       -5.34615        -7.24009        -2.63400
| 47>    C       -6.42162        -9.11158        -0.89293
| 48>    C       -7.22951        -9.59573        -1.94285
| 49>    C       -8.10948       -10.72428        -1.80425
| 50>    N       -8.82392       -11.12840        -2.87890
| 51>    C       -8.71916       -10.48557        -3.99441
| 52>    C       -7.86834        -9.35678        -4.12523
| 53>    N       -7.15709        -8.95147        -3.12613
| 54>    F       -7.77622        -8.69147        -5.27199
| 55>    F       -9.43688       -10.92496        -5.02620
| 56>    C       -8.21513       -11.43193        -0.58751
| 57>    C       -7.40064       -10.95572         0.46139
| 58>    C       -6.53129        -9.81075         0.32878
| 59>    N       -5.88498        -9.55682         1.46981
| 60>    S       -6.31616       -10.63474         2.57722
| 61>    N       -7.34114       -11.48220         1.68524
| 62>    C       -9.04862       -12.57698        -0.39446
| 63>    C      -10.05288       -13.04283        -1.20307
| 64>    C      -10.64538       -14.23760        -0.74501
| 65>    C      -11.68242       -14.97706        -1.35517
| 66>    C      -12.23710       -14.57145        -2.62882
| 67>    C      -11.57562       -14.09103        -3.72387
| 68>    C      -12.44351       -13.77879        -4.79202
| 69>    C      -13.76447       -14.00471        -4.52922
| 70>    S      -13.95357       -14.63643        -2.92913
| 71>    C      -14.93871       -13.78173        -5.40927
| 72>   Cl      -11.86732       -13.16037        -6.29160
| 73>    C      -12.12399       -16.10188        -0.66783
| 74>    C      -11.55180       -16.54231         0.55250
| 75>    C      -10.48645       -15.82572         1.13637
| 76>    C      -10.08002       -14.66944         0.48237
| 77>    S       -8.82425       -13.58736         1.01754
| 78>    C       -9.83936       -16.30010         2.34330
| 79>    C       -9.48767       -17.58215         2.65492
| 80>    C       -8.85991       -17.68206         3.91536
| 81>    C       -8.73184       -16.49597         4.57742
| 82>    S       -9.39016       -15.20864         3.62391
| 83>    C       -8.13696       -16.23570         5.91281
| 84>   Cl       -8.30465       -19.18537         4.54754
| 85>    C      -12.19238       -17.70658         1.04094
| 86>    C      -13.18463       -18.16544         0.22696
| 87>    S      -13.39443       -17.17175        -1.19354
| 88>    C      -14.00483       -19.33122         0.45310
| 89>    C      -15.02476       -19.72046        -0.42637
| 90>    N      -15.75649       -20.79594        -0.21405
| 91>    C      -15.49527       -21.50436         0.87617
| 92>    C      -14.49266       -21.12266         1.76015
| 93>    N      -13.75247       -20.05026         1.55264
| 94>    H        2.63694         0.92409        -2.21990
| 95>    H        1.26469        -0.01572        -4.14246
| 96>    H        0.78434        -1.65512         0.35894
| 97>    H       -1.55760        -3.11845        -3.49906
| 98>    H       -5.71262        -5.31553        -4.41957
| 99>    H       -2.00522        -5.74227        -8.19856
|100>    H       -2.05308        -3.98458        -8.08655
|101>    H       -3.45350        -4.86766        -8.72181
|102>    H       -5.01240        -5.94749         2.20962
|103>    H       -1.99555        -6.05673         6.04609
|104>    H       -0.81995        -4.94250         5.32780
|105>    H       -0.60773        -6.68063         5.13784
|106>    H       -4.73984        -7.77955         0.89668
|107>    H      -10.36417       -12.52068        -2.08583
|108>    H      -10.50773       -13.99901        -3.79178
|109>    H      -15.64541       -13.09775        -4.94071
|110>    H      -15.45813       -14.72020        -5.60059
|111>    H      -14.61018       -13.35973        -6.35557
|112>    H       -9.62766       -18.42182         1.99975
|113>    H       -8.88583       -15.83373         6.59458
|114>    H       -7.32868       -15.50958         5.83681
|115>    H       -7.74500       -17.16154         6.32639
|116>    H      -11.95592       -18.18828         1.97086
|117>    H      -15.24797       -19.14782        -1.31695
|118>    H      -16.10077       -22.38525         1.03444
|119>    H      -14.27117       -21.68726         2.65566
|120> *
|121>
|122>                          ****END OF INPUT****

CARTESIAN COORDINATES (ANGSTROEM)
---------------------------------
  C      1.911710    0.135430   -2.079410
  C      1.160150   -0.379650   -3.129320
  N      0.276320   -1.342050   -2.947120
  C      0.126160   -1.812550   -1.703880
  C      0.890470   -1.286360   -0.652880
  N      1.770600   -0.323950   -0.843330
  C     -0.838810   -2.867750   -1.511250
  C     -1.609680   -3.442680   -2.477100
  C     -2.462100   -4.463590   -1.992370
  C     -3.406440   -5.227210   -2.711650
  C     -3.578300   -5.114830   -4.145300
  C     -4.738150   -5.218520   -4.859690
  C     -4.531470   -5.140030   -6.253330
  C     -3.226230   -4.992640   -6.624030
  S     -2.216850   -4.933070   -5.219960
  C     -2.651050   -4.889670   -7.988780
  Cl    -5.830060   -5.230870   -7.379130
  C     -4.157250   -6.141300   -1.979270
  C     -3.987650   -6.337220   -0.585450
  C     -3.071280   -5.547500    0.145240
  C     -2.318350   -4.641140   -0.591840
  S     -1.128540   -3.553170    0.067620
  C     -2.961990   -5.682710    1.580500
  C     -3.973130   -5.898670    2.475390
  C     -3.513280   -5.988870    3.805220
  C     -2.163110   -5.846170    3.947890
  S     -1.428230   -5.585320    2.402220
  C     -1.349510   -5.884410    5.188850
  Cl    -4.583090   -6.261060    5.127790
  C     -4.766790   -7.411040   -0.110740
  C     -5.545410   -8.000400   -1.075550
  S     -5.346150   -7.240090   -2.634000
  C     -6.421620   -9.111580   -0.892930
  C     -7.229510   -9.595730   -1.942850
  C     -8.109480  -10.724280   -1.804250
  N     -8.823920  -11.128400   -2.878900
  C     -8.719160  -10.485570   -3.994410
  C     -7.868340   -9.356780   -4.125230
  N     -7.157090   -8.951470   -3.126130
  F     -7.776220   -8.691470   -5.271990
  F     -9.436880  -10.924960   -5.026200
  C     -8.215130  -11.431930   -0.587510
  C     -7.400640  -10.955720    0.461390
  C     -6.531290   -9.810750    0.328780
  N     -5.884980   -9.556820    1.469810
  S     -6.316160  -10.634740    2.577220
  N     -7.341140  -11.482200    1.685240
  C     -9.048620  -12.576980   -0.394460
  C    -10.052880  -13.042830   -1.203070
  C    -10.645380  -14.237600   -0.745010
  C    -11.682420  -14.977060   -1.355170
  C    -12.237100  -14.571450   -2.628820
  C    -11.575620  -14.091030   -3.723870
  C    -12.443510  -13.778790   -4.792020
  C    -13.764470  -14.004710   -4.529220
  S    -13.953570  -14.636430   -2.929130
  C    -14.938710  -13.781730   -5.409270
  Cl   -11.867320  -13.160370   -6.291600
  C    -12.123990  -16.101880   -0.667830
  C    -11.551800  -16.542310    0.552500
  C    -10.486450  -15.825720    1.136370
  C    -10.080020  -14.669440    0.482370
  S     -8.824250  -13.587360    1.017540
  C     -9.839360  -16.300100    2.343300
  C     -9.487670  -17.582150    2.654920
  C     -8.859910  -17.682060    3.915360
  C     -8.731840  -16.495970    4.577420
  S     -9.390160  -15.208640    3.623910
  C     -8.136960  -16.235700    5.912810
  Cl    -8.304650  -19.185370    4.547540
  C    -12.192380  -17.706580    1.040940
  C    -13.184630  -18.165440    0.226960
  S    -13.394430  -17.171750   -1.193540
  C    -14.004830  -19.331220    0.453100
  C    -15.024760  -19.720460   -0.426370
  N    -15.756490  -20.795940   -0.214050
  C    -15.495270  -21.504360    0.876170
  C    -14.492660  -21.122660    1.760150
  N    -13.752470  -20.050260    1.552640
  H      2.636940    0.924090   -2.219900
  H      1.264690   -0.015720   -4.142460
  H      0.784340   -1.655120    0.358940
  H     -1.557600   -3.118450   -3.499060
  H     -5.712620   -5.315530   -4.419570
  H     -2.005220   -5.742270   -8.198560
  H     -2.053080   -3.984580   -8.086550
  H     -3.453500   -4.867660   -8.721810
  H     -5.012400   -5.947490    2.209620
  H     -1.995550   -6.056730    6.046090
  H     -0.819950   -4.942500    5.327800
  H     -0.607730   -6.680630    5.137840
  H     -4.739840   -7.779550    0.896680
  H    -10.364170  -12.520680   -2.085830
  H    -10.507730  -13.999010   -3.791780
  H    -15.645410  -13.097750   -4.940710
  H    -15.458130  -14.720200   -5.600590
  H    -14.610180  -13.359730   -6.355570
  H     -9.627660  -18.421820    1.999750
  H     -8.885830  -15.833730    6.594580
  H     -7.328680  -15.509580    5.836810
  H     -7.745000  -17.161540    6.326390
  H    -11.955920  -18.188280    1.970860
  H    -15.247970  -19.147820   -1.316950
  H    -16.100770  -22.385250    1.034440
  H    -14.271170  -21.687260    2.655660

 Total Charge           Charge          ....    0
 Multiplicity           Mult            ....    1
 Number of Electrons    NEL             ....  648
 Basis Dimension        Dim             .... 1288

ORBITAL ENERGIES
----------------

  NO   OCC          E(Eh)            E(eV)
   0   2.0000    -101.583303     -2764.2222
   1   2.0000    -101.579147     -2764.1091
   2   2.0000    -101.578811     -2764.1000
   3   2.0000    -101.576937     -2764.0490
   4   2.0000     -89.042157     -2422.9603
   5   2.0000     -88.955522     -2420.6028
   6   2.0000     -88.952973     -2420.5334
   7   2.0000     -88.952032     -2420.5078
   8   2.0000     -88.950967     -2420.4789
   9   2.0000     -88.950082     -2420.4548
  10   2.0000     -88.949670     -2420.4436
  11   2.0000     -88.942935     -2420.2603
  12   2.0000     -88.942124     -2420.2382
  13   2.0000     -24.814814      -675.2454
  14   2.0000     -24.812960      -675.1950
  15   2.0000     -14.455266      -393.3478
  16   2.0000     -14.452750      -393.2793
  17   2.0000     -14.450608      -393.2210
  18   2.0000     -14.450000      -393.2045
  19   2.0000     -14.420531      -392.4026
  20   2.0000     -14.420126      -392.3916
  21   2.0000     -14.419969      -392.3873
  22   2.0000     -14.419479      -392.3740
  23   2.0000     -10.431258      -283.8489
  24   2.0000     -10.429955      -283.8135
  25   2.0000     -10.345203      -281.5073
  26   2.0000     -10.344257      -281.4815
  27   2.0000     -10.339152      -281.3426
  28   2.0000     -10.338029      -281.3121
  29   2.0000     -10.325065      -280.9593
  30   2.0000     -10.324635      -280.9476
  31   2.0000     -10.316656      -280.7305
  32   2.0000     -10.313933      -280.6564
  33   2.0000     -10.313777      -280.6521
  34   2.0000     -10.313556      -280.6461
  35   2.0000     -10.313280      -280.6386
  36   2.0000     -10.312731      -280.6237
  37   2.0000     -10.312235      -280.6102
  38   2.0000     -10.312109      -280.6067
  39   2.0000     -10.311670      -280.5948
  40   2.0000     -10.311317      -280.5852
  41   2.0000     -10.309183      -280.5271
  42   2.0000     -10.308760      -280.5156
  43   2.0000     -10.306208      -280.4462
  44   2.0000     -10.305125      -280.4167
  45   2.0000     -10.303936      -280.3843
  46   2.0000     -10.303246      -280.3656
  47   2.0000     -10.302744      -280.3519
  48   2.0000     -10.301912      -280.3293
  49   2.0000     -10.301907      -280.3292
  50   2.0000     -10.300743      -280.2975
  51   2.0000     -10.300378      -280.2875
  52   2.0000     -10.300296      -280.2853
  53   2.0000     -10.299352      -280.2596
  54   2.0000     -10.299116      -280.2532
  55   2.0000     -10.298370      -280.2329
  56   2.0000     -10.297042      -280.1968
  57   2.0000     -10.296424      -280.1799
  58   2.0000     -10.295552      -280.1562
  59   2.0000     -10.295402      -280.1521
  60   2.0000     -10.293268      -280.0941
  61   2.0000     -10.293258      -280.0938
  62   2.0000     -10.292833      -280.0822
  63   2.0000     -10.285531      -279.8835
  64   2.0000     -10.285253      -279.8760
  65   2.0000     -10.282301      -279.7956
  66   2.0000     -10.281766      -279.7811
  67   2.0000     -10.276367      -279.6342
  68   2.0000     -10.275305      -279.6053
  69   2.0000     -10.274196      -279.5751
  70   2.0000     -10.273445      -279.5547
  71   2.0000     -10.273054      -279.5440
  72   2.0000     -10.272392      -279.5260
  73   2.0000     -10.271859      -279.5115
  74   2.0000     -10.271812      -279.5102
  75   2.0000     -10.271211      -279.4938
  76   2.0000     -10.271069      -279.4900
  77   2.0000     -10.270107      -279.4638
  78   2.0000     -10.269894      -279.4580
  79   2.0000      -9.538067      -259.5440
  80   2.0000      -9.533897      -259.4305
  81   2.0000      -9.533550      -259.4211
  82   2.0000      -9.531732      -259.3716
  83   2.0000      -8.133271      -221.3175
  84   2.0000      -8.051228      -219.0851
  85   2.0000      -8.048740      -219.0173
  86   2.0000      -8.047769      -218.9909
  87   2.0000      -8.046519      -218.9569
  88   2.0000      -8.045477      -218.9286
  89   2.0000      -8.044967      -218.9147
  90   2.0000      -8.037367      -218.7079
  91   2.0000      -8.035855      -218.6667
  92   2.0000      -7.308270      -198.8681
  93   2.0000      -7.304095      -198.7545
  94   2.0000      -7.303765      -198.7456
  95   2.0000      -7.301919      -198.6953
  96   2.0000      -7.298158      -198.5930
  97   2.0000      -7.298098      -198.5914
  98   2.0000      -7.293994      -198.4797
  99   2.0000      -7.293932      -198.4780
 100   2.0000      -7.293642      -198.4701
 101   2.0000      -7.293566      -198.4680
 102   2.0000      -7.291832      -198.4208
 103   2.0000      -7.291757      -198.4188
 104   2.0000      -6.104343      -166.1076
 105   2.0000      -6.096554      -165.8957
 106   2.0000      -6.096107      -165.8835
 107   2.0000      -6.020540      -163.8272
 108   2.0000      -6.018008      -163.7583
 109   2.0000      -6.017065      -163.7327
 110   2.0000      -6.016329      -163.7126
 111   2.0000      -6.015835      -163.6992
 112   2.0000      -6.015080      -163.6787
 113   2.0000      -6.014611      -163.6659
 114   2.0000      -6.013847      -163.6451
 115   2.0000      -6.013314      -163.6306
 116   2.0000      -6.012865      -163.6184
 117   2.0000      -6.011668      -163.5858
 118   2.0000      -6.010965      -163.5667
 119   2.0000      -6.010840      -163.5633
 120   2.0000      -6.010449      -163.5526
 121   2.0000      -6.009854      -163.5364
 122   2.0000      -6.008594      -163.5021
 123   2.0000      -6.007172      -163.4635
 124   2.0000      -6.006871      -163.4553
 125   2.0000      -6.006343      -163.4409
 126   2.0000      -6.005712      -163.4237
 127   2.0000      -6.002694      -163.3416
 128   2.0000      -6.001121      -163.2988
 129   2.0000      -5.998633      -163.2311
 130   2.0000      -5.997200      -163.1921
 131   2.0000      -1.342091       -36.5201
 132   2.0000      -1.327912       -36.1343
 133   2.0000      -1.139414       -31.0050
 134   2.0000      -1.113617       -30.3030
 135   2.0000      -1.076453       -29.2918
 136   2.0000      -1.075881       -29.2762
 137   2.0000      -1.039356       -28.2823
 138   2.0000      -1.008949       -27.4549
 139   2.0000      -1.008695       -27.4480
 140   2.0000      -0.998398       -27.1678
 141   2.0000      -0.997839       -27.1526
 142   2.0000      -0.996921       -27.1276
 143   2.0000      -0.996822       -27.1249
 144   2.0000      -0.995838       -27.0981
 145   2.0000      -0.990301       -26.9475
 146   2.0000      -0.987856       -26.8809
 147   2.0000      -0.981582       -26.7102
 148   2.0000      -0.970706       -26.4142
 149   2.0000      -0.961358       -26.1599
 150   2.0000      -0.941706       -25.6251
 151   2.0000      -0.939773       -25.5725
 152   2.0000      -0.936089       -25.4723
 153   2.0000      -0.934781       -25.4367
 154   2.0000      -0.917029       -24.9536
 155   2.0000      -0.909336       -24.7443
 156   2.0000      -0.894967       -24.3533
 157   2.0000      -0.894496       -24.3405
 158   2.0000      -0.884753       -24.0754
 159   2.0000      -0.883426       -24.0393
 160   2.0000      -0.872629       -23.7454
 161   2.0000      -0.866266       -23.5723
 162   2.0000      -0.854965       -23.2648
 163   2.0000      -0.851617       -23.1737
 164   2.0000      -0.846110       -23.0238
 165   2.0000      -0.844606       -22.9829
 166   2.0000      -0.834244       -22.7009
 167   2.0000      -0.831774       -22.6337
 168   2.0000      -0.820270       -22.3207
 169   2.0000      -0.809749       -22.0344
 170   2.0000      -0.807171       -21.9642
 171   2.0000      -0.803823       -21.8731
 172   2.0000      -0.802279       -21.8311
 173   2.0000      -0.801343       -21.8057
 174   2.0000      -0.797129       -21.6910
 175   2.0000      -0.792872       -21.5751
 176   2.0000      -0.790973       -21.5235
 177   2.0000      -0.781408       -21.2632
 178   2.0000      -0.776954       -21.1420
 179   2.0000      -0.764856       -20.8128
 180   2.0000      -0.761491       -20.7212
 181   2.0000      -0.746583       -20.3156
 182   2.0000      -0.745980       -20.2992
 183   2.0000      -0.744524       -20.2595
 184   2.0000      -0.743344       -20.2274
 185   2.0000      -0.736961       -20.0537
 186   2.0000      -0.736424       -20.0391
 187   2.0000      -0.718204       -19.5433
 188   2.0000      -0.700351       -19.0575
 189   2.0000      -0.692056       -18.8318
 190   2.0000      -0.685360       -18.6496
 191   2.0000      -0.679824       -18.4990
 192   2.0000      -0.671941       -18.2844
 193   2.0000      -0.667792       -18.1715
 194   2.0000      -0.661072       -17.9887
 195   2.0000      -0.649461       -17.6727
 196   2.0000      -0.649047       -17.6615
 197   2.0000      -0.645812       -17.5734
 198   2.0000      -0.644909       -17.5489
 199   2.0000      -0.639217       -17.3940
 200   2.0000      -0.634869       -17.2757
 201   2.0000      -0.631972       -17.1968
 202   2.0000      -0.624591       -16.9960
 203   2.0000      -0.623548       -16.9676
 204   2.0000      -0.619430       -16.8556
 205   2.0000      -0.617480       -16.8025
 206   2.0000      -0.611255       -16.6331
 207   2.0000      -0.608312       -16.5530
 208   2.0000      -0.607300       -16.5255
 209   2.0000      -0.604459       -16.4482
 210   2.0000      -0.600464       -16.3395
 211   2.0000      -0.597328       -16.2541
 212   2.0000      -0.596713       -16.2374
 213   2.0000      -0.593309       -16.1448
 214   2.0000      -0.585977       -15.9453
 215   2.0000      -0.582431       -15.8488
 216   2.0000      -0.577977       -15.7275
 217   2.0000      -0.577210       -15.7067
 218   2.0000      -0.570325       -15.5193
 219   2.0000      -0.569661       -15.5013
 220   2.0000      -0.568920       -15.4811
 221   2.0000      -0.565242       -15.3810
 222   2.0000      -0.553981       -15.0746
 223   2.0000      -0.551551       -15.0085
 224   2.0000      -0.548686       -14.9305
 225   2.0000      -0.537551       -14.6275
 226   2.0000      -0.536543       -14.6001
 227   2.0000      -0.530623       -14.4390
 228   2.0000      -0.529019       -14.3953
 229   2.0000      -0.523078       -14.2337
 230   2.0000      -0.522677       -14.2228
 231   2.0000      -0.521212       -14.1829
 232   2.0000      -0.519956       -14.1487
 233   2.0000      -0.518359       -14.1053
 234   2.0000      -0.517345       -14.0777
 235   2.0000      -0.516614       -14.0578
 236   2.0000      -0.515957       -14.0399
 237   2.0000      -0.515007       -14.0140
 238   2.0000      -0.514077       -13.9888
 239   2.0000      -0.513843       -13.9824
 240   2.0000      -0.511420       -13.9165
 241   2.0000      -0.510477       -13.8908
 242   2.0000      -0.506219       -13.7749
 243   2.0000      -0.505314       -13.7503
 244   2.0000      -0.504027       -13.7153
 245   2.0000      -0.501056       -13.6344
 246   2.0000      -0.497863       -13.5475
 247   2.0000      -0.496165       -13.5013
 248   2.0000      -0.490879       -13.3575
 249   2.0000      -0.488856       -13.3024
 250   2.0000      -0.482787       -13.1373
 251   2.0000      -0.479828       -13.0568
 252   2.0000      -0.479465       -13.0469
 253   2.0000      -0.477490       -12.9932
 254   2.0000      -0.476696       -12.9716
 255   2.0000      -0.474127       -12.9017
 256   2.0000      -0.471711       -12.8359
 257   2.0000      -0.469231       -12.7684
 258   2.0000      -0.468095       -12.7375
 259   2.0000      -0.467338       -12.7169
 260   2.0000      -0.464924       -12.6512
 261   2.0000      -0.463319       -12.6075
 262   2.0000      -0.462001       -12.5717
 263   2.0000      -0.460019       -12.5177
 264   2.0000      -0.458748       -12.4832
 265   2.0000      -0.458415       -12.4741
 266   2.0000      -0.457615       -12.4523
 267   2.0000      -0.454220       -12.3600
 268   2.0000      -0.451604       -12.2888
 269   2.0000      -0.446483       -12.1494
 270   2.0000      -0.446232       -12.1426
 271   2.0000      -0.443248       -12.0614
 272   2.0000      -0.442702       -12.0465
 273   2.0000      -0.439739       -11.9659
 274   2.0000      -0.435770       -11.8579
 275   2.0000      -0.431854       -11.7513
 276   2.0000      -0.430206       -11.7065
 277   2.0000      -0.423651       -11.5281
 278   2.0000      -0.421198       -11.4614
 279   2.0000      -0.418464       -11.3870
 280   2.0000      -0.415606       -11.3092
 281   2.0000      -0.414011       -11.2658
 282   2.0000      -0.413147       -11.2423
 283   2.0000      -0.411008       -11.1841
 284   2.0000      -0.408859       -11.1256
 285   2.0000      -0.408019       -11.1028
 286   2.0000      -0.405463       -11.0332
 287   2.0000      -0.403046       -10.9674
 288   2.0000      -0.401315       -10.9203
 289   2.0000      -0.400064       -10.8863
 290   2.0000      -0.392206       -10.6725
 291   2.0000      -0.387227       -10.5370
 292   2.0000      -0.384375       -10.4594
 293   2.0000      -0.381655       -10.3854
 294   2.0000      -0.381346       -10.3770
 295   2.0000      -0.380953       -10.3663
 296   2.0000      -0.378538       -10.3005
 297   2.0000      -0.376071       -10.2334
 298   2.0000      -0.374119       -10.1803
 299   2.0000      -0.373530       -10.1643
 300   2.0000      -0.370081       -10.0704
 301   2.0000      -0.369544       -10.0558
 302   2.0000      -0.362553        -9.8656
 303   2.0000      -0.353741        -9.6258
 304   2.0000      -0.349787        -9.5182
 305   2.0000      -0.342999        -9.3335
 306   2.0000      -0.341079        -9.2812
 307   2.0000      -0.329361        -8.9624
 308   2.0000      -0.319561        -8.6957
 309   2.0000      -0.319212        -8.6862
 310   2.0000      -0.319071        -8.6824
 311   2.0000      -0.314015        -8.5448
 312   2.0000      -0.311505        -8.4765
 313   2.0000      -0.308765        -8.4019
 314   2.0000      -0.307847        -8.3769
 315   2.0000      -0.301167        -8.1952
 316   2.0000      -0.296066        -8.0564
 317   2.0000      -0.294891        -8.0244
 318   2.0000      -0.289050        -7.8654
 319   2.0000      -0.285522        -7.7694
 320   2.0000      -0.281979        -7.6730
 321   2.0000      -0.260852        -7.0981
 322   2.0000      -0.242670        -6.6034
 323   2.0000      -0.230349        -6.2681
 324   0.0000      -0.111850        -3.0436
 325   0.0000      -0.047604        -1.2954
 326   0.0000      -0.045537        -1.2391
 327   0.0000      -0.023883        -0.6499
 328   0.0000      -0.014421        -0.3924

MULLIKEN ATOMIC CHARGES
-----------------------
   0 C :    0.018035
   1 C :    0.038701
   2 N :   -0.044856
   3 C :   -0.014760
   4 C :   -0.019547
   5 N :   -0.043939
   6 C :   -0.006652
   7 C :   -0.068635
   8 C :    0.089241
   9 C :    0.134494
  10 C :   -0.203057
  11 C :    0.034123
  12 C :    0.084523
  13 C :   -0.267361
  14 S :    0.137204
  15 C :    0.125208
  16 Cl:   -0.090690
  17 C :   -0.113768
  18 C :    0.106029
  19 C :    0.152982
  20 C :   -0.147612
  21 S :    0.101886
  22 C :   -0.203810
  23 C :    0.037879
  24 C :    0.078201
  25 C :   -0.262741
  26 S :    0.139731
  27 C :    0.122419
  28 Cl:   -0.094880
  29 C :   -0.095123
  30 C :   -0.134252
  31 S :    0.126635
  32 C :    0.172805
  33 C :   -0.057552
  34 C :   -0.065481
  35 N :    0.000123
  36 C :    0.140480
  37 C :    0.153548
  38 N :   -0.035462
  39 F :   -0.133846
  40 F :   -0.138201
  41 C :    0.179734
  42 C :   -0.024354
  43 C :    0.007533
  44 N :   -0.293151
  45 S :    0.555660
  46 N :   -0.308982
  47 C :   -0.141257
  48 C :   -0.070090
  49 C :    0.096996
  50 C :    0.142654
  51 C :   -0.208978
  52 C :    0.035000
  53 C :    0.080404
  54 C :   -0.264893
  55 S :    0.139779
  56 C :    0.124504
  57 Cl:   -0.087501
  58 C :   -0.138732
  59 C :    0.095827
  60 C :    0.123079
  61 C :   -0.114304
  62 S :    0.139419
  63 C :   -0.205073
  64 C :    0.034885
  65 C :    0.080626
  66 C :   -0.265018
  67 S :    0.144385
  68 C :    0.122626
  69 Cl:   -0.091959
  70 C :   -0.070547
  71 C :   -0.004989
  72 S :    0.106206
  73 C :   -0.016789
  74 C :   -0.018122
  75 N :   -0.044878
  76 C :    0.019413
  77 C :    0.038547
  78 N :   -0.045293
  79 H :    0.013282
  80 H :    0.009772
  81 H :    0.011633
  82 H :   -0.001784
  83 H :   -0.006690
  84 H :    0.035648
  85 H :    0.030607
  86 H :    0.023302
  87 H :   -0.010986
  88 H :    0.022699
  89 H :    0.034580
  90 H :    0.035066
  91 H :    0.002036
  92 H :    0.001877
  93 H :   -0.007887
  94 H :    0.033567
  95 H :    0.034213
  96 H :    0.023419
  97 H :   -0.009305
  98 H :    0.034516
  99 H :    0.030943
 100 H :    0.023299
 101 H :   -0.003218
 102 H :    0.011700
 103 H :    0.012490
 104 H :    0.010832
Sum of atomic charges:   -0.0000000

LOEWDIN ATOMIC CHARGES
----------------------
   0 C :   -0.005824
   1 C :    0.004820
   2 N :   -0.046140
   3 C :   -0.020727
   4 C :   -0.003016
   5 N :   -0.039366
   6 C :   -0.168448
   7 C :   -0.035890
   8 C :   -0.040325
   9 C :   -0.052491
  10 C :   -0.171594
  11 C :   -0.074354
  12 C :   -0.178189
  13 C :   -0.199731
  14 S :    0.448833
  15 C :   -0.061406
  16 Cl:    0.127303
  17 C :   -0.148694
  18 C :   -0.039381
  19 C :   -0.051198
  20 C :   -0.150001
  21 S :    0.398599
  22 C :   -0.172043
  23 C :   -0.064486
  24 C :   -0.178890
  25 C :   -0.198992
  26 S :    0.435374
  27 C :   -0.061542
  28 Cl:    0.123461
  29 C :   -0.034476
  30 C :   -0.158382
  31 S :    0.447197
  32 C :   -0.037562
  33 C :   -0.011999
  34 C :   -0.006730
  35 N :   -0.031222
  36 C :    0.059637
  37 C :    0.062042
  38 N :   -0.048871
  39 F :   -0.023383
  40 F :   -0.027351
  41 C :   -0.039444
  42 C :   -0.046307
  43 C :   -0.037093
  44 N :   -0.279677
  45 S :    0.678589
  46 N :   -0.291705
  47 C :   -0.155530
  48 C :   -0.032657
  49 C :   -0.039303
  50 C :   -0.051078
  51 C :   -0.173776
  52 C :   -0.064335
  53 C :   -0.178339
  54 C :   -0.199094
  55 S :    0.434013
  56 C :   -0.061382
  57 Cl:    0.129359
  58 C :   -0.150230
  59 C :   -0.034568
  60 C :   -0.055536
  61 C :   -0.153457
  62 S :    0.429915
  63 C :   -0.172209
  64 C :   -0.066778
  65 C :   -0.178156
  66 C :   -0.200518
  67 S :    0.437057
  68 C :   -0.061813
  69 Cl:    0.125377
  70 C :   -0.028072
  71 C :   -0.168523
  72 S :    0.399436
  73 C :   -0.021120
  74 C :   -0.002618
  75 N :   -0.039469
  76 C :   -0.005534
  77 C :    0.005327
  78 N :   -0.046788
  79 H :    0.025691
  80 H :    0.026338
  81 H :    0.019854
  82 H :    0.022604
  83 H :    0.026188
  84 H :    0.039190
  85 H :    0.037624
  86 H :    0.033306
  87 H :    0.034523
  88 H :    0.033239
  89 H :    0.039238
  90 H :    0.038829
  91 H :    0.028357
  92 H :    0.028762
  93 H :    0.035082
  94 H :    0.038531
  95 H :    0.038943
  96 H :    0.033460
  97 H :    0.034701
  98 H :    0.038719
  99 H :    0.037201
 100 H :    0.033308
 101 H :    0.035428
 102 H :    0.019965
 103 H :    0.025642
 104 H :    0.026757

  Mayer bond orders larger than 0.100000
B(  0-C ,  1-C ) :   1.3486 B(  0-C ,  5-N ) :   1.5369 B(  0-C , 79-H ) :   0.9789
B(  1-C ,  2-N ) :   1.5534 B(  1-C , 80-H ) :   0.9765 B(  2-N ,  3-C ) :   1.5718
B(  3-C ,  4-C ) :   1.3227 B(  3-C ,  6-C ) :   1.0487 B(  4-C ,  5-N ) :   1.5926
B(  4-C , 81-H ) :   0.9746 B(  6-C ,  7-C ) :   1.6027 B(  6-C , 21-S ) :   1.0711
B(  7-C ,  8-C ) :   1.1454 B(  7-C , 82-H ) :   0.9863 B(  8-C ,  9-C ) :   1.2876
B(  8-C , 20-C ) :   1.2671 B(  9-C , 10-C ) :   0.9943 B(  9-C , 17-C ) :   1.4237
B( 10-C , 11-C ) :   1.5473 B( 10-C , 14-S ) :   1.1311 B( 11-C , 12-C ) :   1.2230
B( 11-C , 83-H ) :   0.9944 B( 12-C , 13-C ) :   1.6028 B( 12-C , 16-Cl) :   1.0039
B( 13-C , 14-S ) :   1.1313 B( 13-C , 15-C ) :   1.0819 B( 15-C , 84-H ) :   0.9489
B( 15-C , 85-H ) :   0.9479 B( 15-C , 86-H ) :   0.9442 B( 17-C , 18-C ) :   1.2579
B( 17-C , 31-S ) :   1.0173 B( 18-C , 19-C ) :   1.3046 B( 18-C , 29-C ) :   1.1596
B( 19-C , 20-C ) :   1.4001 B( 19-C , 22-C ) :   0.9951 B( 20-C , 21-S ) :   1.0601
B( 22-C , 23-C ) :   1.5402 B( 22-C , 26-S ) :   1.1316 B( 23-C , 24-C ) :   1.2207
B( 23-C , 87-H ) :   1.0075 B( 24-C , 25-C ) :   1.5986 B( 24-C , 28-Cl) :   1.0009
B( 25-C , 26-S ) :   1.1283 B( 25-C , 27-C ) :   1.0826 B( 27-C , 88-H ) :   0.9444
B( 27-C , 89-H ) :   0.9481 B( 27-C , 90-H ) :   0.9491 B( 29-C , 30-C ) :   1.5300
B( 29-C , 91-H ) :   0.9782 B( 30-C , 31-S ) :   1.0591 B( 30-C , 32-C ) :   1.1597
B( 32-C , 33-C ) :   1.3030 B( 32-C , 41-C ) :   0.1336 B( 32-C , 43-C ) :   1.2014
B( 33-C , 34-C ) :   1.1115 B( 33-C , 38-N ) :   1.3845 B( 34-C , 35-N ) :   1.4224
B( 34-C , 41-C ) :   1.3169 B( 35-N , 36-C ) :   1.6720 B( 36-C , 37-C ) :   1.1011
B( 36-C , 40-F ) :   1.1741 B( 37-C , 38-N ) :   1.6611 B( 37-C , 39-F ) :   1.1880
B( 41-C , 42-C ) :   1.1938 B( 41-C , 47-C ) :   1.1417 B( 42-C , 43-C ) :   1.1095
B( 42-C , 46-N ) :   1.4817 B( 43-C , 44-N ) :   1.5027 B( 44-N , 45-S ) :   1.2786
B( 44-N , 46-N ) :   0.1541 B( 45-S , 46-N ) :   1.2840 B( 47-C , 48-C ) :   1.5229
B( 47-C , 62-S ) :   1.0718 B( 48-C , 49-C ) :   1.1685 B( 48-C , 92-H ) :   0.9887
B( 49-C , 50-C ) :   1.3096 B( 49-C , 61-C ) :   1.2595 B( 50-C , 51-C ) :   0.9897
B( 50-C , 58-C ) :   1.4018 B( 51-C , 52-C ) :   1.5456 B( 51-C , 55-S ) :   1.1312
B( 52-C , 53-C ) :   1.2176 B( 52-C , 93-H ) :   1.0080 B( 53-C , 54-C ) :   1.5963
B( 53-C , 57-Cl) :   1.0076 B( 54-C , 55-S ) :   1.1288 B( 54-C , 56-C ) :   1.0849
B( 56-C , 94-H ) :   0.9485 B( 56-C , 95-H ) :   0.9476 B( 56-C , 96-H ) :   0.9438
B( 58-C , 59-C ) :   1.2707 B( 58-C , 72-S ) :   1.0587 B( 59-C , 60-C ) :   1.3181
B( 59-C , 70-C ) :   1.1429 B( 60-C , 61-C ) :   1.3996 B( 60-C , 63-C ) :   0.9831
B( 61-C , 62-S ) :   1.0376 B( 63-C , 64-C ) :   1.5508 B( 63-C , 67-S ) :   1.1369
B( 64-C , 65-C ) :   1.2165 B( 64-C , 97-H ) :   1.0087 B( 65-C , 66-C ) :   1.6019
B( 65-C , 69-Cl) :   1.0034 B( 66-C , 67-S ) :   1.1277 B( 66-C , 68-C ) :   1.0836
B( 68-C , 98-H ) :   0.9491 B( 68-C , 99-H ) :   0.9480 B( 68-C ,100-H ) :   0.9443
B( 70-C , 71-C ) :   1.5841 B( 70-C ,101-H ) :   1.0042 B( 71-C , 72-S ) :   1.0702
B( 71-C , 73-C ) :   1.0458 B( 73-C , 74-C ) :   1.3256 B( 73-C , 78-N ) :   1.5743
B( 74-C , 75-N ) :   1.5906 B( 74-C ,102-H ) :   0.9739 B( 75-N , 76-C ) :   1.5382
B( 76-C , 77-C ) :   1.3494 B( 76-C ,103-H ) :   0.9787 B( 77-C , 78-N ) :   1.5512
B( 77-C ,104-H ) :   0.9763

-----------------------------------------------------------------------------
         ABSORPTION SPECTRUM VIA TRANSITION ELECTRIC DIPOLE MOMENTS
-----------------------------------------------------------------------------
State   Energy  Wavelength   fosc         T2         TX        TY        TZ
        (cm-1)    (nm)                  (au**2)     (au)      (au)      (au)
-----------------------------------------------------------------------------
   0   10889.5    918.3   0.665744605  20.12676   2.96881   3.35697   0.20900
   1   13973.6    715.6   0.001396395   0.03290   0.09572   0.00752  -0.15388
   2   16763.1    596.5   0.203750130   4.00147   0.95989   1.56202  -0.80011
   3   22986.7    435.0   0.004087800   0.05854   0.12720  -0.16847   0.11825
   4   24344.7    410.8   0.084692439   1.14529   0.72705   0.32430   0.71521
   5   24551.7    407.3   0.416463208   5.58432   1.59355   1.56567   0.77045
   6   24929.9    401.1   0.043668117   0.57666   0.32223   0.13079   0.67507
   7   25006.4    399.9   0.035704112   0.47005  -0.55814  -0.39767  -0.01982
   8   25298.9    395.3   0.668011676   8.69276   1.98312   1.71396   1.34994
   9   25981.3    384.9   0.089557999   1.13480  -0.95560  -0.47048  -0.01682
  10   27167.7    368.1   0.044926267   0.54441   0.07819  -0.35395   0.64266
  11   27895.1    358.5   0.048770046   0.57557   0.37713   0.59160  -0.28872
  12   28328.5    353.0   0.061662046   0.71659  -0.41247  -0.62668   0.39208
  13   28585.8    349.8   0.290425546   3.34473  -0.75426  -1.31934   1.01743
  14   28849.3    346.6   0.072869304   0.83154  -0.20385  -0.63533   0.62157
  15   29178.2    342.7   0.009687349   0.10930   0.01484   0.31701  -0.09265
  16   29422.5    339.9   0.006029321   0.06746   0.01770   0.22301  -0.13196
  17   29717.5    336.5   0.003079429   0.03411   0.05036   0.14685  -0.10006
  18   30160.1    331.6   0.026362464   0.28776   0.06895  -0.00190   0.53198
  19   30819.8    324.5   0.078812537   0.84186   0.29865   0.09862   0.86194
  20   31063.6    321.9   0.350522315   3.71483   0.82546   1.05379  -1.38671
  21   31300.0    319.5   0.538127262   5.66000   0.67363   1.66771  -1.55723
  22   31688.0    315.6   0.162983064   1.69326  -0.13119   0.68025  -1.10150
  23   31834.5    314.1   0.198778480   2.05564  -0.05048   1.02236  -1.00393
  24   32254.3    310.0   0.065763038   0.67123  -0.54052  -0.24757  -0.56371
  25   32551.8    307.2   0.061442364   0.62140   0.25790   0.47633  -0.57271
  26   33399.9    299.4   0.197839679   1.95004   0.51850   1.11996  -0.65336
  27   33627.6    297.4   0.035870658   0.35117  -0.09196   0.08878   0.57865
  28   33968.3    294.4   0.000514881   0.00499  -0.04921   0.05050   0.00423
  29   34005.5    294.1   0.002864917   0.02774  -0.11499   0.09916   0.06841
  30   34715.5    288.1   0.113236625   1.07384   0.66115   0.74842  -0.27676
  31   34888.4    286.6   0.035488382   0.33487   0.46177   0.14968   0.31502
  32   35122.3    284.7   0.150574504   1.41138  -0.47805  -1.00491   0.41595
  33   35465.8    282.0   0.478160826   4.43854   1.42477   1.55048   0.06755
  34   35812.6    279.2   0.204880307   1.88339   0.47657  -0.06069   1.28553
  35   36406.7    274.7   0.131307755   1.18737  -0.60949  -0.60689  -0.66900
  36   36491.1    274.0   0.162955296   1.47013   0.41498  -0.21965   1.11789
  37   36920.7    270.9   0.053276874   0.47506  -0.21508  -0.35647   0.54929
  38   36992.6    270.3   0.060483632   0.53827   0.32515  -0.16811   0.63583
  39   37126.8    269.3   0.036681517   0.32526  -0.14326   0.16930  -0.52543
  40   37901.8    263.8   0.029834788   0.25914  -0.32184  -0.34762  -0.18633
  41   37950.9    263.5   0.009925783   0.08610  -0.02868   0.12948  -0.26176
  42   38041.0    262.9   0.023530902   0.20364   0.38339   0.13848   0.19359
  43   38085.7    262.6   0.136252541   1.17777  -0.37724  -0.02331  -1.01730
  44   38141.3    262.2   0.008308267   0.07171   0.14022   0.00080   0.22814
  45   38211.5    261.7   0.008572313   0.07385   0.02325   0.09713   0.25275
  46   38771.8    257.9   0.006171413   0.05240   0.02114   0.17088   0.15084
  47   38841.8    257.5   0.153840681   1.30391   0.73825   0.76557  -0.41569
  48   38907.5    257.0   0.025889198   0.21906   0.22891   0.04869   0.40533
  49   39153.0    255.4   0.035205210   0.29602   0.04541  -0.00737   0.54213
  50   39640.2    252.3   0.006721580   0.05582   0.07520   0.22108   0.03592
  51   39961.6    250.2   0.036426761   0.30009   0.50263  -0.09602   0.19555
  52   40207.1    248.7   0.014784382   0.12105   0.03244   0.20054   0.28246

FINAL SINGLE POINT ENERGY     -8206.766491545774

DIPOLE MOMENT
-------------
                                X             Y             Z
Electronic contribution:    -10.05278      -1.52799     -12.30153
Nuclear contribution   :     10.52912       1.69908      12.95645
                        -----------------------------------------
Total Dipole Moment    :      0.47633       0.17109       0.65492
                        -----------------------------------------
Magnitude (a.u.)       :      0.82770
Magnitude (Debye)      :      2.10384

Rotational constants in cm-1:     0.000994     0.000257     0.000210
Rotational constants in MHz :    29.786824     7.712540     6.296006

                             ****ORCA TERMINATED NORMALLY****
TOTAL RUN TIME: 0 days 0 hours 11 minutes 30 seconds 733 msec
