                         Program Version 4.2.0 -  RELEASE  -
|  1> # ORCA input file
|  2> # SCF done       -214.559849722504          0.000396205656
|  3> ! CAM-B3LYP def2-SVP def2/J RIJCOSX Grid4 TightSCF
|  4> %maxcore 5000
|  5> %tddft
|  6>     Mode sTDDFT
|  7>     Ethresh 5.0
|  8>     maxcore 5000
|  9> end
| 10>
| 11> %pal
| 12>   nprocs 6
| 13>   end
| 14> * xyz 0 1
| 15>    C       -5.79608         0.86150        -0.25488
| 16>    C       -6.14596         2.03086        -0.87135
| 17>    C       -7.42434         2.27932        -1.41708
| 18>    N       -8.44523         2.53349        -1.87404
| 19>    C       -5.25449         3.09894        -1.09352
| 20>    N       -4.54988         3.98191        -1.29623
| 21>    C       -6.62506        -0.33426        -0.17852
| 22>    C       -5.79225        -1.45553         0.11092
| 23>    C       -6.29887        -2.72068         0.20748
| 24>    C       -7.68445        -2.92355         0.02400
| 25>    C       -8.52491        -1.80450        -0.24885
| 26>    C       -7.97336        -0.50708        -0.34665
| 27>    C       -9.90725        -2.02009        -0.42327
| 28>    C      -10.43558        -3.27920        -0.33567
| 29>    C       -9.60767        -4.37998        -0.06775
| 30>    C       -8.26166        -4.20625         0.10790
| 31>    C       -4.40581        -1.00242         0.28411
| 32>    O       -3.41342        -1.66019         0.47916
| 33>    C       -4.47400         0.49938         0.23142
| 34>    C       -3.41798         1.20095         0.69134
| 35>    C       -3.30809         2.59644         1.04565
| 36>    C       -4.34262         3.33880         1.62976
| 37>    F       -5.51691         2.74342         1.88763
| 38>    C       -4.17383         4.66271         1.98260
| 39>    F       -5.19843         5.30999         2.55414
| 40>    C       -2.97220         5.35691         1.75612
| 41>    C       -1.92382         4.59801         1.20945
| 42>    C       -2.08567         3.26322         0.88512
| 43>    F       -1.05022         2.58750         0.37800
| 44>    F       -0.71866         5.14731         1.03409
| 45>    C       -2.89630         6.74832         2.11024
| 46>    C       -1.94642         7.63031         1.71626
| 47>    C       -1.95404         8.99866         2.09955
| 48>    C       -1.48718        10.07801         1.37360
| 49>    N       -0.76763        10.06470         0.15825
| 50>    O       -0.41225        11.14070        -0.28452
| 51>    O       -0.52658         8.99173        -0.36380
| 52>    C       -1.87905        11.30272         2.02644
| 53>    C       -2.61684        11.00074         3.12227
| 54>    C       -2.65059         9.56833         3.27432
| 55>    C       -3.01432         8.85770         4.39720
| 56>    C       -2.29905         7.71222         4.89906
| 57>    C       -2.67346         7.48983         6.18357
| 58>    C       -3.73888         8.39396         6.51934
| 59>    N       -4.33553         8.41435         7.78397
| 60>    O       -5.24386         9.20991         8.00000
| 61>    O       -3.88732         7.66081         8.63175
| 62>    C       -3.99797         9.22490         5.43079
| 63>    C       -5.06859        10.13639         5.29827
| 64>    C       -5.40058        10.76246         4.13994
| 65>    C       -6.31402        11.84896         3.93279
| 66>    C       -6.63297        12.15661         2.59704
| 67>    C       -6.13127        11.55667         1.33556
| 68>    O       -5.33646        10.66859         1.17744
| 69>    O       -6.71866        12.19845         0.30710
| 70>    C       -7.60403        13.21018         0.75569
| 71>    C       -7.51973        13.16346         2.24640
| 72>    C       -8.15249        13.91795         3.21809
| 73>    C       -7.84150        13.64945         4.53926
| 74>    C       -6.91791        12.66890         4.91782
| 75>    C       -6.67869        12.57522         6.35644
| 76>    C       -5.49100        12.61622         6.98301
| 77>    C       -5.25321        12.35090         8.40211
| 78>    C       -6.10633        12.62438         9.42845
| 79>    C       -5.80060        12.37715        10.78490
| 80>    N       -5.58580        12.20949        11.89868
| 81>    C       -7.35921        13.24912         9.24417
| 82>    N       -8.37401        13.77108         9.12449
| 83>    C       -3.93116        11.75412         8.48770
| 84>    C       -3.27279        11.90829         7.23017
| 85>    C       -4.15964        12.62104         6.30140
| 86>    O       -3.89250        13.09967         5.22232
| 87>    C       -2.04793        11.35068         6.98913
| 88>    C       -1.44000        10.56954         7.99524
| 89>    C       -2.08803        10.42224         9.25826
| 90>    C       -3.33415        11.04369         9.49596
| 91>    C       -1.48236         9.61476        10.24226
| 92>    C       -0.30058         8.97390         9.98934
| 93>    C        0.33468         9.11678         8.74600
| 94>    C       -0.22041         9.90000         7.77133
| 95>    H       -5.64948        -3.55641         0.42145
| 96>    H       -8.63371         0.32354        -0.54003
| 97>    H      -10.53989        -1.17017        -0.63233
| 98>    H      -11.49510        -3.43439        -0.47285
| 99>    H      -10.04206        -5.36606        -0.00079
|100>    H       -7.61961        -5.04983         0.31440
|101>    H       -2.51600         0.61599         0.85269
|102>    H       -3.73219         7.10711         2.69609
|103>    H       -1.18790         7.35033         0.99767
|104>    H       -1.61206        12.27743         1.66496
|105>    H       -3.00726        11.70605         3.83045
|106>    H       -1.49566         7.22998         4.37774
|107>    H       -2.26943         6.77089         6.87055
|108>    H       -5.65681        10.28550         6.19273
|109>    H       -4.93932        10.41415         3.22446
|110>    H       -8.60992        12.99208         0.37996
|111>    H       -7.27872        14.17147         0.34330
|112>    H       -8.85822        14.69157         2.96089
|113>    H       -8.30619        14.23617         5.31836
|114>    H       -7.57902        12.50299         6.95616
|115>    H       -1.56375        11.47020         6.03082
|116>    H       -3.81712        10.89693        10.44899
|117>    H       -1.97939         9.50140        11.19350
|118>    H        0.15006         8.34912        10.74522
|119>    H        1.26538         8.60101         8.56341
|120>    H        0.26159        10.01281         6.81106
|121> *
|122>
|123>                          ****END OF INPUT****

CARTESIAN COORDINATES (ANGSTROEM)
---------------------------------
  C     -5.796080    0.861500   -0.254880
  C     -6.145960    2.030860   -0.871350
  C     -7.424340    2.279320   -1.417080
  N     -8.445230    2.533490   -1.874040
  C     -5.254490    3.098940   -1.093520
  N     -4.549880    3.981910   -1.296230
  C     -6.625060   -0.334260   -0.178520
  C     -5.792250   -1.455530    0.110920
  C     -6.298870   -2.720680    0.207480
  C     -7.684450   -2.923550    0.024000
  C     -8.524910   -1.804500   -0.248850
  C     -7.973360   -0.507080   -0.346650
  C     -9.907250   -2.020090   -0.423270
  C    -10.435580   -3.279200   -0.335670
  C     -9.607670   -4.379980   -0.067750
  C     -8.261660   -4.206250    0.107900
  C     -4.405810   -1.002420    0.284110
  O     -3.413420   -1.660190    0.479160
  C     -4.474000    0.499380    0.231420
  C     -3.417980    1.200950    0.691340
  C     -3.308090    2.596440    1.045650
  C     -4.342620    3.338800    1.629760
  F     -5.516910    2.743420    1.887630
  C     -4.173830    4.662710    1.982600
  F     -5.198430    5.309990    2.554140
  C     -2.972200    5.356910    1.756120
  C     -1.923820    4.598010    1.209450
  C     -2.085670    3.263220    0.885120
  F     -1.050220    2.587500    0.378000
  F     -0.718660    5.147310    1.034090
  C     -2.896300    6.748320    2.110240
  C     -1.946420    7.630310    1.716260
  C     -1.954040    8.998660    2.099550
  C     -1.487180   10.078010    1.373600
  N     -0.767630   10.064700    0.158250
  O     -0.412250   11.140700   -0.284520
  O     -0.526580    8.991730   -0.363800
  C     -1.879050   11.302720    2.026440
  C     -2.616840   11.000740    3.122270
  C     -2.650590    9.568330    3.274320
  C     -3.014320    8.857700    4.397200
  C     -2.299050    7.712220    4.899060
  C     -2.673460    7.489830    6.183570
  C     -3.738880    8.393960    6.519340
  N     -4.335530    8.414350    7.783970
  O     -5.243860    9.209910    8.000000
  O     -3.887320    7.660810    8.631750
  C     -3.997970    9.224900    5.430790
  C     -5.068590   10.136390    5.298270
  C     -5.400580   10.762460    4.139940
  C     -6.314020   11.848960    3.932790
  C     -6.632970   12.156610    2.597040
  C     -6.131270   11.556670    1.335560
  O     -5.336460   10.668590    1.177440
  O     -6.718660   12.198450    0.307100
  C     -7.604030   13.210180    0.755690
  C     -7.519730   13.163460    2.246400
  C     -8.152490   13.917950    3.218090
  C     -7.841500   13.649450    4.539260
  C     -6.917910   12.668900    4.917820
  C     -6.678690   12.575220    6.356440
  C     -5.491000   12.616220    6.983010
  C     -5.253210   12.350900    8.402110
  C     -6.106330   12.624380    9.428450
  C     -5.800600   12.377150   10.784900
  N     -5.585800   12.209490   11.898680
  C     -7.359210   13.249120    9.244170
  N     -8.374010   13.771080    9.124490
  C     -3.931160   11.754120    8.487700
  C     -3.272790   11.908290    7.230170
  C     -4.159640   12.621040    6.301400
  O     -3.892500   13.099670    5.222320
  C     -2.047930   11.350680    6.989130
  C     -1.440000   10.569540    7.995240
  C     -2.088030   10.422240    9.258260
  C     -3.334150   11.043690    9.495960
  C     -1.482360    9.614760   10.242260
  C     -0.300580    8.973900    9.989340
  C      0.334680    9.116780    8.746000
  C     -0.220410    9.900000    7.771330
  H     -5.649480   -3.556410    0.421450
  H     -8.633710    0.323540   -0.540030
  H    -10.539890   -1.170170   -0.632330
  H    -11.495100   -3.434390   -0.472850
  H    -10.042060   -5.366060   -0.000790
  H     -7.619610   -5.049830    0.314400
  H     -2.516000    0.615990    0.852690
  H     -3.732190    7.107110    2.696090
  H     -1.187900    7.350330    0.997670
  H     -1.612060   12.277430    1.664960
  H     -3.007260   11.706050    3.830450
  H     -1.495660    7.229980    4.377740
  H     -2.269430    6.770890    6.870550
  H     -5.656810   10.285500    6.192730
  H     -4.939320   10.414150    3.224460
  H     -8.609920   12.992080    0.379960
  H     -7.278720   14.171470    0.343300
  H     -8.858220   14.691570    2.960890
  H     -8.306190   14.236170    5.318360
  H     -7.579020   12.502990    6.956160
  H     -1.563750   11.470200    6.030820
  H     -3.817120   10.896930   10.448990
  H     -1.979390    9.501400   11.193500
  H      0.150060    8.349120   10.745220
  H      1.265380    8.601010    8.563410
  H      0.261590   10.012810    6.811060

 Total Charge           Charge          ....    0
 Multiplicity           Mult            ....    1
 Number of Electrons    NEL             ....  540
 Basis Dimension        Dim             .... 1250

ORBITAL ENERGIES
----------------

  NO   OCC          E(Eh)            E(eV)
   0   2.0000     -24.815322      -675.2592
   1   2.0000     -24.808794      -675.0816
   2   2.0000     -24.808659      -675.0779
   3   2.0000     -24.808240      -675.0665
   4   2.0000     -19.272090      -524.4202
   5   2.0000     -19.243206      -523.6342
   6   2.0000     -19.242737      -523.6215
   7   2.0000     -19.234483      -523.3969
   8   2.0000     -19.233720      -523.3761
   9   2.0000     -19.231381      -523.3125
  10   2.0000     -19.223494      -523.0979
  11   2.0000     -19.212422      -522.7966
  12   2.0000     -14.650756      -398.6673
  13   2.0000     -14.643107      -398.4592
  14   2.0000     -14.423641      -392.4872
  15   2.0000     -14.422166      -392.4471
  16   2.0000     -14.422032      -392.4434
  17   2.0000     -14.418906      -392.3584
  18   2.0000     -10.413242      -283.3587
  19   2.0000     -10.390876      -282.7501
  20   2.0000     -10.388762      -282.6926
  21   2.0000     -10.387677      -282.6631
  22   2.0000     -10.386817      -282.6397
  23   2.0000     -10.382505      -282.5223
  24   2.0000     -10.373662      -282.2817
  25   2.0000     -10.355424      -281.7854
  26   2.0000     -10.352175      -281.6970
  27   2.0000     -10.349943      -281.6363
  28   2.0000     -10.347777      -281.5773
  29   2.0000     -10.347353      -281.5658
  30   2.0000     -10.332282      -281.1557
  31   2.0000     -10.331336      -281.1299
  32   2.0000     -10.329065      -281.0681
  33   2.0000     -10.328298      -281.0473
  34   2.0000     -10.327539      -281.0266
  35   2.0000     -10.327014      -281.0123
  36   2.0000     -10.326942      -281.0104
  37   2.0000     -10.325347      -280.9670
  38   2.0000     -10.324447      -280.9425
  39   2.0000     -10.324369      -280.9404
  40   2.0000     -10.324200      -280.9358
  41   2.0000     -10.323890      -280.9273
  42   2.0000     -10.321859      -280.8721
  43   2.0000     -10.320739      -280.8416
  44   2.0000     -10.319058      -280.7958
  45   2.0000     -10.316864      -280.7361
  46   2.0000     -10.313696      -280.6499
  47   2.0000     -10.313659      -280.6489
  48   2.0000     -10.311938      -280.6021
  49   2.0000     -10.309677      -280.5406
  50   2.0000     -10.309450      -280.5344
  51   2.0000     -10.308673      -280.5133
  52   2.0000     -10.307667      -280.4859
  53   2.0000     -10.306027      -280.4413
  54   2.0000     -10.305701      -280.4324
  55   2.0000     -10.305653      -280.4311
  56   2.0000     -10.304129      -280.3896
  57   2.0000     -10.303356      -280.3686
  58   2.0000     -10.303321      -280.3676
  59   2.0000     -10.303260      -280.3660
  60   2.0000     -10.302801      -280.3535
  61   2.0000     -10.302199      -280.3371
  62   2.0000     -10.301685      -280.3231
  63   2.0000     -10.301149      -280.3085
  64   2.0000     -10.298479      -280.2359
  65   2.0000     -10.297638      -280.2130
  66   2.0000     -10.297539      -280.2103
  67   2.0000     -10.295987      -280.1681
  68   2.0000     -10.295657      -280.1591
  69   2.0000     -10.292975      -280.0861
  70   2.0000     -10.291393      -280.0430
  71   2.0000     -10.291093      -280.0349
  72   2.0000     -10.290830      -280.0277
  73   2.0000     -10.290683      -280.0237
  74   2.0000     -10.290435      -280.0170
  75   2.0000     -10.289894      -280.0023
  76   2.0000     -10.289489      -279.9912
  77   2.0000     -10.289308      -279.9863
  78   2.0000     -10.288387      -279.9612
  79   2.0000     -10.281055      -279.7617
  80   2.0000      -1.335207       -36.3328
  81   2.0000      -1.333319       -36.2815
  82   2.0000      -1.319907       -35.9165
  83   2.0000      -1.318015       -35.8650
  84   2.0000      -1.316946       -35.8359
  85   2.0000      -1.314615       -35.7725
  86   2.0000      -1.208513       -32.8853
  87   2.0000      -1.147114       -31.2146
  88   2.0000      -1.139513       -31.0077
  89   2.0000      -1.136534       -30.9267
  90   2.0000      -1.132333       -30.8123
  91   2.0000      -1.118392       -30.4330
  92   2.0000      -1.025763       -27.9124
  93   2.0000      -1.024978       -27.8911
  94   2.0000      -1.019087       -27.7308
  95   2.0000      -1.005871       -27.3711
  96   2.0000      -1.005101       -27.3502
  97   2.0000      -1.003339       -27.3023
  98   2.0000      -0.999198       -27.1896
  99   2.0000      -0.997979       -27.1564
 100   2.0000      -0.996833       -27.1252
 101   2.0000      -0.995615       -27.0921
 102   2.0000      -0.977564       -26.6009
 103   2.0000      -0.977047       -26.5868
 104   2.0000      -0.938297       -25.5324
 105   2.0000      -0.934131       -25.4190
 106   2.0000      -0.927473       -25.2378
 107   2.0000      -0.926205       -25.2033
 108   2.0000      -0.916784       -24.9470
 109   2.0000      -0.912365       -24.8267
 110   2.0000      -0.906381       -24.6639
 111   2.0000      -0.895951       -24.3801
 112   2.0000      -0.889140       -24.1947
 113   2.0000      -0.887139       -24.1403
 114   2.0000      -0.886213       -24.1151
 115   2.0000      -0.881489       -23.9865
 116   2.0000      -0.875991       -23.8369
 117   2.0000      -0.862465       -23.4689
 118   2.0000      -0.862012       -23.4565
 119   2.0000      -0.858865       -23.3709
 120   2.0000      -0.834370       -22.7044
 121   2.0000      -0.833864       -22.6906
 122   2.0000      -0.831764       -22.6334
 123   2.0000      -0.826007       -22.4768
 124   2.0000      -0.816665       -22.2226
 125   2.0000      -0.807104       -21.9624
 126   2.0000      -0.789063       -21.4715
 127   2.0000      -0.785280       -21.3685
 128   2.0000      -0.769180       -20.9304
 129   2.0000      -0.767925       -20.8963
 130   2.0000      -0.756700       -20.5909
 131   2.0000      -0.754767       -20.5383
 132   2.0000      -0.740659       -20.1543
 133   2.0000      -0.731634       -19.9088
 134   2.0000      -0.727792       -19.8042
 135   2.0000      -0.719296       -19.5730
 136   2.0000      -0.715616       -19.4729
 137   2.0000      -0.709169       -19.2975
 138   2.0000      -0.707762       -19.2592
 139   2.0000      -0.705091       -19.1865
 140   2.0000      -0.702363       -19.1123
 141   2.0000      -0.696166       -18.9437
 142   2.0000      -0.689317       -18.7573
 143   2.0000      -0.684432       -18.6243
 144   2.0000      -0.680026       -18.5044
 145   2.0000      -0.678910       -18.4741
 146   2.0000      -0.672547       -18.3009
 147   2.0000      -0.667203       -18.1555
 148   2.0000      -0.660215       -17.9654
 149   2.0000      -0.654750       -17.8167
 150   2.0000      -0.646176       -17.5834
 151   2.0000      -0.645287       -17.5591
 152   2.0000      -0.640430       -17.4270
 153   2.0000      -0.636322       -17.3152
 154   2.0000      -0.633112       -17.2278
 155   2.0000      -0.632089       -17.2000
 156   2.0000      -0.628762       -17.1095
 157   2.0000      -0.624911       -17.0047
 158   2.0000      -0.624474       -16.9928
 159   2.0000      -0.624022       -16.9805
 160   2.0000      -0.618678       -16.8351
 161   2.0000      -0.616602       -16.7786
 162   2.0000      -0.614213       -16.7136
 163   2.0000      -0.611856       -16.6494
 164   2.0000      -0.611103       -16.6289
 165   2.0000      -0.607969       -16.5437
 166   2.0000      -0.602432       -16.3930
 167   2.0000      -0.599904       -16.3242
 168   2.0000      -0.598183       -16.2774
 169   2.0000      -0.589979       -16.0542
 170   2.0000      -0.588072       -16.0023
 171   2.0000      -0.586300       -15.9540
 172   2.0000      -0.584703       -15.9106
 173   2.0000      -0.576462       -15.6863
 174   2.0000      -0.571662       -15.5557
 175   2.0000      -0.567969       -15.4552
 176   2.0000      -0.564044       -15.3484
 177   2.0000      -0.563116       -15.3232
 178   2.0000      -0.561601       -15.2819
 179   2.0000      -0.558188       -15.1891
 180   2.0000      -0.555522       -15.1165
 181   2.0000      -0.552465       -15.0333
 182   2.0000      -0.551754       -15.0140
 183   2.0000      -0.551294       -15.0015
 184   2.0000      -0.548497       -14.9254
 185   2.0000      -0.545730       -14.8501
 186   2.0000      -0.544883       -14.8270
 187   2.0000      -0.541505       -14.7351
 188   2.0000      -0.538388       -14.6503
 189   2.0000      -0.535745       -14.5784
 190   2.0000      -0.533133       -14.5073
 191   2.0000      -0.531995       -14.4763
 192   2.0000      -0.531061       -14.4509
 193   2.0000      -0.530207       -14.4277
 194   2.0000      -0.525193       -14.2912
 195   2.0000      -0.519322       -14.1315
 196   2.0000      -0.518144       -14.0994
 197   2.0000      -0.516324       -14.0499
 198   2.0000      -0.515244       -14.0205
 199   2.0000      -0.514160       -13.9910
 200   2.0000      -0.510998       -13.9050
 201   2.0000      -0.508102       -13.8262
 202   2.0000      -0.507030       -13.7970
 203   2.0000      -0.506604       -13.7854
 204   2.0000      -0.502974       -13.6866
 205   2.0000      -0.499760       -13.5991
 206   2.0000      -0.498625       -13.5683
 207   2.0000      -0.496810       -13.5189
 208   2.0000      -0.493716       -13.4347
 209   2.0000      -0.491305       -13.3691
 210   2.0000      -0.489759       -13.3270
 211   2.0000      -0.488884       -13.3032
 212   2.0000      -0.486695       -13.2436
 213   2.0000      -0.483605       -13.1596
 214   2.0000      -0.479367       -13.0442
 215   2.0000      -0.476687       -12.9713
 216   2.0000      -0.474727       -12.9180
 217   2.0000      -0.471074       -12.8186
 218   2.0000      -0.469802       -12.7840
 219   2.0000      -0.466447       -12.6927
 220   2.0000      -0.463503       -12.6126
 221   2.0000      -0.462546       -12.5865
 222   2.0000      -0.458648       -12.4804
 223   2.0000      -0.456345       -12.4178
 224   2.0000      -0.453716       -12.3462
 225   2.0000      -0.449196       -12.2233
 226   2.0000      -0.449150       -12.2220
 227   2.0000      -0.447512       -12.1774
 228   2.0000      -0.444895       -12.1062
 229   2.0000      -0.444129       -12.0854
 230   2.0000      -0.442558       -12.0426
 231   2.0000      -0.438852       -11.9418
 232   2.0000      -0.438122       -11.9219
 233   2.0000      -0.437121       -11.8947
 234   2.0000      -0.436064       -11.8659
 235   2.0000      -0.432716       -11.7748
 236   2.0000      -0.431442       -11.7401
 237   2.0000      -0.429224       -11.6798
 238   2.0000      -0.426568       -11.6075
 239   2.0000      -0.421273       -11.4634
 240   2.0000      -0.416579       -11.3357
 241   2.0000      -0.411617       -11.2007
 242   2.0000      -0.407224       -11.0811
 243   2.0000      -0.405465       -11.0333
 244   2.0000      -0.393554       -10.7092
 245   2.0000      -0.390747       -10.6328
 246   2.0000      -0.388452       -10.5703
 247   2.0000      -0.383596       -10.4382
 248   2.0000      -0.381796       -10.3892
 249   2.0000      -0.381587       -10.3835
 250   2.0000      -0.378312       -10.2944
 251   2.0000      -0.373603       -10.1662
 252   2.0000      -0.369887       -10.0651
 253   2.0000      -0.365509        -9.9460
 254   2.0000      -0.363238        -9.8842
 255   2.0000      -0.360310        -9.8045
 256   2.0000      -0.359639        -9.7863
 257   2.0000      -0.353246        -9.6123
 258   2.0000      -0.344406        -9.3718
 259   2.0000      -0.343828        -9.3560
 260   2.0000      -0.335820        -9.1381
 261   2.0000      -0.329632        -8.9698
 262   2.0000      -0.328383        -8.9357
 263   2.0000      -0.327315        -8.9067
 264   2.0000      -0.319064        -8.6822
 265   2.0000      -0.318343        -8.6626
 266   2.0000      -0.299917        -8.1612
 267   2.0000      -0.298887        -8.1331
 268   2.0000      -0.287669        -7.8279
 269   2.0000      -0.270078        -7.3492
 270   0.0000      -0.132541        -3.6066
 271   0.0000      -0.099749        -2.7143
 272   0.0000      -0.093975        -2.5572
 273   0.0000      -0.075692        -2.0597
 274   0.0000      -0.064409        -1.7527

MULLIKEN ATOMIC CHARGES
-----------------------
   0 C :    0.284341
   1 C :   -0.321762
   2 C :   -0.178317
   3 N :    0.162367
   4 C :   -0.195624
   5 N :    0.170104
   6 C :    0.036723
   7 C :    0.010891
   8 C :   -0.072802
   9 C :    0.092339
  10 C :    0.093006
  11 C :   -0.076268
  12 C :   -0.015703
  13 C :    0.035847
  14 C :    0.037121
  15 C :   -0.013387
  16 C :    0.132547
  17 O :   -0.131810
  18 C :   -0.096020
  19 C :    0.017027
  20 C :   -0.101654
  21 C :    0.196261
  22 F :   -0.164831
  23 C :    0.210087
  24 F :   -0.167269
  25 C :   -0.049729
  26 C :    0.199626
  27 C :    0.213365
  28 F :   -0.156611
  29 F :   -0.160023
  30 C :   -0.010667
  31 C :   -0.004843
  32 C :    0.021501
  33 C :    0.109688
  34 N :    0.267127
  35 O :   -0.242765
  36 O :   -0.245819
  37 C :    0.016268
  38 C :    0.016230
  39 C :    0.033333
  40 C :   -0.026901
  41 C :    0.019574
  42 C :    0.026395
  43 C :    0.067661
  44 N :    0.278758
  45 O :   -0.261852
  46 O :   -0.246547
  47 C :    0.037136
  48 C :    0.000688
  49 C :   -0.078410
  50 C :    0.133301
  51 C :   -0.091331
  52 C :    0.233614
  53 O :   -0.168767
  54 O :   -0.276159
  55 C :    0.332496
  56 C :   -0.100028
  57 C :   -0.023528
  58 C :    0.014683
  59 C :    0.017664
  60 C :   -0.055820
  61 C :   -0.096384
  62 C :    0.307187
  63 C :   -0.311264
  64 C :   -0.188504
  65 N :    0.161408
  66 C :   -0.202308
  67 N :    0.159432
  68 C :    0.070900
  69 C :   -0.017415
  70 C :    0.171081
  71 O :   -0.147111
  72 C :   -0.074035
  73 C :    0.089236
  74 C :    0.084588
  75 C :   -0.080897
  76 C :   -0.000021
  77 C :    0.040143
  78 C :    0.034797
  79 C :   -0.012057
  80 H :   -0.009534
  81 H :   -0.003498
  82 H :   -0.008894
  83 H :   -0.001781
  84 H :   -0.003620
  85 H :   -0.015161
  86 H :    0.041499
  87 H :    0.024815
  88 H :    0.037535
  89 H :    0.002420
  90 H :   -0.013225
  91 H :   -0.004065
  92 H :   -0.000920
  93 H :    0.029367
  94 H :    0.051599
  95 H :    0.050064
  96 H :    0.050474
  97 H :   -0.008573
  98 H :    0.006909
  99 H :    0.050228
 100 H :   -0.016229
 101 H :    0.000481
 102 H :   -0.007099
 103 H :   -0.001742
 104 H :   -0.004345
 105 H :   -0.018004
Sum of atomic charges:   -0.0000000

LOEWDIN ATOMIC CHARGES
----------------------
   0 C :    0.068050
   1 C :   -0.125370
   2 C :   -0.017220
   3 N :   -0.043024
   4 C :   -0.017605
   5 N :   -0.041516
   6 C :   -0.022164
   7 C :   -0.059473
   8 C :    0.036600
   9 C :   -0.008381
  10 C :   -0.003841
  11 C :    0.019142
  12 C :   -0.005224
  13 C :   -0.010620
  14 C :   -0.010848
  15 C :   -0.008071
  16 C :    0.086462
  17 O :   -0.130875
  18 C :   -0.064636
  19 C :    0.065139
  20 C :   -0.076944
  21 C :    0.066634
  22 F :   -0.037904
  23 C :    0.070501
  24 F :   -0.042362
  25 C :   -0.053262
  26 C :    0.070009
  27 C :    0.075250
  28 F :   -0.037419
  29 F :   -0.032118
  30 C :    0.004949
  31 C :    0.000376
  32 C :    0.007062
  33 C :   -0.030743
  34 N :    0.283810
  35 O :   -0.207330
  36 O :   -0.207753
  37 C :    0.015934
  38 C :   -0.037512
  39 C :    0.053233
  40 C :    0.033689
  41 C :   -0.037352
  42 C :    0.005614
  43 C :   -0.056103
  44 N :    0.290307
  45 O :   -0.225807
  46 O :   -0.210593
  47 C :    0.014626
  48 C :   -0.023975
  49 C :    0.025434
  50 C :    0.009425
  51 C :   -0.059614
  52 C :    0.091578
  53 O :   -0.156499
  54 O :   -0.073988
  55 C :    0.104968
  56 C :   -0.017922
  57 C :   -0.011506
  58 C :    0.019046
  59 C :   -0.010818
  60 C :    0.062143
  61 C :   -0.059503
  62 C :    0.082302
  63 C :   -0.125488
  64 C :   -0.017532
  65 N :   -0.042354
  66 C :   -0.019951
  67 N :   -0.050097
  68 C :   -0.021737
  69 C :   -0.060102
  70 C :    0.091921
  71 O :   -0.133863
  72 C :    0.030713
  73 C :   -0.011087
  74 C :   -0.006272
  75 C :    0.029250
  76 C :    0.003790
  77 C :   -0.007706
  78 C :   -0.010472
  79 C :   -0.009002
  80 H :    0.040449
  81 H :    0.039586
  82 H :    0.035100
  83 H :    0.034223
  84 H :    0.033552
  85 H :    0.032671
  86 H :    0.052665
  87 H :    0.036055
  88 H :    0.038536
  89 H :    0.038992
  90 H :    0.025617
  91 H :    0.030856
  92 H :    0.037164
  93 H :    0.032532
  94 H :    0.038967
  95 H :    0.040173
  96 H :    0.040613
  97 H :    0.036514
  98 H :    0.041591
  99 H :    0.050706
 100 H :    0.037569
 101 H :    0.042149
 102 H :    0.037141
 103 H :    0.034709
 104 H :    0.033500
 105 H :    0.031974

  Mayer bond orders larger than 0.100000
B(  0-C ,  1-C ) :   1.6770 B(  0-C ,  6-C ) :   1.0062 B(  0-C , 18-C ) :   1.0037
B(  1-C ,  2-C ) :   1.1306 B(  1-C ,  4-C ) :   1.1655 B(  2-C ,  3-N ) :   2.9893
B(  4-C ,  5-N ) :   3.0014 B(  6-C ,  7-C ) :   1.2107 B(  6-C , 11-C ) :   1.4537
B(  7-C ,  8-C ) :   1.4693 B(  7-C , 16-C ) :   0.9272 B(  8-C ,  9-C ) :   1.1914
B(  8-C , 80-H ) :   1.0149 B(  9-C , 10-C ) :   1.2527 B(  9-C , 15-C ) :   1.2426
B( 10-C , 11-C ) :   1.2105 B( 10-C , 12-C ) :   1.2407 B( 11-C , 81-H ) :   0.9921
B( 12-C , 13-C ) :   1.4916 B( 12-C , 82-H ) :   0.9969 B( 13-C , 14-C ) :   1.2586
B( 13-C , 83-H ) :   0.9887 B( 14-C , 15-C ) :   1.4917 B( 14-C , 84-H ) :   0.9890
B( 15-C , 85-H ) :   0.9974 B( 16-C , 17-O ) :   2.2762 B( 16-C , 18-C ) :   0.9192
B( 18-C , 19-C ) :   1.7638 B( 19-C , 20-C ) :   1.0330 B( 19-C , 86-H ) :   0.9314
B( 20-C , 21-C ) :   1.2806 B( 20-C , 25-C ) :   0.1282 B( 20-C , 27-C ) :   1.3059
B( 21-C , 22-F ) :   1.1470 B( 21-C , 23-C ) :   1.3184 B( 23-C , 24-F ) :   1.1507
B( 23-C , 25-C ) :   1.2911 B( 25-C , 26-C ) :   1.2547 B( 25-C , 30-C ) :   1.1319
B( 26-C , 27-C ) :   1.3144 B( 26-C , 29-F ) :   1.1482 B( 27-C , 28-F ) :   1.1921
B( 30-C , 31-C ) :   1.6043 B( 30-C , 87-H ) :   0.9650 B( 31-C , 32-C ) :   1.1630
B( 31-C , 88-H ) :   0.9510 B( 32-C , 33-C ) :   1.5392 B( 32-C , 39-C ) :   1.0053
B( 33-C , 34-N ) :   0.9356 B( 33-C , 37-C ) :   1.1166 B( 34-N , 35-O ) :   1.5393
B( 34-N , 36-O ) :   1.5047 B( 35-O , 36-O ) :   0.2655 B( 37-C , 38-C ) :   1.5788
B( 37-C , 89-H ) :   1.0152 B( 38-C , 39-C ) :   1.1299 B( 38-C , 90-H ) :   0.9851
B( 39-C , 40-C ) :   1.4779 B( 40-C , 41-C ) :   1.1460 B( 40-C , 47-C ) :   1.0226
B( 41-C , 42-C ) :   1.5715 B( 41-C , 91-H ) :   0.9988 B( 42-C , 43-C ) :   1.1382
B( 42-C , 92-H ) :   1.0084 B( 43-C , 44-N ) :   0.9668 B( 43-C , 47-C ) :   1.4631
B( 44-N , 45-O ) :   1.4651 B( 44-N , 46-O ) :   1.5265 B( 45-O , 46-O ) :   0.2441
B( 47-C , 48-C ) :   1.2329 B( 48-C , 49-C ) :   1.5271 B( 48-C , 93-H ) :   0.9386
B( 49-C , 50-C ) :   1.1278 B( 49-C , 94-H ) :   0.9408 B( 50-C , 51-C ) :   1.3032
B( 50-C , 59-C ) :   1.3259 B( 51-C , 52-C ) :   0.9173 B( 51-C , 56-C ) :   1.4274
B( 52-C , 53-O ) :   2.1130 B( 52-C , 54-O ) :   1.1519 B( 53-O , 94-H ) :   0.1052
B( 54-O , 55-C ) :   0.9688 B( 55-C , 56-C ) :   1.0081 B( 55-C , 95-H ) :   0.9264
B( 55-C , 96-H ) :   0.9265 B( 56-C , 57-C ) :   1.3468 B( 57-C , 58-C ) :   1.3670
B( 57-C , 97-H ) :   1.0097 B( 58-C , 59-C ) :   1.3775 B( 58-C , 98-H ) :   0.9908
B( 59-C , 60-C ) :   1.0010 B( 60-C , 61-C ) :   1.8146 B( 60-C , 99-H ) :   0.9388
B( 61-C , 62-C ) :   0.9939 B( 61-C , 70-C ) :   0.9214 B( 62-C , 63-C ) :   1.7023
B( 62-C , 68-C ) :   1.0008 B( 63-C , 64-C ) :   1.1266 B( 63-C , 66-C ) :   1.1375
B( 64-C , 65-N ) :   2.9927 B( 66-C , 67-N ) :   3.0074 B( 68-C , 69-C ) :   1.2049
B( 68-C , 75-C ) :   1.4379 B( 69-C , 70-C ) :   0.9368 B( 69-C , 72-C ) :   1.4468
B( 70-C , 71-O ) :   2.1544 B( 72-C , 73-C ) :   1.2055 B( 72-C ,100-H ) :   1.0174
B( 73-C , 74-C ) :   1.2480 B( 73-C , 79-C ) :   1.2417 B( 74-C , 75-C ) :   1.2120
B( 74-C , 76-C ) :   1.2394 B( 75-C ,101-H ) :   0.9950 B( 76-C , 77-C ) :   1.4915
B( 76-C ,102-H ) :   0.9965 B( 77-C , 78-C ) :   1.2506 B( 77-C ,103-H ) :   0.9892
B( 78-C , 79-C ) :   1.4882 B( 78-C ,104-H ) :   0.9899 B( 79-C ,105-H ) :   0.9994

-----------------------------------------------------------------------------
         ABSORPTION SPECTRUM VIA TRANSITION ELECTRIC DIPOLE MOMENTS
-----------------------------------------------------------------------------
State   Energy  Wavelength   fosc         T2         TX        TY        TZ
        (cm-1)    (nm)                  (au**2)     (au)      (au)      (au)
-----------------------------------------------------------------------------
   0   10702.2    934.4   0.115180794   3.54309  -0.54807   1.69834   0.59862
   1   15110.2    661.8   0.034954374   0.76157  -0.76200  -0.29067  -0.31055
   2   19180.9    521.4   0.008049125   0.13815  -0.30202   0.12529  -0.17675
   3   19874.1    503.2   0.025618133   0.42436  -0.61016   0.22193  -0.05303
   4   22892.6    436.8   0.511228954   7.35184  -1.28065  -2.02079  -1.27600
   5   23406.6    427.2   0.069172055   0.97290  -0.04887  -0.98040  -0.09655
   6   24608.8    406.4   0.051642598   0.69087   0.10673  -0.75038  -0.34118
   7   24675.7    405.3   0.039422355   0.52595  -0.42530  -0.57351  -0.12712
   8   25158.3    397.5   0.032278238   0.42238  -0.48291  -0.37665  -0.21752
   9   25831.3    387.1   0.159953879   2.03856   0.24586   1.40332   0.09377
  10   25993.7    384.7   0.043044983   0.54517   0.71045   0.00216  -0.20107
  11   26334.6    379.7   0.088283527   1.10364   0.65111  -0.04715  -0.82309
  12   26353.9    379.4   0.026072307   0.32569  -0.33341  -0.46179  -0.03587
  13   26437.6    378.2   0.008286652   0.10319  -0.20920   0.05668   0.23709
  14   26842.4    372.5   0.021570751   0.26456   0.43886   0.24234   0.11503
  15   27176.8    368.0   0.121230588   1.46855  -0.40342  -0.75305   0.85949
  16   27346.6    365.7   0.016884203   0.20326   0.03931  -0.34116  -0.29211
  17   28094.5    355.9   0.007789711   0.09128  -0.28178   0.10802  -0.01458
  18   28388.4    352.3   0.011331693   0.13141   0.35218  -0.08111  -0.02834
  19   28638.7    349.2   0.030637508   0.35219  -0.03911  -0.49675   0.32234
  20   28809.7    347.1   0.060780826   0.69455   0.35061   0.68349   0.32319
  21   28895.3    346.1   0.021426657   0.24412   0.04489  -0.48861  -0.05798
  22   29158.6    343.0   0.013702675   0.15471   0.37131   0.12975  -0.00161
  23   29372.3    340.5   0.042527369   0.47666  -0.20134   0.16965  -0.63823
  24   29708.3    336.6   0.007763602   0.08603   0.07641   0.21155   0.18826
  25   30067.4    332.6   0.026037409   0.28509   0.47899  -0.23356   0.03329
  26   30431.7    328.6   0.018613737   0.20136   0.18395  -0.26131   0.31503
  27   30740.0    325.3   0.313462550   3.35705   0.95938   0.67380  -1.40806
  28   31331.7    319.2   0.038419019   0.40368  -0.24915   0.52189   0.26312
  29   31791.2    314.6   0.238082866   2.46545  -0.41123   1.49858  -0.22494
  30   31978.0    312.7   0.189576196   1.95168   0.75556   1.14348  -0.27064
  31   32094.6    311.6   0.040365924   0.41406  -0.19316  -0.60861  -0.07964
  32   32594.8    306.8   0.038833717   0.39223  -0.59786  -0.01459  -0.18594
  33   33009.8    302.9   0.373788345   3.72785  -0.59246  -1.32484   1.27344
  34   33373.2    299.6   0.434928731   4.29039  -1.37239   1.36171  -0.74342
  35   33554.8    298.0   0.033091588   0.32467  -0.07637   0.14713   0.54515
  36   33789.2    296.0   0.222680304   2.16960  -1.45865   0.15723   0.13123
  37   33833.6    295.6   0.289145898   2.81348  -0.94344   0.53356  -1.28012
  38   34038.7    293.8   0.016113534   0.15585  -0.13445  -0.25018  -0.27418
  39   34125.7    293.0   0.065405850   0.63097   0.26171  -0.06367  -0.74728
  40   34367.8    291.0   0.823114580   7.88469   0.68997   2.63870  -0.66777
  41   34510.1    289.8   0.229886810   2.19303  -1.25408  -0.08645  -0.78283
  42   34915.4    286.4   0.156724685   1.47773  -0.80820  -0.53428  -0.73423
  43   35221.1    283.9   0.024943484   0.23315   0.19005   0.02339  -0.44326
  44   35251.7    283.7   0.290425589   2.71225   1.59653  -0.38639   0.11850
  45   35435.0    282.2   0.098985633   0.91963   0.39140  -0.70420   0.52014
  46   35725.5    279.9   0.028299595   0.26078  -0.50566  -0.02793   0.06564
  47   35917.0    278.4   0.211418411   1.93784   0.34811   0.89147  -1.01091
  48   35998.8    277.8   0.232215784   2.12363   0.10045  -0.37961  -1.40337
  49   36283.1    275.6   0.073919995   0.67071  -0.77544   0.22170  -0.14229
  50   36427.8    274.5   0.005984668   0.05409   0.08226  -0.00378  -0.21750
  51   36528.1    273.8   0.072900912   0.65702  -0.69932  -0.35210   0.20975
  52   36720.9    272.3   0.004674154   0.04190   0.06424   0.18597  -0.05649
  53   36841.3    271.4   0.027659503   0.24716  -0.28130   0.18385   0.36638
  54   37235.6    268.6   0.037551495   0.33200  -0.23199   0.04128   0.52581
  55   37388.9    267.5   0.012133535   0.10684   0.17042  -0.01403   0.27856
  56   37556.5    266.3   0.033088453   0.29005   0.27382   0.10897  -0.45077
  57   37640.0    265.7   0.037857913   0.33112   0.18720  -0.36522  -0.40334
  58   38243.3    261.5   0.013203648   0.11366   0.27102   0.05801  -0.19195
  59   38270.3    261.3   0.016000088   0.13764   0.11105   0.34069  -0.09609
  60   38412.7    260.3   0.129426704   1.10924  -0.42680   0.53156   0.80283
  61   38455.3    260.0   0.000332872   0.00285  -0.03856  -0.03650   0.00552
  62   38635.5    258.8   0.008596577   0.07325  -0.00799  -0.01420  -0.27016
  63   38741.4    258.1   0.100571871   0.85463  -0.13682  -0.37154   0.83539
  64   38817.5    257.6   0.017996912   0.15263   0.15028  -0.35735   0.04847
  65   39136.8    255.5   0.026608476   0.22383  -0.36959   0.20470  -0.21290
  66   39199.5    255.1   0.087146415   0.73189   0.36673  -0.38743   0.66880
  67   39522.6    253.0   0.131424092   1.09472  -0.38748  -0.66815  -0.70580
  68   39878.6    250.8   0.102276305   0.84433  -0.86186   0.31349   0.05692
  69   40029.2    249.8   0.007937340   0.06528   0.02812   0.16958  -0.18903
  70   40092.1    249.4   0.009767764   0.08021  -0.02199   0.26232  -0.10447

FINAL SINGLE POINT ENERGY     -3703.022736164643

DIPOLE MOMENT
-------------
                                X             Y             Z
Electronic contribution:     12.05147     -11.59381     -16.35694
Nuclear contribution   :    -13.10230      10.11814      16.76201
                        -----------------------------------------
Total Dipole Moment    :     -1.05082      -1.47567       0.40507
                        -----------------------------------------
Magnitude (a.u.)       :      1.85632
Magnitude (Debye)      :      4.71839

Rotational constants in cm-1:     0.001260     0.000387     0.000383
Rotational constants in MHz :    37.760110    11.588863    11.492672

                             ****ORCA TERMINATED NORMALLY****
TOTAL RUN TIME: 0 days 0 hours 14 minutes 0 seconds 451 msec
