                         Program Version 4.2.0 -  RELEASE  -
|  1> # ORCA input file
|  2> # SCF done       -193.337233600382          0.000463347222
|  3> ! CAM-B3LYP def2-SVP def2/J RIJCOSX Grid4 TightSCF
|  4> %maxcore 5000
|  5> %tddft
|  6>     Mode sTDDFT
|  7>     Ethresh 5.0
|  8>     maxcore 5000
|  9> end
| 10>
| 11> %pal
| 12>   nprocs 6
| 13>   end
| 14> * xyz 0 1
| 15>    C       -4.74707         1.46775        -4.97440
| 16>    C       -4.71422         1.50412        -6.34017
| 17>    F       -4.64623         2.67704        -6.98077
| 18>    C       -4.75075         0.31120        -7.09124
| 19>    F       -4.71596         0.37774        -8.42775
| 20>    C       -4.81998        -0.90187        -6.46541
| 21>    C       -4.85390        -0.97250        -5.05903
| 22>    C       -4.81768         0.23281        -4.29842
| 23>    C       -4.84932         0.18638        -2.88633
| 24>    C       -4.91473        -1.02800        -2.25414
| 25>    C       -4.94445        -2.22659        -3.02142
| 26>    C       -4.91609        -2.21282        -4.38674
| 27>    C       -4.97744        -3.39218        -2.11893
| 28>    O       -4.95440        -4.55976        -2.43761
| 29>    C       -4.94035        -2.82765        -0.74085
| 30>    C       -4.95832        -1.37804        -0.83885
| 31>    C       -5.08042        -0.50033         0.20395
| 32>    C       -5.12358         0.90249         0.05338
| 33>    N       -5.16056         2.04738        -0.01212
| 34>    C       -5.21919        -0.87893         1.55728
| 35>    N       -5.36036        -1.11976         2.67034
| 36>    C       -4.71720        -3.57283         0.37455
| 37>    C       -4.79733        -4.99336         0.45281
| 38>    C       -3.99684        -5.79048         1.23447
| 39>    C       -4.34896        -7.16285         1.01986
| 40>    C       -5.48989        -7.14475         0.09112
| 41>    C       -5.74407        -5.85385        -0.24848
| 42>    C       -6.22055        -8.24857        -0.36643
| 43>    N       -6.84713        -9.12787        -0.75695
| 44>    C       -3.73400        -8.27098         1.54870
| 45>    C       -4.07911        -9.64002         1.34157
| 46>    C       -3.18819       -10.42956         2.03025
| 47>    C       -2.23154        -9.56614         2.70672
| 48>    C       -2.54998        -8.27563         2.43566
| 49>    C       -1.84934        -7.16141         2.91278
| 50>    N       -1.25140        -6.26911         3.31909
| 51>    C       -3.18188       -11.84358         2.08773
| 52>    S       -1.90945       -12.73304         2.93948
| 53>    C       -2.69022       -14.21410         2.48703
| 54>    C       -3.84152       -13.91085         1.73910
| 55>    N       -4.07155       -12.61317         1.54038
| 56>    C       -4.77457       -14.91154         1.17367
| 57>    O       -4.63413       -16.11020         1.24938
| 58>    O       -5.79523       -14.31653         0.56772
| 59>    C       -6.76223       -15.17144        -0.02188
| 60>    C       -2.20772       -15.49308         2.83612
| 61>    C       -1.03073       -15.69619         3.48491
| 62>    C       -0.50321       -16.96365         3.84811
| 63>    C        0.78747       -17.04844         4.43237
| 64>    C        1.39259       -18.30373         4.79649
| 65>    N        2.52966       -18.31115         5.50751
| 66>    C        3.14594       -17.18448         5.74473
| 67>    C        2.62771       -15.94520         5.23517
| 68>    N        1.46391       -15.90710         4.63956
| 69>    C        3.36228       -14.74422         5.40064
| 70>    N        3.98267       -13.79323         5.54976
| 71>    C        4.33204       -17.19881         6.52118
| 72>    N        5.30280       -17.18551         7.12846
| 73>    C        0.77686       -19.53848         4.48937
| 74>    C       -0.53455       -19.45556         3.98357
| 75>    C       -1.16832       -18.19686         3.66862
| 76>    N       -2.40373       -18.38489         3.20083
| 77>    S       -2.73086       -19.94769         3.15417
| 78>    N       -1.33402       -20.49354         3.72117
| 79>    C        1.40948       -20.80245         4.68876
| 80>    S        0.43539       -22.21246         4.95969
| 81>    C        1.83928       -23.21532         5.11182
| 82>    C        1.79004       -24.66284         5.39073
| 83>    O        2.78737       -25.32657         5.47347
| 84>    O        0.57279       -25.20225         5.54712
| 85>    C        2.99262       -22.49771         4.91428
| 86>    C        2.76442       -21.13385         4.66585
| 87>    O        3.72744       -20.25216         4.34701
| 88>    H       -4.71925         2.38991        -4.41517
| 89>    H       -4.84649        -1.80544        -7.05409
| 90>    H       -4.81297         1.11428        -2.33873
| 91>    H       -4.93900        -3.13659        -4.94469
| 92>    H       -4.39922        -3.07614         1.28364
| 93>    H       -3.19701        -5.45320         1.86451
| 94>    H       -6.53902        -5.51056        -0.88132
| 95>    H       -4.89654        -9.99766         0.74836
| 96>    H       -1.41841        -9.91449         3.31695
| 97>    H       -7.22184       -15.80730         0.73814
| 98>    H       -6.29684       -15.80896        -0.77685
| 99>    H       -7.50319       -14.51857        -0.47505
|100>    H       -2.82652       -16.33056         2.54326
|101>    H       -0.40534       -14.84982         3.74218
|102>    H       -0.14397       -24.55962         5.45557
|103>    H        3.96638       -22.95455         4.94747
|104>    H        4.59300       -20.67598         4.40895
|105> *
|106>
|107>                          ****END OF INPUT****

CARTESIAN COORDINATES (ANGSTROEM)
---------------------------------
  C     -4.747070    1.467750   -4.974400
  C     -4.714220    1.504120   -6.340170
  F     -4.646230    2.677040   -6.980770
  C     -4.750750    0.311200   -7.091240
  F     -4.715960    0.377740   -8.427750
  C     -4.819980   -0.901870   -6.465410
  C     -4.853900   -0.972500   -5.059030
  C     -4.817680    0.232810   -4.298420
  C     -4.849320    0.186380   -2.886330
  C     -4.914730   -1.028000   -2.254140
  C     -4.944450   -2.226590   -3.021420
  C     -4.916090   -2.212820   -4.386740
  C     -4.977440   -3.392180   -2.118930
  O     -4.954400   -4.559760   -2.437610
  C     -4.940350   -2.827650   -0.740850
  C     -4.958320   -1.378040   -0.838850
  C     -5.080420   -0.500330    0.203950
  C     -5.123580    0.902490    0.053380
  N     -5.160560    2.047380   -0.012120
  C     -5.219190   -0.878930    1.557280
  N     -5.360360   -1.119760    2.670340
  C     -4.717200   -3.572830    0.374550
  C     -4.797330   -4.993360    0.452810
  C     -3.996840   -5.790480    1.234470
  C     -4.348960   -7.162850    1.019860
  C     -5.489890   -7.144750    0.091120
  C     -5.744070   -5.853850   -0.248480
  C     -6.220550   -8.248570   -0.366430
  N     -6.847130   -9.127870   -0.756950
  C     -3.734000   -8.270980    1.548700
  C     -4.079110   -9.640020    1.341570
  C     -3.188190  -10.429560    2.030250
  C     -2.231540   -9.566140    2.706720
  C     -2.549980   -8.275630    2.435660
  C     -1.849340   -7.161410    2.912780
  N     -1.251400   -6.269110    3.319090
  C     -3.181880  -11.843580    2.087730
  S     -1.909450  -12.733040    2.939480
  C     -2.690220  -14.214100    2.487030
  C     -3.841520  -13.910850    1.739100
  N     -4.071550  -12.613170    1.540380
  C     -4.774570  -14.911540    1.173670
  O     -4.634130  -16.110200    1.249380
  O     -5.795230  -14.316530    0.567720
  C     -6.762230  -15.171440   -0.021880
  C     -2.207720  -15.493080    2.836120
  C     -1.030730  -15.696190    3.484910
  C     -0.503210  -16.963650    3.848110
  C      0.787470  -17.048440    4.432370
  C      1.392590  -18.303730    4.796490
  N      2.529660  -18.311150    5.507510
  C      3.145940  -17.184480    5.744730
  C      2.627710  -15.945200    5.235170
  N      1.463910  -15.907100    4.639560
  C      3.362280  -14.744220    5.400640
  N      3.982670  -13.793230    5.549760
  C      4.332040  -17.198810    6.521180
  N      5.302800  -17.185510    7.128460
  C      0.776860  -19.538480    4.489370
  C     -0.534550  -19.455560    3.983570
  C     -1.168320  -18.196860    3.668620
  N     -2.403730  -18.384890    3.200830
  S     -2.730860  -19.947690    3.154170
  N     -1.334020  -20.493540    3.721170
  C      1.409480  -20.802450    4.688760
  S      0.435390  -22.212460    4.959690
  C      1.839280  -23.215320    5.111820
  C      1.790040  -24.662840    5.390730
  O      2.787370  -25.326570    5.473470
  O      0.572790  -25.202250    5.547120
  C      2.992620  -22.497710    4.914280
  C      2.764420  -21.133850    4.665850
  O      3.727440  -20.252160    4.347010
  H     -4.719250    2.389910   -4.415170
  H     -4.846490   -1.805440   -7.054090
  H     -4.812970    1.114280   -2.338730
  H     -4.939000   -3.136590   -4.944690
  H     -4.399220   -3.076140    1.283640
  H     -3.197010   -5.453200    1.864510
  H     -6.539020   -5.510560   -0.881320
  H     -4.896540   -9.997660    0.748360
  H     -1.418410   -9.914490    3.316950
  H     -7.221840  -15.807300    0.738140
  H     -6.296840  -15.808960   -0.776850
  H     -7.503190  -14.518570   -0.475050
  H     -2.826520  -16.330560    2.543260
  H     -0.405340  -14.849820    3.742180
  H     -0.143970  -24.559620    5.455570
  H      3.966380  -22.954550    4.947470
  H      4.593000  -20.675980    4.408950

 Total Charge           Charge          ....    0
 Multiplicity           Mult            ....    1
 Number of Electrons    NEL             ....  514
 Basis Dimension        Dim             .... 1119

ORBITAL ENERGIES
----------------

  NO   OCC          E(Eh)            E(eV)
   0   2.0000     -89.058389     -2423.4020
   1   2.0000     -88.986568     -2421.4476
   2   2.0000     -88.982903     -2421.3479
   3   2.0000     -24.806738      -675.0257
   4   2.0000     -24.805820      -675.0007
   5   2.0000     -19.273028      -524.4457
   6   2.0000     -19.269427      -524.3478
   7   2.0000     -19.263511      -524.1868
   8   2.0000     -19.236164      -523.4426
   9   2.0000     -19.211864      -522.7814
  10   2.0000     -19.205104      -522.5974
  11   2.0000     -14.468823      -393.7167
  12   2.0000     -14.466537      -393.6545
  13   2.0000     -14.464661      -393.6034
  14   2.0000     -14.464436      -393.5973
  15   2.0000     -14.435158      -392.8006
  16   2.0000     -14.433456      -392.7543
  17   2.0000     -14.430424      -392.6718
  18   2.0000     -14.428752      -392.6263
  19   2.0000     -14.428236      -392.6123
  20   2.0000     -14.418745      -392.3540
  21   2.0000     -14.409734      -392.1088
  22   2.0000     -10.415280      -283.4142
  23   2.0000     -10.409701      -283.2624
  24   2.0000     -10.390775      -282.7474
  25   2.0000     -10.390241      -282.7328
  26   2.0000     -10.387998      -282.6718
  27   2.0000     -10.386146      -282.6214
  28   2.0000     -10.384765      -282.5838
  29   2.0000     -10.366426      -282.0848
  30   2.0000     -10.359438      -281.8946
  31   2.0000     -10.359200      -281.8882
  32   2.0000     -10.356067      -281.8029
  33   2.0000     -10.355214      -281.7797
  34   2.0000     -10.354928      -281.7719
  35   2.0000     -10.354441      -281.7587
  36   2.0000     -10.353605      -281.7359
  37   2.0000     -10.336701      -281.2759
  38   2.0000     -10.336309      -281.2653
  39   2.0000     -10.336127      -281.2603
  40   2.0000     -10.335232      -281.2359
  41   2.0000     -10.334182      -281.2074
  42   2.0000     -10.331079      -281.1230
  43   2.0000     -10.330557      -281.1088
  44   2.0000     -10.329776      -281.0875
  45   2.0000     -10.329027      -281.0671
  46   2.0000     -10.328297      -281.0473
  47   2.0000     -10.327557      -281.0271
  48   2.0000     -10.327090      -281.0144
  49   2.0000     -10.324667      -280.9485
  50   2.0000     -10.324557      -280.9455
  51   2.0000     -10.324473      -280.9432
  52   2.0000     -10.323249      -280.9099
  53   2.0000     -10.321145      -280.8526
  54   2.0000     -10.320884      -280.8455
  55   2.0000     -10.320431      -280.8332
  56   2.0000     -10.319783      -280.8156
  57   2.0000     -10.319415      -280.8056
  58   2.0000     -10.318656      -280.7849
  59   2.0000     -10.317943      -280.7655
  60   2.0000     -10.317774      -280.7609
  61   2.0000     -10.317444      -280.7519
  62   2.0000     -10.314517      -280.6723
  63   2.0000     -10.313785      -280.6524
  64   2.0000     -10.311904      -280.6012
  65   2.0000     -10.310317      -280.5580
  66   2.0000     -10.309447      -280.5343
  67   2.0000     -10.308710      -280.5143
  68   2.0000     -10.305865      -280.4368
  69   2.0000     -10.300188      -280.2824
  70   2.0000     -10.300098      -280.2799
  71   2.0000     -10.296882      -280.1924
  72   2.0000     -10.296858      -280.1917
  73   2.0000      -8.149481      -221.7586
  74   2.0000      -8.082154      -219.9266
  75   2.0000      -8.077711      -219.8057
  76   2.0000      -6.120510      -166.5476
  77   2.0000      -6.112641      -166.3334
  78   2.0000      -6.112462      -166.3286
  79   2.0000      -6.051057      -164.6576
  80   2.0000      -6.047212      -164.5530
  81   2.0000      -6.047151      -164.5513
  82   2.0000      -6.044668      -164.4838
  83   2.0000      -6.042878      -164.4351
  84   2.0000      -6.039703      -164.3487
  85   2.0000      -1.329584       -36.1798
  86   2.0000      -1.314655       -35.7736
  87   2.0000      -1.200115       -32.6568
  88   2.0000      -1.192334       -32.4451
  89   2.0000      -1.171881       -31.8885
  90   2.0000      -1.155430       -31.4409
  91   2.0000      -1.151903       -31.3449
  92   2.0000      -1.126886       -30.6641
  93   2.0000      -1.105422       -30.0801
  94   2.0000      -1.104183       -30.0464
  95   2.0000      -1.087859       -29.6022
  96   2.0000      -1.053108       -28.6565
  97   2.0000      -1.032894       -28.1065
  98   2.0000      -1.026764       -27.9397
  99   2.0000      -1.020055       -27.7571
 100   2.0000      -1.015820       -27.6419
 101   2.0000      -1.015363       -27.6294
 102   2.0000      -1.009357       -27.4660
 103   2.0000      -1.008019       -27.4296
 104   2.0000      -1.006648       -27.3923
 105   2.0000      -1.001127       -27.2421
 106   2.0000      -0.994409       -27.0592
 107   2.0000      -0.993385       -27.0314
 108   2.0000      -0.987702       -26.8767
 109   2.0000      -0.983545       -26.7636
 110   2.0000      -0.944543       -25.7023
 111   2.0000      -0.943452       -25.6726
 112   2.0000      -0.922350       -25.0984
 113   2.0000      -0.915860       -24.9218
 114   2.0000      -0.913081       -24.8462
 115   2.0000      -0.907781       -24.7020
 116   2.0000      -0.903327       -24.5808
 117   2.0000      -0.895003       -24.3543
 118   2.0000      -0.873817       -23.7778
 119   2.0000      -0.868703       -23.6386
 120   2.0000      -0.858504       -23.3611
 121   2.0000      -0.851653       -23.1747
 122   2.0000      -0.850787       -23.1511
 123   2.0000      -0.849083       -23.1047
 124   2.0000      -0.840573       -22.8732
 125   2.0000      -0.837379       -22.7862
 126   2.0000      -0.822911       -22.3926
 127   2.0000      -0.811610       -22.0850
 128   2.0000      -0.800566       -21.7845
 129   2.0000      -0.784800       -21.3555
 130   2.0000      -0.780045       -21.2261
 131   2.0000      -0.770383       -20.9632
 132   2.0000      -0.751235       -20.4421
 133   2.0000      -0.747409       -20.3380
 134   2.0000      -0.744987       -20.2721
 135   2.0000      -0.734631       -19.9903
 136   2.0000      -0.731042       -19.8927
 137   2.0000      -0.729581       -19.8529
 138   2.0000      -0.717865       -19.5341
 139   2.0000      -0.713827       -19.4242
 140   2.0000      -0.707891       -19.2627
 141   2.0000      -0.706153       -19.2154
 142   2.0000      -0.699495       -19.0342
 143   2.0000      -0.693954       -18.8834
 144   2.0000      -0.685741       -18.6600
 145   2.0000      -0.676978       -18.4215
 146   2.0000      -0.672376       -18.2963
 147   2.0000      -0.668713       -18.1966
 148   2.0000      -0.667336       -18.1591
 149   2.0000      -0.654926       -17.8214
 150   2.0000      -0.652758       -17.7624
 151   2.0000      -0.650404       -17.6984
 152   2.0000      -0.645842       -17.5743
 153   2.0000      -0.641583       -17.4584
 154   2.0000      -0.638830       -17.3835
 155   2.0000      -0.632527       -17.2119
 156   2.0000      -0.622871       -16.9492
 157   2.0000      -0.621078       -16.9004
 158   2.0000      -0.618139       -16.8204
 159   2.0000      -0.612227       -16.6595
 160   2.0000      -0.607644       -16.5348
 161   2.0000      -0.602927       -16.4065
 162   2.0000      -0.593957       -16.1624
 163   2.0000      -0.591804       -16.1038
 164   2.0000      -0.587557       -15.9882
 165   2.0000      -0.583774       -15.8853
 166   2.0000      -0.579125       -15.7588
 167   2.0000      -0.577240       -15.7075
 168   2.0000      -0.568150       -15.4601
 169   2.0000      -0.563724       -15.3397
 170   2.0000      -0.560294       -15.2464
 171   2.0000      -0.556077       -15.1316
 172   2.0000      -0.555314       -15.1108
 173   2.0000      -0.553809       -15.0699
 174   2.0000      -0.552084       -15.0230
 175   2.0000      -0.550785       -14.9876
 176   2.0000      -0.550468       -14.9790
 177   2.0000      -0.546756       -14.8780
 178   2.0000      -0.544635       -14.8203
 179   2.0000      -0.542493       -14.7620
 180   2.0000      -0.541207       -14.7270
 181   2.0000      -0.539695       -14.6859
 182   2.0000      -0.535612       -14.5747
 183   2.0000      -0.533279       -14.5113
 184   2.0000      -0.530161       -14.4264
 185   2.0000      -0.525591       -14.3020
 186   2.0000      -0.525174       -14.2907
 187   2.0000      -0.523244       -14.2382
 188   2.0000      -0.521507       -14.1909
 189   2.0000      -0.517648       -14.0859
 190   2.0000      -0.513107       -13.9623
 191   2.0000      -0.510953       -13.9037
 192   2.0000      -0.507844       -13.8191
 193   2.0000      -0.505117       -13.7449
 194   2.0000      -0.501936       -13.6584
 195   2.0000      -0.497365       -13.5340
 196   2.0000      -0.494924       -13.4676
 197   2.0000      -0.494866       -13.4660
 198   2.0000      -0.491694       -13.3797
 199   2.0000      -0.489845       -13.3294
 200   2.0000      -0.488413       -13.2904
 201   2.0000      -0.486613       -13.2414
 202   2.0000      -0.483149       -13.1471
 203   2.0000      -0.480059       -13.0631
 204   2.0000      -0.477268       -12.9871
 205   2.0000      -0.475443       -12.9375
 206   2.0000      -0.472745       -12.8641
 207   2.0000      -0.463226       -12.6050
 208   2.0000      -0.461138       -12.5482
 209   2.0000      -0.460743       -12.5375
 210   2.0000      -0.460109       -12.5202
 211   2.0000      -0.458488       -12.4761
 212   2.0000      -0.458211       -12.4686
 213   2.0000      -0.456700       -12.4274
 214   2.0000      -0.456255       -12.4153
 215   2.0000      -0.455268       -12.3885
 216   2.0000      -0.448795       -12.2123
 217   2.0000      -0.447858       -12.1868
 218   2.0000      -0.447584       -12.1794
 219   2.0000      -0.443697       -12.0736
 220   2.0000      -0.442441       -12.0394
 221   2.0000      -0.440824       -11.9954
 222   2.0000      -0.439583       -11.9617
 223   2.0000      -0.437878       -11.9153
 224   2.0000      -0.436732       -11.8841
 225   2.0000      -0.435683       -11.8555
 226   2.0000      -0.435309       -11.8454
 227   2.0000      -0.429052       -11.6751
 228   2.0000      -0.423430       -11.5221
 229   2.0000      -0.422406       -11.4942
 230   2.0000      -0.422004       -11.4833
 231   2.0000      -0.419636       -11.4189
 232   2.0000      -0.415134       -11.2964
 233   2.0000      -0.409881       -11.1534
 234   2.0000      -0.407344       -11.0844
 235   2.0000      -0.404410       -11.0046
 236   2.0000      -0.401202       -10.9173
 237   2.0000      -0.395715       -10.7680
 238   2.0000      -0.388665       -10.5761
 239   2.0000      -0.382570       -10.4103
 240   2.0000      -0.375031       -10.2051
 241   2.0000      -0.374289       -10.1849
 242   2.0000      -0.368605       -10.0303
 243   2.0000      -0.364383        -9.9154
 244   2.0000      -0.361008        -9.8235
 245   2.0000      -0.359483        -9.7820
 246   2.0000      -0.356235        -9.6936
 247   2.0000      -0.354704        -9.6520
 248   2.0000      -0.353600        -9.6219
 249   2.0000      -0.338488        -9.2107
 250   2.0000      -0.330900        -9.0042
 251   2.0000      -0.327102        -8.9009
 252   2.0000      -0.322713        -8.7815
 253   2.0000      -0.315167        -8.5761
 254   2.0000      -0.306740        -8.3468
 255   2.0000      -0.296840        -8.0774
 256   2.0000      -0.259421        -7.0592
 257   0.0000      -0.142486        -3.8772
 258   0.0000      -0.128578        -3.4988
 259   0.0000      -0.093674        -2.5490
 260   0.0000      -0.071480        -1.9451
 261   0.0000      -0.063380        -1.7247

MULLIKEN ATOMIC CHARGES
-----------------------
   0 C :   -0.104603
   1 C :    0.242656
   2 F :   -0.167236
   3 C :    0.240146
   4 F :   -0.168677
   5 C :   -0.100967
   6 C :    0.113381
   7 C :    0.111042
   8 C :   -0.079457
   9 C :    0.059097
  10 C :   -0.017801
  11 C :   -0.070774
  12 C :    0.146079
  13 O :   -0.136358
  14 C :   -0.090587
  15 C :    0.300587
  16 C :   -0.325135
  17 C :   -0.181238
  18 N :    0.156417
  19 C :   -0.198633
  20 N :    0.171386
  21 C :   -0.017537
  22 C :    0.072798
  23 C :   -0.065149
  24 C :    0.108202
  25 C :   -0.123332
  26 C :    0.082249
  27 C :   -0.183782
  28 N :    0.142126
  29 C :    0.107880
  30 C :   -0.113758
  31 C :    0.155520
  32 C :   -0.003978
  33 C :   -0.085825
  34 C :   -0.182291
  35 N :    0.143341
  36 C :   -0.130714
  37 S :    0.119672
  38 C :   -0.041095
  39 C :    0.006450
  40 N :    0.016232
  41 C :    0.156188
  42 O :   -0.205757
  43 O :   -0.264656
  44 C :    0.189746
  45 C :   -0.004695
  46 C :   -0.070951
  47 C :    0.091966
  48 C :   -0.030789
  49 C :   -0.095247
  50 N :    0.077600
  51 C :   -0.142368
  52 C :   -0.135872
  53 N :    0.042755
  54 C :   -0.199821
  55 N :    0.233992
  56 C :   -0.206044
  57 N :    0.232672
  58 C :    0.168223
  59 C :   -0.004982
  60 C :    0.016397
  61 N :   -0.272667
  62 S :    0.569505
  63 N :   -0.310157
  64 C :   -0.256370
  65 S :    0.150951
  66 C :   -0.138928
  67 C :    0.183505
  68 O :   -0.163938
  69 O :   -0.153398
  70 C :   -0.059523
  71 C :    0.223413
  72 O :   -0.162572
  73 H :    0.010646
  74 H :    0.002340
  75 H :   -0.003606
  76 H :   -0.005848
  77 H :    0.044819
  78 H :    0.014216
  79 H :    0.005398
  80 H :    0.021842
  81 H :    0.013554
  82 H :    0.030012
  83 H :    0.030816
  84 H :    0.045553
  85 H :    0.048587
  86 H :   -0.000054
  87 H :    0.181979
  88 H :    0.000978
  89 H :    0.194255
Sum of atomic charges:    0.0000000

LOEWDIN ATOMIC CHARGES
----------------------
   0 C :   -0.028439
   1 C :    0.069332
   2 F :   -0.045310
   3 C :    0.069806
   4 F :   -0.046150
   5 C :   -0.031317
   6 C :   -0.007926
   7 C :   -0.004666
   8 C :    0.020070
   9 C :   -0.023114
  10 C :   -0.055721
  11 C :    0.035084
  12 C :    0.085503
  13 O :   -0.124714
  14 C :   -0.077981
  15 C :    0.070779
  16 C :   -0.124517
  17 C :   -0.017180
  18 N :   -0.042128
  19 C :   -0.024776
  20 N :   -0.036706
  21 C :    0.076274
  22 C :   -0.025160
  23 C :    0.020901
  24 C :    0.040824
  25 C :   -0.093239
  26 C :    0.081558
  27 C :   -0.030958
  28 N :   -0.058637
  29 C :    0.041461
  30 C :    0.006833
  31 C :   -0.040345
  32 C :    0.048370
  33 C :   -0.075921
  34 C :   -0.032345
  35 N :   -0.054832
  36 C :   -0.122783
  37 S :    0.435857
  38 C :   -0.146118
  39 C :   -0.072143
  40 N :   -0.052739
  41 C :    0.078044
  42 O :   -0.179524
  43 O :   -0.063330
  44 C :    0.083583
  45 C :   -0.014820
  46 C :   -0.014657
  47 C :   -0.021782
  48 C :   -0.003402
  49 C :   -0.012330
  50 N :    0.020359
  51 C :   -0.030892
  52 C :   -0.025593
  53 N :   -0.000407
  54 C :   -0.037003
  55 N :   -0.003259
  56 C :   -0.036068
  57 N :   -0.007989
  58 C :   -0.026978
  59 C :   -0.047590
  60 C :   -0.036170
  61 N :   -0.263848
  62 S :    0.695852
  63 N :   -0.300328
  64 C :   -0.200831
  65 S :    0.468124
  66 C :   -0.222139
  67 C :    0.062782
  68 O :   -0.152794
  69 O :   -0.027999
  70 C :   -0.057126
  71 C :    0.037942
  72 O :   -0.026354
  73 H :    0.048827
  74 H :    0.046036
  75 H :    0.040886
  76 H :    0.042069
  77 H :    0.054258
  78 H :    0.040286
  79 H :    0.038552
  80 H :    0.044010
  81 H :    0.036114
  82 H :    0.022963
  83 H :    0.023257
  84 H :    0.030864
  85 H :    0.039756
  86 H :    0.025006
  87 H :    0.081043
  88 H :    0.041022
  89 H :    0.104793

  Mayer bond orders larger than 0.100000
B(  0-C ,  1-C ) :   1.4430 B(  0-C ,  5-C ) :   0.1073 B(  0-C ,  7-C ) :   1.1871
B(  0-C , 73-H ) :   1.0073 B(  1-C ,  2-F ) :   1.1397 B(  1-C ,  3-C ) :   1.1869
B(  3-C ,  4-F ) :   1.1360 B(  3-C ,  5-C ) :   1.4446 B(  5-C ,  6-C ) :   1.1922
B(  5-C , 74-H ) :   1.0075 B(  6-C ,  7-C ) :   1.2513 B(  6-C , 11-C ) :   1.1934
B(  7-C ,  8-C ) :   1.2221 B(  8-C ,  9-C ) :   1.4453 B(  8-C , 75-H ) :   0.9910
B(  9-C , 10-C ) :   1.2153 B(  9-C , 15-C ) :   0.9972 B( 10-C , 11-C ) :   1.4708
B( 10-C , 12-C ) :   0.9452 B( 11-C , 76-H ) :   1.0169 B( 12-C , 13-O ) :   2.2180
B( 12-C , 14-C ) :   0.9354 B( 14-C , 15-C ) :   1.0369 B( 14-C , 21-C ) :   1.6481
B( 15-C , 16-C ) :   1.6650 B( 16-C , 17-C ) :   1.1412 B( 16-C , 19-C ) :   1.1367
B( 17-C , 18-N ) :   2.9669 B( 19-C , 20-N ) :   2.9924 B( 21-C , 22-C ) :   1.0841
B( 21-C , 77-H ) :   0.9493 B( 22-C , 23-C ) :   1.5428 B( 22-C , 26-C ) :   1.0492
B( 23-C , 24-C ) :   1.0885 B( 23-C , 78-H ) :   1.0056 B( 24-C , 25-C ) :   1.1193
B( 24-C , 29-C ) :   1.4273 B( 25-C , 26-C ) :   1.6753 B( 25-C , 27-C ) :   1.0938
B( 26-C , 79-H ) :   1.0076 B( 27-C , 28-N ) :   2.9777 B( 29-C , 30-C ) :   1.0889
B( 29-C , 33-C ) :   1.0968 B( 30-C , 31-C ) :   1.5674 B( 30-C , 80-H ) :   1.0192
B( 31-C , 32-C ) :   1.0434 B( 31-C , 36-C ) :   1.0401 B( 32-C , 33-C ) :   1.6993
B( 32-C , 81-H ) :   1.0075 B( 33-C , 34-C ) :   1.0877 B( 34-C , 35-N ) :   2.9651
B( 36-C , 37-S ) :   1.0897 B( 36-C , 40-N ) :   1.7272 B( 37-S , 38-C ) :   1.1369
B( 38-C , 39-C ) :   1.4121 B( 38-C , 45-C ) :   1.1746 B( 39-C , 40-N ) :   1.4026
B( 39-C , 41-C ) :   0.9253 B( 41-C , 42-O ) :   2.0657 B( 41-C , 43-O ) :   1.3027
B( 43-O , 44-C ) :   0.9210 B( 44-C , 82-H ) :   0.9759 B( 44-C , 83-H ) :   0.9755
B( 44-C , 84-H ) :   0.9813 B( 45-C , 46-C ) :   1.5501 B( 45-C , 85-H ) :   0.9361
B( 46-C , 47-C ) :   1.2191 B( 46-C , 86-H ) :   0.9535 B( 47-C , 48-C ) :   1.2390
B( 47-C , 58-C ) :   0.1287 B( 47-C , 60-C ) :   1.1810 B( 48-C , 49-C ) :   1.0959
B( 48-C , 53-N ) :   1.4322 B( 49-C , 50-N ) :   1.4461 B( 49-C , 58-C ) :   1.2876
B( 50-N , 51-C ) :   1.7420 B( 51-C , 52-C ) :   1.1858 B( 51-C , 56-C ) :   1.1495
B( 52-C , 53-N ) :   1.7537 B( 52-C , 54-C ) :   1.1445 B( 54-C , 55-N ) :   3.0499
B( 56-C , 57-N ) :   3.0529 B( 58-C , 59-C ) :   1.2218 B( 58-C , 64-C ) :   1.1057
B( 59-C , 60-C ) :   1.1176 B( 59-C , 63-N ) :   1.4796 B( 60-C , 61-N ) :   1.5016
B( 61-N , 62-S ) :   1.2967 B( 61-N , 63-N ) :   0.1522 B( 62-S , 63-N ) :   1.2840
B( 64-C , 65-S ) :   1.1363 B( 64-C , 66-C ) :   0.1061 B( 64-C , 71-C ) :   1.4314
B( 65-S , 66-C ) :   1.1052 B( 65-S , 70-C ) :   0.1063 B( 66-C , 67-C ) :   0.9257
B( 66-C , 70-C ) :   1.5180 B( 67-C , 68-O ) :   2.2070 B( 67-C , 69-O ) :   1.2437
B( 69-O , 87-H ) :   0.9490 B( 70-C , 71-C ) :   1.1994 B( 70-C , 88-H ) :   1.0061
B( 71-C , 72-O ) :   1.2526 B( 72-O , 89-H ) :   0.9517

-----------------------------------------------------------------------------
         ABSORPTION SPECTRUM VIA TRANSITION ELECTRIC DIPOLE MOMENTS
-----------------------------------------------------------------------------
State   Energy  Wavelength   fosc         T2         TX        TY        TZ
        (cm-1)    (nm)                  (au**2)     (au)      (au)      (au)
-----------------------------------------------------------------------------
   0   11318.6    883.5   0.997137641  29.00261   2.28806  -4.62412   1.54431
   1   13921.2    718.3   0.128339971   3.03503  -0.29250   1.57705  -0.67998
   2   17808.9    561.5   0.028903895   0.53431   0.18698  -0.57926   0.40474
   3   19544.8    511.6   0.008254429   0.13904  -0.06291  -0.27799  -0.24041
   4   20896.1    478.6   0.145468085   2.29181  -0.57286   1.24220  -0.64853
   5   22834.5    437.9   0.289590741   4.17511   0.58537  -1.92149   0.37458
   6   23903.3    418.4   0.075405122   1.03853  -0.46328   0.65472  -0.62868
   7   24301.8    411.5   0.224322793   3.03886  -0.12786   1.50668  -0.86743
   8   25540.5    391.5   0.155235636   2.00095  -1.07201   0.69698  -0.60496
   9   25880.3    386.4   0.028010886   0.35631   0.32467  -0.48086  -0.14029
  10   26172.5    382.1   0.028983598   0.36457  -0.10860  -0.49659   0.32585
  11   26652.6    375.2   0.242085338   2.99023   0.64285  -1.37110   0.83489
  12   26779.9    373.4   0.073769880   0.90687  -0.19759   0.89070   0.27291
  13   27051.0    369.7   0.340251087   4.14088  -0.65024   1.84665  -0.55493
  14   28267.1    353.8   0.433683878   5.05088  -0.94531   1.88985  -0.76532
  15   28497.9    350.9   0.001458559   0.01685  -0.08239   0.08718  -0.04961
  16   28543.6    350.3   0.030598626   0.35291   0.36183   0.41360  -0.22566
  17   28942.9    345.5   0.045444612   0.51691   0.45881   0.47127   0.29037
  18   29769.2    335.9   0.007412079   0.08197  -0.07388   0.22440  -0.16173
  19   30317.7    329.8   0.006704936   0.07281   0.14329  -0.07985   0.21424
  20   30726.2    325.5   0.034423692   0.36883   0.15205   0.01046   0.58788
  21   30798.9    324.7   0.130685696   1.39691  -0.01331   0.34374  -1.13074
  22   31272.6    319.8   0.299339333   3.15120  -0.07641   0.66368  -1.64465
  23   31644.2    316.0   0.650344952   6.76590  -1.86486  -1.74770  -0.48346
  24   31832.6    314.1   0.048058730   0.49702   0.08551   0.40083   0.57362
  25   32016.0    312.3   0.093672146   0.96320   0.46311   0.75407   0.42439
  26   32245.4    310.1   0.022900736   0.23381  -0.17152  -0.45209  -0.00245
  27   32752.8    305.3   0.066023149   0.66363  -0.15511   0.35793  -0.71516
  28   33175.5    301.4   0.084155859   0.83511   0.13373  -0.52545   0.73561
  29   33382.8    299.6   0.008039020   0.07928   0.15915   0.03528  -0.22958
  30   33762.0    296.2   0.104557420   1.01953  -0.21753  -0.86073   0.48100
  31   33946.7    294.6   0.021875892   0.21215  -0.05525   0.27016  -0.36893
  32   34027.1    293.9   0.061822313   0.59813  -0.14125  -0.37695  -0.66037
  33   34125.4    293.0   0.012498696   0.12058   0.12635  -0.21229  -0.24401
  34   34352.6    291.1   0.172017820   1.64850  -1.17016  -0.26413  -0.45768
  35   34614.9    288.9   0.039952032   0.37997   0.56815  -0.01305   0.23877
  36   34715.5    288.1   0.053228840   0.50478  -0.65162   0.28231   0.02160
  37   35162.6    284.4   0.072868593   0.68224   0.01237   0.30220  -0.76861
  38   35469.0    281.9   0.072045518   0.66870   0.47295  -0.54662  -0.38239
  39   35708.1    280.0   0.499543511   4.60555  -0.00101  -0.20830  -2.13592
  40   36138.5    276.7   0.024726169   0.22525   0.07402  -0.46810   0.02551
  41   36240.3    275.9   0.014943373   0.13575   0.15722  -0.20095  -0.26580
  42   36439.4    274.4   0.023650645   0.21367   0.20820   0.37928   0.16270
  43   36941.2    270.7   0.103906294   0.92599  -0.37701  -0.12195  -0.87692
  44   37200.3    268.8   0.023840263   0.21098  -0.20024  -0.37986   0.16307
  45   37584.9    266.1   0.034134029   0.29899  -0.51894  -0.15916   0.06601
  46   37690.4    265.3   0.023813991   0.20801   0.04418   0.43290   0.13657
  47   37823.1    264.4   0.029235388   0.25446   0.15395  -0.21293   0.43061
  48   37980.3    263.3   0.027932696   0.24212   0.40479   0.19585   0.19977
  49   38565.8    259.3   0.007956627   0.06792  -0.09304   0.03082   0.24148
  50   38710.9    258.3   0.020170157   0.17153   0.28231  -0.29354   0.07529
  51   39047.6    256.1   0.022417779   0.18901   0.14102  -0.11339   0.39530
  52   39166.3    255.3   0.070003740   0.58842  -0.09169  -0.75584   0.09333
  53   39641.8    252.3   0.130092790   1.08038   0.42650   0.92549  -0.20480
  54   39795.1    251.3   0.002412598   0.01996  -0.13650  -0.03494  -0.01029
  55   40057.4    249.6   0.053461692   0.43937   0.34020   0.54253  -0.17116

FINAL SINGLE POINT ENERGY     -4397.061199513351

DIPOLE MOMENT
-------------
                                X             Y             Z
Electronic contribution:     10.19332      13.08417      -4.10388
Nuclear contribution   :    -12.01416     -14.46634       1.64197
                        -----------------------------------------
Total Dipole Moment    :     -1.82084      -1.38218      -2.46191
                        -----------------------------------------
Magnitude (a.u.)       :      3.35959
Magnitude (Debye)      :      8.53941

Rotational constants in cm-1:     0.002086     0.000193     0.000187
Rotational constants in MHz :    62.532304     5.786769     5.612909

                             ****ORCA TERMINATED NORMALLY****
TOTAL RUN TIME: 0 days 0 hours 9 minutes 2 seconds 257 msec
