                         Program Version 4.2.0 -  RELEASE  -
|  1> # ORCA input file
|  2> # SCF done       -167.976772232429          0.000445922352
|  3> ! CAM-B3LYP def2-SVP def2/J RIJCOSX Grid4 TightSCF
|  4> %maxcore 5000
|  5> %tddft
|  6>     Mode sTDDFT
|  7>     Ethresh 5.0
|  8>     maxcore 5000
|  9> end
| 10>
| 11> %pal
| 12>   nprocs 6
| 13>   end
| 14> * xyz 0 1
| 15>    C        1.66697        -0.72249        -0.28961
| 16>    N        2.23083         0.51291        -0.20950
| 17>    C        3.64164         0.79167        -0.11516
| 18>    C        4.18671         0.47148         1.27408
| 19>    C        1.24878         1.52552        -0.16401
| 20>    O        1.51629         2.71197        -0.09009
| 21>    C        0.00185         0.80792        -0.23442
| 22>    C        0.30774        -0.58993        -0.30971
| 23>    C       -0.94245        -1.31666        -0.38938
| 24>    O       -1.20040        -2.49729        -0.45911
| 25>    N       -1.92587        -0.30703        -0.35744
| 26>    C       -3.32627        -0.63482        -0.46243
| 27>    C       -3.85348        -0.43498        -1.88167
| 28>    C       -1.37784         0.95504        -0.27278
| 29>    C       -2.15305         2.14396        -0.23162
| 30>    C       -1.58663         3.37227        -0.12452
| 31>    C       -2.30589         4.59515        -0.09230
| 32>    S       -1.43880         6.09034         0.13600
| 33>    C       -2.89310         7.03311         0.04654
| 34>    C       -3.99776         6.19688        -0.15348
| 35>    C       -3.65752         4.83677        -0.22636
| 36>    C       -5.33278         6.61734        -0.26490
| 37>    N       -6.44102         6.90169        -0.36205
| 38>    C       -2.80848         8.44127         0.17709
| 39>    C       -3.84319         9.30901         0.03846
| 40>    C       -3.73952        10.71460         0.18009
| 41>    S       -5.16361        11.69391        -0.15745
| 42>    C       -2.65779        11.49503         0.56120
| 43>    C       -2.96834        12.85056         0.58214
| 44>    C       -2.30121        14.10652         0.89030
| 45>    S       -0.75594        14.32013         1.37477
| 46>    C       -4.29889        13.11733         0.20637
| 47>    C       -4.50373        14.51878         0.25567
| 48>    S       -5.74547        15.65193        -0.04538
| 49>    C       -3.30936        15.13183         0.67173
| 50>    C       -3.40936        16.51945         0.75288
| 51>    C       -4.66547        16.97085         0.39401
| 52>    C       -5.12728        18.31096         0.34440
| 53>    S       -4.12087        19.62646         0.88796
| 54>    C       -5.34839        20.80303         0.49560
| 55>    C       -6.47226        20.16560        -0.03206
| 56>    C       -6.34356        18.76961        -0.10812
| 57>    C       -7.63544        20.84009        -0.44561
| 58>    N       -8.60648        21.34090        -0.79260
| 59>    C       -5.17598        22.18789         0.70486
| 60>    C       -4.07889        22.72435         1.30414
| 61>    C       -3.91004        24.11319         1.51031
| 62>    N       -2.82406        24.66599         2.15542
| 63>    C       -1.67973        23.95860         2.67498
| 64>    C       -0.69796        23.57202         1.57117
| 65>    C       -2.90785        26.06655         2.22831
| 66>    O       -2.05919        26.75913         2.75509
| 67>    C       -4.15751        26.38459         1.57431
| 68>    C       -4.74654        25.16312         1.14634
| 69>    C       -5.99328        25.47655         0.49242
| 70>    O       -6.84143        24.77940        -0.02949
| 71>    N       -6.08347        26.87980         0.57284
| 72>    C       -7.18640        27.58452        -0.03352
| 73>    C       -6.80384        28.17957        -1.38673
| 74>    C       -4.99706        27.42858         1.20975
| 75>    C       -4.84270        28.83657         1.43723
| 76>    C       -3.77438        29.36039         2.04243
| 77>    H        2.27542        -1.60658        -0.33597
| 78>    H        3.76017         1.85787        -0.32648
| 79>    H        4.17412         0.21303        -0.87612
| 80>    H        3.66899         1.06432         2.02413
| 81>    H        5.24712         0.70333         1.31736
| 82>    H        4.04921        -0.58208         1.50747
| 83>    H       -3.89843        -0.03977         0.25520
| 84>    H       -3.40950        -1.69050        -0.18853
| 85>    H       -3.73711         0.59853        -2.20109
| 86>    H       -4.90640        -0.69966        -1.92505
| 87>    H       -3.30590        -1.07253        -2.57121
| 88>    H       -3.22706         2.04545        -0.28424
| 89>    H       -0.50922         3.45005        -0.05931
| 90>    H       -4.39179         4.06604        -0.37927
| 91>    H       -1.81964         8.82232         0.39140
| 92>    H       -4.82542         8.93126        -0.20683
| 93>    H       -1.69494        11.09397         0.81779
| 94>    H       -2.61314        17.17755         1.05110
| 95>    H       -7.11356        18.12070        -0.48739
| 96>    H       -5.97936        22.83022         0.36450
| 97>    H       -3.29700        22.06128         1.65085
| 98>    H       -2.01426        23.07499         3.22620
| 99>    H       -1.19259        24.64557         3.37290
|100>    H       -1.17181        22.92715         0.83433
|101>    H        0.15147        23.04821         2.00069
|102>    H       -0.33771        24.46559         1.06759
|103>    H       -7.54690        28.36106         0.64689
|104>    H       -7.97742        26.84174        -0.17154
|105>    H       -5.98594        28.88969        -1.28452
|106>    H       -7.65978        28.68955        -1.82001
|107>    H       -6.49213        27.38783        -2.06350
|108>    H       -5.64524        29.47649         1.09717
|109>    H       -2.96374        28.74230         2.39040
|110>    H       -3.69032        30.42127         2.20383
|111> *
|112>
|113>                          ****END OF INPUT****

CARTESIAN COORDINATES (ANGSTROEM)
---------------------------------
  C      1.666970   -0.722490   -0.289610
  N      2.230830    0.512910   -0.209500
  C      3.641640    0.791670   -0.115160
  C      4.186710    0.471480    1.274080
  C      1.248780    1.525520   -0.164010
  O      1.516290    2.711970   -0.090090
  C      0.001850    0.807920   -0.234420
  C      0.307740   -0.589930   -0.309710
  C     -0.942450   -1.316660   -0.389380
  O     -1.200400   -2.497290   -0.459110
  N     -1.925870   -0.307030   -0.357440
  C     -3.326270   -0.634820   -0.462430
  C     -3.853480   -0.434980   -1.881670
  C     -1.377840    0.955040   -0.272780
  C     -2.153050    2.143960   -0.231620
  C     -1.586630    3.372270   -0.124520
  C     -2.305890    4.595150   -0.092300
  S     -1.438800    6.090340    0.136000
  C     -2.893100    7.033110    0.046540
  C     -3.997760    6.196880   -0.153480
  C     -3.657520    4.836770   -0.226360
  C     -5.332780    6.617340   -0.264900
  N     -6.441020    6.901690   -0.362050
  C     -2.808480    8.441270    0.177090
  C     -3.843190    9.309010    0.038460
  C     -3.739520   10.714600    0.180090
  S     -5.163610   11.693910   -0.157450
  C     -2.657790   11.495030    0.561200
  C     -2.968340   12.850560    0.582140
  C     -2.301210   14.106520    0.890300
  S     -0.755940   14.320130    1.374770
  C     -4.298890   13.117330    0.206370
  C     -4.503730   14.518780    0.255670
  S     -5.745470   15.651930   -0.045380
  C     -3.309360   15.131830    0.671730
  C     -3.409360   16.519450    0.752880
  C     -4.665470   16.970850    0.394010
  C     -5.127280   18.310960    0.344400
  S     -4.120870   19.626460    0.887960
  C     -5.348390   20.803030    0.495600
  C     -6.472260   20.165600   -0.032060
  C     -6.343560   18.769610   -0.108120
  C     -7.635440   20.840090   -0.445610
  N     -8.606480   21.340900   -0.792600
  C     -5.175980   22.187890    0.704860
  C     -4.078890   22.724350    1.304140
  C     -3.910040   24.113190    1.510310
  N     -2.824060   24.665990    2.155420
  C     -1.679730   23.958600    2.674980
  C     -0.697960   23.572020    1.571170
  C     -2.907850   26.066550    2.228310
  O     -2.059190   26.759130    2.755090
  C     -4.157510   26.384590    1.574310
  C     -4.746540   25.163120    1.146340
  C     -5.993280   25.476550    0.492420
  O     -6.841430   24.779400   -0.029490
  N     -6.083470   26.879800    0.572840
  C     -7.186400   27.584520   -0.033520
  C     -6.803840   28.179570   -1.386730
  C     -4.997060   27.428580    1.209750
  C     -4.842700   28.836570    1.437230
  C     -3.774380   29.360390    2.042430
  H      2.275420   -1.606580   -0.335970
  H      3.760170    1.857870   -0.326480
  H      4.174120    0.213030   -0.876120
  H      3.668990    1.064320    2.024130
  H      5.247120    0.703330    1.317360
  H      4.049210   -0.582080    1.507470
  H     -3.898430   -0.039770    0.255200
  H     -3.409500   -1.690500   -0.188530
  H     -3.737110    0.598530   -2.201090
  H     -4.906400   -0.699660   -1.925050
  H     -3.305900   -1.072530   -2.571210
  H     -3.227060    2.045450   -0.284240
  H     -0.509220    3.450050   -0.059310
  H     -4.391790    4.066040   -0.379270
  H     -1.819640    8.822320    0.391400
  H     -4.825420    8.931260   -0.206830
  H     -1.694940   11.093970    0.817790
  H     -2.613140   17.177550    1.051100
  H     -7.113560   18.120700   -0.487390
  H     -5.979360   22.830220    0.364500
  H     -3.297000   22.061280    1.650850
  H     -2.014260   23.074990    3.226200
  H     -1.192590   24.645570    3.372900
  H     -1.171810   22.927150    0.834330
  H      0.151470   23.048210    2.000690
  H     -0.337710   24.465590    1.067590
  H     -7.546900   28.361060    0.646890
  H     -7.977420   26.841740   -0.171540
  H     -5.985940   28.889690   -1.284520
  H     -7.659780   28.689550   -1.820010
  H     -6.492130   27.387830   -2.063500
  H     -5.645240   29.476490    1.097170
  H     -2.963740   28.742300    2.390400
  H     -3.690320   30.421270    2.203830

 Total Charge           Charge          ....    0
 Multiplicity           Mult            ....    1
 Number of Electrons    NEL             ....  470
 Basis Dimension        Dim             .... 1058

ORBITAL ENERGIES
----------------

  NO   OCC          E(Eh)            E(eV)
   0   2.0000     -88.989608     -2421.5303
   1   2.0000     -88.986530     -2421.4466
   2   2.0000     -88.978008     -2421.2147
   3   2.0000     -88.976931     -2421.1854
   4   2.0000     -88.920970     -2419.6626
   5   2.0000     -19.188051      -522.1334
   6   2.0000     -19.186759      -522.0983
   7   2.0000     -19.184305      -522.0315
   8   2.0000     -19.183839      -522.0188
   9   2.0000     -14.450626      -393.2215
  10   2.0000     -14.449978      -393.2039
  11   2.0000     -14.448985      -393.1769
  12   2.0000     -14.448705      -393.1693
  13   2.0000     -14.412618      -392.1873
  14   2.0000     -14.402270      -391.9057
  15   2.0000     -10.369889      -282.1790
  16   2.0000     -10.369205      -282.1604
  17   2.0000     -10.368713      -282.1470
  18   2.0000     -10.368353      -282.1372
  19   2.0000     -10.349204      -281.6162
  20   2.0000     -10.340312      -281.3742
  21   2.0000     -10.335140      -281.2335
  22   2.0000     -10.334716      -281.2219
  23   2.0000     -10.334487      -281.2157
  24   2.0000     -10.331116      -281.1240
  25   2.0000     -10.330950      -281.1194
  26   2.0000     -10.329079      -281.0685
  27   2.0000     -10.328523      -281.0534
  28   2.0000     -10.327683      -281.0305
  29   2.0000     -10.325224      -280.9636
  30   2.0000     -10.320903      -280.8461
  31   2.0000     -10.319810      -280.8163
  32   2.0000     -10.318895      -280.7914
  33   2.0000     -10.318811      -280.7891
  34   2.0000     -10.314061      -280.6599
  35   2.0000     -10.307340      -280.4770
  36   2.0000     -10.306987      -280.4674
  37   2.0000     -10.306514      -280.4545
  38   2.0000     -10.304696      -280.4050
  39   2.0000     -10.303886      -280.3830
  40   2.0000     -10.302634      -280.3489
  41   2.0000     -10.301844      -280.3274
  42   2.0000     -10.301740      -280.3246
  43   2.0000     -10.300538      -280.2919
  44   2.0000     -10.299551      -280.2650
  45   2.0000     -10.299473      -280.2629
  46   2.0000     -10.299071      -280.2520
  47   2.0000     -10.296430      -280.1801
  48   2.0000     -10.295118      -280.1444
  49   2.0000     -10.294567      -280.1294
  50   2.0000     -10.294448      -280.1262
  51   2.0000     -10.292471      -280.0724
  52   2.0000     -10.284916      -279.8668
  53   2.0000     -10.276453      -279.6365
  54   2.0000     -10.264154      -279.3018
  55   2.0000     -10.263377      -279.2807
  56   2.0000     -10.263190      -279.2756
  57   2.0000     -10.260670      -279.2070
  58   2.0000     -10.257144      -279.1111
  59   2.0000     -10.256280      -279.0876
  60   2.0000     -10.254816      -279.0477
  61   2.0000     -10.254550      -279.0405
  62   2.0000      -8.084225      -219.9829
  63   2.0000      -8.081273      -219.9026
  64   2.0000      -8.073279      -219.6851
  65   2.0000      -8.072623      -219.6672
  66   2.0000      -8.016615      -218.1432
  67   2.0000      -6.053547      -164.7254
  68   2.0000      -6.050432      -164.6406
  69   2.0000      -6.049346      -164.6111
  70   2.0000      -6.046467      -164.5327
  71   2.0000      -6.046264      -164.5272
  72   2.0000      -6.043794      -164.4600
  73   2.0000      -6.042563      -164.4265
  74   2.0000      -6.041741      -164.4041
  75   2.0000      -6.038576      -164.3180
  76   2.0000      -6.037663      -164.2932
  77   2.0000      -6.035261      -164.2278
  78   2.0000      -6.034934      -164.2189
  79   2.0000      -5.986195      -162.8926
  80   2.0000      -5.984839      -162.8557
  81   2.0000      -5.975451      -162.6003
  82   2.0000      -1.129161       -30.7260
  83   2.0000      -1.128348       -30.7039
  84   2.0000      -1.122194       -30.5364
  85   2.0000      -1.121684       -30.5226
  86   2.0000      -1.059362       -28.8267
  87   2.0000      -1.059126       -28.8203
  88   2.0000      -1.051178       -28.6040
  89   2.0000      -1.050773       -28.5930
  90   2.0000      -1.037454       -28.2306
  91   2.0000      -1.015841       -27.6425
  92   2.0000      -1.014797       -27.6140
  93   2.0000      -0.994117       -27.0513
  94   2.0000      -0.991112       -26.9695
  95   2.0000      -0.980380       -26.6775
  96   2.0000      -0.947578       -25.7849
  97   2.0000      -0.927587       -25.2409
  98   2.0000      -0.925493       -25.1839
  99   2.0000      -0.921113       -25.0648
 100   2.0000      -0.914422       -24.8827
 101   2.0000      -0.902840       -24.5675
 102   2.0000      -0.890536       -24.2327
 103   2.0000      -0.886205       -24.1149
 104   2.0000      -0.874093       -23.7853
 105   2.0000      -0.870076       -23.6760
 106   2.0000      -0.868047       -23.6208
 107   2.0000      -0.866365       -23.5750
 108   2.0000      -0.856397       -23.3037
 109   2.0000      -0.848452       -23.0876
 110   2.0000      -0.840674       -22.8759
 111   2.0000      -0.839450       -22.8426
 112   2.0000      -0.818537       -22.2735
 113   2.0000      -0.817513       -22.2457
 114   2.0000      -0.808564       -22.0021
 115   2.0000      -0.798292       -21.7226
 116   2.0000      -0.786124       -21.3915
 117   2.0000      -0.776490       -21.1294
 118   2.0000      -0.766411       -20.8551
 119   2.0000      -0.759306       -20.6618
 120   2.0000      -0.758125       -20.6296
 121   2.0000      -0.750120       -20.4118
 122   2.0000      -0.727234       -19.7890
 123   2.0000      -0.720612       -19.6089
 124   2.0000      -0.718362       -19.5476
 125   2.0000      -0.708033       -19.2666
 126   2.0000      -0.706848       -19.2343
 127   2.0000      -0.702104       -19.1052
 128   2.0000      -0.695140       -18.9157
 129   2.0000      -0.686297       -18.6751
 130   2.0000      -0.679001       -18.4766
 131   2.0000      -0.659961       -17.9584
 132   2.0000      -0.656211       -17.8564
 133   2.0000      -0.651427       -17.7262
 134   2.0000      -0.648857       -17.6563
 135   2.0000      -0.645751       -17.5718
 136   2.0000      -0.642490       -17.4830
 137   2.0000      -0.640705       -17.4345
 138   2.0000      -0.636197       -17.3118
 139   2.0000      -0.624349       -16.9894
 140   2.0000      -0.616274       -16.7697
 141   2.0000      -0.607197       -16.5227
 142   2.0000      -0.601702       -16.3732
 143   2.0000      -0.588446       -16.0124
 144   2.0000      -0.587406       -15.9841
 145   2.0000      -0.584720       -15.9110
 146   2.0000      -0.582482       -15.8502
 147   2.0000      -0.578116       -15.7313
 148   2.0000      -0.573601       -15.6085
 149   2.0000      -0.571848       -15.5608
 150   2.0000      -0.568059       -15.4577
 151   2.0000      -0.560692       -15.2572
 152   2.0000      -0.553009       -15.0481
 153   2.0000      -0.546910       -14.8822
 154   2.0000      -0.545821       -14.8525
 155   2.0000      -0.545316       -14.8388
 156   2.0000      -0.536915       -14.6102
 157   2.0000      -0.535115       -14.5612
 158   2.0000      -0.530217       -14.4279
 159   2.0000      -0.529044       -14.3960
 160   2.0000      -0.528723       -14.3873
 161   2.0000      -0.527470       -14.3532
 162   2.0000      -0.525644       -14.3035
 163   2.0000      -0.519749       -14.1431
 164   2.0000      -0.518563       -14.1108
 165   2.0000      -0.517321       -14.0770
 166   2.0000      -0.516281       -14.0487
 167   2.0000      -0.513933       -13.9848
 168   2.0000      -0.511310       -13.9134
 169   2.0000      -0.509685       -13.8692
 170   2.0000      -0.508681       -13.8419
 171   2.0000      -0.505247       -13.7485
 172   2.0000      -0.501123       -13.6362
 173   2.0000      -0.499672       -13.5968
 174   2.0000      -0.496786       -13.5182
 175   2.0000      -0.494631       -13.4596
 176   2.0000      -0.490849       -13.3567
 177   2.0000      -0.485591       -13.2136
 178   2.0000      -0.483221       -13.1491
 179   2.0000      -0.479161       -13.0386
 180   2.0000      -0.476170       -12.9572
 181   2.0000      -0.473575       -12.8866
 182   2.0000      -0.473331       -12.8800
 183   2.0000      -0.466171       -12.6851
 184   2.0000      -0.464656       -12.6439
 185   2.0000      -0.463867       -12.6225
 186   2.0000      -0.459902       -12.5146
 187   2.0000      -0.458228       -12.4690
 188   2.0000      -0.457696       -12.4546
 189   2.0000      -0.455705       -12.4004
 190   2.0000      -0.453270       -12.3341
 191   2.0000      -0.453131       -12.3303
 192   2.0000      -0.451541       -12.2871
 193   2.0000      -0.449467       -12.2306
 194   2.0000      -0.447716       -12.1830
 195   2.0000      -0.445364       -12.1190
 196   2.0000      -0.442376       -12.0377
 197   2.0000      -0.441250       -12.0070
 198   2.0000      -0.438604       -11.9350
 199   2.0000      -0.438117       -11.9218
 200   2.0000      -0.437629       -11.9085
 201   2.0000      -0.437037       -11.8924
 202   2.0000      -0.433094       -11.7851
 203   2.0000      -0.432419       -11.7667
 204   2.0000      -0.430606       -11.7174
 205   2.0000      -0.430255       -11.7078
 206   2.0000      -0.427211       -11.6250
 207   2.0000      -0.426715       -11.6115
 208   2.0000      -0.424652       -11.5554
 209   2.0000      -0.420886       -11.4529
 210   2.0000      -0.416271       -11.3273
 211   2.0000      -0.409936       -11.1549
 212   2.0000      -0.408536       -11.1168
 213   2.0000      -0.404888       -11.0176
 214   2.0000      -0.401618       -10.9286
 215   2.0000      -0.393582       -10.7099
 216   2.0000      -0.374447       -10.1892
 217   2.0000      -0.350592        -9.5401
 218   2.0000      -0.347163        -9.4468
 219   2.0000      -0.344658        -9.3786
 220   2.0000      -0.343107        -9.3364
 221   2.0000      -0.342836        -9.3290
 222   2.0000      -0.338664        -9.2155
 223   2.0000      -0.337019        -9.1708
 224   2.0000      -0.327165        -8.9026
 225   2.0000      -0.326710        -8.8902
 226   2.0000      -0.324721        -8.8361
 227   2.0000      -0.316785        -8.6202
 228   2.0000      -0.310931        -8.4609
 229   2.0000      -0.310255        -8.4425
 230   2.0000      -0.304233        -8.2786
 231   2.0000      -0.288698        -7.8559
 232   2.0000      -0.257540        -7.0080
 233   2.0000      -0.240459        -6.5432
 234   2.0000      -0.229871        -6.2551
 235   0.0000      -0.104670        -2.8482
 236   0.0000      -0.084892        -2.3100
 237   0.0000      -0.078841        -2.1454
 238   0.0000      -0.049143        -1.3372
 239   0.0000      -0.030008        -0.8165

MULLIKEN ATOMIC CHARGES
-----------------------
   0 C :    0.034558
   1 N :   -0.255614
   2 C :    0.112085
   3 C :   -0.004644
   4 C :    0.174094
   5 O :   -0.222362
   6 C :   -0.110064
   7 C :    0.006931
   8 C :    0.161584
   9 O :   -0.187182
  10 N :   -0.270016
  11 C :    0.099491
  12 C :    0.002606
  13 C :    0.156742
  14 C :   -0.034945
  15 C :    0.090340
  16 C :   -0.083418
  17 S :    0.176075
  18 C :   -0.054917
  19 C :   -0.076599
  20 C :    0.015835
  21 C :   -0.176295
  22 N :    0.110809
  23 C :    0.032708
  24 C :    0.045789
  25 C :   -0.095972
  26 S :    0.202678
  27 C :   -0.003470
  28 C :    0.056310
  29 C :    0.004289
  30 S :   -0.080649
  31 C :   -0.093822
  32 C :   -0.092519
  33 S :    0.187825
  34 C :    0.068060
  35 C :   -0.032956
  36 C :   -0.055372
  37 C :   -0.026717
  38 S :    0.122905
  39 C :   -0.041897
  40 C :   -0.045183
  41 C :   -0.018840
  42 C :   -0.189002
  43 N :    0.150416
  44 C :   -0.002250
  45 C :   -0.038926
  46 C :    0.140384
  47 N :   -0.260635
  48 C :    0.102019
  49 C :    0.002874
  50 C :    0.158172
  51 O :   -0.209977
  52 C :   -0.063714
  53 C :   -0.066273
  54 C :    0.158665
  55 O :   -0.198434
  56 N :   -0.258816
  57 C :    0.094535
  58 C :    0.003020
  59 C :    0.109903
  60 C :   -0.037464
  61 C :    0.014187
  62 H :    0.014036
  63 H :    0.041488
  64 H :    0.018461
  65 H :    0.030063
  66 H :    0.023535
  67 H :    0.016091
  68 H :    0.021059
  69 H :    0.042914
  70 H :    0.013081
  71 H :    0.023386
  72 H :    0.031532
  73 H :   -0.028627
  74 H :    0.008493
  75 H :   -0.003183
  76 H :   -0.015035
  77 H :    0.002418
  78 H :   -0.006630
  79 H :   -0.001902
  80 H :    0.001649
  81 H :    0.041336
  82 H :   -0.022503
  83 H :    0.020484
  84 H :    0.043102
  85 H :    0.013106
  86 H :    0.022548
  87 H :    0.030063
  88 H :    0.024146
  89 H :    0.049168
  90 H :    0.016150
  91 H :    0.023632
  92 H :    0.030144
  93 H :   -0.018060
  94 H :    0.056862
  95 H :    0.030051
Sum of atomic charges:   -0.0000000

LOEWDIN ATOMIC CHARGES
----------------------
   0 C :    0.085054
   1 N :    0.001313
   2 C :    0.038014
   3 C :   -0.060989
   4 C :    0.075207
   5 O :   -0.213117
   6 C :   -0.135938
   7 C :   -0.126676
   8 C :    0.082229
   9 O :   -0.190943
  10 N :   -0.009623
  11 C :    0.035131
  12 C :   -0.061793
  13 C :    0.086485
  14 C :   -0.051025
  15 C :    0.015734
  16 C :   -0.177450
  17 S :    0.480112
  18 C :   -0.131756
  19 C :   -0.113717
  20 C :   -0.011833
  21 C :   -0.028568
  22 N :   -0.062899
  23 C :   -0.054148
  24 C :   -0.016497
  25 C :   -0.170489
  26 S :    0.484382
  27 C :   -0.012506
  28 C :   -0.082781
  29 C :   -0.126419
  30 S :    0.107551
  31 C :   -0.185227
  32 C :   -0.178645
  33 S :    0.475368
  34 C :   -0.084523
  35 C :   -0.024211
  36 C :   -0.184063
  37 C :   -0.169725
  38 S :    0.449011
  39 C :   -0.142003
  40 C :   -0.088627
  41 C :   -0.041652
  42 C :   -0.033342
  43 N :   -0.039106
  44 C :    0.005561
  45 C :   -0.048334
  46 C :    0.069247
  47 N :   -0.002951
  48 C :    0.035922
  49 C :   -0.061516
  50 C :    0.079856
  51 O :   -0.204134
  52 C :   -0.126443
  53 C :   -0.117372
  54 C :    0.079304
  55 O :   -0.190576
  56 N :    0.001351
  57 C :    0.035993
  58 C :   -0.061303
  59 C :    0.081912
  60 C :   -0.054805
  61 C :    0.024768
  62 H :    0.031918
  63 H :    0.035772
  64 H :    0.024365
  65 H :    0.031378
  66 H :    0.030105
  67 H :    0.022547
  68 H :    0.021689
  69 H :    0.037905
  70 H :    0.020602
  71 H :    0.030402
  72 H :    0.032933
  73 H :    0.027021
  74 H :    0.037381
  75 H :    0.038110
  76 H :    0.029509
  77 H :    0.037506
  78 H :    0.037236
  79 H :    0.034894
  80 H :    0.035105
  81 H :    0.048066
  82 H :    0.021000
  83 H :    0.021872
  84 H :    0.037691
  85 H :    0.020797
  86 H :    0.030090
  87 H :    0.032626
  88 H :    0.022965
  89 H :    0.039462
  90 H :    0.022048
  91 H :    0.030683
  92 H :    0.032550
  93 H :    0.029763
  94 H :    0.032799
  95 H :    0.029425

  Mayer bond orders larger than 0.100000
B(  0-C ,  1-N ) :   1.1843 B(  0-C ,  7-C ) :   1.4628 B(  0-C , 62-H ) :   0.9906
B(  1-N ,  2-C ) :   0.9445 B(  1-N ,  4-C ) :   1.0647 B(  2-C ,  3-C ) :   1.1181
B(  2-C , 63-H ) :   0.9346 B(  2-C , 64-H ) :   0.9536 B(  3-C , 65-H ) :   0.9674
B(  3-C , 66-H ) :   0.9689 B(  3-C , 67-H ) :   0.9694 B(  4-C ,  5-O ) :   2.0016
B(  4-C ,  6-C ) :   1.0114 B(  5-O , 74-H ) :   0.1209 B(  6-C ,  7-C ) :   1.2016
B(  6-C , 13-C ) :   1.3744 B(  7-C ,  8-C ) :   0.9487 B(  8-C ,  9-O ) :   2.1740
B(  8-C , 10-N ) :   1.0192 B( 10-N , 11-C ) :   0.9494 B( 10-N , 13-C ) :   1.1533
B( 11-C , 12-C ) :   1.1188 B( 11-C , 68-H ) :   0.9501 B( 11-C , 69-H ) :   0.9273
B( 12-C , 70-H ) :   0.9685 B( 12-C , 71-H ) :   0.9683 B( 12-C , 72-H ) :   0.9641
B( 13-C , 14-C ) :   1.1617 B( 14-C , 15-C ) :   1.6333 B( 14-C , 73-H ) :   0.9628
B( 15-C , 16-C ) :   1.1171 B( 15-C , 74-H ) :   0.9339 B( 16-C , 17-S ) :   1.1155
B( 16-C , 20-C ) :   1.4673 B( 17-S , 18-C ) :   1.1521 B( 18-C , 19-C ) :   1.4206
B( 18-C , 23-C ) :   1.1652 B( 19-C , 20-C ) :   1.3116 B( 19-C , 21-C ) :   1.1175
B( 20-C , 75-H ) :   0.9987 B( 21-C , 22-N ) :   2.9664 B( 23-C , 24-C ) :   1.6809
B( 23-C , 76-H ) :   0.9458 B( 24-C , 25-C ) :   1.1454 B( 24-C , 77-H ) :   0.9442
B( 25-C , 26-S ) :   1.1016 B( 25-C , 27-C ) :   1.4420 B( 26-S , 31-C ) :   1.1347
B( 27-C , 28-C ) :   1.3150 B( 27-C , 78-H ) :   0.9943 B( 28-C , 29-C ) :   1.0164
B( 28-C , 31-C ) :   1.4333 B( 29-C , 30-S ) :   1.7610 B( 29-C , 34-C ) :   1.0197
B( 31-C , 32-C ) :   1.1642 B( 32-C , 33-S ) :   1.1275 B( 32-C , 34-C ) :   1.4550
B( 33-S , 36-C ) :   1.0971 B( 34-C , 35-C ) :   1.2936 B( 35-C , 36-C ) :   1.4633
B( 35-C , 79-H ) :   0.9932 B( 36-C , 37-C ) :   1.1660 B( 37-C , 38-S ) :   1.1225
B( 37-C , 41-C ) :   1.4864 B( 38-S , 39-C ) :   1.0971 B( 39-C , 40-C ) :   1.4461
B( 39-C , 44-C ) :   1.1976 B( 40-C , 41-C ) :   1.2818 B( 40-C , 42-C ) :   1.1019
B( 41-C , 80-H ) :   0.9985 B( 42-C , 43-N ) :   3.0249 B( 44-C , 45-C ) :   1.5713
B( 44-C , 81-H ) :   0.9417 B( 45-C , 46-C ) :   1.1667 B( 45-C , 82-H ) :   0.9592
B( 46-C , 47-N ) :   1.1499 B( 46-C , 53-C ) :   1.3582 B( 47-N , 48-C ) :   0.9496
B( 47-N , 50-C ) :   1.0574 B( 48-C , 49-C ) :   1.1195 B( 48-C , 83-H ) :   0.9497
B( 48-C , 84-H ) :   0.9276 B( 49-C , 85-H ) :   0.9688 B( 49-C , 86-H ) :   0.9681
B( 49-C , 87-H ) :   0.9638 B( 50-C , 51-O ) :   2.0470 B( 50-C , 52-C ) :   0.9835
B( 52-C , 53-C ) :   1.2390 B( 52-C , 59-C ) :   1.3656 B( 53-C , 54-C ) :   0.9873
B( 54-C , 55-O ) :   2.0368 B( 54-C , 56-N ) :   1.0530 B( 55-O , 81-H ) :   0.1082
B( 56-N , 57-C ) :   0.9459 B( 56-N , 59-C ) :   1.1724 B( 57-C , 58-C ) :   1.1202
B( 57-C , 88-H ) :   0.9507 B( 57-C , 89-H ) :   0.9284 B( 58-C , 90-H ) :   0.9687
B( 58-C , 91-H ) :   0.9680 B( 58-C , 92-H ) :   0.9637 B( 59-C , 60-C ) :   1.1267
B( 60-C , 61-C ) :   1.8892 B( 60-C , 93-H ) :   0.9530 B( 61-C , 94-H ) :   0.9259
B( 61-C , 95-H ) :   0.9444

-----------------------------------------------------------------------------
         ABSORPTION SPECTRUM VIA TRANSITION ELECTRIC DIPOLE MOMENTS
-----------------------------------------------------------------------------
State   Energy  Wavelength   fosc         T2         TX        TY        TZ
        (cm-1)    (nm)                  (au**2)     (au)      (au)      (au)
-----------------------------------------------------------------------------
   0   11697.1    854.9   0.356047516  10.02089   0.51622  -3.11981  -0.14557
   1   16245.9    615.5   1.346568158  27.28735   0.81602  -5.15553  -0.20492
   2   17849.3    560.2   0.000262449   0.00484  -0.02656   0.06422   0.00340
   3   18330.1    545.6   0.685469566  12.31116  -1.54391   3.14641   0.16614
   4   19439.2    514.4   0.067929692   1.15042   0.80737  -0.70101  -0.08467
   5   21633.0    462.3   0.413839549   6.29782  -0.17704  -2.49215  -0.23597
   6   22779.0    439.0   0.203813666   2.94560  -0.90645  -1.43749  -0.23994
   7   23759.6    420.9   0.038914042   0.53919  -0.12049  -0.72270   0.04873
   8   26192.4    381.8   0.039437806   0.49569  -0.70340   0.01486  -0.02646
   9   26712.6    374.4   0.025349227   0.31241  -0.47924   0.25295  -0.13694
  10   27359.7    365.5   0.112718618   1.35631  -0.13331  -1.15402   0.08233
  11   27531.1    363.2   0.005527097   0.06609  -0.14130  -0.20144   0.07449
  12   28492.3    351.0   0.003662429   0.04232   0.08850  -0.09639  -0.15873
  13   28755.4    347.8   0.113685396   1.30155   0.33154   1.06153   0.25454
  14   28952.8    345.4   0.004568768   0.05195  -0.04671   0.21264   0.06748
  15   29435.2    339.7   0.000950190   0.01063   0.05084   0.00465  -0.08956
  16   30608.5    326.7   0.007027149   0.07558   0.06571   0.26641  -0.01705
  17   31018.4    322.4   0.226356725   2.40242  -0.42630  -1.45333  -0.32942
  18   31355.0    318.9   0.070765962   0.74301   0.75160  -0.38836   0.16517
  19   32245.4    310.1   0.000494544   0.00505  -0.06512  -0.00807  -0.02727
  20   32525.1    307.5   0.094662045   0.95815  -0.86169  -0.28562  -0.36615
  21   33045.9    302.6   0.068406187   0.68148  -0.49045   0.66382   0.01670
  22   33302.8    300.3   0.149579596   1.47866  -1.07391  -0.45314  -0.34646
  23   33639.4    297.3   0.000218627   0.00214  -0.04138  -0.01544  -0.01373
  24   33887.8    295.1   0.047427833   0.46075  -0.55855  -0.29542  -0.24798
  25   34421.9    290.5   0.066081461   0.63201   0.52816  -0.54849   0.22849
  26   34963.4    286.0   0.092753694   0.87336  -0.22826   0.90242   0.08299
  27   35843.4    279.0   0.133232132   1.22370  -0.95635   0.42613  -0.35707
  28   36283.1    275.6   0.002088807   0.01895  -0.12565   0.00948  -0.05545
  29   36517.3    273.8   0.000712265   0.00642  -0.06293  -0.04911   0.00701
  30   36669.2    272.7   0.301208552   2.70422  -1.31482  -0.92867  -0.33623
  31   36829.2    271.5   0.020875860   0.18661   0.16488  -0.37185   0.14543
  32   37357.4    267.7   0.000026576   0.00023   0.00721   0.01215  -0.00588
  33   37499.3    266.7   0.005591471   0.04909   0.21786   0.02385   0.03250
  34   37714.1    265.2   0.006057508   0.05288  -0.14664   0.17147   0.04443
  35   38102.6    262.4   0.080465105   0.69523   0.78593  -0.13307   0.24460
  36   38292.3    261.1   0.031699067   0.27253   0.05887   0.51242   0.08055
  37   38830.0    257.5   0.173016224   1.46688   0.80122  -0.88201   0.21679
  38   39130.2    255.6   0.029511741   0.24829  -0.41439   0.25041  -0.11773
  39   39624.9    252.4   0.113552715   0.94342  -0.82285  -0.39789  -0.32867
  40   39892.9    250.7   0.001580556   0.01304  -0.06690   0.09254   0.00200
  41   40080.4    249.5   0.120719803   0.99157   0.45611  -0.87732   0.11768

FINAL SINGLE POINT ENERGY     -4428.125610098684

DIPOLE MOMENT
-------------
                                X             Y             Z
Electronic contribution:    -22.09314      -4.95604       1.84503
Nuclear contribution   :     23.74023       4.86078      -1.64845
                        -----------------------------------------
Total Dipole Moment    :      1.64709      -0.09526       0.19658
                        -----------------------------------------
Magnitude (a.u.)       :      1.66152
Magnitude (Debye)      :      4.22324

Rotational constants in cm-1:     0.003721     0.000186     0.000178
Rotational constants in MHz :   111.563990     5.589393     5.346985

                             ****ORCA TERMINATED NORMALLY****
TOTAL RUN TIME: 0 days 0 hours 8 minutes 10 seconds 602 msec
