                         Program Version 4.2.0 -  RELEASE  -
|  1> # ORCA input file
|  2> # SCF done       -190.195836916951          0.000683566113
|  3> ! CAM-B3LYP def2-SVP def2/J RIJCOSX Grid4 TightSCF
|  4> %maxcore 5000
|  5> %tddft
|  6>     Mode sTDDFT
|  7>     Ethresh 5.0
|  8>     maxcore 5000
|  9> end
| 10>
| 11> %pal
| 12>   nprocs 6
| 13>   end
| 14> * xyz 0 1
| 15>    C        2.62385        -0.20536         0.55296
| 16>    N        2.20624         0.41742        -0.57538
| 17>    C        2.38477        -0.05901        -1.92462
| 18>    C        3.81389         0.16520        -2.41148
| 19>    C        1.62122         1.67354        -0.28413
| 20>    O        1.17472         2.41291        -1.13783
| 21>    C        1.70521         1.77307         1.15407
| 22>    C        2.33325         0.58543         1.63429
| 23>    C        2.41568         0.67373         3.08005
| 24>    O        2.85401        -0.07688         3.92004
| 25>    N        1.82354         1.91827         3.37753
| 26>    C        1.75708         2.39988         4.73635
| 27>    C        2.86659         3.40420         5.03910
| 28>    C        1.40237         2.58269         2.24778
| 29>    C        0.77740         3.85175         2.27139
| 30>    C        0.35481         4.48527         1.14105
| 31>    C       -0.26136         5.75750         1.11513
| 32>    C       -0.71057         6.40482        -0.02009
| 33>    C       -1.23883         7.67388         0.33847
| 34>    C       -1.10332         7.77274         1.80748
| 35>    C       -0.52724         6.62929         2.25542
| 36>    C       -1.53179         8.82606         2.62518
| 37>    N       -1.88982         9.65686         3.33305
| 38>    C       -1.75487         8.64413        -0.49014
| 39>    C       -2.18156         9.95048        -0.11392
| 40>    C       -2.61658        10.62579        -1.23352
| 41>    C       -2.49799         9.72520        -2.37133
| 42>    C       -1.96649         8.54927        -1.94449
| 43>    C       -1.69348         7.44833        -2.76376
| 44>    N       -1.48314         6.56328        -3.46503
| 45>    C       -3.09381        11.97030        -1.30191
| 46>    C       -2.77765        12.92795        -0.30434
| 47>    C       -3.31374        14.26578        -0.33562
| 48>    N       -2.97664        15.15243         0.62287
| 49>    C       -2.17875        14.77709         1.58349
| 50>    C       -1.60003        13.46044         1.58774
| 51>    N       -1.90166        12.59532         0.65527
| 52>    C       -0.63850        13.10989         2.56933
| 53>    N        0.14780        12.86747         3.36568
| 54>    C       -1.83624        15.70541         2.60074
| 55>    N       -1.53859        16.43111         3.43469
| 56>    C       -4.16274        14.69490        -1.36484
| 57>    C       -4.44341        13.77457        -2.37840
| 58>    C       -3.90790        12.43031        -2.35722
| 59>    N       -4.33709        11.72475        -3.40854
| 60>    S       -5.29360        12.64104        -4.30679
| 61>    N       -5.24399        13.97495        -3.43172
| 62>    C       -4.73447        16.04147        -1.37372
| 63>    C       -4.60244        16.87201        -2.48585
| 64>    F       -3.89640        16.44943        -3.54390
| 65>    C       -5.14151        18.14846        -2.49971
| 66>    F       -4.95055        18.90954        -3.58785
| 67>    C       -5.84089        18.66517        -1.40664
| 68>    C       -5.96976        17.82658        -0.29695
| 69>    C       -5.43291        16.54873        -0.27874
| 70>    F       -5.64470        15.76699         0.78857
| 71>    F       -6.66412        18.24219         0.77228
| 72>    C       -6.41720        20.01660        -1.42665
| 73>    C       -7.13175        20.45946        -2.53345
| 74>    C       -7.68405        21.72974        -2.56360
| 75>    C       -8.52214        22.12916        -3.74673
| 76>    C      -10.00478        21.90714        -3.44520
| 77>    C       -7.51521        22.57536        -1.46394
| 78>    C       -6.79665        22.13795        -0.34137
| 79>    C       -6.25798        20.86413        -0.33325
| 80>    C       -6.63477        23.08460         0.81962
| 81>    C       -5.68743        22.62285         1.91949
| 82>    C       -8.09801        23.92935        -1.44528
| 83>    C       -7.69270        24.93402        -2.20748
| 84>    C       -8.27212        26.30753        -2.17472
| 85>    H        3.09258        -1.17141         0.51467
| 86>    H        1.68632         0.50471        -2.54867
| 87>    H        2.12882        -1.12145        -1.96523
| 88>    H        4.05420         1.22526        -2.38890
| 89>    H        3.91560        -0.19246        -3.43199
| 90>    H        4.52332        -0.36721        -1.78161
| 91>    H        1.87805         1.51955         5.37382
| 92>    H        0.77161         2.83542         4.92376
| 93>    H        3.83741         2.93596         4.89766
| 94>    H        2.78954         3.73808         6.07006
| 95>    H        2.80265         4.27044         4.38405
| 96>    H        0.63572         4.31848         3.23501
| 97>    H        0.49239         4.00344         0.18184
| 98>    H       -0.65395         6.02013        -1.01972
| 99>    H       -0.30421         6.40365         3.28148
|100>    H       -2.17023        10.33007         0.88667
|101>    H       -2.77771         9.97784        -3.37574
|102>    H       -7.28043        19.80017        -3.37535
|103>    H       -8.23529        21.52936        -4.61147
|104>    H       -8.36290        23.17827        -3.99052
|105>    H      -10.18972        20.86553        -3.19144
|106>    H      -10.61123        22.16782        -4.30947
|107>    H      -10.31395        22.52579        -2.60597
|108>    H       -5.69002        20.52180         0.51523
|109>    H       -7.62368        23.25965         1.25612
|110>    H       -6.28899        24.04596         0.42800
|111>    H       -6.05138        21.71611         2.39642
|112>    H       -5.61091        23.39588         2.68103
|113>    H       -4.69184        22.43919         1.52198
|114>    H       -8.88890        24.08844        -0.72031
|115>    H       -6.87750        24.78582        -2.90503
|116>    H       -9.08232        26.37373        -1.45254
|117>    H       -8.65454        26.57815        -3.15890
|118>    H       -7.50447        27.03484        -1.91104
|119> *
|120>
|121>                          ****END OF INPUT****

CARTESIAN COORDINATES (ANGSTROEM)
---------------------------------
  C      2.623850   -0.205360    0.552960
  N      2.206240    0.417420   -0.575380
  C      2.384770   -0.059010   -1.924620
  C      3.813890    0.165200   -2.411480
  C      1.621220    1.673540   -0.284130
  O      1.174720    2.412910   -1.137830
  C      1.705210    1.773070    1.154070
  C      2.333250    0.585430    1.634290
  C      2.415680    0.673730    3.080050
  O      2.854010   -0.076880    3.920040
  N      1.823540    1.918270    3.377530
  C      1.757080    2.399880    4.736350
  C      2.866590    3.404200    5.039100
  C      1.402370    2.582690    2.247780
  C      0.777400    3.851750    2.271390
  C      0.354810    4.485270    1.141050
  C     -0.261360    5.757500    1.115130
  C     -0.710570    6.404820   -0.020090
  C     -1.238830    7.673880    0.338470
  C     -1.103320    7.772740    1.807480
  C     -0.527240    6.629290    2.255420
  C     -1.531790    8.826060    2.625180
  N     -1.889820    9.656860    3.333050
  C     -1.754870    8.644130   -0.490140
  C     -2.181560    9.950480   -0.113920
  C     -2.616580   10.625790   -1.233520
  C     -2.497990    9.725200   -2.371330
  C     -1.966490    8.549270   -1.944490
  C     -1.693480    7.448330   -2.763760
  N     -1.483140    6.563280   -3.465030
  C     -3.093810   11.970300   -1.301910
  C     -2.777650   12.927950   -0.304340
  C     -3.313740   14.265780   -0.335620
  N     -2.976640   15.152430    0.622870
  C     -2.178750   14.777090    1.583490
  C     -1.600030   13.460440    1.587740
  N     -1.901660   12.595320    0.655270
  C     -0.638500   13.109890    2.569330
  N      0.147800   12.867470    3.365680
  C     -1.836240   15.705410    2.600740
  N     -1.538590   16.431110    3.434690
  C     -4.162740   14.694900   -1.364840
  C     -4.443410   13.774570   -2.378400
  C     -3.907900   12.430310   -2.357220
  N     -4.337090   11.724750   -3.408540
  S     -5.293600   12.641040   -4.306790
  N     -5.243990   13.974950   -3.431720
  C     -4.734470   16.041470   -1.373720
  C     -4.602440   16.872010   -2.485850
  F     -3.896400   16.449430   -3.543900
  C     -5.141510   18.148460   -2.499710
  F     -4.950550   18.909540   -3.587850
  C     -5.840890   18.665170   -1.406640
  C     -5.969760   17.826580   -0.296950
  C     -5.432910   16.548730   -0.278740
  F     -5.644700   15.766990    0.788570
  F     -6.664120   18.242190    0.772280
  C     -6.417200   20.016600   -1.426650
  C     -7.131750   20.459460   -2.533450
  C     -7.684050   21.729740   -2.563600
  C     -8.522140   22.129160   -3.746730
  C    -10.004780   21.907140   -3.445200
  C     -7.515210   22.575360   -1.463940
  C     -6.796650   22.137950   -0.341370
  C     -6.257980   20.864130   -0.333250
  C     -6.634770   23.084600    0.819620
  C     -5.687430   22.622850    1.919490
  C     -8.098010   23.929350   -1.445280
  C     -7.692700   24.934020   -2.207480
  C     -8.272120   26.307530   -2.174720
  H      3.092580   -1.171410    0.514670
  H      1.686320    0.504710   -2.548670
  H      2.128820   -1.121450   -1.965230
  H      4.054200    1.225260   -2.388900
  H      3.915600   -0.192460   -3.431990
  H      4.523320   -0.367210   -1.781610
  H      1.878050    1.519550    5.373820
  H      0.771610    2.835420    4.923760
  H      3.837410    2.935960    4.897660
  H      2.789540    3.738080    6.070060
  H      2.802650    4.270440    4.384050
  H      0.635720    4.318480    3.235010
  H      0.492390    4.003440    0.181840
  H     -0.653950    6.020130   -1.019720
  H     -0.304210    6.403650    3.281480
  H     -2.170230   10.330070    0.886670
  H     -2.777710    9.977840   -3.375740
  H     -7.280430   19.800170   -3.375350
  H     -8.235290   21.529360   -4.611470
  H     -8.362900   23.178270   -3.990520
  H    -10.189720   20.865530   -3.191440
  H    -10.611230   22.167820   -4.309470
  H    -10.313950   22.525790   -2.605970
  H     -5.690020   20.521800    0.515230
  H     -7.623680   23.259650    1.256120
  H     -6.288990   24.045960    0.428000
  H     -6.051380   21.716110    2.396420
  H     -5.610910   23.395880    2.681030
  H     -4.691840   22.439190    1.521980
  H     -8.888900   24.088440   -0.720310
  H     -6.877500   24.785820   -2.905030
  H     -9.082320   26.373730   -1.452540
  H     -8.654540   26.578150   -3.158900
  H     -7.504470   27.034840   -1.911040

 Total Charge           Charge          ....    0
 Multiplicity           Mult            ....    1
 Number of Electrons    NEL             ....  490
 Basis Dimension        Dim             .... 1154

ORBITAL ENERGIES
----------------

  NO   OCC          E(Eh)            E(eV)
   0   2.0000     -89.058120     -2423.3947
   1   2.0000     -24.797758      -674.7813
   2   2.0000     -24.797566      -674.7761
   3   2.0000     -24.792960      -674.6507
   4   2.0000     -24.792482      -674.6377
   5   2.0000     -19.197429      -522.3886
   6   2.0000     -19.188029      -522.1328
   7   2.0000     -14.465796      -393.6343
   8   2.0000     -14.465542      -393.6274
   9   2.0000     -14.463596      -393.5745
  10   2.0000     -14.461348      -393.5133
  11   2.0000     -14.458699      -393.4412
  12   2.0000     -14.454348      -393.3228
  13   2.0000     -14.431491      -392.7008
  14   2.0000     -14.428357      -392.6156
  15   2.0000     -14.412682      -392.1890
  16   2.0000     -14.405111      -391.9830
  17   2.0000     -10.387139      -282.6484
  18   2.0000     -10.386017      -282.6179
  19   2.0000     -10.377993      -282.3995
  20   2.0000     -10.377796      -282.3942
  21   2.0000     -10.377758      -282.3931
  22   2.0000     -10.374919      -282.3159
  23   2.0000     -10.372523      -282.2507
  24   2.0000     -10.372314      -282.2450
  25   2.0000     -10.356579      -281.8168
  26   2.0000     -10.355641      -281.7913
  27   2.0000     -10.354456      -281.7591
  28   2.0000     -10.351916      -281.6900
  29   2.0000     -10.345913      -281.5266
  30   2.0000     -10.335495      -281.2431
  31   2.0000     -10.331720      -281.1404
  32   2.0000     -10.329294      -281.0744
  33   2.0000     -10.329017      -281.0668
  34   2.0000     -10.324251      -280.9371
  35   2.0000     -10.323997      -280.9302
  36   2.0000     -10.322137      -280.8796
  37   2.0000     -10.321023      -280.8493
  38   2.0000     -10.316088      -280.7150
  39   2.0000     -10.314897      -280.6826
  40   2.0000     -10.314294      -280.6662
  41   2.0000     -10.312405      -280.6148
  42   2.0000     -10.312003      -280.6039
  43   2.0000     -10.311121      -280.5799
  44   2.0000     -10.309044      -280.5234
  45   2.0000     -10.308558      -280.5101
  46   2.0000     -10.307261      -280.4748
  47   2.0000     -10.307226      -280.4739
  48   2.0000     -10.305889      -280.4375
  49   2.0000     -10.303684      -280.3775
  50   2.0000     -10.300073      -280.2792
  51   2.0000     -10.291255      -280.0393
  52   2.0000     -10.289181      -279.9828
  53   2.0000     -10.279740      -279.7259
  54   2.0000     -10.267078      -279.3814
  55   2.0000     -10.266816      -279.3743
  56   2.0000     -10.266645      -279.3696
  57   2.0000     -10.266600      -279.3684
  58   2.0000     -10.266526      -279.3664
  59   2.0000     -10.266410      -279.3632
  60   2.0000     -10.265910      -279.3496
  61   2.0000     -10.263467      -279.2831
  62   2.0000     -10.261466      -279.2287
  63   2.0000     -10.260823      -279.2112
  64   2.0000     -10.260457      -279.2012
  65   2.0000     -10.260389      -279.1994
  66   2.0000     -10.259680      -279.1801
  67   2.0000     -10.256714      -279.0994
  68   2.0000     -10.249998      -278.9166
  69   2.0000     -10.249531      -278.9039
  70   2.0000      -8.149141      -221.7494
  71   2.0000      -6.120024      -166.5343
  72   2.0000      -6.112418      -166.3273
  73   2.0000      -6.112206      -166.3216
  74   2.0000      -1.319068       -35.8937
  75   2.0000      -1.318176       -35.8694
  76   2.0000      -1.302155       -35.4335
  77   2.0000      -1.301608       -35.4186
  78   2.0000      -1.153340       -31.3840
  79   2.0000      -1.136780       -30.9334
  80   2.0000      -1.128795       -30.7161
  81   2.0000      -1.126011       -30.6403
  82   2.0000      -1.067306       -29.0429
  83   2.0000      -1.058162       -28.7941
  84   2.0000      -1.052807       -28.6483
  85   2.0000      -1.020159       -27.7599
  86   2.0000      -1.015399       -27.6304
  87   2.0000      -1.008979       -27.4557
  88   2.0000      -1.003046       -27.2943
  89   2.0000      -1.001362       -27.2485
  90   2.0000      -0.993334       -27.0300
  91   2.0000      -0.987761       -26.8783
  92   2.0000      -0.983201       -26.7543
  93   2.0000      -0.974933       -26.5293
  94   2.0000      -0.956516       -26.0281
  95   2.0000      -0.931566       -25.3492
  96   2.0000      -0.919962       -25.0335
  97   2.0000      -0.915844       -24.9214
  98   2.0000      -0.913257       -24.8510
  99   2.0000      -0.895537       -24.3688
 100   2.0000      -0.882154       -24.0046
 101   2.0000      -0.878510       -23.9055
 102   2.0000      -0.874736       -23.8028
 103   2.0000      -0.864824       -23.5330
 104   2.0000      -0.857538       -23.3348
 105   2.0000      -0.851212       -23.1626
 106   2.0000      -0.848673       -23.0936
 107   2.0000      -0.837618       -22.7928
 108   2.0000      -0.836461       -22.7613
 109   2.0000      -0.823445       -22.4071
 110   2.0000      -0.820176       -22.3181
 111   2.0000      -0.815896       -22.2017
 112   2.0000      -0.805067       -21.9070
 113   2.0000      -0.795587       -21.6490
 114   2.0000      -0.792960       -21.5776
 115   2.0000      -0.778871       -21.1942
 116   2.0000      -0.763819       -20.7846
 117   2.0000      -0.763752       -20.7828
 118   2.0000      -0.751670       -20.4540
 119   2.0000      -0.740734       -20.1564
 120   2.0000      -0.731438       -19.9034
 121   2.0000      -0.727992       -19.8097
 122   2.0000      -0.725003       -19.7283
 123   2.0000      -0.720067       -19.5940
 124   2.0000      -0.713301       -19.4099
 125   2.0000      -0.709864       -19.3164
 126   2.0000      -0.704228       -19.1630
 127   2.0000      -0.700146       -19.0519
 128   2.0000      -0.690152       -18.7800
 129   2.0000      -0.687427       -18.7058
 130   2.0000      -0.678592       -18.4654
 131   2.0000      -0.674154       -18.3447
 132   2.0000      -0.667573       -18.1656
 133   2.0000      -0.660205       -17.9651
 134   2.0000      -0.657324       -17.8867
 135   2.0000      -0.654575       -17.8119
 136   2.0000      -0.643959       -17.5230
 137   2.0000      -0.640118       -17.4185
 138   2.0000      -0.636150       -17.3105
 139   2.0000      -0.632823       -17.2200
 140   2.0000      -0.632326       -17.2065
 141   2.0000      -0.626035       -17.0353
 142   2.0000      -0.623884       -16.9767
 143   2.0000      -0.614559       -16.7230
 144   2.0000      -0.611241       -16.6327
 145   2.0000      -0.609294       -16.5797
 146   2.0000      -0.594714       -16.1830
 147   2.0000      -0.591552       -16.0969
 148   2.0000      -0.590136       -16.0584
 149   2.0000      -0.588726       -16.0201
 150   2.0000      -0.582520       -15.8512
 151   2.0000      -0.581656       -15.8277
 152   2.0000      -0.576689       -15.6925
 153   2.0000      -0.572168       -15.5695
 154   2.0000      -0.565101       -15.3772
 155   2.0000      -0.561417       -15.2769
 156   2.0000      -0.560328       -15.2473
 157   2.0000      -0.558279       -15.1915
 158   2.0000      -0.552542       -15.0354
 159   2.0000      -0.550983       -14.9930
 160   2.0000      -0.546904       -14.8820
 161   2.0000      -0.545155       -14.8344
 162   2.0000      -0.543421       -14.7872
 163   2.0000      -0.540473       -14.7070
 164   2.0000      -0.538714       -14.6592
 165   2.0000      -0.534115       -14.5340
 166   2.0000      -0.533489       -14.5170
 167   2.0000      -0.530014       -14.4224
 168   2.0000      -0.526725       -14.3329
 169   2.0000      -0.523142       -14.2354
 170   2.0000      -0.518771       -14.1165
 171   2.0000      -0.517049       -14.0696
 172   2.0000      -0.516703       -14.0602
 173   2.0000      -0.511758       -13.9256
 174   2.0000      -0.508885       -13.8475
 175   2.0000      -0.506845       -13.7920
 176   2.0000      -0.504650       -13.7322
 177   2.0000      -0.502066       -13.6619
 178   2.0000      -0.500851       -13.6288
 179   2.0000      -0.500557       -13.6209
 180   2.0000      -0.496458       -13.5093
 181   2.0000      -0.495532       -13.4841
 182   2.0000      -0.495323       -13.4784
 183   2.0000      -0.489759       -13.3270
 184   2.0000      -0.487455       -13.2643
 185   2.0000      -0.487280       -13.2596
 186   2.0000      -0.485373       -13.2077
 187   2.0000      -0.481873       -13.1124
 188   2.0000      -0.480288       -13.0693
 189   2.0000      -0.479022       -13.0348
 190   2.0000      -0.473571       -12.8865
 191   2.0000      -0.467666       -12.7258
 192   2.0000      -0.466294       -12.6885
 193   2.0000      -0.463552       -12.6139
 194   2.0000      -0.462227       -12.5778
 195   2.0000      -0.460488       -12.5305
 196   2.0000      -0.458176       -12.4676
 197   2.0000      -0.456113       -12.4115
 198   2.0000      -0.453656       -12.3446
 199   2.0000      -0.452301       -12.3077
 200   2.0000      -0.451854       -12.2956
 201   2.0000      -0.449963       -12.2441
 202   2.0000      -0.448454       -12.2031
 203   2.0000      -0.447089       -12.1659
 204   2.0000      -0.444356       -12.0915
 205   2.0000      -0.443061       -12.0563
 206   2.0000      -0.441211       -12.0060
 207   2.0000      -0.437439       -11.9033
 208   2.0000      -0.436188       -11.8693
 209   2.0000      -0.435000       -11.8369
 210   2.0000      -0.434718       -11.8293
 211   2.0000      -0.433532       -11.7970
 212   2.0000      -0.433059       -11.7841
 213   2.0000      -0.431221       -11.7341
 214   2.0000      -0.428092       -11.6490
 215   2.0000      -0.426378       -11.6023
 216   2.0000      -0.423329       -11.5194
 217   2.0000      -0.421761       -11.4767
 218   2.0000      -0.418202       -11.3799
 219   2.0000      -0.417244       -11.3538
 220   2.0000      -0.416088       -11.3223
 221   2.0000      -0.412389       -11.2217
 222   2.0000      -0.411304       -11.1922
 223   2.0000      -0.409400       -11.1403
 224   2.0000      -0.408219       -11.1082
 225   2.0000      -0.398337       -10.8393
 226   2.0000      -0.395770       -10.7695
 227   2.0000      -0.391572       -10.6552
 228   2.0000      -0.389395       -10.5960
 229   2.0000      -0.376945       -10.2572
 230   2.0000      -0.364158        -9.9092
 231   2.0000      -0.353647        -9.6232
 232   2.0000      -0.353046        -9.6069
 233   2.0000      -0.350157        -9.5282
 234   2.0000      -0.340451        -9.2642
 235   2.0000      -0.333042        -9.0625
 236   2.0000      -0.326336        -8.8801
 237   2.0000      -0.320586        -8.7236
 238   2.0000      -0.317848        -8.6491
 239   2.0000      -0.313779        -8.5383
 240   2.0000      -0.305578        -8.3152
 241   2.0000      -0.301128        -8.1941
 242   2.0000      -0.290329        -7.9003
 243   2.0000      -0.276903        -7.5349
 244   2.0000      -0.247960        -6.7473
 245   0.0000      -0.139860        -3.8058
 246   0.0000      -0.112287        -3.0555
 247   0.0000      -0.062453        -1.6994
 248   0.0000      -0.052501        -1.4286
 249   0.0000      -0.042765        -1.1637

MULLIKEN ATOMIC CHARGES
-----------------------
   0 C :    0.049376
   1 N :   -0.254786
   2 C :    0.108533
   3 C :   -0.001997
   4 C :    0.177264
   5 O :   -0.199081
   6 C :   -0.100348
   7 C :   -0.004143
   8 C :    0.163194
   9 O :   -0.182436
  10 N :   -0.269081
  11 C :    0.099127
  12 C :    0.004037
  13 C :    0.162987
  14 C :   -0.023755
  15 C :    0.011694
  16 C :    0.114021
  17 C :   -0.103781
  18 C :    0.123099
  19 C :   -0.094592
  20 C :   -0.006776
  21 C :   -0.160910
  22 N :    0.133074
  23 C :    0.116385
  24 C :   -0.092489
  25 C :   -0.034732
  26 C :    0.007412
  27 C :   -0.088770
  28 C :   -0.185238
  29 N :    0.142579
  30 C :    0.179481
  31 C :   -0.056383
  32 C :   -0.063941
  33 N :    0.066077
  34 C :   -0.133533
  35 C :   -0.120438
  36 N :    0.045241
  37 C :   -0.200488
  38 N :    0.243505
  39 C :   -0.197659
  40 N :    0.239984
  41 C :    0.081022
  42 C :   -0.006765
  43 C :    0.001460
  44 N :   -0.289726
  45 S :    0.568836
  46 N :   -0.258648
  47 C :   -0.177609
  48 C :    0.228923
  49 F :   -0.168007
  50 C :    0.162628
  51 F :   -0.169358
  52 C :   -0.047191
  53 C :    0.163613
  54 C :    0.234803
  55 F :   -0.168482
  56 F :   -0.167780
  57 C :    0.103727
  58 C :   -0.066569
  59 C :   -0.065286
  60 C :    0.103349
  61 C :    0.025961
  62 C :   -0.007700
  63 C :   -0.051953
  64 C :   -0.084837
  65 C :    0.072653
  66 C :    0.031312
  67 C :   -0.070215
  68 C :   -0.073736
  69 C :    0.076669
  70 H :    0.017723
  71 H :    0.046801
  72 H :    0.020364
  73 H :    0.032846
  74 H :    0.025720
  75 H :    0.015405
  76 H :    0.045195
  77 H :    0.021095
  78 H :    0.031783
  79 H :    0.025320
  80 H :    0.012809
  81 H :   -0.029686
  82 H :    0.016944
  83 H :    0.019539
  84 H :    0.001018
  85 H :    0.009348
  86 H :    0.005351
  87 H :   -0.036241
  88 H :   -0.004869
  89 H :   -0.005750
  90 H :    0.005667
  91 H :    0.011990
  92 H :    0.008032
  93 H :   -0.030877
  94 H :    0.009436
  95 H :    0.016414
  96 H :    0.021280
  97 H :    0.010562
  98 H :    0.016844
  99 H :    0.004596
 100 H :    0.004744
 101 H :    0.011309
 102 H :    0.021384
 103 H :    0.025095
Sum of atomic charges:   -0.0000000

LOEWDIN ATOMIC CHARGES
----------------------
   0 C :    0.096616
   1 N :    0.003700
   2 C :    0.038906
   3 C :   -0.060127
   4 C :    0.078911
   5 O :   -0.189444
   6 C :   -0.120305
   7 C :   -0.129484
   8 C :    0.080676
   9 O :   -0.188413
  10 N :   -0.008660
  11 C :    0.035806
  12 C :   -0.061012
  13 C :    0.078898
  14 C :   -0.035070
  15 C :    0.034298
  16 C :   -0.013556
  17 C :   -0.009671
  18 C :    0.044567
  19 C :   -0.073992
  20 C :    0.053856
  21 C :   -0.029399
  22 N :   -0.056336
  23 C :    0.032665
  24 C :    0.012097
  25 C :   -0.021154
  26 C :    0.061004
  27 C :   -0.089666
  28 C :   -0.032795
  29 N :   -0.061574
  30 C :   -0.004909
  31 C :   -0.001505
  32 C :   -0.001493
  33 N :    0.006478
  34 C :   -0.018626
  35 C :   -0.019452
  36 N :    0.013559
  37 C :   -0.035741
  38 N :    0.004489
  39 C :   -0.033992
  40 N :    0.001875
  41 C :   -0.009479
  42 C :   -0.040115
  43 C :   -0.038372
  44 N :   -0.284213
  45 S :    0.704067
  46 N :   -0.276968
  47 C :   -0.070372
  48 C :    0.069543
  49 F :   -0.046609
  50 C :    0.057513
  51 F :   -0.046417
  52 C :   -0.045546
  53 C :    0.058173
  54 C :    0.070197
  55 F :   -0.046052
  56 F :   -0.044998
  57 C :   -0.027429
  58 C :   -0.018875
  59 C :   -0.011048
  60 C :   -0.027523
  61 C :   -0.048076
  62 C :   -0.023813
  63 C :   -0.011574
  64 C :   -0.022084
  65 C :   -0.032097
  66 C :   -0.055308
  67 C :   -0.035433
  68 C :   -0.021141
  69 C :   -0.054273
  70 H :    0.034411
  71 H :    0.038060
  72 H :    0.025681
  73 H :    0.032449
  74 H :    0.031358
  75 H :    0.022563
  76 H :    0.038879
  77 H :    0.021605
  78 H :    0.033364
  79 H :    0.031508
  80 H :    0.020540
  81 H :    0.027690
  82 H :    0.043732
  83 H :    0.041938
  84 H :    0.035696
  85 H :    0.031762
  86 H :    0.034625
  87 H :    0.023146
  88 H :    0.024034
  89 H :    0.026079
  90 H :    0.022163
  91 H :    0.022433
  92 H :    0.022517
  93 H :    0.024480
  94 H :    0.032332
  95 H :    0.032964
  96 H :    0.024806
  97 H :    0.027183
  98 H :    0.024627
  99 H :    0.024922
 100 H :    0.023846
 101 H :    0.028156
 102 H :    0.032884
 103 H :    0.033866

  Mayer bond orders larger than 0.100000
B(  0-C ,  1-N ) :   1.2053 B(  0-C ,  7-C ) :   1.4382 B(  0-C , 70-H ) :   0.9898
B(  1-N ,  2-C ) :   0.9406 B(  1-N ,  4-C ) :   1.0494 B(  2-C ,  3-C ) :   1.1193
B(  2-C , 71-H ) :   0.9345 B(  2-C , 72-H ) :   0.9537 B(  3-C , 73-H ) :   0.9673
B(  3-C , 74-H ) :   0.9690 B(  3-C , 75-H ) :   0.9688 B(  4-C ,  5-O ) :   2.0283
B(  4-C ,  6-C ) :   0.9975 B(  5-O , 82-H ) :   0.1091 B(  6-C ,  7-C ) :   1.2180
B(  6-C , 13-C ) :   1.3691 B(  7-C ,  8-C ) :   0.9501 B(  8-C ,  9-O ) :   2.1795
B(  8-C , 10-N ) :   1.0174 B( 10-N , 11-C ) :   0.9466 B( 10-N , 13-C ) :   1.1567
B( 11-C , 12-C ) :   1.1197 B( 11-C , 76-H ) :   0.9269 B( 11-C , 77-H ) :   0.9500
B( 12-C , 78-H ) :   0.9640 B( 12-C , 79-H ) :   0.9681 B( 12-C , 80-H ) :   0.9683
B( 13-C , 14-C ) :   1.1559 B( 14-C , 15-C ) :   1.5554 B( 14-C , 81-H ) :   0.9640
B( 15-C , 16-C ) :   1.1281 B( 15-C , 82-H ) :   0.9600 B( 16-C , 17-C ) :   1.5002
B( 16-C , 20-C ) :   1.0269 B( 17-C , 18-C ) :   1.1148 B( 17-C , 83-H ) :   1.0149
B( 18-C , 19-C ) :   1.0946 B( 18-C , 23-C ) :   1.4012 B( 19-C , 20-C ) :   1.6966
B( 19-C , 21-C ) :   1.0898 B( 20-C , 84-H ) :   1.0158 B( 21-C , 22-N ) :   2.9486
B( 23-C , 24-C ) :   1.0943 B( 23-C , 27-C ) :   1.1136 B( 24-C , 25-C ) :   1.5527
B( 24-C , 85-H ) :   0.9944 B( 25-C , 26-C ) :   1.0698 B( 25-C , 30-C ) :   1.0400
B( 26-C , 27-C ) :   1.6412 B( 26-C , 86-H ) :   1.0148 B( 27-C , 28-C ) :   1.0836
B( 28-C , 29-N ) :   2.9760 B( 30-C , 31-C ) :   1.2746 B( 30-C , 41-C ) :   0.1440
B( 30-C , 43-C ) :   1.2365 B( 31-C , 32-C ) :   1.0989 B( 31-C , 36-N ) :   1.4413
B( 32-C , 33-N ) :   1.4184 B( 32-C , 41-C ) :   1.3498 B( 33-N , 34-C ) :   1.7659
B( 34-C , 35-C ) :   1.1864 B( 34-C , 39-C ) :   1.1453 B( 35-C , 36-N ) :   1.7397
B( 35-C , 37-C ) :   1.1480 B( 37-C , 38-N ) :   3.0388 B( 39-C , 40-N ) :   3.0510
B( 41-C , 42-C ) :   1.2904 B( 41-C , 47-C ) :   0.9332 B( 42-C , 43-C ) :   1.0972
B( 42-C , 46-N ) :   1.4939 B( 43-C , 44-N ) :   1.4904 B( 44-N , 45-S ) :   1.2986
B( 44-N , 46-N ) :   0.1580 B( 45-S , 46-N ) :   1.3110 B( 47-C , 48-C ) :   1.3318
B( 47-C , 52-C ) :   0.1331 B( 47-C , 54-C ) :   1.3295 B( 48-C , 49-F ) :   1.1732
B( 48-C , 50-C ) :   1.2846 B( 50-C , 51-F ) :   1.1531 B( 50-C , 52-C ) :   1.3371
B( 52-C , 53-C ) :   1.3355 B( 52-C , 57-C ) :   0.9436 B( 53-C , 54-C ) :   1.2859
B( 53-C , 56-F ) :   1.1542 B( 54-C , 55-F ) :   1.1708 B( 57-C , 58-C ) :   1.3713
B( 57-C , 64-C ) :   1.3258 B( 58-C , 59-C ) :   1.3826 B( 58-C , 87-H ) :   0.9945
B( 59-C , 60-C ) :   1.0567 B( 59-C , 62-C ) :   1.4214 B( 60-C , 61-C ) :   1.1048
B( 60-C , 88-H ) :   0.9264 B( 60-C , 89-H ) :   0.9109 B( 61-C , 90-H ) :   0.9664
B( 61-C , 91-H ) :   0.9675 B( 61-C , 92-H ) :   0.9703 B( 62-C , 63-C ) :   1.4049
B( 62-C , 67-C ) :   0.9919 B( 63-C , 64-C ) :   1.4050 B( 63-C , 65-C ) :   1.0420
B( 64-C , 93-H ) :   0.9897 B( 65-C , 66-C ) :   1.1289 B( 65-C , 94-H ) :   0.9091
B( 65-C , 95-H ) :   0.9081 B( 66-C , 96-H ) :   0.9567 B( 66-C , 97-H ) :   0.9585
B( 66-C , 98-H ) :   0.9646 B( 67-C , 68-C ) :   1.9466 B( 67-C , 99-H ) :   0.9281
B( 68-C , 69-C ) :   1.0688 B( 68-C ,100-H ) :   0.9559 B( 69-C ,101-H ) :   0.9675
B( 69-C ,102-H ) :   0.9533 B( 69-C ,103-H ) :   0.9561

-----------------------------------------------------------------------------
         ABSORPTION SPECTRUM VIA TRANSITION ELECTRIC DIPOLE MOMENTS
-----------------------------------------------------------------------------
State   Energy  Wavelength   fosc         T2         TX        TY        TZ
        (cm-1)    (nm)                  (au**2)     (au)      (au)      (au)
-----------------------------------------------------------------------------
   0   10409.5    960.7   0.602787345  19.06379  -1.74600   3.94580  -0.66779
   1   14632.9    683.4   0.130613001   2.93853   0.50080  -1.56115   0.50055
   2   16941.3    590.3   0.016089545   0.31266  -0.12598   0.52862   0.13172
   3   18711.3    534.4   0.044313064   0.77966  -0.19049   0.51012   0.69509
   4   19357.3    516.6   0.073428407   1.24881  -0.49176   1.00278  -0.03767
   5   20310.7    492.4   0.031748254   0.51460   0.35047  -0.54885   0.30089
   6   21463.7    465.9   0.003269781   0.05015  -0.10002  -0.02979   0.19814
   7   22893.1    436.8   0.259774254   3.73565   0.68633  -1.80029   0.15351
   8   23827.4    419.7   0.109224815   1.50911  -0.18907   0.39095   1.14914
   9   24793.1    403.3   0.039238239   0.52102  -0.14188   0.32644   0.62795
  10   24954.2    400.7   0.000643922   0.00850   0.02684   0.08615   0.01879
  11   25635.6    390.1   0.029446822   0.37816  -0.08418   0.48890  -0.36338
  12   26195.8    381.7   0.000560968   0.00705   0.04417   0.06288   0.03384
  13   26877.0    372.1   0.053887976   0.66006  -0.15608   0.79165   0.09480
  14   27545.9    363.0   0.076863605   0.91863  -0.26241   0.80678  -0.44595
  15   27926.2    358.1   0.044303741   0.52228   0.00384  -0.72061  -0.05462
  16   28181.4    354.8   0.160738495   1.87773  -0.68379   0.60742  -1.02039
  17   29376.5    340.4   0.133066524   1.49123  -0.42739   1.09925  -0.31657
  18   29918.9    334.2   0.033026523   0.36341  -0.32880   0.42277  -0.27670
  19   30656.3    326.2   0.000140501   0.00151   0.00671   0.03649  -0.01149
  20   30836.7    324.3   0.001026875   0.01096  -0.02931   0.02931  -0.09615
  21   30971.2    322.9   0.003723173   0.03958   0.12734  -0.13149  -0.07791
  22   31968.3    312.8   0.017272600   0.17787  -0.29397   0.13641  -0.26991
  23   32038.1    312.1   0.000504951   0.00519   0.03468  -0.01819   0.06045
  24   32413.9    308.5   0.418143792   4.24688  -1.21396   0.10919  -1.66170
  25   32565.1    307.1   0.081015132   0.81901  -0.41441  -0.15890  -0.78869
  26   33143.7    301.7   0.005683948   0.05646  -0.04442  -0.20357  -0.11421
  27   33295.7    300.3   0.387702014   3.83341  -0.88617   1.61187  -0.67080
  28   33681.1    296.9   0.001002467   0.00980  -0.02933   0.01369  -0.09355
  29   34025.6    293.9   0.002253552   0.02180  -0.05979   0.09640   0.09454
  30   34276.7    291.7   0.084324716   0.80990   0.54586  -0.03600   0.71459
  31   35199.6    284.1   0.000573142   0.00536  -0.06562   0.02997   0.01251
  32   35880.1    278.7   0.045556684   0.41800  -0.07488   0.64215  -0.00614
  33   35891.1    278.6   0.091731552   0.84141   0.63030  -0.00428   0.66642
  34   35925.0    278.4   0.214094785   1.96194   0.86548  -0.04042   1.10057
  35   36165.6    276.5   0.081817460   0.74478   0.43031  -0.21934   0.71519
  36   36588.9    273.3   0.175196992   1.57635  -0.56672  -0.24239  -1.09381
  37   36781.3    271.9   0.031428526   0.28130   0.15816  -0.14480  -0.48510
  38   37495.6    266.7   0.150984278   1.32564  -0.18509   1.11735   0.20715
  39   37537.3    266.4   0.481414478   4.22213   0.84980  -1.10062   1.51281
  40   37786.4    264.6   0.014322915   0.12479   0.13542  -0.32570  -0.01917
  41   38241.4    261.5   0.094326120   0.81203  -0.11778   0.85005   0.27491
  42   38582.5    259.2   0.001723526   0.01471  -0.05123   0.01875  -0.10831
  43   39177.0    255.3   0.308079076   2.58885  -0.34266   1.55430   0.23577
  44   39251.7    254.8   0.192817267   1.61720   0.44939  -1.12021  -0.40046
  45   39386.2    253.9   0.002126229   0.01777   0.05897  -0.10908  -0.04894
  46   39520.4    253.0   0.014758900   0.12294   0.18431  -0.25033   0.16220
  47   39964.1    250.2   0.127545444   1.05068   0.37353  -0.79818   0.52352
  48   40161.4    249.0   0.000754652   0.00619  -0.04962  -0.05480   0.02686

FINAL SINGLE POINT ENERGY     -3531.498171782743

DIPOLE MOMENT
-------------
                                X             Y             Z
Electronic contribution:     -0.24015     -16.81379      -9.72882
Nuclear contribution   :     -0.81531      16.73527       7.78002
                        -----------------------------------------
Total Dipole Moment    :     -1.05546      -0.07852      -1.94880
                        -----------------------------------------
Magnitude (a.u.)       :      2.21765
Magnitude (Debye)      :      5.63683

Rotational constants in cm-1:     0.003012     0.000263     0.000247
Rotational constants in MHz :    90.290084     7.883473     7.392585

                             ****ORCA TERMINATED NORMALLY****
TOTAL RUN TIME: 0 days 0 hours 10 minutes 40 seconds 207 msec
