                         Program Version 4.2.0 -  RELEASE  -
|  1> # ORCA input file
|  2> # SCF done       -196.464661860826          0.000559446001
|  3> ! CAM-B3LYP def2-SVP def2/J RIJCOSX Grid4 TightSCF
|  4> %maxcore 5000
|  5> %tddft
|  6>     Mode sTDDFT
|  7>     Ethresh 5.0
|  8>     maxcore 5000
|  9> end
| 10>
| 11> %pal
| 12>   nprocs 6
| 13>   end
| 14> * xyz 0 1
| 15>    C        4.16332        -2.34244         2.08708
| 16>    C        3.94270        -3.25871         3.25170
| 17>    O        3.08286        -4.10692         3.32555
| 18>    C        5.01091        -2.92086         4.20071
| 19>    C        5.71395        -1.80281         3.73927
| 20>    C        5.09990        -1.31515         2.51052
| 21>    C        5.20171        -0.05452         1.99856
| 22>    C        4.36649         0.44028         0.97234
| 23>    N        3.65578         0.91869         0.20900
| 24>    C        6.06168         0.93955         2.51363
| 25>    N        6.73966         1.78038         2.89924
| 26>    C        6.80820        -1.30313         4.45664
| 27>    C        7.16551        -1.92110         5.62687
| 28>    C        6.46332        -3.03776         6.13306
| 29>    C        5.35623        -3.56507         5.40612
| 30>    C        4.66260        -4.68267         5.91162
| 31>    C        5.04697        -5.25225         7.09494
| 32>    C        6.13419        -4.73528         7.81673
| 33>    C        6.82829        -3.65334         7.34717
| 34>    C        3.62906        -2.63243         0.88180
| 35>    C        3.99293        -2.05213        -0.37233
| 36>    N        5.20229        -1.57260        -0.59504
| 37>    C        5.18936        -1.12186        -1.87155
| 38>    C        3.88196        -1.33017        -2.49633
| 39>    C        3.87841        -0.80119        -3.86557
| 40>    O        2.97438        -0.80069        -4.67637
| 41>    C        5.24746        -0.26651        -4.01153
| 42>    C        6.01600        -0.49180        -2.76863
| 43>    N        7.27386         0.00102        -2.88675
| 44>    C        7.32919         0.51117        -4.09129
| 45>    C        6.09562         0.38115        -4.84808
| 46>    C        3.09649        -1.94183        -1.54436
| 47>    C        1.73981        -2.34795        -1.57167
| 48>    C        0.93868        -2.14886        -2.65109
| 49>    C       -0.42345        -2.52088        -2.72667
| 50>    N       -1.17537        -2.20885        -3.83822
| 51>    C       -2.43989        -2.66573        -3.65133
| 52>    C       -3.70212        -2.74812        -4.21409
| 53>    C       -4.50412        -3.44100        -3.28412
| 54>    N       -3.73754        -3.76969        -2.18122
| 55>    C       -2.48051        -3.30284        -2.37411
| 56>    C       -1.22427        -3.20850        -1.79742
| 57>    C       -5.86502        -3.76402        -3.41896
| 58>    C       -6.60582        -4.49518        -2.53172
| 59>    C       -7.97226        -4.76132        -2.74186
| 60>    N       -8.64488        -4.26150        -3.78222
| 61>    C       -9.89869        -4.70812        -3.65990
| 62>    C      -10.06360        -5.54759        -2.45982
| 63>    C      -11.45025        -6.03789        -2.36087
| 64>    O      -11.94426        -6.73452        -1.49517
| 65>    C      -12.08202        -5.46532        -3.55361
| 66>    C      -11.11242        -4.65443        -4.31524
| 67>    N      -11.69037        -4.12488        -5.41463
| 68>    C      -12.93492        -4.55400        -5.38845
| 69>    C      -13.24463        -5.39570        -4.25957
| 70>    C       -8.82784        -5.59754        -1.86420
| 71>    C       -8.39985        -6.30927        -0.70908
| 72>    C       -9.24081        -7.08227         0.01820
| 73>    C       -8.83529        -7.85282         1.13713
| 74>    C       -9.57111        -8.83639         1.71567
| 75>    C       -9.25664        -9.33536         3.08192
| 76>    O       -8.21813        -9.16088         3.68316
| 77>    C      -10.48588       -10.01188         3.53189
| 78>    C      -11.41481       -10.03742         2.48928
| 79>    C      -10.81368        -9.45325         1.29378
| 80>    C      -11.22217        -9.65525         0.00408
| 81>    C      -10.43023        -9.36026        -1.12860
| 82>    N       -9.78962        -9.23099        -2.07188
| 83>    C      -12.41787       -10.31442        -0.35196
| 84>    N      -13.37818       -10.84199        -0.69279
| 85>    C      -12.68408       -10.59890         2.67892
| 86>    C      -12.99190       -11.13312         3.90288
| 87>    C      -12.06910       -11.14141         4.97216
| 88>    C      -10.77837       -10.56404         4.79478
| 89>    C       -9.86246       -10.56996         5.86628
| 90>    C      -10.21010       -11.12955         7.06485
| 91>    C      -11.47943       -11.70204         7.24445
| 92>    C      -12.38911       -11.70759         6.22286
| 93>    H        7.36604        -0.45699         4.09008
| 94>    H        8.00877        -1.55032         6.19132
| 95>    H        3.82895        -5.07259         5.34938
| 96>    H        4.51358        -6.10698         7.48289
| 97>    H        6.41987        -5.20023         8.74849
| 98>    H        7.66505        -3.25359         7.90116
| 99>    H        2.89281        -3.42882         0.86387
|100>    H        8.23391         0.97467        -4.44450
|101>    H        5.93875         0.73545        -5.84769
|102>    H        1.34251        -2.81654        -0.68313
|103>    H        1.35569        -1.66108        -3.52324
|104>    H       -0.81844        -1.71019        -4.63634
|105>    H       -4.04049        -2.37894        -5.16090
|106>    H       -4.07712        -4.25205        -1.36806
|107>    H       -0.90517        -3.57968        -0.84522
|108>    H       -6.37048        -3.40880        -4.30540
|109>    H       -6.15482        -4.90280        -1.63820
|110>    H      -13.62146        -4.26790        -6.16638
|111>    H      -14.19514        -5.84806        -4.05682
|112>    H       -7.35043        -6.27139        -0.44711
|113>    H      -10.28489        -7.11476        -0.26065
|114>    H       -7.89254        -7.61200         1.61731
|115>    H      -13.40969       -10.60057         1.88194
|116>    H      -13.96799       -11.56637         4.06744
|117>    H       -8.89039       -10.12723         5.71683
|118>    H       -9.50732       -11.13498         7.88471
|119>    H      -11.73264       -12.13898         8.19913
|120>    H      -13.36653       -12.14771         6.35847
|121> *
|122>
|123>                          ****END OF INPUT****

CARTESIAN COORDINATES (ANGSTROEM)
---------------------------------
  C      4.163320   -2.342440    2.087080
  C      3.942700   -3.258710    3.251700
  O      3.082860   -4.106920    3.325550
  C      5.010910   -2.920860    4.200710
  C      5.713950   -1.802810    3.739270
  C      5.099900   -1.315150    2.510520
  C      5.201710   -0.054520    1.998560
  C      4.366490    0.440280    0.972340
  N      3.655780    0.918690    0.209000
  C      6.061680    0.939550    2.513630
  N      6.739660    1.780380    2.899240
  C      6.808200   -1.303130    4.456640
  C      7.165510   -1.921100    5.626870
  C      6.463320   -3.037760    6.133060
  C      5.356230   -3.565070    5.406120
  C      4.662600   -4.682670    5.911620
  C      5.046970   -5.252250    7.094940
  C      6.134190   -4.735280    7.816730
  C      6.828290   -3.653340    7.347170
  C      3.629060   -2.632430    0.881800
  C      3.992930   -2.052130   -0.372330
  N      5.202290   -1.572600   -0.595040
  C      5.189360   -1.121860   -1.871550
  C      3.881960   -1.330170   -2.496330
  C      3.878410   -0.801190   -3.865570
  O      2.974380   -0.800690   -4.676370
  C      5.247460   -0.266510   -4.011530
  C      6.016000   -0.491800   -2.768630
  N      7.273860    0.001020   -2.886750
  C      7.329190    0.511170   -4.091290
  C      6.095620    0.381150   -4.848080
  C      3.096490   -1.941830   -1.544360
  C      1.739810   -2.347950   -1.571670
  C      0.938680   -2.148860   -2.651090
  C     -0.423450   -2.520880   -2.726670
  N     -1.175370   -2.208850   -3.838220
  C     -2.439890   -2.665730   -3.651330
  C     -3.702120   -2.748120   -4.214090
  C     -4.504120   -3.441000   -3.284120
  N     -3.737540   -3.769690   -2.181220
  C     -2.480510   -3.302840   -2.374110
  C     -1.224270   -3.208500   -1.797420
  C     -5.865020   -3.764020   -3.418960
  C     -6.605820   -4.495180   -2.531720
  C     -7.972260   -4.761320   -2.741860
  N     -8.644880   -4.261500   -3.782220
  C     -9.898690   -4.708120   -3.659900
  C    -10.063600   -5.547590   -2.459820
  C    -11.450250   -6.037890   -2.360870
  O    -11.944260   -6.734520   -1.495170
  C    -12.082020   -5.465320   -3.553610
  C    -11.112420   -4.654430   -4.315240
  N    -11.690370   -4.124880   -5.414630
  C    -12.934920   -4.554000   -5.388450
  C    -13.244630   -5.395700   -4.259570
  C     -8.827840   -5.597540   -1.864200
  C     -8.399850   -6.309270   -0.709080
  C     -9.240810   -7.082270    0.018200
  C     -8.835290   -7.852820    1.137130
  C     -9.571110   -8.836390    1.715670
  C     -9.256640   -9.335360    3.081920
  O     -8.218130   -9.160880    3.683160
  C    -10.485880  -10.011880    3.531890
  C    -11.414810  -10.037420    2.489280
  C    -10.813680   -9.453250    1.293780
  C    -11.222170   -9.655250    0.004080
  C    -10.430230   -9.360260   -1.128600
  N     -9.789620   -9.230990   -2.071880
  C    -12.417870  -10.314420   -0.351960
  N    -13.378180  -10.841990   -0.692790
  C    -12.684080  -10.598900    2.678920
  C    -12.991900  -11.133120    3.902880
  C    -12.069100  -11.141410    4.972160
  C    -10.778370  -10.564040    4.794780
  C     -9.862460  -10.569960    5.866280
  C    -10.210100  -11.129550    7.064850
  C    -11.479430  -11.702040    7.244450
  C    -12.389110  -11.707590    6.222860
  H      7.366040   -0.456990    4.090080
  H      8.008770   -1.550320    6.191320
  H      3.828950   -5.072590    5.349380
  H      4.513580   -6.106980    7.482890
  H      6.419870   -5.200230    8.748490
  H      7.665050   -3.253590    7.901160
  H      2.892810   -3.428820    0.863870
  H      8.233910    0.974670   -4.444500
  H      5.938750    0.735450   -5.847690
  H      1.342510   -2.816540   -0.683130
  H      1.355690   -1.661080   -3.523240
  H     -0.818440   -1.710190   -4.636340
  H     -4.040490   -2.378940   -5.160900
  H     -4.077120   -4.252050   -1.368060
  H     -0.905170   -3.579680   -0.845220
  H     -6.370480   -3.408800   -4.305400
  H     -6.154820   -4.902800   -1.638200
  H    -13.621460   -4.267900   -6.166380
  H    -14.195140   -5.848060   -4.056820
  H     -7.350430   -6.271390   -0.447110
  H    -10.284890   -7.114760   -0.260650
  H     -7.892540   -7.612000    1.617310
  H    -13.409690  -10.600570    1.881940
  H    -13.967990  -11.566370    4.067440
  H     -8.890390  -10.127230    5.716830
  H     -9.507320  -11.134980    7.884710
  H    -11.732640  -12.138980    8.199130
  H    -13.366530  -12.147710    6.358470

 Total Charge           Charge          ....    0
 Multiplicity           Mult            ....    1
 Number of Electrons    NEL             ....  514
 Basis Dimension        Dim             .... 1232

ORBITAL ENERGIES
----------------

  NO   OCC          E(Eh)            E(eV)
   0   2.0000     -19.235600      -523.4273
   1   2.0000     -19.219721      -522.9952
   2   2.0000     -19.211980      -522.7846
   3   2.0000     -19.201605      -522.5022
   4   2.0000     -14.476170      -393.9166
   5   2.0000     -14.475200      -393.8902
   6   2.0000     -14.425114      -392.5273
   7   2.0000     -14.424444      -392.5091
   8   2.0000     -14.423648      -392.4874
   9   2.0000     -14.412548      -392.1854
  10   2.0000     -14.406581      -392.0230
  11   2.0000     -14.402405      -391.9094
  12   2.0000     -14.391924      -391.6242
  13   2.0000     -14.387661      -391.5082
  14   2.0000     -10.385186      -282.5953
  15   2.0000     -10.378668      -282.4179
  16   2.0000     -10.362320      -281.9731
  17   2.0000     -10.361374      -281.9473
  18   2.0000     -10.358351      -281.8651
  19   2.0000     -10.354026      -281.7474
  20   2.0000     -10.351314      -281.6736
  21   2.0000     -10.338876      -281.3351
  22   2.0000     -10.337745      -281.3043
  23   2.0000     -10.332489      -281.1613
  24   2.0000     -10.331630      -281.1380
  25   2.0000     -10.331355      -281.1305
  26   2.0000     -10.331266      -281.1280
  27   2.0000     -10.328014      -281.0396
  28   2.0000     -10.326280      -280.9924
  29   2.0000     -10.326101      -280.9875
  30   2.0000     -10.326052      -280.9862
  31   2.0000     -10.325263      -280.9647
  32   2.0000     -10.323587      -280.9191
  33   2.0000     -10.322948      -280.9017
  34   2.0000     -10.319563      -280.8096
  35   2.0000     -10.318966      -280.7933
  36   2.0000     -10.314495      -280.6717
  37   2.0000     -10.312109      -280.6068
  38   2.0000     -10.308736      -280.5150
  39   2.0000     -10.308255      -280.5019
  40   2.0000     -10.307466      -280.4804
  41   2.0000     -10.307132      -280.4713
  42   2.0000     -10.306313      -280.4490
  43   2.0000     -10.305448      -280.4255
  44   2.0000     -10.305266      -280.4206
  45   2.0000     -10.304356      -280.3958
  46   2.0000     -10.303742      -280.3791
  47   2.0000     -10.303305      -280.3672
  48   2.0000     -10.303262      -280.3660
  49   2.0000     -10.301199      -280.3099
  50   2.0000     -10.297911      -280.2204
  51   2.0000     -10.297424      -280.2072
  52   2.0000     -10.295839      -280.1640
  53   2.0000     -10.295136      -280.1449
  54   2.0000     -10.294910      -280.1387
  55   2.0000     -10.294766      -280.1348
  56   2.0000     -10.293050      -280.0881
  57   2.0000     -10.292390      -280.0702
  58   2.0000     -10.291403      -280.0433
  59   2.0000     -10.291245      -280.0390
  60   2.0000     -10.291037      -280.0334
  61   2.0000     -10.291018      -280.0328
  62   2.0000     -10.290105      -280.0080
  63   2.0000     -10.289895      -280.0023
  64   2.0000     -10.289679      -279.9964
  65   2.0000     -10.289009      -279.9782
  66   2.0000     -10.287475      -279.9364
  67   2.0000     -10.285376      -279.8793
  68   2.0000     -10.285019      -279.8696
  69   2.0000     -10.284305      -279.8502
  70   2.0000     -10.282889      -279.8116
  71   2.0000     -10.279532      -279.7203
  72   2.0000     -10.279175      -279.7106
  73   2.0000     -10.278672      -279.6969
  74   2.0000     -10.277051      -279.6528
  75   2.0000     -10.272692      -279.5342
  76   2.0000     -10.271227      -279.4943
  77   2.0000     -10.270655      -279.4787
  78   2.0000      -1.150149       -31.2971
  79   2.0000      -1.133022       -30.8311
  80   2.0000      -1.125993       -30.6398
  81   2.0000      -1.114994       -30.3405
  82   2.0000      -1.109515       -30.1914
  83   2.0000      -1.088551       -29.6210
  84   2.0000      -1.072628       -29.1877
  85   2.0000      -1.067903       -29.0591
  86   2.0000      -1.063072       -28.9277
  87   2.0000      -1.041370       -28.3371
  88   2.0000      -1.029093       -28.0030
  89   2.0000      -1.010190       -27.4887
  90   2.0000      -1.009917       -27.4812
  91   2.0000      -1.002369       -27.2758
  92   2.0000      -0.991075       -26.9685
  93   2.0000      -0.982767       -26.7425
  94   2.0000      -0.980246       -26.6738
  95   2.0000      -0.962762       -26.1981
  96   2.0000      -0.946622       -25.7589
  97   2.0000      -0.932641       -25.3784
  98   2.0000      -0.929009       -25.2796
  99   2.0000      -0.928573       -25.2678
 100   2.0000      -0.925788       -25.1920
 101   2.0000      -0.915706       -24.9176
 102   2.0000      -0.912906       -24.8414
 103   2.0000      -0.906755       -24.6741
 104   2.0000      -0.899654       -24.4808
 105   2.0000      -0.894198       -24.3324
 106   2.0000      -0.890402       -24.2291
 107   2.0000      -0.880589       -23.9621
 108   2.0000      -0.876119       -23.8404
 109   2.0000      -0.870581       -23.6897
 110   2.0000      -0.862669       -23.4744
 111   2.0000      -0.859403       -23.3855
 112   2.0000      -0.852757       -23.2047
 113   2.0000      -0.847890       -23.0722
 114   2.0000      -0.840643       -22.8750
 115   2.0000      -0.836818       -22.7710
 116   2.0000      -0.815749       -22.1977
 117   2.0000      -0.809948       -22.0398
 118   2.0000      -0.806651       -21.9501
 119   2.0000      -0.785660       -21.3789
 120   2.0000      -0.781848       -21.2752
 121   2.0000      -0.772389       -21.0178
 122   2.0000      -0.762734       -20.7550
 123   2.0000      -0.758128       -20.6297
 124   2.0000      -0.754814       -20.5395
 125   2.0000      -0.740790       -20.1579
 126   2.0000      -0.727941       -19.8083
 127   2.0000      -0.724656       -19.7189
 128   2.0000      -0.723582       -19.6897
 129   2.0000      -0.713924       -19.4269
 130   2.0000      -0.711666       -19.3654
 131   2.0000      -0.709429       -19.3045
 132   2.0000      -0.708358       -19.2754
 133   2.0000      -0.702315       -19.1110
 134   2.0000      -0.697512       -18.9803
 135   2.0000      -0.697013       -18.9667
 136   2.0000      -0.687268       -18.7015
 137   2.0000      -0.676971       -18.4213
 138   2.0000      -0.669992       -18.2314
 139   2.0000      -0.667344       -18.1594
 140   2.0000      -0.663423       -18.0526
 141   2.0000      -0.657226       -17.8840
 142   2.0000      -0.649499       -17.6738
 143   2.0000      -0.643475       -17.5098
 144   2.0000      -0.639425       -17.3996
 145   2.0000      -0.637691       -17.3525
 146   2.0000      -0.626282       -17.0420
 147   2.0000      -0.623078       -16.9548
 148   2.0000      -0.620949       -16.8969
 149   2.0000      -0.619053       -16.8453
 150   2.0000      -0.614315       -16.7164
 151   2.0000      -0.607695       -16.5362
 152   2.0000      -0.602887       -16.4054
 153   2.0000      -0.599001       -16.2996
 154   2.0000      -0.594300       -16.1717
 155   2.0000      -0.590694       -16.0736
 156   2.0000      -0.586100       -15.9486
 157   2.0000      -0.582696       -15.8560
 158   2.0000      -0.582150       -15.8411
 159   2.0000      -0.581327       -15.8187
 160   2.0000      -0.574643       -15.6368
 161   2.0000      -0.565647       -15.3920
 162   2.0000      -0.560102       -15.2411
 163   2.0000      -0.558604       -15.2004
 164   2.0000      -0.556626       -15.1466
 165   2.0000      -0.555795       -15.1239
 166   2.0000      -0.553942       -15.0735
 167   2.0000      -0.552880       -15.0446
 168   2.0000      -0.550215       -14.9721
 169   2.0000      -0.548486       -14.9251
 170   2.0000      -0.539966       -14.6932
 171   2.0000      -0.538147       -14.6437
 172   2.0000      -0.536632       -14.6025
 173   2.0000      -0.532874       -14.5002
 174   2.0000      -0.532480       -14.4895
 175   2.0000      -0.531751       -14.4697
 176   2.0000      -0.528138       -14.3714
 177   2.0000      -0.524717       -14.2783
 178   2.0000      -0.523920       -14.2566
 179   2.0000      -0.522887       -14.2285
 180   2.0000      -0.518122       -14.0988
 181   2.0000      -0.516757       -14.0617
 182   2.0000      -0.514651       -14.0044
 183   2.0000      -0.514433       -13.9984
 184   2.0000      -0.509941       -13.8762
 185   2.0000      -0.508963       -13.8496
 186   2.0000      -0.504820       -13.7368
 187   2.0000      -0.503030       -13.6881
 188   2.0000      -0.500511       -13.6196
 189   2.0000      -0.498424       -13.5628
 190   2.0000      -0.495165       -13.4741
 191   2.0000      -0.494012       -13.4428
 192   2.0000      -0.492487       -13.4012
 193   2.0000      -0.487958       -13.2780
 194   2.0000      -0.487851       -13.2751
 195   2.0000      -0.486446       -13.2369
 196   2.0000      -0.483107       -13.1460
 197   2.0000      -0.480706       -13.0807
 198   2.0000      -0.478586       -13.0230
 199   2.0000      -0.478071       -13.0090
 200   2.0000      -0.475923       -12.9505
 201   2.0000      -0.474190       -12.9034
 202   2.0000      -0.472891       -12.8680
 203   2.0000      -0.467945       -12.7334
 204   2.0000      -0.466908       -12.7052
 205   2.0000      -0.461594       -12.5606
 206   2.0000      -0.460613       -12.5339
 207   2.0000      -0.457954       -12.4616
 208   2.0000      -0.456687       -12.4271
 209   2.0000      -0.454606       -12.3705
 210   2.0000      -0.451241       -12.2789
 211   2.0000      -0.448320       -12.1994
 212   2.0000      -0.445754       -12.1296
 213   2.0000      -0.444066       -12.0837
 214   2.0000      -0.442291       -12.0353
 215   2.0000      -0.440548       -11.9879
 216   2.0000      -0.440252       -11.9799
 217   2.0000      -0.435734       -11.8569
 218   2.0000      -0.435198       -11.8423
 219   2.0000      -0.431754       -11.7486
 220   2.0000      -0.430880       -11.7248
 221   2.0000      -0.428858       -11.6698
 222   2.0000      -0.425832       -11.5875
 223   2.0000      -0.424188       -11.5427
 224   2.0000      -0.422218       -11.4891
 225   2.0000      -0.414101       -11.2683
 226   2.0000      -0.413312       -11.2468
 227   2.0000      -0.408806       -11.1242
 228   2.0000      -0.407616       -11.0918
 229   2.0000      -0.401929       -10.9371
 230   2.0000      -0.393979       -10.7207
 231   2.0000      -0.386194       -10.5089
 232   2.0000      -0.381555       -10.3826
 233   2.0000      -0.374698       -10.1961
 234   2.0000      -0.368133       -10.0174
 235   2.0000      -0.367663       -10.0046
 236   2.0000      -0.365424        -9.9437
 237   2.0000      -0.360996        -9.8232
 238   2.0000      -0.350652        -9.5417
 239   2.0000      -0.347300        -9.4505
 240   2.0000      -0.343817        -9.3557
 241   2.0000      -0.342756        -9.3269
 242   2.0000      -0.338135        -9.2011
 243   2.0000      -0.337854        -9.1935
 244   2.0000      -0.331721        -9.0266
 245   2.0000      -0.329324        -8.9613
 246   2.0000      -0.328801        -8.9471
 247   2.0000      -0.318313        -8.6617
 248   2.0000      -0.316780        -8.6200
 249   2.0000      -0.315033        -8.5725
 250   2.0000      -0.310293        -8.4435
 251   2.0000      -0.308135        -8.3848
 252   2.0000      -0.303172        -8.2497
 253   2.0000      -0.293429        -7.9846
 254   2.0000      -0.288136        -7.8406
 255   2.0000      -0.273216        -7.4346
 256   2.0000      -0.238495        -6.4898
 257   0.0000      -0.130846        -3.5605
 258   0.0000      -0.109416        -2.9774
 259   0.0000      -0.088853        -2.4178
 260   0.0000      -0.081061        -2.2058
 261   0.0000      -0.069800        -1.8994

MULLIKEN ATOMIC CHARGES
-----------------------
   0 C :   -0.058580
   1 C :    0.109532
   2 O :   -0.141409
   3 C :    0.009488
   4 C :   -0.002508
   5 C :    0.269240
   6 C :   -0.277454
   7 C :   -0.179269
   8 N :    0.163409
   9 C :   -0.191511
  10 N :    0.168225
  11 C :   -0.016986
  12 C :    0.013413
  13 C :    0.075165
  14 C :    0.039033
  15 C :   -0.025458
  16 C :    0.039188
  17 C :    0.040769
  18 C :   -0.018394
  19 C :   -0.012453
  20 C :   -0.003057
  21 N :   -0.042693
  22 C :    0.083868
  23 C :   -0.157016
  24 C :    0.224145
  25 O :   -0.153168
  26 C :   -0.004655
  27 C :   -0.028965
  28 N :   -0.052542
  29 C :    0.095127
  30 C :   -0.097338
  31 C :    0.104925
  32 C :   -0.057139
  33 C :    0.035443
  34 C :    0.100992
  35 N :   -0.022781
  36 C :    0.127351
  37 C :   -0.140429
  38 C :    0.091668
  39 N :   -0.032327
  40 C :    0.129915
  41 C :   -0.166723
  42 C :    0.075675
  43 C :   -0.074675
  44 C :    0.046085
  45 N :   -0.054759
  46 C :    0.072451
  47 C :   -0.150717
  48 C :    0.236846
  49 O :   -0.162942
  50 C :   -0.013904
  51 C :   -0.053244
  52 N :   -0.060752
  53 C :    0.084054
  54 C :   -0.097707
  55 C :    0.058123
  56 C :   -0.024627
  57 C :    0.018126
  58 C :    0.029501
  59 C :   -0.096446
  60 C :    0.125712
  61 O :   -0.153146
  62 C :   -0.000792
  63 C :   -0.000703
  64 C :    0.259689
  65 C :   -0.297035
  66 C :   -0.203098
  67 N :    0.163151
  68 C :   -0.179349
  69 N :    0.154296
  70 C :   -0.022678
  71 C :    0.007552
  72 C :    0.076576
  73 C :    0.033120
  74 C :   -0.025604
  75 C :    0.035531
  76 C :    0.038495
  77 C :   -0.018182
  78 H :    0.007306
  79 H :   -0.007675
  80 H :    0.001017
  81 H :   -0.003103
  82 H :   -0.003082
  83 H :   -0.017319
  84 H :    0.027995
  85 H :    0.013267
  86 H :   -0.002515
  87 H :   -0.027018
  88 H :   -0.009449
  89 H :    0.138462
  90 H :   -0.015373
  91 H :    0.130770
  92 H :   -0.025680
  93 H :    0.023492
  94 H :   -0.050926
  95 H :    0.000977
  96 H :   -0.011499
  97 H :   -0.026198
  98 H :    0.042619
  99 H :    0.004155
 100 H :    0.004328
 101 H :   -0.014660
 102 H :   -0.002549
 103 H :   -0.008157
 104 H :   -0.009192
 105 H :   -0.022659
Sum of atomic charges:   -0.0000000

LOEWDIN ATOMIC CHARGES
----------------------
   0 C :   -0.018755
   1 C :    0.087279
   2 O :   -0.132530
   3 C :   -0.036403
   4 C :    0.004731
   5 C :    0.067774
   6 C :   -0.100482
   7 C :   -0.014244
   8 N :   -0.044203
   9 C :   -0.017926
  10 N :   -0.035816
  11 C :   -0.015731
  12 C :    0.027952
  13 C :   -0.009392
  14 C :   -0.001563
  15 C :   -0.002621
  16 C :   -0.008062
  17 C :   -0.009700
  18 C :   -0.009380
  19 C :    0.026289
  20 C :    0.058994
  21 N :   -0.084414
  22 C :    0.049243
  23 C :   -0.056651
  24 C :    0.074528
  25 O :   -0.149231
  26 C :   -0.036454
  27 C :    0.032615
  28 N :   -0.093513
  29 C :    0.080645
  30 C :   -0.027945
  31 C :   -0.013994
  32 C :   -0.035843
  33 C :    0.009935
  34 C :    0.015616
  35 N :    0.080868
  36 C :   -0.017854
  37 C :   -0.049819
  38 C :   -0.008229
  39 N :    0.071907
  40 C :    0.005607
  41 C :   -0.087640
  42 C :    0.056412
  43 C :   -0.085783
  44 C :    0.071953
  45 N :   -0.123485
  46 C :    0.047925
  47 C :   -0.022669
  48 C :    0.075009
  49 O :   -0.153837
  50 C :   -0.045391
  51 C :    0.007952
  52 N :   -0.100919
  53 C :    0.060756
  54 C :   -0.042969
  55 C :   -0.033460
  56 C :    0.005268
  57 C :   -0.002470
  58 C :    0.056248
  59 C :   -0.075527
  60 C :    0.085747
  61 O :   -0.146540
  62 C :   -0.035660
  63 C :   -0.000516
  64 C :    0.066896
  65 C :   -0.115536
  66 C :   -0.016089
  67 N :   -0.049502
  68 C :   -0.014557
  69 N :   -0.047964
  70 C :   -0.016251
  71 C :    0.018793
  72 C :   -0.010539
  73 C :   -0.003160
  74 C :   -0.003138
  75 C :   -0.014204
  76 C :   -0.014790
  77 C :   -0.012568
  78 H :    0.041926
  79 H :    0.037887
  80 H :    0.035598
  81 H :    0.034134
  82 H :    0.033550
  83 H :    0.031907
  84 H :    0.048023
  85 H :    0.025336
  86 H :    0.035512
  87 H :    0.026282
  88 H :    0.033719
  89 H :    0.099184
  90 H :    0.034155
  91 H :    0.091158
  92 H :    0.027213
  93 H :    0.051190
  94 H :    0.016651
  95 H :    0.020147
  96 H :    0.032095
  97 H :    0.025757
  98 H :    0.034335
  99 H :    0.040500
 100 H :    0.040559
 101 H :    0.035096
 102 H :    0.034543
 103 H :    0.031647
 104 H :    0.030994
 105 H :    0.029879

  Mayer bond orders larger than 0.100000
B(  0-C ,  1-C ) :   0.9318 B(  0-C ,  5-C ) :   0.9969 B(  0-C , 19-C ) :   1.7661
B(  1-C ,  2-O ) :   2.2024 B(  1-C ,  3-C ) :   0.9487 B(  3-C ,  4-C ) :   1.3989
B(  3-C , 14-C ) :   1.2310 B(  4-C ,  5-C ) :   1.0081 B(  4-C , 11-C ) :   1.2641
B(  5-C ,  6-C ) :   1.7035 B(  6-C ,  7-C ) :   1.1542 B(  6-C ,  9-C ) :   1.1335
B(  7-C ,  8-N ) :   2.9873 B(  9-C , 10-N ) :   2.9961 B( 11-C , 12-C ) :   1.4676
B( 11-C , 78-H ) :   0.9861 B( 12-C , 13-C ) :   1.2219 B( 12-C , 79-H ) :   0.9939
B( 13-C , 14-C ) :   1.2444 B( 13-C , 18-C ) :   1.2410 B( 14-C , 15-C ) :   1.2805
B( 15-C , 16-C ) :   1.4713 B( 15-C , 80-H ) :   0.9867 B( 16-C , 17-C ) :   1.2602
B( 16-C , 81-H ) :   0.9876 B( 17-C , 18-C ) :   1.4923 B( 17-C , 82-H ) :   0.9890
B( 18-C , 83-H ) :   0.9981 B( 19-C , 20-C ) :   1.0261 B( 19-C , 84-H ) :   0.9357
B( 20-C , 21-N ) :   1.6057 B( 20-C , 22-C ) :   0.1129 B( 20-C , 31-C ) :   1.0137
B( 21-N , 22-C ) :   1.2854 B( 22-C , 23-C ) :   1.0733 B( 22-C , 27-C ) :   1.4429
B( 23-C , 24-C ) :   0.9106 B( 23-C , 31-C ) :   1.5045 B( 24-C , 25-O ) :   2.1650
B( 24-C , 26-C ) :   0.9317 B( 25-O , 88-H ) :   0.1117 B( 26-C , 27-C ) :   1.0620
B( 26-C , 30-C ) :   1.6191 B( 27-C , 28-N ) :   1.3026 B( 28-N , 29-C ) :   1.6675
B( 29-C , 30-C ) :   1.0541 B( 29-C , 85-H ) :   0.9887 B( 30-C , 86-H ) :   1.0107
B( 31-C , 32-C ) :   1.1444 B( 32-C , 33-C ) :   1.6325 B( 32-C , 87-H ) :   0.9635
B( 33-C , 34-C ) :   1.1094 B( 33-C , 88-H ) :   0.9433 B( 34-C , 35-N ) :   1.1964
B( 34-C , 41-C ) :   1.3713 B( 35-N , 36-C ) :   1.1642 B( 35-N , 89-H ) :   0.9307
B( 36-C , 37-C ) :   1.2839 B( 36-C , 40-C ) :   1.2667 B( 37-C , 38-C ) :   1.3030
B( 37-C , 90-H ) :   1.0439 B( 38-C , 39-N ) :   1.1738 B( 38-C , 42-C ) :   1.1815
B( 39-N , 40-C ) :   1.1874 B( 39-N , 91-H ) :   0.9310 B( 40-C , 41-C ) :   1.2809
B( 41-C , 92-H ) :   1.0327 B( 42-C , 43-C ) :   1.5063 B( 42-C , 93-H ) :   0.9702
B( 43-C , 44-C ) :   1.2431 B( 43-C , 94-H ) :   0.9482 B( 44-C , 45-N ) :   1.5267
B( 44-C , 46-C ) :   0.1094 B( 44-C , 55-C ) :   0.9925 B( 45-N , 46-C ) :   1.4170
B( 46-C , 47-C ) :   1.0545 B( 46-C , 51-C ) :   1.3526 B( 47-C , 48-C ) :   0.8902
B( 47-C , 55-C ) :   1.5606 B( 48-C , 49-O ) :   2.1308 B( 48-C , 50-C ) :   0.9548
B( 49-O , 98-H ) :   0.1129 B( 50-C , 51-C ) :   1.0859 B( 50-C , 54-C ) :   1.5567
B( 51-C , 52-N ) :   1.3513 B( 52-N , 53-C ) :   1.6141 B( 53-C , 54-C ) :   1.1090
B( 53-C , 95-H ) :   0.9893 B( 54-C , 96-H ) :   1.0114 B( 55-C , 56-C ) :   1.0995
B( 56-C , 57-C ) :   1.6799 B( 56-C , 97-H ) :   0.9745 B( 57-C , 58-C ) :   1.0902
B( 57-C , 98-H ) :   0.9258 B( 58-C , 59-C ) :   1.6567 B( 58-C , 99-H ) :   0.9617
B( 59-C , 60-C ) :   0.9540 B( 59-C , 64-C ) :   1.0188 B( 60-C , 61-O ) :   2.1961
B( 60-C , 62-C ) :   0.9418 B( 62-C , 63-C ) :   1.4145 B( 62-C , 73-C ) :   1.2356
B( 63-C , 64-C ) :   1.0024 B( 63-C , 70-C ) :   1.2634 B( 64-C , 65-C ) :   1.6705
B( 65-C , 66-C ) :   1.1540 B( 65-C , 68-C ) :   1.1347 B( 66-C , 67-N ) :   3.0015
B( 68-C , 69-N ) :   2.9924 B( 70-C , 71-C ) :   1.4668 B( 70-C ,100-H ) :   0.9859
B( 71-C , 72-C ) :   1.2234 B( 71-C ,101-H ) :   0.9932 B( 72-C , 73-C ) :   1.2449
B( 72-C , 77-C ) :   1.2407 B( 73-C , 74-C ) :   1.2768 B( 74-C , 75-C ) :   1.4746
B( 74-C ,102-H ) :   0.9855 B( 75-C , 76-C ) :   1.2565 B( 75-C ,103-H ) :   0.9872
B( 76-C , 77-C ) :   1.4962 B( 76-C ,104-H ) :   0.9883 B( 77-C ,105-H ) :   0.9965

-----------------------------------------------------------------------------
         ABSORPTION SPECTRUM VIA TRANSITION ELECTRIC DIPOLE MOMENTS
-----------------------------------------------------------------------------
State   Energy  Wavelength   fosc         T2         TX        TY        TZ
        (cm-1)    (nm)                  (au**2)     (au)      (au)      (au)
-----------------------------------------------------------------------------
   0   10076.4    992.4   0.317355935  10.36853  -3.06266  -0.97244   0.20736
   1   14825.0    674.5   1.552505627  34.47578  -5.66164  -1.43605  -0.59948
   2   18634.9    536.6   0.193326206   3.41538   1.36566  -0.52618   1.12849
   3   20176.5    495.6   0.347001780   5.66190  -2.03782  -1.19699   0.27646
   4   20721.9    482.6   0.010656856   0.16931   0.38646  -0.13811  -0.02975
   5   21069.9    474.6   0.060569670   0.94639   0.81673   0.42362  -0.31603
   6   21541.1    464.2   0.088142768   1.34709   0.76714   0.75002  -0.44278
   7   21801.0    458.7   0.042441151   0.64089  -0.66768  -0.00937   0.44159
   8   21942.8    455.7   0.000391924   0.00588  -0.03232  -0.03299  -0.06121
   9   23299.3    429.2   0.464565569   6.56417   0.05508   1.07660  -2.32423
  10   23739.8    421.2   0.076687090   1.06346   0.85419  -0.41699  -0.39991
  11   24130.7    414.4   0.092299683   1.25923   0.24654   0.73863  -0.80801
  12   24438.2    409.2   0.078368106   1.05571   0.09854   0.28429  -0.98244
  13   24717.9    404.6   0.011200536   0.14918   0.18959   0.21385  -0.25982
  14   24782.1    403.5   0.070350262   0.93455  -0.09325   0.58925  -0.76069
  15   25209.5    396.7   0.011871033   0.15502   0.31987  -0.15164   0.17237
  16   25347.4    394.5   0.030747259   0.39934  -0.27116  -0.16160   0.54745
  17   25411.5    393.5   0.019681255   0.25498  -0.05200  -0.19675  -0.46213
  18   25617.7    390.4   0.002052022   0.02637   0.06108  -0.06227  -0.13698
  19   25730.8    388.6   0.023036672   0.29474  -0.19334  -0.19417   0.46868
  20   26636.8    375.4   0.212533315   2.62676  -0.01401  -0.92990   1.32735
  21   26945.3    371.1   0.246828214   3.01570  -0.72811  -0.59384   1.46045
  22   27030.8    369.9   0.031328816   0.38156   0.27794  -0.54723   0.06958
  23   27205.6    367.6   0.003487610   0.04220   0.00230  -0.19921  -0.05012
  24   27541.0    363.1   0.003614780   0.04321   0.08953   0.11378  -0.14916
  25   28101.1    355.9   0.042202553   0.49441  -0.40223  -0.41776   0.39761
  26   28164.7    355.1   0.027414860   0.32045  -0.11763   0.38416  -0.39879
  27   28392.8    352.2   0.013225710   0.15335   0.09248  -0.19197   0.32855
  28   28575.8    349.9   0.047421397   0.54633   0.07037   0.53303  -0.50720
  29   28627.8    349.3   0.096170052   1.10593  -0.20311   0.13309  -1.02321
  30   28957.1    345.3   0.006338820   0.07207  -0.02863   0.25124   0.09013
  31   29933.8    334.1   0.000503107   0.00553   0.02885   0.03279  -0.06022
  32   30024.9    333.1   0.000789083   0.00865   0.00259   0.00759  -0.09267
  33   30558.2    327.2   0.029645563   0.31938   0.23689  -0.03565  -0.51185
  34   30895.0    323.7   0.000512957   0.00547  -0.01103  -0.03609  -0.06358
  35   31233.3    320.2   0.140684947   1.48288   0.42285  -0.13356   1.13412
  36   31380.7    318.7   0.169149178   1.77453  -1.08841  -0.73294  -0.22956
  37   31467.6    317.8   0.241860621   2.53033  -0.18073  -1.25716   0.95771
  38   31647.3    316.0   0.079182630   0.82370   0.47068  -0.19278   0.75166
  39   31711.1    315.3   0.226894689   2.35553  -0.18921  -1.20400   0.93280
  40   32012.9    312.4   0.019060024   0.19601   0.33206   0.11102   0.27096
  41   32172.2    310.8   0.159196896   1.62903   0.82956   0.07525   0.96706
  42   32270.8    309.9   0.058523148   0.59703   0.13941   0.60525  -0.45963
  43   32813.8    304.8   0.046200466   0.46352   0.25436   0.33024  -0.53830
  44   33051.1    302.6   0.373826525   3.72357   0.13299  -0.46246   1.86869
  45   33412.9    299.3   0.223339045   2.20052  -1.26222   0.09401  -0.77361
  46   33611.0    297.5   0.234429402   2.29618  -0.22230   0.52519  -1.40390
  47   33849.7    295.4   0.438106903   4.26089  -0.04176   0.96570  -1.82389
  48   34046.4    293.7   0.054662808   0.52856   0.28716   0.53619   0.39825
  49   34195.1    292.4   0.012894436   0.12414  -0.27900  -0.08138   0.19919
  50   34260.7    291.9   0.037290116   0.35832   0.05371   0.35043  -0.48232
  51   34443.5    290.3   0.285225952   2.72620  -0.00609   0.61361  -1.53285
  52   34612.0    288.9   0.002410203   0.02292   0.01784   0.02467  -0.14832
  53   34878.4    286.7   0.031651068   0.29875   0.27485   0.04752  -0.47005
  54   35022.6    285.5   0.048560694   0.45647  -0.46463  -0.21366  -0.44152
  55   35158.3    284.4   0.014449089   0.13530   0.01669   0.02007  -0.36690
  56   35299.2    283.3   0.012996851   0.12121  -0.25416  -0.01622  -0.23738
  57   36084.9    277.1   0.082148438   0.74946   0.23122  -0.54234   0.63393
  58   36141.6    276.7   0.010575075   0.09633   0.20202  -0.08204   0.22087
  59   36343.9    275.1   0.004620826   0.04186   0.19426  -0.01348   0.06275
  60   36465.9    274.2   0.000418315   0.00378   0.05259   0.03127   0.00576
  61   36607.2    273.2   0.010093672   0.09077  -0.14053   0.08731  -0.25180
  62   36922.8    270.8   0.110843969   0.98831   0.32302   0.63716  -0.69137
  63   37070.0    269.8   0.041611001   0.36954   0.36994  -0.34092   0.34126
  64   37210.3    268.7   0.011059189   0.09784   0.30603   0.02571   0.05941
  65   37450.3    267.0   0.051517338   0.45287   0.36750   0.31197  -0.46956
  66   37573.3    266.1   0.049104636   0.43025   0.53852   0.34289  -0.15055
  67   37635.0    265.7   0.036529768   0.31954   0.46284   0.22908  -0.22989
  68   37645.6    265.6   0.013483188   0.11791  -0.30398  -0.13953  -0.07770
  69   37745.3    264.9   0.008067768   0.07037  -0.25761  -0.03523  -0.05255
  70   38083.7    262.6   0.001327336   0.01147   0.04395   0.09582   0.01903
  71   38228.4    261.6   0.008476904   0.07300  -0.03878  -0.08728   0.25274
  72   38647.1    258.8   0.015045282   0.12816  -0.34532  -0.04859   0.08094
  73   38668.0    258.6   0.031872621   0.27136  -0.50419  -0.11860  -0.05555
  74   38915.5    257.0   0.001201712   0.01017   0.04761  -0.05183   0.07220
  75   38927.3    256.9   0.002265573   0.01916  -0.12186  -0.04716   0.04567
  76   39027.3    256.2   0.013121913   0.11069   0.19946   0.16820  -0.20643
  77   39271.9    254.6   0.059595829   0.49958   0.62796   0.27454  -0.17286
  78   39474.9    253.3   0.064086915   0.53447  -0.14998  -0.29812   0.65046
  79   39615.2    252.4   0.071312148   0.59262  -0.70922  -0.17694   0.24149
  80   39877.1    250.8   0.093928460   0.77544   0.05604  -0.22756   0.84883
  81   39902.3    250.6   0.035614675   0.29384   0.22384   0.14575  -0.47169
  82   39980.9    250.1   0.046023352   0.37897   0.19128  -0.08106   0.57949
  83   40008.5    249.9   0.015899227   0.13083  -0.11782  -0.10299  -0.32610
  84   40159.5    249.0   0.044494283   0.36475  -0.35563  -0.10657  -0.47636
  85   40280.2    248.3   0.048437434   0.39588   0.48665   0.16043   0.36512

FINAL SINGLE POINT ENERGY     -3299.674241359789

DIPOLE MOMENT
-------------
                                X             Y             Z
Electronic contribution:      9.14582      14.35105     -20.61844
Nuclear contribution   :     -5.87039     -14.44755      23.38354
                        -----------------------------------------
Total Dipole Moment    :      3.27542      -0.09651       2.76511
                        -----------------------------------------
Magnitude (a.u.)       :      4.28760
Magnitude (Debye)      :     10.89822

Rotational constants in cm-1:     0.000949     0.000251     0.000203
Rotational constants in MHz :    28.446145     7.512456     6.072665

                             ****ORCA TERMINATED NORMALLY****
TOTAL RUN TIME: 0 days 0 hours 11 minutes 19 seconds 661 msec
