                         Program Version 4.2.0 -  RELEASE  -
|  1> # ORCA input file
|  2> # SCF done       -196.390724235179          0.000681770148
|  3> ! CAM-B3LYP def2-SVP def2/J RIJCOSX Grid4 TightSCF
|  4> %maxcore 5000
|  5> %tddft
|  6>     Mode sTDDFT
|  7>     Ethresh 5.0
|  8>     maxcore 5000
|  9> end
| 10>
| 11> %pal
| 12>   nprocs 6
| 13>   end
| 14> * xyz 0 1
| 15>    C       -9.97607        -0.42215        -3.74646
| 16>    C      -10.87907        -1.20501        -3.07493
| 17>    C      -11.45088        -2.38372        -3.60248
| 18>    N      -11.95529        -3.34700        -3.96928
| 19>    C      -11.35277        -0.99045        -1.76309
| 20>    N      -11.76504        -0.90149        -0.69433
| 21>    C       -9.42988        -0.70906        -5.06503
| 22>    C       -8.46005         0.27487        -5.38472
| 23>    C       -7.74552         0.25859        -6.55895
| 24>    C       -8.00274        -0.77286        -7.46592
| 25>    C       -8.97886        -1.74782        -7.14277
| 26>    C       -9.69815        -1.73407        -5.95452
| 27>    S       -9.13242        -2.92589        -8.40709
| 28>    C       -7.91565        -2.12250        -9.33647
| 29>    C       -7.41204        -1.02158        -8.73619
| 30>    C       -8.37175         1.25760        -4.29337
| 31>    O       -7.62989         2.21401        -4.24208
| 32>    C       -9.35922         0.81196        -3.27107
| 33>    C       -9.59713         1.38922        -2.06481
| 34>    C       -9.06833         2.59661        -1.51825
| 35>    C       -8.73213         3.76031        -2.14484
| 36>    C       -8.46260         4.76772        -1.13577
| 37>    C       -8.03801         6.07407        -1.42110
| 38>    N       -7.68787         7.14056        -1.65726
| 39>    C       -8.67883         4.23673         0.10565
| 40>    C       -9.02435         2.84895        -0.05767
| 41>    C       -9.12845         1.90302         0.92608
| 42>    C       -9.33120         2.11991         2.37933
| 43>    C       -9.22316         0.90111         2.98862
| 44>    C       -8.94429        -0.10199         1.98520
| 45>    C       -8.92571         0.49001         0.75159
| 46>    C       -8.71280        -1.45711         2.26343
| 47>    N       -8.51352        -2.56070         2.50498
| 48>    C       -9.70647         3.35150         2.98795
| 49>    C       -9.66832         3.58439         4.32091
| 50>    C      -10.06469         4.82937         4.89922
| 51>    N      -10.40250         5.85596         4.13074
| 52>    N      -10.78516         6.99544         4.59034
| 53>    C      -10.94504         7.27120         5.87848
| 54>    C      -10.57570         6.26589         6.82242
| 55>    C      -10.10347         5.01458         6.31299
| 56>    N       -9.79489         4.16018         7.28287
| 57>    S      -10.07858         4.86489         8.69986
| 58>    N      -10.60525         6.28250         8.15203
| 59>    C      -11.40419         8.56617         6.27236
| 60>    C      -11.21467         9.14224         7.49858
| 61>    C      -11.62213        10.52264         7.42008
| 62>    C      -11.61999        11.40992         8.50567
| 63>    N      -11.61310        12.12823         9.40059
| 64>    C      -12.00355        10.80721         6.13113
| 65>    C      -11.93745         9.59832         5.36575
| 66>    C      -12.37398         9.42592         4.07727
| 67>    C      -12.53478        10.48354         3.06083
| 68>    C      -13.04238         9.89769         1.93454
| 69>    C      -13.26199         8.49024         2.20358
| 70>    C      -12.85508         8.20724         3.47983
| 71>    C      -13.80667         7.57622         1.29179
| 72>    N      -14.24638         6.81840         0.55005
| 73>    C      -12.07541        11.82855         3.17889
| 74>    C      -12.57387        12.85916         2.45014
| 75>    C      -12.03882        14.16388         2.53409
| 76>    C      -12.38868        15.27950         1.83495
| 77>    C      -13.28566        15.51698         0.72286
| 78>    C      -13.63519        14.64392        -0.27530
| 79>    C      -14.46950        14.98798        -1.36079
| 80>    N      -15.15273        15.19925        -2.25859
| 81>    C      -13.15706        13.32628        -0.42265
| 82>    N      -12.79483        12.25650        -0.63135
| 83>    C      -13.60521        16.94291         0.72763
| 84>    C      -12.75847        17.60072         1.65710
| 85>    C      -11.91368        16.60204         2.33207
| 86>    O      -11.04627        16.79019         3.15495
| 87>    C      -12.79805        18.95904         1.86089
| 88>    C      -13.72326        19.70367         1.12354
| 89>    C      -14.57641        19.03660         0.21165
| 90>    C      -14.53165        17.66362        -0.00110
| 91>    S      -15.64875        20.15092        -0.57533
| 92>    C      -14.95726        21.47272         0.30026
| 93>    C      -13.97020        21.10535         1.14607
| 94>    H       -7.01105         1.02087        -6.76809
| 95>    H      -10.42844        -2.50053        -5.75682
| 96>    H       -7.64708        -2.53140       -10.29116
| 97>    H       -6.64862        -0.39782        -9.16457
| 98>    H      -10.29085         0.88522        -1.40464
| 99>    H       -8.70168         3.94773        -3.20014
|100>    H       -8.49107         4.73121         1.03899
|101>    H       -9.35736         0.67966         4.03033
|102>    H       -8.67126         0.00339        -0.16982
|103>    H      -10.06398         4.14949         2.35337
|104>    H       -9.32306         2.83788         5.02066
|105>    H      -10.80693         8.67078         8.37218
|106>    H      -12.42085        11.73574         5.79103
|107>    H      -13.20648        10.36786         0.98190
|108>    H      -12.99496         7.27476         3.98742
|109>    H      -11.25962        12.01665         3.86506
|110>    H      -13.42462        12.68192         1.81149
|111>    H      -11.28220        14.33287         3.29512
|112>    H      -12.13570        19.43106         2.56983
|113>    H      -15.20869        17.20210        -0.70053
|114>    H      -15.33996        22.45931         0.12453
|115>    H      -13.42663        21.79018         1.77141
|116> *
|117>
|118>                          ****END OF INPUT****

CARTESIAN COORDINATES (ANGSTROEM)
---------------------------------
  C     -9.976070   -0.422150   -3.746460
  C    -10.879070   -1.205010   -3.074930
  C    -11.450880   -2.383720   -3.602480
  N    -11.955290   -3.347000   -3.969280
  C    -11.352770   -0.990450   -1.763090
  N    -11.765040   -0.901490   -0.694330
  C     -9.429880   -0.709060   -5.065030
  C     -8.460050    0.274870   -5.384720
  C     -7.745520    0.258590   -6.558950
  C     -8.002740   -0.772860   -7.465920
  C     -8.978860   -1.747820   -7.142770
  C     -9.698150   -1.734070   -5.954520
  S     -9.132420   -2.925890   -8.407090
  C     -7.915650   -2.122500   -9.336470
  C     -7.412040   -1.021580   -8.736190
  C     -8.371750    1.257600   -4.293370
  O     -7.629890    2.214010   -4.242080
  C     -9.359220    0.811960   -3.271070
  C     -9.597130    1.389220   -2.064810
  C     -9.068330    2.596610   -1.518250
  C     -8.732130    3.760310   -2.144840
  C     -8.462600    4.767720   -1.135770
  C     -8.038010    6.074070   -1.421100
  N     -7.687870    7.140560   -1.657260
  C     -8.678830    4.236730    0.105650
  C     -9.024350    2.848950   -0.057670
  C     -9.128450    1.903020    0.926080
  C     -9.331200    2.119910    2.379330
  C     -9.223160    0.901110    2.988620
  C     -8.944290   -0.101990    1.985200
  C     -8.925710    0.490010    0.751590
  C     -8.712800   -1.457110    2.263430
  N     -8.513520   -2.560700    2.504980
  C     -9.706470    3.351500    2.987950
  C     -9.668320    3.584390    4.320910
  C    -10.064690    4.829370    4.899220
  N    -10.402500    5.855960    4.130740
  N    -10.785160    6.995440    4.590340
  C    -10.945040    7.271200    5.878480
  C    -10.575700    6.265890    6.822420
  C    -10.103470    5.014580    6.312990
  N     -9.794890    4.160180    7.282870
  S    -10.078580    4.864890    8.699860
  N    -10.605250    6.282500    8.152030
  C    -11.404190    8.566170    6.272360
  C    -11.214670    9.142240    7.498580
  C    -11.622130   10.522640    7.420080
  C    -11.619990   11.409920    8.505670
  N    -11.613100   12.128230    9.400590
  C    -12.003550   10.807210    6.131130
  C    -11.937450    9.598320    5.365750
  C    -12.373980    9.425920    4.077270
  C    -12.534780   10.483540    3.060830
  C    -13.042380    9.897690    1.934540
  C    -13.261990    8.490240    2.203580
  C    -12.855080    8.207240    3.479830
  C    -13.806670    7.576220    1.291790
  N    -14.246380    6.818400    0.550050
  C    -12.075410   11.828550    3.178890
  C    -12.573870   12.859160    2.450140
  C    -12.038820   14.163880    2.534090
  C    -12.388680   15.279500    1.834950
  C    -13.285660   15.516980    0.722860
  C    -13.635190   14.643920   -0.275300
  C    -14.469500   14.987980   -1.360790
  N    -15.152730   15.199250   -2.258590
  C    -13.157060   13.326280   -0.422650
  N    -12.794830   12.256500   -0.631350
  C    -13.605210   16.942910    0.727630
  C    -12.758470   17.600720    1.657100
  C    -11.913680   16.602040    2.332070
  O    -11.046270   16.790190    3.154950
  C    -12.798050   18.959040    1.860890
  C    -13.723260   19.703670    1.123540
  C    -14.576410   19.036600    0.211650
  C    -14.531650   17.663620   -0.001100
  S    -15.648750   20.150920   -0.575330
  C    -14.957260   21.472720    0.300260
  C    -13.970200   21.105350    1.146070
  H     -7.011050    1.020870   -6.768090
  H    -10.428440   -2.500530   -5.756820
  H     -7.647080   -2.531400  -10.291160
  H     -6.648620   -0.397820   -9.164570
  H    -10.290850    0.885220   -1.404640
  H     -8.701680    3.947730   -3.200140
  H     -8.491070    4.731210    1.038990
  H     -9.357360    0.679660    4.030330
  H     -8.671260    0.003390   -0.169820
  H    -10.063980    4.149490    2.353370
  H     -9.323060    2.837880    5.020660
  H    -10.806930    8.670780    8.372180
  H    -12.420850   11.735740    5.791030
  H    -13.206480   10.367860    0.981900
  H    -12.994960    7.274760    3.987420
  H    -11.259620   12.016650    3.865060
  H    -13.424620   12.681920    1.811490
  H    -11.282200   14.332870    3.295120
  H    -12.135700   19.431060    2.569830
  H    -15.208690   17.202100   -0.700530
  H    -15.339960   22.459310    0.124530
  H    -13.426630   21.790180    1.771410

 Total Charge           Charge          ....    0
 Multiplicity           Mult            ....    1
 Number of Electrons    NEL             ....  542
 Basis Dimension        Dim             .... 1228

ORBITAL ENERGIES
----------------

  NO   OCC          E(Eh)            E(eV)
   0   2.0000     -89.059952     -2423.4445
   1   2.0000     -88.972541     -2421.0659
   2   2.0000     -88.966730     -2420.9078
   3   2.0000     -19.226241      -523.1726
   4   2.0000     -19.213211      -522.8181
   5   2.0000     -14.474743      -393.8778
   6   2.0000     -14.473878      -393.8543
   7   2.0000     -14.462079      -393.5332
   8   2.0000     -14.457574      -393.4106
   9   2.0000     -14.426377      -392.5617
  10   2.0000     -14.421321      -392.4241
  11   2.0000     -14.419931      -392.3863
  12   2.0000     -14.418828      -392.3563
  13   2.0000     -14.418580      -392.3495
  14   2.0000     -14.417444      -392.3186
  15   2.0000     -14.416094      -392.2819
  16   2.0000     -14.409568      -392.1043
  17   2.0000     -10.377401      -282.3834
  18   2.0000     -10.363591      -282.0076
  19   2.0000     -10.357249      -281.8351
  20   2.0000     -10.355416      -281.7852
  21   2.0000     -10.353812      -281.7415
  22   2.0000     -10.351569      -281.6805
  23   2.0000     -10.350456      -281.6502
  24   2.0000     -10.349912      -281.6354
  25   2.0000     -10.345412      -281.5130
  26   2.0000     -10.344525      -281.4888
  27   2.0000     -10.338409      -281.3224
  28   2.0000     -10.337571      -281.2996
  29   2.0000     -10.335953      -281.2556
  30   2.0000     -10.335869      -281.2533
  31   2.0000     -10.334059      -281.2041
  32   2.0000     -10.330601      -281.1099
  33   2.0000     -10.329682      -281.0849
  34   2.0000     -10.328807      -281.0611
  35   2.0000     -10.328716      -281.0586
  36   2.0000     -10.327204      -281.0175
  37   2.0000     -10.323863      -280.9266
  38   2.0000     -10.323641      -280.9205
  39   2.0000     -10.321896      -280.8731
  40   2.0000     -10.320740      -280.8416
  41   2.0000     -10.320059      -280.8231
  42   2.0000     -10.318768      -280.7880
  43   2.0000     -10.318163      -280.7715
  44   2.0000     -10.317935      -280.7653
  45   2.0000     -10.316538      -280.7273
  46   2.0000     -10.316361      -280.7225
  47   2.0000     -10.315915      -280.7103
  48   2.0000     -10.314943      -280.6839
  49   2.0000     -10.314231      -280.6645
  50   2.0000     -10.313890      -280.6552
  51   2.0000     -10.312130      -280.6073
  52   2.0000     -10.312029      -280.6046
  53   2.0000     -10.311724      -280.5963
  54   2.0000     -10.311683      -280.5952
  55   2.0000     -10.311635      -280.5939
  56   2.0000     -10.311346      -280.5860
  57   2.0000     -10.310775      -280.5705
  58   2.0000     -10.310030      -280.5502
  59   2.0000     -10.309621      -280.5390
  60   2.0000     -10.309564      -280.5375
  61   2.0000     -10.308982      -280.5217
  62   2.0000     -10.308767      -280.5158
  63   2.0000     -10.308693      -280.5138
  64   2.0000     -10.308576      -280.5106
  65   2.0000     -10.308536      -280.5095
  66   2.0000     -10.307348      -280.4772
  67   2.0000     -10.305813      -280.4354
  68   2.0000     -10.303512      -280.3728
  69   2.0000     -10.301710      -280.3238
  70   2.0000     -10.301104      -280.3073
  71   2.0000     -10.299397      -280.2608
  72   2.0000     -10.298913      -280.2477
  73   2.0000     -10.297710      -280.2149
  74   2.0000     -10.296357      -280.1781
  75   2.0000     -10.294521      -280.1282
  76   2.0000     -10.293800      -280.1085
  77   2.0000     -10.290517      -280.0192
  78   2.0000     -10.289077      -279.9800
  79   2.0000      -8.151506      -221.8137
  80   2.0000      -8.068760      -219.5621
  81   2.0000      -8.062960      -219.4043
  82   2.0000      -6.122634      -166.6054
  83   2.0000      -6.114782      -166.3917
  84   2.0000      -6.114153      -166.3746
  85   2.0000      -6.038277      -164.3099
  86   2.0000      -6.033942      -164.1919
  87   2.0000      -6.032453      -164.1514
  88   2.0000      -6.030457      -164.0971
  89   2.0000      -6.028177      -164.0350
  90   2.0000      -6.024647      -163.9390
  91   2.0000      -1.163904       -31.6714
  92   2.0000      -1.141657       -31.0661
  93   2.0000      -1.139234       -31.0001
  94   2.0000      -1.128150       -30.6985
  95   2.0000      -1.029667       -28.0187
  96   2.0000      -1.026817       -27.9411
  97   2.0000      -1.025913       -27.9165
  98   2.0000      -1.021568       -27.7983
  99   2.0000      -1.015816       -27.6418
 100   2.0000      -1.014054       -27.5938
 101   2.0000      -1.012033       -27.5388
 102   2.0000      -1.009517       -27.4703
 103   2.0000      -1.006830       -27.3972
 104   2.0000      -1.002104       -27.2686
 105   2.0000      -0.997428       -27.1414
 106   2.0000      -0.996458       -27.1150
 107   2.0000      -0.993239       -27.0274
 108   2.0000      -0.992736       -27.0137
 109   2.0000      -0.988476       -26.8978
 110   2.0000      -0.985493       -26.8166
 111   2.0000      -0.983533       -26.7633
 112   2.0000      -0.960642       -26.1404
 113   2.0000      -0.939092       -25.5540
 114   2.0000      -0.938047       -25.5256
 115   2.0000      -0.936288       -25.4777
 116   2.0000      -0.922324       -25.0977
 117   2.0000      -0.915218       -24.9043
 118   2.0000      -0.906180       -24.6584
 119   2.0000      -0.895645       -24.3717
 120   2.0000      -0.894278       -24.3345
 121   2.0000      -0.888123       -24.1671
 122   2.0000      -0.886419       -24.1207
 123   2.0000      -0.882847       -24.0235
 124   2.0000      -0.881612       -23.9899
 125   2.0000      -0.865076       -23.5399
 126   2.0000      -0.857430       -23.3318
 127   2.0000      -0.836598       -22.7650
 128   2.0000      -0.830752       -22.6059
 129   2.0000      -0.829703       -22.5774
 130   2.0000      -0.823562       -22.4103
 131   2.0000      -0.820741       -22.3335
 132   2.0000      -0.811444       -22.0805
 133   2.0000      -0.806229       -21.9386
 134   2.0000      -0.798695       -21.7336
 135   2.0000      -0.787170       -21.4200
 136   2.0000      -0.779501       -21.2113
 137   2.0000      -0.768844       -20.9213
 138   2.0000      -0.766372       -20.8540
 139   2.0000      -0.758313       -20.6347
 140   2.0000      -0.746154       -20.3039
 141   2.0000      -0.738131       -20.0856
 142   2.0000      -0.733328       -19.9549
 143   2.0000      -0.731211       -19.8973
 144   2.0000      -0.727928       -19.8079
 145   2.0000      -0.717594       -19.5267
 146   2.0000      -0.704136       -19.1605
 147   2.0000      -0.698921       -19.0186
 148   2.0000      -0.696723       -18.9588
 149   2.0000      -0.689530       -18.7631
 150   2.0000      -0.685199       -18.6452
 151   2.0000      -0.677311       -18.4306
 152   2.0000      -0.674393       -18.3512
 153   2.0000      -0.669066       -18.2062
 154   2.0000      -0.664372       -18.0785
 155   2.0000      -0.661715       -18.0062
 156   2.0000      -0.656712       -17.8700
 157   2.0000      -0.651281       -17.7223
 158   2.0000      -0.646544       -17.5934
 159   2.0000      -0.643965       -17.5232
 160   2.0000      -0.642950       -17.4956
 161   2.0000      -0.626732       -17.0542
 162   2.0000      -0.623620       -16.9696
 163   2.0000      -0.619587       -16.8598
 164   2.0000      -0.614527       -16.7221
 165   2.0000      -0.611677       -16.6446
 166   2.0000      -0.607798       -16.5390
 167   2.0000      -0.604866       -16.4592
 168   2.0000      -0.600835       -16.3495
 169   2.0000      -0.599866       -16.3232
 170   2.0000      -0.597236       -16.2516
 171   2.0000      -0.588781       -16.0216
 172   2.0000      -0.579420       -15.7668
 173   2.0000      -0.578592       -15.7443
 174   2.0000      -0.570659       -15.5284
 175   2.0000      -0.557897       -15.1812
 176   2.0000      -0.553899       -15.0723
 177   2.0000      -0.550614       -14.9830
 178   2.0000      -0.550543       -14.9810
 179   2.0000      -0.549096       -14.9417
 180   2.0000      -0.545931       -14.8555
 181   2.0000      -0.545434       -14.8420
 182   2.0000      -0.541368       -14.7314
 183   2.0000      -0.540725       -14.7139
 184   2.0000      -0.537742       -14.6327
 185   2.0000      -0.534775       -14.5520
 186   2.0000      -0.531401       -14.4601
 187   2.0000      -0.531033       -14.4501
 188   2.0000      -0.527813       -14.3625
 189   2.0000      -0.524328       -14.2677
 190   2.0000      -0.523892       -14.2558
 191   2.0000      -0.522213       -14.2101
 192   2.0000      -0.517628       -14.0854
 193   2.0000      -0.516698       -14.0601
 194   2.0000      -0.515062       -14.0155
 195   2.0000      -0.510308       -13.8862
 196   2.0000      -0.509152       -13.8547
 197   2.0000      -0.508178       -13.8282
 198   2.0000      -0.507419       -13.8076
 199   2.0000      -0.505057       -13.7433
 200   2.0000      -0.504250       -13.7213
 201   2.0000      -0.504232       -13.7209
 202   2.0000      -0.501569       -13.6484
 203   2.0000      -0.499646       -13.5961
 204   2.0000      -0.499481       -13.5916
 205   2.0000      -0.497550       -13.5390
 206   2.0000      -0.496329       -13.5058
 207   2.0000      -0.493290       -13.4231
 208   2.0000      -0.492598       -13.4043
 209   2.0000      -0.488957       -13.3052
 210   2.0000      -0.480698       -13.0805
 211   2.0000      -0.478153       -13.0112
 212   2.0000      -0.476354       -12.9622
 213   2.0000      -0.470253       -12.7962
 214   2.0000      -0.465536       -12.6679
 215   2.0000      -0.461511       -12.5583
 216   2.0000      -0.459262       -12.4972
 217   2.0000      -0.458971       -12.4892
 218   2.0000      -0.456737       -12.4284
 219   2.0000      -0.454443       -12.3660
 220   2.0000      -0.452178       -12.3044
 221   2.0000      -0.451866       -12.2959
 222   2.0000      -0.450321       -12.2539
 223   2.0000      -0.449418       -12.2293
 224   2.0000      -0.445799       -12.1308
 225   2.0000      -0.445512       -12.1230
 226   2.0000      -0.444720       -12.1014
 227   2.0000      -0.444564       -12.0972
 228   2.0000      -0.443631       -12.0718
 229   2.0000      -0.442740       -12.0476
 230   2.0000      -0.439631       -11.9630
 231   2.0000      -0.438689       -11.9373
 232   2.0000      -0.436750       -11.8846
 233   2.0000      -0.435508       -11.8508
 234   2.0000      -0.433947       -11.8083
 235   2.0000      -0.433653       -11.8003
 236   2.0000      -0.431509       -11.7420
 237   2.0000      -0.429284       -11.6814
 238   2.0000      -0.426948       -11.6178
 239   2.0000      -0.422915       -11.5081
 240   2.0000      -0.420453       -11.4411
 241   2.0000      -0.419889       -11.4258
 242   2.0000      -0.418064       -11.3761
 243   2.0000      -0.417235       -11.3535
 244   2.0000      -0.414537       -11.2801
 245   2.0000      -0.412423       -11.2226
 246   2.0000      -0.410991       -11.1836
 247   2.0000      -0.408752       -11.1227
 248   2.0000      -0.406285       -11.0556
 249   2.0000      -0.402926       -10.9642
 250   2.0000      -0.401879       -10.9357
 251   2.0000      -0.388791       -10.5795
 252   2.0000      -0.386573       -10.5192
 253   2.0000      -0.384769       -10.4701
 254   2.0000      -0.372736       -10.1427
 255   2.0000      -0.367879       -10.0105
 256   2.0000      -0.362999        -9.8777
 257   2.0000      -0.347617        -9.4591
 258   2.0000      -0.345185        -9.3929
 259   2.0000      -0.338169        -9.2021
 260   2.0000      -0.335957        -9.1419
 261   2.0000      -0.331318        -9.0156
 262   2.0000      -0.320982        -8.7344
 263   2.0000      -0.318464        -8.6658
 264   2.0000      -0.314357        -8.5541
 265   2.0000      -0.312585        -8.5059
 266   2.0000      -0.306562        -8.3420
 267   2.0000      -0.297595        -8.0980
 268   2.0000      -0.295952        -8.0533
 269   2.0000      -0.281983        -7.6731
 270   2.0000      -0.277203        -7.5431
 271   0.0000      -0.141223        -3.8429
 272   0.0000      -0.131972        -3.5911
 273   0.0000      -0.102398        -2.7864
 274   0.0000      -0.091360        -2.4860
 275   0.0000      -0.088731        -2.4145

MULLIKEN ATOMIC CHARGES
-----------------------
   0 C :    0.312166
   1 C :   -0.353086
   2 C :   -0.182332
   3 N :    0.158563
   4 C :   -0.186700
   5 N :    0.154873
   6 C :    0.019770
   7 C :   -0.022703
   8 C :   -0.065657
   9 C :    0.118184
  10 C :   -0.094811
  11 C :   -0.021547
  12 S :    0.147977
  13 C :   -0.043919
  14 C :    0.021796
  15 C :    0.136665
  16 O :   -0.144434
  17 C :   -0.052575
  18 C :   -0.089033
  19 C :    0.076292
  20 C :    0.051752
  21 C :   -0.114602
  22 C :   -0.126559
  23 N :    0.156614
  24 C :   -0.004197
  25 C :    0.039949
  26 C :    0.064598
  27 C :    0.094853
  28 C :   -0.009871
  29 C :   -0.084878
  30 C :   -0.020908
  31 C :   -0.127417
  32 N :    0.150763
  33 C :    0.016978
  34 C :   -0.054340
  35 C :   -0.014538
  36 N :   -0.063878
  37 N :   -0.067826
  38 C :   -0.019987
  39 C :    0.044684
  40 C :    0.041021
  41 N :   -0.254763
  42 S :    0.549087
  43 N :   -0.257494
  44 C :    0.030326
  45 C :   -0.017908
  46 C :   -0.093155
  47 C :   -0.133348
  48 N :    0.150588
  49 C :   -0.028759
  50 C :    0.020282
  51 C :    0.079659
  52 C :    0.057102
  53 C :    0.028676
  54 C :   -0.133659
  55 C :    0.077009
  56 C :   -0.128161
  57 N :    0.141395
  58 C :   -0.018176
  59 C :    0.010038
  60 C :    0.015150
  61 C :   -0.099948
  62 C :    0.296663
  63 C :   -0.345784
  64 C :   -0.181581
  65 N :    0.149708
  66 C :   -0.185329
  67 N :    0.160679
  68 C :    0.002203
  69 C :   -0.002723
  70 C :    0.135571
  71 O :   -0.146143
  72 C :   -0.064761
  73 C :    0.109764
  74 C :   -0.095805
  75 C :   -0.020191
  76 S :    0.141285
  77 C :   -0.049593
  78 C :    0.028002
  79 H :   -0.008326
  80 H :   -0.004142
  81 H :    0.041356
  82 H :   -0.003575
  83 H :    0.032559
  84 H :    0.019656
  85 H :    0.019396
  86 H :    0.003723
  87 H :    0.013147
  88 H :    0.024370
  89 H :   -0.001748
  90 H :    0.006279
  91 H :    0.009573
  92 H :    0.006574
  93 H :   -0.002403
  94 H :    0.020996
  95 H :    0.017656
  96 H :    0.017167
  97 H :   -0.009743
  98 H :   -0.003148
  99 H :    0.038625
 100 H :   -0.005598
Sum of atomic charges:   -0.0000000

LOEWDIN ATOMIC CHARGES
----------------------
   0 C :    0.076093
   1 C :   -0.136070
   2 C :   -0.017980
   3 N :   -0.045714
   4 C :   -0.021354
   5 N :   -0.046607
   6 C :   -0.023740
   7 C :   -0.055216
   8 C :    0.025938
   9 C :   -0.032362
  10 C :   -0.143731
  11 C :   -0.006213
  12 S :    0.435311
  13 C :   -0.145486
  14 C :   -0.057004
  15 C :    0.083741
  16 O :   -0.137362
  17 C :   -0.081700
  18 C :    0.061619
  19 C :   -0.051238
  20 C :    0.080115
  21 C :   -0.050723
  22 C :   -0.030657
  23 N :   -0.027697
  24 C :    0.025557
  25 C :    0.041101
  26 C :    0.042080
  27 C :   -0.035297
  28 C :    0.034582
  29 C :   -0.042936
  30 C :    0.012205
  31 C :   -0.029077
  32 N :   -0.031479
  33 C :    0.028201
  34 C :   -0.030135
  35 C :   -0.004931
  36 N :   -0.055821
  37 N :   -0.033631
  38 C :   -0.006605
  39 C :   -0.053868
  40 C :   -0.060084
  41 N :   -0.267102
  42 S :    0.680036
  43 N :   -0.269724
  44 C :   -0.043766
  45 C :    0.033602
  46 C :   -0.058565
  47 C :   -0.032001
  48 N :   -0.038399
  49 C :    0.011700
  50 C :    0.026667
  51 C :    0.066216
  52 C :   -0.056709
  53 C :    0.069019
  54 C :   -0.069775
  55 C :    0.046286
  56 C :   -0.029961
  57 N :   -0.043396
  58 C :    0.030038
  59 C :   -0.028936
  60 C :    0.065655
  61 C :   -0.093371
  62 C :    0.075099
  63 C :   -0.142221
  64 C :   -0.019182
  65 N :   -0.050138
  66 C :   -0.012403
  67 N :   -0.054456
  68 C :   -0.020410
  69 C :   -0.054593
  70 C :    0.082672
  71 O :   -0.144437
  72 C :    0.024378
  73 C :   -0.034941
  74 C :   -0.144970
  75 C :   -0.010368
  76 S :    0.430098
  77 C :   -0.148822
  78 C :   -0.057330
  79 H :    0.041665
  80 H :    0.041630
  81 H :    0.030733
  82 H :    0.036598
  83 H :    0.045407
  84 H :    0.041111
  85 H :    0.042156
  86 H :    0.036486
  87 H :    0.036973
  88 H :    0.038224
  89 H :    0.034636
  90 H :    0.035182
  91 H :    0.037173
  92 H :    0.039118
  93 H :    0.033094
  94 H :    0.036891
  95 H :    0.033600
  96 H :    0.044883
  97 H :    0.041223
  98 H :    0.040696
  99 H :    0.029534
 100 H :    0.035673

  Mayer bond orders larger than 0.100000
B(  0-C ,  1-C ) :   1.6367 B(  0-C ,  6-C ) :   1.0110 B(  0-C , 17-C ) :   1.0461
B(  1-C ,  2-C ) :   1.1418 B(  1-C ,  4-C ) :   1.1466 B(  2-C ,  3-N ) :   2.9705
B(  4-C ,  5-N ) :   2.9459 B(  6-C ,  7-C ) :   1.2602 B(  6-C , 11-C ) :   1.4026
B(  7-C ,  8-C ) :   1.4205 B(  7-C , 15-C ) :   0.9487 B(  8-C ,  9-C ) :   1.2483
B(  8-C , 79-H ) :   1.0171 B(  9-C , 10-C ) :   1.2930 B(  9-C , 14-C ) :   1.1721
B( 10-C , 11-C ) :   1.3300 B( 10-C , 12-S ) :   1.1028 B( 11-C , 80-H ) :   0.9823
B( 12-S , 13-C ) :   1.1272 B( 13-C , 14-C ) :   1.6280 B( 13-C , 81-H ) :   0.9681
B( 14-C , 82-H ) :   1.0004 B( 15-C , 16-O ) :   2.2253 B( 15-C , 17-C ) :   0.9215
B( 17-C , 18-C ) :   1.6673 B( 18-C , 19-C ) :   1.0722 B( 18-C , 83-H ) :   0.9237
B( 19-C , 20-C ) :   1.5919 B( 19-C , 25-C ) :   1.0455 B( 20-C , 21-C ) :   1.0884
B( 20-C , 84-H ) :   1.0092 B( 21-C , 22-C ) :   1.0612 B( 21-C , 24-C ) :   1.6335
B( 22-C , 23-N ) :   3.0431 B( 24-C , 25-C ) :   1.0716 B( 24-C , 85-H ) :   1.0137
B( 25-C , 26-C ) :   1.4997 B( 26-C , 27-C ) :   1.0415 B( 26-C , 30-C ) :   1.0807
B( 27-C , 28-C ) :   1.5976 B( 27-C , 33-C ) :   1.0483 B( 28-C , 29-C ) :   1.1005
B( 28-C , 86-H ) :   1.0120 B( 29-C , 30-C ) :   1.6314 B( 29-C , 31-C ) :   1.0576
B( 30-C , 87-H ) :   1.0114 B( 31-C , 32-N ) :   3.0412 B( 33-C , 34-C ) :   1.6531
B( 33-C , 88-H ) :   0.9679 B( 34-C , 35-C ) :   1.1510 B( 34-C , 89-H ) :   0.9801
B( 35-C , 36-N ) :   1.6331 B( 35-C , 38-C ) :   0.1200 B( 35-C , 40-C ) :   1.0744
B( 36-N , 37-N ) :   1.2269 B( 37-N , 38-C ) :   1.6437 B( 38-C , 39-C ) :   1.1205
B( 38-C , 44-C ) :   1.0799 B( 39-C , 40-C ) :   1.1929 B( 39-C , 43-N ) :   1.5550
B( 40-C , 41-N ) :   1.5579 B( 41-N , 42-S ) :   1.2833 B( 41-N , 43-N ) :   0.1440
B( 42-S , 43-N ) :   1.2742 B( 44-C , 45-C ) :   1.6117 B( 44-C , 50-C ) :   1.0489
B( 45-C , 46-C ) :   1.1016 B( 45-C , 90-H ) :   1.0050 B( 46-C , 47-C ) :   1.0531
B( 46-C , 49-C ) :   1.6001 B( 47-C , 48-N ) :   3.0462 B( 49-C , 50-C ) :   1.0991
B( 49-C , 91-H ) :   1.0152 B( 50-C , 51-C ) :   1.4791 B( 51-C , 52-C ) :   1.0582
B( 51-C , 55-C ) :   1.0679 B( 52-C , 53-C ) :   1.5964 B( 52-C , 58-C ) :   1.0492
B( 53-C , 54-C ) :   1.0740 B( 53-C , 92-H ) :   1.0016 B( 54-C , 55-C ) :   1.6507
B( 54-C , 56-C ) :   1.0623 B( 55-C , 93-H ) :   1.0010 B( 56-C , 57-N ) :   3.0410
B( 58-C , 59-C ) :   1.6657 B( 58-C , 94-H ) :   0.9701 B( 59-C , 60-C ) :   1.1287
B( 59-C , 95-H ) :   0.9680 B( 60-C , 61-C ) :   1.6131 B( 60-C , 96-H ) :   0.9520
B( 61-C , 62-C ) :   1.0334 B( 61-C , 70-C ) :   0.9396 B( 62-C , 63-C ) :   1.6335
B( 62-C , 68-C ) :   1.0136 B( 63-C , 64-C ) :   1.1259 B( 63-C , 66-C ) :   1.1721
B( 64-C , 65-N ) :   2.9846 B( 66-C , 67-N ) :   2.9563 B( 68-C , 69-C ) :   1.2691
B( 68-C , 75-C ) :   1.4128 B( 69-C , 70-C ) :   0.9284 B( 69-C , 72-C ) :   1.4287
B( 70-C , 71-O ) :   2.2559 B( 72-C , 73-C ) :   1.2503 B( 72-C , 97-H ) :   1.0163
B( 73-C , 74-C ) :   1.3030 B( 73-C , 78-C ) :   1.1726 B( 74-C , 75-C ) :   1.3242
B( 74-C , 76-S ) :   1.0978 B( 75-C , 98-H ) :   0.9836 B( 76-S , 77-C ) :   1.1272
B( 77-C , 78-C ) :   1.6278 B( 77-C , 99-H ) :   0.9687 B( 78-C ,100-H ) :   0.9994

-----------------------------------------------------------------------------
         ABSORPTION SPECTRUM VIA TRANSITION ELECTRIC DIPOLE MOMENTS
-----------------------------------------------------------------------------
State   Energy  Wavelength   fosc         T2         TX        TY        TZ
        (cm-1)    (nm)                  (au**2)     (au)      (au)      (au)
-----------------------------------------------------------------------------
   0   12258.5    815.8   0.112739231   3.02769   0.52347  -1.64566  -0.21326
   1   12824.4    779.8   0.084256436   2.16292  -0.26542   0.53716   1.34310
   2   14781.4    676.5   0.064355490   1.43333  -0.50396   1.07296  -0.16766
   3   15959.2    626.6   0.032401482   0.66839  -0.19421  -0.34725  -0.71421
   4   16985.2    588.7   0.012275396   0.23793   0.13389  -0.03219  -0.46793
   5   18610.9    537.3   0.001263128   0.02234   0.03203  -0.10911  -0.09701
   6   20559.6    486.4   0.146367449   2.34371   0.49919  -1.21383  -0.78812
   7   21376.8    467.8   0.406765006   6.26434   0.87986  -2.07088  -1.09620
   8   21527.2    464.5   0.051686567   0.79043   0.16283  -0.87377  -0.02098
   9   22895.3    436.8   0.203454035   2.92547  -0.38084   1.43796  -0.84421
  10   23045.5    433.9   0.366041591   5.22902  -0.37956   1.20211  -1.90785
  11   23595.1    423.8   0.023026061   0.32127  -0.08883   0.47024  -0.30373
  12   23834.7    419.6   0.220070694   3.03968  -0.17218   1.18232  -1.26971
  13   24461.6    408.8   0.035595063   0.47905   0.11112   0.68082   0.05646
  14   24736.0    404.3   0.022088222   0.29397   0.24454  -0.48175  -0.04569
  15   25145.4    397.7   0.034241834   0.44830   0.04031   0.34787  -0.57067
  16   25697.9    389.1   0.165169328   2.11596  -0.26265  -0.57359  -1.31071
  17   25893.2    386.2   0.036037844   0.45819   0.06263  -0.63489  -0.22624
  18   26088.0    383.3   0.136087462   1.71733   0.44053  -0.10075   1.23008
  19   26547.2    376.7   0.034166740   0.42370  -0.10226   0.58957   0.25623
  20   27190.0    367.8   0.067328981   0.81521   0.00755  -0.10667   0.89653
  21   27211.9    367.5   0.015676401   0.18965  -0.13040   0.40350  -0.09919
  22   27690.6    361.1   0.072242660   0.85889  -0.22828  -0.46328  -0.76951
  23   28440.8    351.6   0.043777253   0.50674   0.10664  -0.58435  -0.39230
  24   28750.7    347.8   0.282203254   3.23139   0.46823  -0.36619  -1.69648
  25   28876.4    346.3   0.187383189   2.13630   0.52159  -0.96425   0.96668
  26   29097.7    343.7   0.102211300   1.15642   0.12846   0.72087   0.78757
  27   29239.3    342.0   0.375053100   4.22280   0.47915   1.87086  -0.70220
  28   29601.2    337.8   0.003809414   0.04237   0.01266  -0.12594   0.16232
  29   29849.2    335.0   0.044443951   0.49018   0.11555  -0.45505  -0.51939
  30   29977.3    333.6   0.118926602   1.30606  -0.36200   0.65264  -0.86549
  31   30373.7    329.2   0.088111876   0.95502  -0.10881  -0.54603  -0.80314
  32   30467.1    328.2   0.083784403   0.90533  -0.13706   0.93096   0.14092
  33   30591.5    326.9   0.062708796   0.67484  -0.30459  -0.15424   0.74718
  34   30904.6    323.6   0.183890749   1.95890  -0.20670  -1.36261   0.24386
  35   31330.5    319.2   0.017695071   0.18593  -0.01226  -0.37372  -0.21474
  36   31432.5    318.1   0.011569227   0.12117  -0.01943   0.32561  -0.12154
  37   31776.8    314.7   0.032482167   0.33652  -0.26847   0.33359   0.39136
  38   31959.8    312.9   0.053566958   0.55178   0.01659   0.70031   0.24712
  39   32174.9    310.8   0.262033169   2.68111  -0.28046  -1.44603  -0.71515
  40   32450.6    308.2   0.057509389   0.58343  -0.15834  -0.48258   0.57051
  41   32550.3    307.2   0.005764029   0.05830  -0.19632  -0.05376  -0.12987
  42   32865.9    304.3   0.004672781   0.04681   0.02689  -0.16686  -0.13507
  43   33085.3    302.2   0.055006067   0.54733   0.08547   0.73193   0.06568
  44   33174.8    301.4   0.102799012   1.02013   0.07626  -0.71848  -0.70576
  45   33499.0    298.5   0.205398730   2.01856  -0.69116  -0.02786   1.24100
  46   33590.7    297.7   0.111510388   1.09288   0.21881   0.95915   0.35360
  47   33820.8    295.7   0.073144424   0.71199   0.11761  -0.09219  -0.83046
  48   34052.9    293.7   0.311053512   3.00716   0.81799  -0.55176  -1.42605
  49   34206.4    292.3   0.454112637   4.37051  -0.10499   2.02389   0.51318
  50   34250.9    292.0   0.035453351   0.34077  -0.38750   0.14208  -0.41283
  51   34312.1    291.4   0.207245614   1.98844   0.90991   0.50243  -0.95292
  52   34710.5    288.1   0.057216951   0.54267  -0.10660  -0.09845   0.72223
  53   34912.9    286.4   0.095484320   0.90037   0.03299  -0.92239  -0.22016
  54   35140.0    284.6   0.316043717   2.96088   0.08317  -1.64631  -0.49357
  55   35224.3    283.9   0.089652241   0.83790  -0.02927   0.91470  -0.01932
  56   35660.5    280.4   0.026935591   0.24867   0.09214  -0.47940  -0.10172
  57   35921.5    278.4   0.027782086   0.25462  -0.03816  -0.43295  -0.25636
  58   36097.3    277.0   0.193087894   1.76099  -0.17702   1.01803   0.83263
  59   36411.1    274.6   0.008832552   0.07986   0.13299  -0.23235  -0.09048
  60   36603.1    273.2   0.286023882   2.57252  -0.13891   1.56651   0.31510
  61   37158.9    269.1   0.072150008   0.63922   0.23878   0.36233   0.67151
  62   37424.1    267.2   0.088135031   0.77531  -0.22412   0.84279  -0.12159
  63   37628.8    265.8   0.065117773   0.56971  -0.11756   0.74438   0.04231
  64   37645.3    265.6   0.016133351   0.14109   0.16864  -0.14075   0.30469
  65   37841.8    264.3   0.001586792   0.01380  -0.00894   0.07908  -0.08643
  66   37858.2    264.1   0.063993842   0.55648   0.26735   0.44545   0.53533
  67   38047.8    262.8   0.038013369   0.32891  -0.08179  -0.00770  -0.56760
  68   38136.4    262.2   0.007264393   0.06271   0.06208  -0.21098   0.11976
  69   38343.5    260.8   0.003430484   0.02945  -0.09868   0.03175  -0.13677
  70   38489.5    259.8   0.027039457   0.23128  -0.08544  -0.42742  -0.20319
  71   38526.2    259.6   0.282517355   2.41415  -0.46448  -1.40215  -0.48208
  72   38783.3    257.8   0.014592393   0.12387   0.20988  -0.04149   0.27945
  73   38862.6    257.3   0.077236095   0.65428  -0.31593  -0.61854  -0.41459
  74   38956.6    256.7   0.041391506   0.34979  -0.28908   0.23500  -0.45934
  75   39058.4    256.0   0.105358119   0.88803   0.32820  -0.65176   0.59627
  76   39188.1    255.2   0.004363569   0.03666  -0.07415   0.11579  -0.13324
  77   39424.6    253.6   0.081448720   0.68013  -0.34440  -0.68272   0.30890
  78   39583.5    252.6   0.130840259   1.08819  -0.69392  -0.03773  -0.77797
  79   39997.9    250.0   0.009050567   0.07449   0.24263   0.03757   0.11922
  80   40054.7    249.7   0.047643322   0.39158   0.15109   0.52703   0.30166
  81   40165.7    249.0   0.074015684   0.60666   0.18905   0.75298  -0.06274
  82   40293.1    248.2   0.007625119   0.06230   0.07063  -0.23810   0.02489

FINAL SINGLE POINT ENERGY     -4373.121525562747

DIPOLE MOMENT
-------------
                                X             Y             Z
Electronic contribution:     -2.97653     -13.54600       8.06632
Nuclear contribution   :      4.21342      14.35190      -7.82099
                        -----------------------------------------
Total Dipole Moment    :      1.23689       0.80590       0.24533
                        -----------------------------------------
Magnitude (a.u.)       :      1.49652
Magnitude (Debye)      :      3.80384

Rotational constants in cm-1:     0.000887     0.000266     0.000214
Rotational constants in MHz :    26.594023     7.989232     6.411072

                             ****ORCA TERMINATED NORMALLY****
TOTAL RUN TIME: 0 days 0 hours 23 minutes 9 seconds 692 msec
