                         Program Version 4.2.0 -  RELEASE  -
|  1> # ORCA input file
|  2> # SCF done       -201.761331236949          0.000912792712
|  3> ! CAM-B3LYP def2-SVP def2/J RIJCOSX Grid4 TightSCF
|  4> %maxcore 5000
|  5> %tddft
|  6>     Mode sTDDFT
|  7>     Ethresh 5.0
|  8>     maxcore 5000
|  9> end
| 10>
| 11> %pal
| 12>   nprocs 6
| 13>   end
| 14> * xyz 0 1
| 15>    C        0.25093         1.71506        -0.36149
| 16>    C        0.93838         0.95484         0.54488
| 17>    C        1.18849        -0.42562         0.38833
| 18>    N        1.41595        -1.54830         0.32526
| 19>    C        1.45339         1.43919         1.76557
| 20>    N        1.89782         1.78442         2.76612
| 21>    C       -0.30499         1.25299        -1.62588
| 22>    C       -1.09150         2.29731        -2.19557
| 23>    C       -1.72243         2.15251        -3.39812
| 24>    C       -1.57104         0.94457        -4.11212
| 25>    C       -0.77483        -0.09943        -3.55679
| 26>    C       -0.15169         0.07012        -2.30068
| 27>    C       -0.61761        -1.29425        -4.28765
| 28>    C       -1.21582        -1.45137        -5.50811
| 29>    C       -2.00028        -0.42358        -6.05269
| 30>    C       -2.17473         0.74913        -5.36940
| 31>    C       -1.04176         3.47444        -1.32295
| 32>    O       -1.70341         4.48847        -1.39663
| 33>    C       -0.05298         3.13485        -0.25376
| 34>    C        0.46526         4.05550         0.59715
| 35>    C        0.23404         5.46139         0.44826
| 36>    C       -0.12046         6.29857         1.46136
| 37>    C       -0.55736         7.55472         0.88600
| 38>    C       -1.03144         8.65272         1.61866
| 39>    N       -1.40305         9.56537         2.20656
| 40>    C       -0.44146         7.49194        -0.47387
| 41>    C        0.16222         6.23132        -0.82039
| 42>    C        0.71251         5.87289        -2.02222
| 43>    C        0.38872         6.45519        -3.34251
| 44>    C        0.53868         5.45859        -4.25700
| 45>    C        1.14774         4.31019        -3.61301
| 46>    C        1.32738         4.59050        -2.28916
| 47>    C        1.45011         3.09808        -4.24647
| 48>    N        1.65032         2.08768        -4.75376
| 49>    C       -0.00059         7.79978        -3.67634
| 50>    C        0.47782         8.90312        -3.07888
| 51>    C        0.05114        10.25352        -3.41215
| 52>    C       -0.28525        11.11762        -2.38615
| 53>    C       -0.92547        12.32804        -2.63786
| 54>    C       -1.22749        12.72954        -3.92431
| 55>    C       -0.73521        11.94584        -5.01370
| 56>    C       -0.09885        10.70090        -4.75435
| 57>    C        0.40890         9.99695        -5.86690
| 58>    C        0.24374        10.50337        -7.12758
| 59>    C       -0.41441        11.73449        -7.27030
| 60>    N       -0.87006        12.42436        -6.26456
| 61>    C       -2.00647        13.92897        -4.15969
| 62>    C       -1.87751        15.12065        -3.52874
| 63>    C       -2.77069        16.08084        -4.16767
| 64>    C       -2.94259        17.40561        -3.74880
| 65>    N       -3.07580        18.49335        -3.40608
| 66>    C       -3.39976        15.48052        -5.22266
| 67>    C       -2.99970        14.10147        -5.24468
| 68>    C       -3.49371        13.09286        -6.02740
| 69>    C       -4.11110        13.18955        -7.36766
| 70>    C       -4.41569        11.91468        -7.76385
| 71>    C       -4.06936        10.99665        -6.70408
| 72>    C       -3.50844        11.69841        -5.67228
| 73>    C       -4.23525         9.60612        -6.75579
| 74>    N       -4.33329         8.46347        -6.80649
| 75>    C       -4.20303        14.38451        -8.13613
| 76>    C       -4.85689        14.48629        -9.32197
| 77>    C       -4.95230        15.66406       -10.10726
| 78>    C       -4.98377        16.96252        -9.68220
| 79>    C       -4.99629        18.12451       -10.55465
| 80>    C       -4.56070        18.15866       -11.85372
| 81>    C       -4.56690        19.31831       -12.65617
| 82>    N       -4.55512        20.22724       -13.35723
| 83>    C       -4.00929        17.05834       -12.54307
| 84>    N       -3.52954        16.21122       -13.15232
| 85>    C       -5.45295        19.26743        -9.77633
| 86>    C       -5.63032        18.84812        -8.42686
| 87>    C       -5.31244        17.41809        -8.30676
| 88>    O       -5.38383        16.75236        -7.29284
| 89>    C       -6.03995        19.70936        -7.44955
| 90>    C       -6.30577        21.05478        -7.78780
| 91>    C       -6.14680        21.47914        -9.13912
| 92>    C       -5.71312        20.56537       -10.12746
| 93>    C       -6.42797        22.82109        -9.46597
| 94>    C       -6.84384        23.70309        -8.50568
| 95>    C       -6.99607        23.28499        -7.17528
| 96>    C       -6.73150        21.98907        -6.82340
| 97>    H       -2.31371         2.95877        -3.80705
| 98>    H        0.44841        -0.73588        -1.90884
| 99>    H       -0.01159        -2.08204        -3.86548
|100>    H       -1.08629        -2.36873        -6.06237
|101>    H       -2.46407        -0.56462        -7.01745
|102>    H       -2.77594         1.54501        -5.78401
|103>    H        1.04357         3.74419         1.45768
|104>    H       -0.17890         6.05670         2.50641
|105>    H       -0.71695         8.26330        -1.16363
|106>    H        0.31725         5.51106        -5.30697
|107>    H        1.83478         3.97359        -1.57510
|108>    H       -0.67688         7.89446        -4.51693
|109>    H        1.16128         8.81214        -2.24333
|110>    H       -0.12181        10.81789        -1.36054
|111>    H       -1.25139        12.93309        -1.80524
|112>    H        0.95439         9.07814        -5.70956
|113>    H        0.62855         9.98986        -7.99435
|114>    H       -0.55379        12.17922        -8.24745
|115>    H       -1.20773        15.36759        -2.72629
|116>    H       -4.17012        15.92151        -5.82528
|117>    H       -4.81479        11.60238        -8.71063
|118>    H       -3.22063        11.29748        -4.71934
|119>    H       -3.67262        15.24336        -7.75977
|120>    H       -5.30030        13.60048        -9.75785
|121>    H       -5.07030        15.49076       -11.17151
|122>    H       -6.15731        19.36956        -6.43115
|123>    H       -5.60544        20.91516       -11.14208
|124>    H       -6.30658        23.13951       -10.49096
|125>    H       -7.05693        24.72891        -8.76651
|126>    H       -7.32419        23.99459        -6.43065
|127>    H       -6.84524        21.66077        -5.80079
|128> *
|129>
|130>                          ****END OF INPUT****

CARTESIAN COORDINATES (ANGSTROEM)
---------------------------------
  C      0.250930    1.715060   -0.361490
  C      0.938380    0.954840    0.544880
  C      1.188490   -0.425620    0.388330
  N      1.415950   -1.548300    0.325260
  C      1.453390    1.439190    1.765570
  N      1.897820    1.784420    2.766120
  C     -0.304990    1.252990   -1.625880
  C     -1.091500    2.297310   -2.195570
  C     -1.722430    2.152510   -3.398120
  C     -1.571040    0.944570   -4.112120
  C     -0.774830   -0.099430   -3.556790
  C     -0.151690    0.070120   -2.300680
  C     -0.617610   -1.294250   -4.287650
  C     -1.215820   -1.451370   -5.508110
  C     -2.000280   -0.423580   -6.052690
  C     -2.174730    0.749130   -5.369400
  C     -1.041760    3.474440   -1.322950
  O     -1.703410    4.488470   -1.396630
  C     -0.052980    3.134850   -0.253760
  C      0.465260    4.055500    0.597150
  C      0.234040    5.461390    0.448260
  C     -0.120460    6.298570    1.461360
  C     -0.557360    7.554720    0.886000
  C     -1.031440    8.652720    1.618660
  N     -1.403050    9.565370    2.206560
  C     -0.441460    7.491940   -0.473870
  C      0.162220    6.231320   -0.820390
  C      0.712510    5.872890   -2.022220
  C      0.388720    6.455190   -3.342510
  C      0.538680    5.458590   -4.257000
  C      1.147740    4.310190   -3.613010
  C      1.327380    4.590500   -2.289160
  C      1.450110    3.098080   -4.246470
  N      1.650320    2.087680   -4.753760
  C     -0.000590    7.799780   -3.676340
  C      0.477820    8.903120   -3.078880
  C      0.051140   10.253520   -3.412150
  C     -0.285250   11.117620   -2.386150
  C     -0.925470   12.328040   -2.637860
  C     -1.227490   12.729540   -3.924310
  C     -0.735210   11.945840   -5.013700
  C     -0.098850   10.700900   -4.754350
  C      0.408900    9.996950   -5.866900
  C      0.243740   10.503370   -7.127580
  C     -0.414410   11.734490   -7.270300
  N     -0.870060   12.424360   -6.264560
  C     -2.006470   13.928970   -4.159690
  C     -1.877510   15.120650   -3.528740
  C     -2.770690   16.080840   -4.167670
  C     -2.942590   17.405610   -3.748800
  N     -3.075800   18.493350   -3.406080
  C     -3.399760   15.480520   -5.222660
  C     -2.999700   14.101470   -5.244680
  C     -3.493710   13.092860   -6.027400
  C     -4.111100   13.189550   -7.367660
  C     -4.415690   11.914680   -7.763850
  C     -4.069360   10.996650   -6.704080
  C     -3.508440   11.698410   -5.672280
  C     -4.235250    9.606120   -6.755790
  N     -4.333290    8.463470   -6.806490
  C     -4.203030   14.384510   -8.136130
  C     -4.856890   14.486290   -9.321970
  C     -4.952300   15.664060  -10.107260
  C     -4.983770   16.962520   -9.682200
  C     -4.996290   18.124510  -10.554650
  C     -4.560700   18.158660  -11.853720
  C     -4.566900   19.318310  -12.656170
  N     -4.555120   20.227240  -13.357230
  C     -4.009290   17.058340  -12.543070
  N     -3.529540   16.211220  -13.152320
  C     -5.452950   19.267430   -9.776330
  C     -5.630320   18.848120   -8.426860
  C     -5.312440   17.418090   -8.306760
  O     -5.383830   16.752360   -7.292840
  C     -6.039950   19.709360   -7.449550
  C     -6.305770   21.054780   -7.787800
  C     -6.146800   21.479140   -9.139120
  C     -5.713120   20.565370  -10.127460
  C     -6.427970   22.821090   -9.465970
  C     -6.843840   23.703090   -8.505680
  C     -6.996070   23.284990   -7.175280
  C     -6.731500   21.989070   -6.823400
  H     -2.313710    2.958770   -3.807050
  H      0.448410   -0.735880   -1.908840
  H     -0.011590   -2.082040   -3.865480
  H     -1.086290   -2.368730   -6.062370
  H     -2.464070   -0.564620   -7.017450
  H     -2.775940    1.545010   -5.784010
  H      1.043570    3.744190    1.457680
  H     -0.178900    6.056700    2.506410
  H     -0.716950    8.263300   -1.163630
  H      0.317250    5.511060   -5.306970
  H      1.834780    3.973590   -1.575100
  H     -0.676880    7.894460   -4.516930
  H      1.161280    8.812140   -2.243330
  H     -0.121810   10.817890   -1.360540
  H     -1.251390   12.933090   -1.805240
  H      0.954390    9.078140   -5.709560
  H      0.628550    9.989860   -7.994350
  H     -0.553790   12.179220   -8.247450
  H     -1.207730   15.367590   -2.726290
  H     -4.170120   15.921510   -5.825280
  H     -4.814790   11.602380   -8.710630
  H     -3.220630   11.297480   -4.719340
  H     -3.672620   15.243360   -7.759770
  H     -5.300300   13.600480   -9.757850
  H     -5.070300   15.490760  -11.171510
  H     -6.157310   19.369560   -6.431150
  H     -5.605440   20.915160  -11.142080
  H     -6.306580   23.139510  -10.490960
  H     -7.056930   24.728910   -8.766510
  H     -7.324190   23.994590   -6.430650
  H     -6.845240   21.660770   -5.800790

 Total Charge           Charge          ....    0
 Multiplicity           Mult            ....    1
 Number of Electrons    NEL             ....  536
 Basis Dimension        Dim             .... 1303

ORBITAL ENERGIES
----------------

  NO   OCC          E(Eh)            E(eV)
   0   2.0000     -19.229825      -523.2701
   1   2.0000     -19.222610      -523.0738
   2   2.0000     -14.427242      -392.5852
   3   2.0000     -14.423547      -392.4847
   4   2.0000     -14.423201      -392.4753
   5   2.0000     -14.422550      -392.4575
   6   2.0000     -14.419180      -392.3658
   7   2.0000     -14.417193      -392.3118
   8   2.0000     -14.415077      -392.2542
   9   2.0000     -14.414739      -392.2450
  10   2.0000     -14.413020      -392.1982
  11   2.0000     -10.379579      -282.4427
  12   2.0000     -10.374112      -282.2939
  13   2.0000     -10.353962      -281.7456
  14   2.0000     -10.351853      -281.6882
  15   2.0000     -10.342133      -281.4237
  16   2.0000     -10.340441      -281.3777
  17   2.0000     -10.338803      -281.3331
  18   2.0000     -10.336094      -281.2594
  19   2.0000     -10.334470      -281.2152
  20   2.0000     -10.332224      -281.1541
  21   2.0000     -10.332053      -281.1495
  22   2.0000     -10.329209      -281.0721
  23   2.0000     -10.328131      -281.0427
  24   2.0000     -10.327678      -281.0304
  25   2.0000     -10.327004      -281.0121
  26   2.0000     -10.325830      -280.9801
  27   2.0000     -10.325211      -280.9633
  28   2.0000     -10.323651      -280.9208
  29   2.0000     -10.322435      -280.8877
  30   2.0000     -10.322037      -280.8769
  31   2.0000     -10.321123      -280.8520
  32   2.0000     -10.321046      -280.8499
  33   2.0000     -10.318804      -280.7889
  34   2.0000     -10.318137      -280.7708
  35   2.0000     -10.317645      -280.7574
  36   2.0000     -10.317503      -280.7535
  37   2.0000     -10.316865      -280.7362
  38   2.0000     -10.316633      -280.7298
  39   2.0000     -10.314422      -280.6697
  40   2.0000     -10.311996      -280.6037
  41   2.0000     -10.311707      -280.5958
  42   2.0000     -10.311499      -280.5901
  43   2.0000     -10.310893      -280.5737
  44   2.0000     -10.309787      -280.5436
  45   2.0000     -10.309687      -280.5408
  46   2.0000     -10.309614      -280.5389
  47   2.0000     -10.307914      -280.4926
  48   2.0000     -10.306414      -280.4518
  49   2.0000     -10.305752      -280.4338
  50   2.0000     -10.305654      -280.4311
  51   2.0000     -10.305356      -280.4230
  52   2.0000     -10.304959      -280.4122
  53   2.0000     -10.303727      -280.3787
  54   2.0000     -10.303700      -280.3779
  55   2.0000     -10.303251      -280.3657
  56   2.0000     -10.302858      -280.3550
  57   2.0000     -10.302571      -280.3472
  58   2.0000     -10.301178      -280.3093
  59   2.0000     -10.301102      -280.3072
  60   2.0000     -10.301040      -280.3056
  61   2.0000     -10.300613      -280.2939
  62   2.0000     -10.300023      -280.2779
  63   2.0000     -10.298100      -280.2256
  64   2.0000     -10.297900      -280.2201
  65   2.0000     -10.297520      -280.2098
  66   2.0000     -10.297332      -280.2046
  67   2.0000     -10.296785      -280.1898
  68   2.0000     -10.296638      -280.1858
  69   2.0000     -10.296300      -280.1766
  70   2.0000     -10.295010      -280.1415
  71   2.0000     -10.294871      -280.1377
  72   2.0000     -10.294162      -280.1184
  73   2.0000     -10.289863      -280.0014
  74   2.0000     -10.288784      -279.9720
  75   2.0000     -10.288019      -279.9512
  76   2.0000     -10.287601      -279.9399
  77   2.0000     -10.287059      -279.9251
  78   2.0000     -10.286149      -279.9003
  79   2.0000     -10.285942      -279.8947
  80   2.0000     -10.285478      -279.8821
  81   2.0000     -10.285372      -279.8792
  82   2.0000      -1.145311       -31.1655
  83   2.0000      -1.137680       -30.9578
  84   2.0000      -1.059789       -28.8383
  85   2.0000      -1.029859       -28.0239
  86   2.0000      -1.026162       -27.9233
  87   2.0000      -1.019061       -27.7301
  88   2.0000      -1.018305       -27.7095
  89   2.0000      -1.014456       -27.6047
  90   2.0000      -1.006966       -27.4009
  91   2.0000      -1.006498       -27.3882
  92   2.0000      -1.002895       -27.2901
  93   2.0000      -1.001499       -27.2522
  94   2.0000      -0.998880       -27.1809
  95   2.0000      -0.994556       -27.0632
  96   2.0000      -0.993468       -27.0336
  97   2.0000      -0.991331       -26.9755
  98   2.0000      -0.984294       -26.7840
  99   2.0000      -0.977027       -26.5863
 100   2.0000      -0.972339       -26.4587
 101   2.0000      -0.971905       -26.4469
 102   2.0000      -0.933446       -25.4004
 103   2.0000      -0.932389       -25.3716
 104   2.0000      -0.930137       -25.3103
 105   2.0000      -0.919501       -25.0209
 106   2.0000      -0.919063       -25.0090
 107   2.0000      -0.906928       -24.6788
 108   2.0000      -0.894485       -24.3402
 109   2.0000      -0.891599       -24.2616
 110   2.0000      -0.885661       -24.1001
 111   2.0000      -0.884159       -24.0592
 112   2.0000      -0.883518       -24.0418
 113   2.0000      -0.881236       -23.9797
 114   2.0000      -0.875314       -23.8185
 115   2.0000      -0.866616       -23.5818
 116   2.0000      -0.860606       -23.4183
 117   2.0000      -0.842885       -22.9361
 118   2.0000      -0.842376       -22.9222
 119   2.0000      -0.833087       -22.6695
 120   2.0000      -0.828765       -22.5518
 121   2.0000      -0.825768       -22.4703
 122   2.0000      -0.812173       -22.1004
 123   2.0000      -0.808925       -22.0120
 124   2.0000      -0.802620       -21.8404
 125   2.0000      -0.795883       -21.6571
 126   2.0000      -0.787968       -21.4417
 127   2.0000      -0.770073       -20.9547
 128   2.0000      -0.762590       -20.7511
 129   2.0000      -0.756377       -20.5821
 130   2.0000      -0.744406       -20.2563
 131   2.0000      -0.741335       -20.1727
 132   2.0000      -0.736262       -20.0347
 133   2.0000      -0.732912       -19.9436
 134   2.0000      -0.727811       -19.8047
 135   2.0000      -0.726812       -19.7776
 136   2.0000      -0.710159       -19.3244
 137   2.0000      -0.705287       -19.1918
 138   2.0000      -0.703988       -19.1565
 139   2.0000      -0.703382       -19.1400
 140   2.0000      -0.699152       -19.0249
 141   2.0000      -0.698253       -19.0004
 142   2.0000      -0.689660       -18.7666
 143   2.0000      -0.684640       -18.6300
 144   2.0000      -0.676514       -18.4089
 145   2.0000      -0.664337       -18.0775
 146   2.0000      -0.661591       -18.0028
 147   2.0000      -0.654467       -17.8090
 148   2.0000      -0.652873       -17.7656
 149   2.0000      -0.652739       -17.7619
 150   2.0000      -0.643587       -17.5129
 151   2.0000      -0.640881       -17.4393
 152   2.0000      -0.633126       -17.2282
 153   2.0000      -0.632072       -17.1996
 154   2.0000      -0.626064       -17.0361
 155   2.0000      -0.619996       -16.8710
 156   2.0000      -0.612770       -16.6743
 157   2.0000      -0.611498       -16.6397
 158   2.0000      -0.609480       -16.5848
 159   2.0000      -0.608493       -16.5579
 160   2.0000      -0.605928       -16.4881
 161   2.0000      -0.599687       -16.3183
 162   2.0000      -0.595337       -16.1999
 163   2.0000      -0.592080       -16.1113
 164   2.0000      -0.587603       -15.9895
 165   2.0000      -0.569930       -15.5086
 166   2.0000      -0.564956       -15.3732
 167   2.0000      -0.564271       -15.3546
 168   2.0000      -0.562658       -15.3107
 169   2.0000      -0.556957       -15.1556
 170   2.0000      -0.552229       -15.0269
 171   2.0000      -0.550786       -14.9876
 172   2.0000      -0.548383       -14.9223
 173   2.0000      -0.547609       -14.9012
 174   2.0000      -0.546042       -14.8586
 175   2.0000      -0.543533       -14.7903
 176   2.0000      -0.542098       -14.7512
 177   2.0000      -0.539331       -14.6759
 178   2.0000      -0.537503       -14.6262
 179   2.0000      -0.535411       -14.5693
 180   2.0000      -0.533051       -14.5051
 181   2.0000      -0.530696       -14.4410
 182   2.0000      -0.529190       -14.4000
 183   2.0000      -0.528581       -14.3834
 184   2.0000      -0.524681       -14.2773
 185   2.0000      -0.522119       -14.2076
 186   2.0000      -0.521345       -14.1865
 187   2.0000      -0.519393       -14.1334
 188   2.0000      -0.518054       -14.0970
 189   2.0000      -0.514765       -14.0075
 190   2.0000      -0.513056       -13.9610
 191   2.0000      -0.511779       -13.9262
 192   2.0000      -0.510477       -13.8908
 193   2.0000      -0.509448       -13.8628
 194   2.0000      -0.506412       -13.7802
 195   2.0000      -0.505341       -13.7510
 196   2.0000      -0.504621       -13.7314
 197   2.0000      -0.503650       -13.7050
 198   2.0000      -0.501133       -13.6365
 199   2.0000      -0.500638       -13.6231
 200   2.0000      -0.498177       -13.5561
 201   2.0000      -0.496141       -13.5007
 202   2.0000      -0.494566       -13.4578
 203   2.0000      -0.492827       -13.4105
 204   2.0000      -0.490749       -13.3540
 205   2.0000      -0.488650       -13.2968
 206   2.0000      -0.486655       -13.2425
 207   2.0000      -0.483452       -13.1554
 208   2.0000      -0.474554       -12.9133
 209   2.0000      -0.470688       -12.8081
 210   2.0000      -0.467442       -12.7197
 211   2.0000      -0.464062       -12.6278
 212   2.0000      -0.461236       -12.5509
 213   2.0000      -0.458314       -12.4714
 214   2.0000      -0.455366       -12.3912
 215   2.0000      -0.454187       -12.3590
 216   2.0000      -0.452467       -12.3123
 217   2.0000      -0.451182       -12.2773
 218   2.0000      -0.450757       -12.2657
 219   2.0000      -0.449430       -12.2296
 220   2.0000      -0.448613       -12.2074
 221   2.0000      -0.448029       -12.1915
 222   2.0000      -0.446639       -12.1537
 223   2.0000      -0.444580       -12.0976
 224   2.0000      -0.444145       -12.0858
 225   2.0000      -0.443857       -12.0780
 226   2.0000      -0.441122       -12.0035
 227   2.0000      -0.440349       -11.9825
 228   2.0000      -0.439820       -11.9681
 229   2.0000      -0.438453       -11.9309
 230   2.0000      -0.434714       -11.8292
 231   2.0000      -0.433820       -11.8048
 232   2.0000      -0.433310       -11.7910
 233   2.0000      -0.429886       -11.6978
 234   2.0000      -0.428442       -11.6585
 235   2.0000      -0.427208       -11.6249
 236   2.0000      -0.426121       -11.5953
 237   2.0000      -0.424161       -11.5420
 238   2.0000      -0.420452       -11.4411
 239   2.0000      -0.420236       -11.4352
 240   2.0000      -0.419393       -11.4123
 241   2.0000      -0.415997       -11.3199
 242   2.0000      -0.415086       -11.2951
 243   2.0000      -0.411597       -11.2001
 244   2.0000      -0.408614       -11.1190
 245   2.0000      -0.407819       -11.0973
 246   2.0000      -0.400206       -10.8902
 247   2.0000      -0.387235       -10.5372
 248   2.0000      -0.382450       -10.4070
 249   2.0000      -0.379405       -10.3241
 250   2.0000      -0.374535       -10.1916
 251   2.0000      -0.361245        -9.8300
 252   2.0000      -0.354307        -9.6412
 253   2.0000      -0.353882        -9.6296
 254   2.0000      -0.348989        -9.4965
 255   2.0000      -0.341995        -9.3062
 256   2.0000      -0.338591        -9.2135
 257   2.0000      -0.336584        -9.1589
 258   2.0000      -0.333594        -9.0776
 259   2.0000      -0.321785        -8.7562
 260   2.0000      -0.319189        -8.6856
 261   2.0000      -0.317675        -8.6444
 262   2.0000      -0.313090        -8.5196
 263   2.0000      -0.299308        -8.1446
 264   2.0000      -0.296607        -8.0711
 265   2.0000      -0.296203        -8.0601
 266   2.0000      -0.279789        -7.6134
 267   2.0000      -0.276685        -7.5290
 268   0.0000      -0.130081        -3.5397
 269   0.0000      -0.125972        -3.4279
 270   0.0000      -0.098387        -2.6772
 271   0.0000      -0.090604        -2.4655
 272   0.0000      -0.067886        -1.8473

MULLIKEN ATOMIC CHARGES
-----------------------
   0 C :    0.332002
   1 C :   -0.345193
   2 C :   -0.184114
   3 N :    0.159962
   4 C :   -0.190750
   5 N :    0.161624
   6 C :    0.055562
   7 C :   -0.003003
   8 C :   -0.090545
   9 C :    0.104683
  10 C :    0.116827
  11 C :   -0.081869
  12 C :   -0.013760
  13 C :    0.041943
  14 C :    0.040600
  15 C :   -0.015694
  16 C :    0.167490
  17 O :   -0.140973
  18 C :   -0.140484
  19 C :   -0.027601
  20 C :    0.053677
  21 C :    0.029449
  22 C :   -0.103591
  23 C :   -0.133811
  24 N :    0.143296
  25 C :   -0.011935
  26 C :    0.108359
  27 C :   -0.006086
  28 C :    0.078227
  29 C :   -0.001940
  30 C :   -0.131693
  31 C :   -0.013948
  32 C :   -0.128016
  33 N :    0.154424
  34 C :   -0.016279
  35 C :   -0.053497
  36 C :    0.068675
  37 C :   -0.014341
  38 C :   -0.045914
  39 C :    0.085448
  40 C :   -0.098074
  41 C :    0.065456
  42 C :   -0.004559
  43 C :    0.016513
  44 C :    0.035112
  45 N :   -0.046416
  46 C :    0.069769
  47 C :   -0.022050
  48 C :   -0.109024
  49 C :   -0.129846
  50 N :    0.139282
  51 C :   -0.014386
  52 C :    0.081892
  53 C :    0.056361
  54 C :    0.053512
  55 C :   -0.013854
  56 C :   -0.111819
  57 C :    0.017535
  58 C :   -0.134497
  59 N :    0.138610
  60 C :    0.075398
  61 C :   -0.003611
  62 C :    0.004827
  63 C :   -0.099666
  64 C :    0.293544
  65 C :   -0.340681
  66 C :   -0.180259
  67 N :    0.147642
  68 C :   -0.210640
  69 N :    0.161374
  70 C :    0.053152
  71 C :   -0.004790
  72 C :    0.165712
  73 O :   -0.163848
  74 C :   -0.077249
  75 C :    0.095926
  76 C :    0.097531
  77 C :   -0.085576
  78 C :   -0.020666
  79 C :    0.039363
  80 C :    0.036883
  81 C :   -0.013979
  82 H :   -0.011553
  83 H :   -0.005911
  84 H :   -0.008598
  85 H :   -0.003405
  86 H :   -0.004001
  87 H :   -0.017191
  88 H :    0.031995
  89 H :    0.008087
  90 H :    0.010156
  91 H :   -0.008242
  92 H :    0.013017
  93 H :    0.025363
  94 H :    0.026660
  95 H :   -0.010272
  96 H :   -0.012745
  97 H :    0.000487
  98 H :   -0.000014
  99 H :    0.008991
 100 H :   -0.005442
 101 H :   -0.008379
 102 H :   -0.001247
 103 H :    0.010295
 104 H :    0.009449
 105 H :   -0.003413
 106 H :    0.035995
 107 H :   -0.009182
 108 H :   -0.007502
 109 H :   -0.009695
 110 H :   -0.004651
 111 H :   -0.003173
 112 H :   -0.012998
Sum of atomic charges:   -0.0000000

LOEWDIN ATOMIC CHARGES
----------------------
   0 C :    0.071991
   1 C :   -0.131457
   2 C :   -0.018624
   3 N :   -0.042991
   4 C :   -0.019482
   5 N :   -0.046481
   6 C :   -0.029203
   7 C :   -0.057828
   8 C :    0.033138
   9 C :   -0.001688
  10 C :    0.002029
  11 C :    0.030138
  12 C :    0.000820
  13 C :   -0.008422
  14 C :   -0.006306
  15 C :   -0.007832
  16 C :    0.082730
  17 O :   -0.133211
  18 C :   -0.072033
  19 C :    0.062007
  20 C :   -0.030059
  21 C :    0.039679
  22 C :   -0.057596
  23 C :   -0.032907
  24 N :   -0.039392
  25 C :    0.028528
  26 C :    0.048191
  27 C :    0.032060
  28 C :   -0.016283
  29 C :    0.004492
  30 C :   -0.059931
  31 C :    0.003287
  32 C :   -0.030527
  33 N :   -0.043659
  34 C :   -0.014640
  35 C :   -0.013328
  36 C :   -0.018503
  37 C :   -0.016005
  38 C :   -0.005242
  39 C :   -0.025162
  40 C :    0.010152
  41 C :   -0.028897
  42 C :    0.019458
  43 C :   -0.042908
  44 C :    0.029193
  45 N :   -0.064920
  46 C :   -0.016214
  47 C :    0.015620
  48 C :   -0.051837
  49 C :   -0.028864
  50 N :   -0.046634
  51 C :    0.004799
  52 C :    0.056291
  53 C :    0.044906
  54 C :   -0.036999
  55 C :    0.036820
  56 C :   -0.070287
  57 C :    0.030543
  58 C :   -0.031437
  59 N :   -0.051973
  60 C :    0.058275
  61 C :   -0.043870
  62 C :    0.072365
  63 C :   -0.096741
  64 C :    0.075680
  65 C :   -0.140011
  66 C :   -0.017477
  67 N :   -0.053514
  68 C :   -0.025498
  69 N :   -0.053469
  70 C :   -0.025919
  71 C :   -0.057382
  72 C :    0.093301
  73 O :   -0.152018
  74 C :    0.037146
  75 C :   -0.008133
  76 C :   -0.005164
  77 C :    0.019646
  78 C :   -0.006133
  79 C :   -0.011562
  80 C :   -0.011588
  81 C :   -0.006313
  82 H :    0.039229
  83 H :    0.040187
  84 H :    0.035435
  85 H :    0.034066
  86 H :    0.033675
  87 H :    0.032202
  88 H :    0.049953
  89 H :    0.040625
  90 H :    0.037174
  91 H :    0.033611
  92 H :    0.035600
  93 H :    0.039721
  94 H :    0.034031
  95 H :    0.033085
  96 H :    0.035573
  97 H :    0.034772
  98 H :    0.035690
  99 H :    0.024174
 100 H :    0.033818
 101 H :    0.032408
 102 H :    0.034114
 103 H :    0.039008
 104 H :    0.038022
 105 H :    0.032510
 106 H :    0.047510
 107 H :    0.040606
 108 H :    0.039124
 109 H :    0.034591
 110 H :    0.033350
 111 H :    0.033558
 112 H :    0.033849

  Mayer bond orders larger than 0.100000
B(  0-C ,  1-C ) :   1.6572 B(  0-C ,  6-C ) :   0.9986 B(  0-C , 18-C ) :   1.0302
B(  1-C ,  2-C ) :   1.1374 B(  1-C ,  4-C ) :   1.1478 B(  2-C ,  3-N ) :   2.9761
B(  4-C ,  5-N ) :   2.9717 B(  6-C ,  7-C ) :   1.2097 B(  6-C , 11-C ) :   1.4383
B(  7-C ,  8-C ) :   1.4569 B(  7-C , 16-C ) :   0.9446 B(  8-C ,  9-C ) :   1.1794
B(  8-C , 82-H ) :   1.0234 B(  9-C , 10-C ) :   1.2509 B(  9-C , 15-C ) :   1.2443
B( 10-C , 11-C ) :   1.2160 B( 10-C , 12-C ) :   1.2378 B( 11-C , 83-H ) :   0.9890
B( 12-C , 13-C ) :   1.4908 B( 12-C , 84-H ) :   0.9967 B( 13-C , 14-C ) :   1.2586
B( 13-C , 85-H ) :   0.9879 B( 14-C , 15-C ) :   1.4882 B( 14-C , 86-H ) :   0.9881
B( 15-C , 87-H ) :   0.9981 B( 16-C , 17-O ) :   2.2100 B( 16-C , 18-C ) :   0.9086
B( 18-C , 19-C ) :   1.6868 B( 19-C , 20-C ) :   1.0602 B( 19-C , 88-H ) :   0.9450
B( 20-C , 21-C ) :   1.6244 B( 20-C , 26-C ) :   1.0299 B( 21-C , 22-C ) :   1.0912
B( 21-C , 89-H ) :   1.0185 B( 22-C , 23-C ) :   1.0609 B( 22-C , 25-C ) :   1.6383
B( 23-C , 24-N ) :   3.0378 B( 25-C , 26-C ) :   1.0730 B( 25-C , 90-H ) :   1.0106
B( 26-C , 27-C ) :   1.5636 B( 27-C , 28-C ) :   1.0495 B( 27-C , 31-C ) :   1.0685
B( 28-C , 29-C ) :   1.6231 B( 28-C , 34-C ) :   1.0766 B( 29-C , 30-C ) :   1.0928
B( 29-C , 91-H ) :   1.0215 B( 30-C , 31-C ) :   1.6477 B( 30-C , 32-C ) :   1.0818
B( 31-C , 92-H ) :   0.9984 B( 32-C , 33-N ) :   3.0223 B( 34-C , 35-C ) :   1.7615
B( 34-C , 93-H ) :   0.9620 B( 35-C , 36-C ) :   1.0275 B( 35-C , 94-H ) :   0.9614
B( 36-C , 37-C ) :   1.4455 B( 36-C , 41-C ) :   1.2180 B( 37-C , 38-C ) :   1.2590
B( 37-C , 95-H ) :   0.9914 B( 38-C , 39-C ) :   1.4713 B( 38-C , 96-H ) :   0.9992
B( 39-C , 40-C ) :   1.2253 B( 39-C , 46-C ) :   0.9409 B( 40-C , 41-C ) :   1.2338
B( 40-C , 45-N ) :   1.4349 B( 41-C , 42-C ) :   1.2729 B( 42-C , 43-C ) :   1.5198
B( 42-C , 97-H ) :   0.9758 B( 43-C , 44-C ) :   1.2396 B( 43-C , 98-H ) :   0.9754
B( 44-C , 45-N ) :   1.6413 B( 44-C , 99-H ) :   0.9782 B( 46-C , 47-C ) :   1.6775
B( 46-C , 52-C ) :   1.0754 B( 47-C , 48-C ) :   1.0614 B( 47-C ,100-H ) :   1.0184
B( 48-C , 49-C ) :   1.0646 B( 48-C , 51-C ) :   1.6395 B( 49-C , 50-N ) :   3.0348
B( 51-C , 52-C ) :   1.0735 B( 51-C ,101-H ) :   0.9992 B( 52-C , 53-C ) :   1.4759
B( 53-C , 54-C ) :   1.0593 B( 53-C , 57-C ) :   1.0897 B( 54-C , 55-C ) :   1.5599
B( 54-C , 60-C ) :   1.1351 B( 55-C , 56-C ) :   1.1172 B( 55-C ,102-H ) :   1.0095
B( 56-C , 57-C ) :   1.6296 B( 56-C , 58-C ) :   1.0530 B( 57-C ,103-H ) :   0.9980
B( 58-C , 59-N ) :   3.0464 B( 60-C , 61-C ) :   1.6534 B( 60-C ,104-H ) :   0.9495
B( 61-C , 62-C ) :   1.1813 B( 61-C ,105-H ) :   0.9558 B( 62-C , 63-C ) :   1.5927
B( 62-C ,106-H ) :   0.9460 B( 63-C , 64-C ) :   1.0591 B( 63-C , 72-C ) :   0.9586
B( 64-C , 65-C ) :   1.6446 B( 64-C , 70-C ) :   0.9935 B( 65-C , 66-C ) :   1.1431
B( 65-C , 68-C ) :   1.1394 B( 66-C , 67-N ) :   2.9702 B( 68-C , 69-N ) :   3.0060
B( 70-C , 71-C ) :   1.2123 B( 70-C , 77-C ) :   1.4504 B( 71-C , 72-C ) :   0.9563
B( 71-C , 74-C ) :   1.4657 B( 72-C , 73-O ) :   2.1063 B( 74-C , 75-C ) :   1.1800
B( 74-C ,107-H ) :   1.0170 B( 75-C , 76-C ) :   1.2583 B( 75-C , 81-C ) :   1.2450
B( 76-C , 77-C ) :   1.2029 B( 76-C , 78-C ) :   1.2405 B( 77-C ,108-H ) :   0.9919
B( 78-C , 79-C ) :   1.4895 B( 78-C ,109-H ) :   0.9972 B( 79-C , 80-C ) :   1.2616
B( 79-C ,110-H ) :   0.9877 B( 80-C , 81-C ) :   1.4882 B( 80-C ,111-H ) :   0.9878
B( 81-C ,112-H ) :   0.9980

-----------------------------------------------------------------------------
         ABSORPTION SPECTRUM VIA TRANSITION ELECTRIC DIPOLE MOMENTS
-----------------------------------------------------------------------------
State   Energy  Wavelength   fosc         T2         TX        TY        TZ
        (cm-1)    (nm)                  (au**2)     (au)      (au)      (au)
-----------------------------------------------------------------------------
   0   13130.4    761.6   0.063978268   1.60410   0.61281  -0.72096   0.84189
   1   14372.0    695.8   0.066047690   1.51292   0.33697  -0.85315   0.81946
   2   14936.7    669.5   0.061471550   1.35486  -0.05062   1.00785  -0.58012
   3   19288.6    518.4   0.017312856   0.29549   0.22558   0.28225  -0.40613
   4   20959.5    477.1   0.008725199   0.13705  -0.26806   0.21722  -0.13418
   5   21384.4    467.6   0.166292244   2.56006  -0.54864   0.32079  -1.46838
   6   22617.8    442.1   0.149692691   2.17884   0.03313  -1.32584   0.64799
   7   22686.3    440.8   0.025450162   0.36932   0.13258  -0.48895   0.33566
   8   22991.6    434.9   0.056569199   0.81000  -0.38652   0.70567  -0.40328
   9   23129.3    432.4   0.112733272   1.60459   0.05959  -1.20148   0.39686
  10   23353.0    428.2   0.239346670   3.37412  -0.16453   1.71191  -0.64529
  11   24145.6    414.2   0.000296056   0.00404  -0.05682  -0.02033   0.01988
  12   24794.1    403.3   0.011420975   0.15165   0.26596   0.01137  -0.28422
  13   24860.1    402.3   0.056869300   0.75310  -0.44248   0.52942  -0.52633
  14   25417.3    393.4   0.084416722   1.09339   0.07007  -0.44330   0.94444
  15   25940.1    385.5   0.025414391   0.32254   0.17630  -0.32692   0.42963
  16   26276.1    380.6   0.028025973   0.35114  -0.10154   0.56438   0.14934
  17   26435.3    378.3   0.139189818   1.73340   0.00040   1.31480   0.06851
  18   26552.8    376.6   0.023711715   0.29399   0.07597   0.35448   0.40318
  19   27083.5    369.2   0.017517802   0.21294   0.00337   0.08264  -0.45398
  20   27213.3    367.5   0.005620259   0.06799  -0.07113   0.18495  -0.16949
  21   27915.1    358.2   0.091431089   1.07828   0.01356  -0.91650   0.48798
  22   28394.6    352.2   0.062185870   0.72099  -0.53222   0.57449   0.32817
  23   28417.7    351.9   0.033622081   0.38950  -0.47038   0.33016   0.24338
  24   28687.6    348.6   0.093321772   1.07094  -0.23503   0.85064  -0.54048
  25   28846.3    346.7   0.125040804   1.42704  -0.15036  -1.14474   0.30661
  26   29220.7    342.2   0.014573975   0.16420  -0.31918  -0.14427  -0.20373
  27   29391.7    340.2   0.027624943   0.30942   0.47804   0.24241   0.14878
  28   29560.9    338.3   0.062995436   0.70156   0.45263  -0.68639   0.15985
  29   29936.3    334.0   0.193490220   2.12783  -0.85091  -0.89945  -0.77121
  30   30227.9    330.8   0.200138099   2.17970   0.42326  -1.39616  -0.22649
  31   30578.5    327.0   0.075647564   0.81443  -0.16549   0.87913  -0.11902
  32   30660.4    326.2   0.002980798   0.03201   0.03692  -0.12693   0.12054
  33   31229.3    320.2   0.087810178   0.92567   0.06869   0.10322  -0.95410
  34   31311.1    319.4   0.076213430   0.80133   0.11239  -0.77941  -0.42569
  35   31511.3    317.3   0.059058642   0.61701   0.44891   0.54857   0.33847
  36   31782.7    314.6   0.106199605   1.10004  -0.67233  -0.25441  -0.76373
  37   31927.9    313.2   0.115048464   1.18628  -0.15803  -0.42825  -0.98889
  38   32173.4    310.8   0.191088923   1.95530  -0.11578  -1.38766   0.12763
  39   32383.3    308.8   0.779855942   7.92810  -0.01103  -2.29413  -1.63246
  40   32723.6    305.6   0.226538464   2.27906  -0.98358   0.73900  -0.87494
  41   33001.9    303.0   0.015886830   0.15848   0.11476  -0.00908   0.38109
  42   33023.3    302.8   0.060854145   0.60666   0.55428  -0.32972  -0.43671
  43   33494.9    298.6   0.193767399   1.90449   0.31572  -1.09903   0.77262
  44   33670.0    297.0   0.050632080   0.49506   0.46122  -0.45690   0.27125
  45   33816.4    295.7   0.113799989   1.10788  -0.43394  -0.77271   0.56788
  46   34016.8    294.0   0.922750872   8.93030   0.74908  -2.38057  -1.64380
  47   34378.2    290.9   0.062820860   0.60158   0.16474  -0.60062  -0.46227
  48   34760.8    287.7   0.045434878   0.43030   0.08005  -0.32040  -0.56678
  49   34826.8    287.1   0.407526830   3.85228   0.11918  -1.56576  -1.17749
  50   35158.7    284.4   0.014343957   0.13431   0.08631  -0.30726  -0.18015
  51   35180.2    284.3   0.000936551   0.00876   0.00153  -0.07619  -0.05438
  52   35289.4    283.4   0.058865509   0.54915   0.09371   0.30471   0.66897
  53   35566.4    281.2   0.263872898   2.44248   0.07273   0.58652   1.44678
  54   36125.1    276.8   0.020638844   0.18808   0.02758  -0.42271   0.09296
  55   36497.6    274.0   0.000728146   0.00657  -0.01004  -0.01835   0.07830
  56   36726.3    272.3   0.084726566   0.75948   0.37478  -0.78085   0.09643
  57   37050.6    269.9   0.045281623   0.40235  -0.32064   0.35197   0.41911
  58   37114.1    269.4   0.006096576   0.05408   0.11863  -0.19169   0.05708
  59   37279.3    268.2   0.063353097   0.55947  -0.08701  -0.05737   0.74068
  60   37577.0    266.1   0.013833146   0.12119  -0.19208   0.27069  -0.10499
  61   37584.9    266.1   0.076816507   0.67285   0.41293  -0.58294   0.40313
  62   38153.4    262.1   0.008285259   0.07149   0.12685  -0.17818   0.15379
  63   38281.9    261.2   0.154386679   1.32767   0.00498   0.15369  -1.14194
  64   38304.0    261.1   0.002111243   0.01815   0.04784   0.02502  -0.12341
  65   38404.9    260.4   0.086661412   0.74287  -0.40968   0.73336   0.19292
  66   38622.7    258.9   0.108829589   0.92764   0.40056  -0.87577   0.01465
  67   38660.6    258.7   0.013553459   0.11541   0.09762  -0.27659  -0.17141
  68   38683.7    258.5   0.043544737   0.37058   0.18465  -0.54324  -0.20341
  69   38733.4    258.2   0.047432238   0.40315  -0.18162   0.44100   0.41914
  70   39232.4    254.9   0.004075213   0.03420   0.13253  -0.12248   0.04039
  71   39420.2    253.7   0.057450233   0.47979   0.20236  -0.27588  -0.60227
  72   39695.9    251.9   0.188297554   1.56162   0.15687   1.23263  -0.13283
  73   40029.6    249.8   0.106507729   0.87594  -0.34384  -0.61343   0.61759
  74   40283.8    248.2   0.318297925   2.60123   0.17944  -1.21953   1.04008

FINAL SINGLE POINT ENERGY     -3362.814380699190

DIPOLE MOMENT
-------------
                                X             Y             Z
Electronic contribution:      6.37471     -10.37893      11.96163
Nuclear contribution   :     -6.98744      10.46923     -12.54210
                        -----------------------------------------
Total Dipole Moment    :     -0.61273       0.09030      -0.58046
                        -----------------------------------------
Magnitude (a.u.)       :      0.84884
Magnitude (Debye)      :      2.15758

Rotational constants in cm-1:     0.001930     0.000248     0.000230
Rotational constants in MHz :    57.851265     7.446660     6.881490

                             ****ORCA TERMINATED NORMALLY****
TOTAL RUN TIME: 0 days 0 hours 13 minutes 56 seconds 511 msec
