                         Program Version 4.2.0 -  RELEASE  -
|  1> # ORCA input file
|  2> # SCF done       -175.088124330099          0.000838393182
|  3> ! CAM-B3LYP def2-SVP def2/J RIJCOSX Grid4 TightSCF
|  4> %maxcore 5000
|  5> %tddft
|  6>     Mode sTDDFT
|  7>     Ethresh 5.0
|  8>     maxcore 5000
|  9> end
| 10>
| 11> %pal
| 12>   nprocs 6
| 13>   end
| 14> * xyz 0 1
| 15>    C       -3.67322         6.47275        -5.62299
| 16>    C       -3.51461         5.15880        -5.27307
| 17>    C       -4.23147         4.09744        -5.86741
| 18>    N       -4.77512         3.19244        -6.31713
| 19>    C       -2.68500         4.67497        -4.23656
| 20>    N       -2.08309         4.20102        -3.38179
| 21>    C       -4.65452         6.98407        -6.56887
| 22>    C       -4.67683         8.40407        -6.46853
| 23>    C       -5.52969         9.16760        -7.21398
| 24>    C       -6.41138         8.53271        -8.11590
| 25>    C       -6.38461         7.11215        -8.23363
| 26>    C       -5.49270         6.34831        -7.44696
| 27>    C       -7.26679         6.48955        -9.14018
| 28>    C       -8.13682         7.23176        -9.89162
| 29>    C       -8.16402         8.62972        -9.77316
| 30>    C       -7.31942         9.26645        -8.90480
| 31>    C       -3.68585         8.85188        -5.47781
| 32>    O       -3.50042         9.99382        -5.12124
| 33>    C       -2.97710         7.61319        -5.03569
| 34>    C       -1.80955         7.49773        -4.34562
| 35>    C       -1.01026         8.46762        -3.68778
| 36>    C       -1.25036         9.87717        -3.36427
| 37>    N       -0.26712        10.45327        -2.72688
| 38>    C        0.67600         9.48857        -2.54584
| 39>    C        0.23255         8.21638        -3.13428
| 40>    C        1.26782         7.22301        -3.01401
| 41>    S        1.29479         5.70186        -3.62807
| 42>    C        2.33113         7.90991        -2.31819
| 43>    C        1.93556         9.30394        -2.03900
| 44>    N        2.96134         9.98789        -1.46383
| 45>    C        3.96085         9.15310        -1.42158
| 46>    C        3.65237         7.82674        -1.96483
| 47>    C        4.60929         6.76773        -2.10237
| 48>    O        4.32309         5.49016        -1.80097
| 49>    C        5.42892         4.76505        -2.01500
| 50>    C        6.44867         5.54053        -2.48262
| 51>    C        5.92057         6.84936        -2.55169
| 52>    S        6.61828         8.31943        -3.23083
| 53>    C        5.23172         8.68254        -4.22159
| 54>    C        4.53456         7.68203        -5.02345
| 55>    N        3.44044         8.12450        -5.56992
| 56>    C        3.33227         9.42572        -5.18120
| 57>    C        4.50719         9.83320        -4.38647
| 58>    C        4.32414        11.16625        -3.86989
| 59>    S        5.31941        12.00880        -2.87065
| 60>    C        3.00246        11.52484        -4.31055
| 61>    C        2.41467        10.44105        -5.11896
| 62>    N        1.10735        10.70123        -5.39156
| 63>    C        0.82287        11.79799        -4.74267
| 64>    C        1.95728        12.36970        -4.01270
| 65>    C        1.93182        13.45663        -3.09489
| 66>    C        2.99555        14.27415        -2.89492
| 67>    C        3.21421        15.21873        -1.81164
| 68>    C        2.32282        15.55131        -0.82709
| 69>    C        2.59549        16.46773         0.21126
| 70>    N        2.75010        17.20344         1.07874
| 71>    C        0.99959        15.06968        -0.73027
| 72>    N       -0.09125        14.73960        -0.59303
| 73>    C        4.56603        15.74377        -1.95501
| 74>    C        5.13305        15.24506        -3.16341
| 75>    C        4.14952        14.39037        -3.84895
| 76>    O        4.17575        14.01217        -4.99913
| 77>    C        6.39428        15.58250        -3.56127
| 78>    C        7.16677        16.44103        -2.74837
| 79>    C        6.60809        16.94423        -1.53762
| 80>    C        5.29731        16.58321        -1.15461
| 81>    C        7.38561        17.80691        -0.73760
| 82>    C        8.65406        18.15544        -1.11253
| 83>    C        9.20429        17.65707        -2.30342
| 84>    C        8.47701        16.81814        -3.10312
| 85>    H       -5.53118        10.24291        -7.11424
| 86>    H       -5.49293         5.27612        -7.56274
| 87>    H       -7.24395         5.41313        -9.22645
| 88>    H       -8.80994         6.74545       -10.58156
| 89>    H       -8.85755         9.19920       -10.37352
| 90>    H       -7.33561        10.34226        -8.80934
| 91>    H       -1.37755         6.50405        -4.28805
| 92>    H       -2.14049        10.42599        -3.61235
| 93>    H        4.90391         9.44492        -0.99423
| 94>    H        5.37231         3.71505        -1.80653
| 95>    H        7.43780         5.23375        -2.75030
| 96>    H        4.87492         6.67604        -5.19452
| 97>    H       -0.15183        12.24627        -4.81588
| 98>    H        1.02848        13.55312        -2.50715
| 99>    H        6.80034        15.19189        -4.48238
|100>    H        4.90319        16.98072        -0.23276
|101>    H        6.95736        18.18776         0.17802
|102>    H        9.24124        18.81771        -0.49404
|103>    H       10.20743        17.94195        -2.58346
|104>    H        8.89519        16.43214        -4.02126
|105> *
|106>
|107>                          ****END OF INPUT****

CARTESIAN COORDINATES (ANGSTROEM)
---------------------------------
  C     -3.673220    6.472750   -5.622990
  C     -3.514610    5.158800   -5.273070
  C     -4.231470    4.097440   -5.867410
  N     -4.775120    3.192440   -6.317130
  C     -2.685000    4.674970   -4.236560
  N     -2.083090    4.201020   -3.381790
  C     -4.654520    6.984070   -6.568870
  C     -4.676830    8.404070   -6.468530
  C     -5.529690    9.167600   -7.213980
  C     -6.411380    8.532710   -8.115900
  C     -6.384610    7.112150   -8.233630
  C     -5.492700    6.348310   -7.446960
  C     -7.266790    6.489550   -9.140180
  C     -8.136820    7.231760   -9.891620
  C     -8.164020    8.629720   -9.773160
  C     -7.319420    9.266450   -8.904800
  C     -3.685850    8.851880   -5.477810
  O     -3.500420    9.993820   -5.121240
  C     -2.977100    7.613190   -5.035690
  C     -1.809550    7.497730   -4.345620
  C     -1.010260    8.467620   -3.687780
  C     -1.250360    9.877170   -3.364270
  N     -0.267120   10.453270   -2.726880
  C      0.676000    9.488570   -2.545840
  C      0.232550    8.216380   -3.134280
  C      1.267820    7.223010   -3.014010
  S      1.294790    5.701860   -3.628070
  C      2.331130    7.909910   -2.318190
  C      1.935560    9.303940   -2.039000
  N      2.961340    9.987890   -1.463830
  C      3.960850    9.153100   -1.421580
  C      3.652370    7.826740   -1.964830
  C      4.609290    6.767730   -2.102370
  O      4.323090    5.490160   -1.800970
  C      5.428920    4.765050   -2.015000
  C      6.448670    5.540530   -2.482620
  C      5.920570    6.849360   -2.551690
  S      6.618280    8.319430   -3.230830
  C      5.231720    8.682540   -4.221590
  C      4.534560    7.682030   -5.023450
  N      3.440440    8.124500   -5.569920
  C      3.332270    9.425720   -5.181200
  C      4.507190    9.833200   -4.386470
  C      4.324140   11.166250   -3.869890
  S      5.319410   12.008800   -2.870650
  C      3.002460   11.524840   -4.310550
  C      2.414670   10.441050   -5.118960
  N      1.107350   10.701230   -5.391560
  C      0.822870   11.797990   -4.742670
  C      1.957280   12.369700   -4.012700
  C      1.931820   13.456630   -3.094890
  C      2.995550   14.274150   -2.894920
  C      3.214210   15.218730   -1.811640
  C      2.322820   15.551310   -0.827090
  C      2.595490   16.467730    0.211260
  N      2.750100   17.203440    1.078740
  C      0.999590   15.069680   -0.730270
  N     -0.091250   14.739600   -0.593030
  C      4.566030   15.743770   -1.955010
  C      5.133050   15.245060   -3.163410
  C      4.149520   14.390370   -3.848950
  O      4.175750   14.012170   -4.999130
  C      6.394280   15.582500   -3.561270
  C      7.166770   16.441030   -2.748370
  C      6.608090   16.944230   -1.537620
  C      5.297310   16.583210   -1.154610
  C      7.385610   17.806910   -0.737600
  C      8.654060   18.155440   -1.112530
  C      9.204290   17.657070   -2.303420
  C      8.477010   16.818140   -3.103120
  H     -5.531180   10.242910   -7.114240
  H     -5.492930    5.276120   -7.562740
  H     -7.243950    5.413130   -9.226450
  H     -8.809940    6.745450  -10.581560
  H     -8.857550    9.199200  -10.373520
  H     -7.335610   10.342260   -8.809340
  H     -1.377550    6.504050   -4.288050
  H     -2.140490   10.425990   -3.612350
  H      4.903910    9.444920   -0.994230
  H      5.372310    3.715050   -1.806530
  H      7.437800    5.233750   -2.750300
  H      4.874920    6.676040   -5.194520
  H     -0.151830   12.246270   -4.815880
  H      1.028480   13.553120   -2.507150
  H      6.800340   15.191890   -4.482380
  H      4.903190   16.980720   -0.232760
  H      6.957360   18.187760    0.178020
  H      9.241240   18.817710   -0.494040
  H     10.207430   17.941950   -2.583460
  H      8.895190   16.432140   -4.021260

 Total Charge           Charge          ....    0
 Multiplicity           Mult            ....    1
 Number of Electrons    NEL             ....  484
 Basis Dimension        Dim             .... 1092

ORBITAL ENERGIES
----------------

  NO   OCC          E(Eh)            E(eV)
   0   2.0000     -88.969887     -2420.9937
   1   2.0000     -88.914119     -2419.4762
   2   2.0000     -88.911891     -2419.4156
   3   2.0000     -19.314962      -525.5868
   4   2.0000     -19.225790      -523.1603
   5   2.0000     -19.206085      -522.6241
   6   2.0000     -14.426758      -392.5720
   7   2.0000     -14.424219      -392.5030
   8   2.0000     -14.423550      -392.4848
   9   2.0000     -14.417305      -392.3148
  10   2.0000     -14.416741      -392.2995
  11   2.0000     -14.415068      -392.2539
  12   2.0000     -14.412909      -392.1952
  13   2.0000     -14.412710      -392.1898
  14   2.0000     -10.377027      -282.3733
  15   2.0000     -10.363335      -282.0007
  16   2.0000     -10.357844      -281.8513
  17   2.0000     -10.351511      -281.6789
  18   2.0000     -10.349196      -281.6159
  19   2.0000     -10.347997      -281.5833
  20   2.0000     -10.347983      -281.5829
  21   2.0000     -10.346658      -281.5469
  22   2.0000     -10.346428      -281.5406
  23   2.0000     -10.343093      -281.4499
  24   2.0000     -10.342732      -281.4400
  25   2.0000     -10.341940      -281.4185
  26   2.0000     -10.340775      -281.3868
  27   2.0000     -10.340478      -281.3787
  28   2.0000     -10.337867      -281.3077
  29   2.0000     -10.337648      -281.3017
  30   2.0000     -10.336757      -281.2775
  31   2.0000     -10.336593      -281.2730
  32   2.0000     -10.331123      -281.1241
  33   2.0000     -10.322667      -280.8941
  34   2.0000     -10.322623      -280.8928
  35   2.0000     -10.322397      -280.8867
  36   2.0000     -10.319611      -280.8109
  37   2.0000     -10.317575      -280.7555
  38   2.0000     -10.316872      -280.7364
  39   2.0000     -10.315297      -280.6935
  40   2.0000     -10.314922      -280.6833
  41   2.0000     -10.314777      -280.6794
  42   2.0000     -10.313243      -280.6376
  43   2.0000     -10.310546      -280.5642
  44   2.0000     -10.309840      -280.5450
  45   2.0000     -10.307466      -280.4804
  46   2.0000     -10.306101      -280.4433
  47   2.0000     -10.305978      -280.4399
  48   2.0000     -10.305643      -280.4308
  49   2.0000     -10.301854      -280.3277
  50   2.0000     -10.300687      -280.2960
  51   2.0000     -10.300507      -280.2910
  52   2.0000     -10.300225      -280.2834
  53   2.0000     -10.299335      -280.2591
  54   2.0000     -10.299058      -280.2516
  55   2.0000     -10.295318      -280.1498
  56   2.0000     -10.293925      -280.1119
  57   2.0000     -10.293578      -280.1025
  58   2.0000     -10.292738      -280.0796
  59   2.0000     -10.292239      -280.0661
  60   2.0000     -10.290774      -280.0262
  61   2.0000     -10.288942      -279.9764
  62   2.0000     -10.288474      -279.9636
  63   2.0000     -10.288216      -279.9566
  64   2.0000     -10.287617      -279.9403
  65   2.0000     -10.284652      -279.8596
  66   2.0000     -10.283436      -279.8265
  67   2.0000     -10.282588      -279.8035
  68   2.0000     -10.282444      -279.7995
  69   2.0000     -10.282027      -279.7882
  70   2.0000      -8.064468      -219.4453
  71   2.0000      -8.009389      -217.9466
  72   2.0000      -8.007003      -217.8816
  73   2.0000      -6.034804      -164.2154
  74   2.0000      -6.030750      -164.1051
  75   2.0000      -6.024382      -163.9318
  76   2.0000      -5.978562      -162.6849
  77   2.0000      -5.977917      -162.6674
  78   2.0000      -5.975797      -162.6097
  79   2.0000      -5.975249      -162.5948
  80   2.0000      -5.968282      -162.4052
  81   2.0000      -5.966662      -162.3611
  82   2.0000      -1.236316       -33.6419
  83   2.0000      -1.141507       -31.0620
  84   2.0000      -1.123683       -30.5770
  85   2.0000      -1.099112       -29.9084
  86   2.0000      -1.089711       -29.6525
  87   2.0000      -1.077629       -29.3238
  88   2.0000      -1.069417       -29.1003
  89   2.0000      -1.020306       -27.7639
  90   2.0000      -1.014807       -27.6143
  91   2.0000      -1.000829       -27.2340
  92   2.0000      -0.994489       -27.0614
  93   2.0000      -0.994323       -27.0569
  94   2.0000      -0.991010       -26.9668
  95   2.0000      -0.976904       -26.5829
  96   2.0000      -0.974383       -26.5143
  97   2.0000      -0.971613       -26.4389
  98   2.0000      -0.967539       -26.3281
  99   2.0000      -0.962805       -26.1993
 100   2.0000      -0.931241       -25.3404
 101   2.0000      -0.924782       -25.1646
 102   2.0000      -0.916435       -24.9375
 103   2.0000      -0.913006       -24.8442
 104   2.0000      -0.911601       -24.8059
 105   2.0000      -0.898752       -24.4563
 106   2.0000      -0.891165       -24.2498
 107   2.0000      -0.883404       -24.0386
 108   2.0000      -0.882908       -24.0251
 109   2.0000      -0.876782       -23.8585
 110   2.0000      -0.868427       -23.6311
 111   2.0000      -0.862320       -23.4649
 112   2.0000      -0.850984       -23.1564
 113   2.0000      -0.844151       -22.9705
 114   2.0000      -0.837596       -22.7921
 115   2.0000      -0.831058       -22.6142
 116   2.0000      -0.824549       -22.4371
 117   2.0000      -0.820853       -22.3365
 118   2.0000      -0.799934       -21.7673
 119   2.0000      -0.793431       -21.5903
 120   2.0000      -0.781777       -21.2732
 121   2.0000      -0.773714       -21.0538
 122   2.0000      -0.765226       -20.8229
 123   2.0000      -0.757633       -20.6163
 124   2.0000      -0.752618       -20.4798
 125   2.0000      -0.742914       -20.2157
 126   2.0000      -0.719881       -19.5890
 127   2.0000      -0.715993       -19.4832
 128   2.0000      -0.713948       -19.4275
 129   2.0000      -0.707627       -19.2555
 130   2.0000      -0.706674       -19.2296
 131   2.0000      -0.702472       -19.1152
 132   2.0000      -0.699340       -19.0300
 133   2.0000      -0.697978       -18.9930
 134   2.0000      -0.696337       -18.9483
 135   2.0000      -0.690087       -18.7782
 136   2.0000      -0.678807       -18.4713
 137   2.0000      -0.672609       -18.3026
 138   2.0000      -0.657529       -17.8923
 139   2.0000      -0.656144       -17.8546
 140   2.0000      -0.652904       -17.7664
 141   2.0000      -0.649824       -17.6826
 142   2.0000      -0.635577       -17.2949
 143   2.0000      -0.634626       -17.2691
 144   2.0000      -0.627104       -17.0644
 145   2.0000      -0.614459       -16.7203
 146   2.0000      -0.609437       -16.5836
 147   2.0000      -0.607687       -16.5360
 148   2.0000      -0.603180       -16.4134
 149   2.0000      -0.601864       -16.3776
 150   2.0000      -0.595174       -16.1955
 151   2.0000      -0.588698       -16.0193
 152   2.0000      -0.584071       -15.8934
 153   2.0000      -0.580842       -15.8055
 154   2.0000      -0.577768       -15.7219
 155   2.0000      -0.575088       -15.6489
 156   2.0000      -0.570289       -15.5183
 157   2.0000      -0.567457       -15.4413
 158   2.0000      -0.564356       -15.3569
 159   2.0000      -0.550401       -14.9772
 160   2.0000      -0.549464       -14.9517
 161   2.0000      -0.547135       -14.8883
 162   2.0000      -0.545987       -14.8571
 163   2.0000      -0.542226       -14.7547
 164   2.0000      -0.541453       -14.7337
 165   2.0000      -0.537278       -14.6201
 166   2.0000      -0.534320       -14.5396
 167   2.0000      -0.531991       -14.4762
 168   2.0000      -0.530675       -14.4404
 169   2.0000      -0.528526       -14.3819
 170   2.0000      -0.527454       -14.3528
 171   2.0000      -0.522164       -14.2088
 172   2.0000      -0.521090       -14.1796
 173   2.0000      -0.514664       -14.0047
 174   2.0000      -0.514131       -13.9902
 175   2.0000      -0.512370       -13.9423
 176   2.0000      -0.509315       -13.8592
 177   2.0000      -0.508377       -13.8336
 178   2.0000      -0.506816       -13.7912
 179   2.0000      -0.503672       -13.7056
 180   2.0000      -0.502057       -13.6617
 181   2.0000      -0.497748       -13.5444
 182   2.0000      -0.497570       -13.5396
 183   2.0000      -0.493729       -13.4350
 184   2.0000      -0.492351       -13.3975
 185   2.0000      -0.491182       -13.3657
 186   2.0000      -0.489705       -13.3256
 187   2.0000      -0.487651       -13.2697
 188   2.0000      -0.485382       -13.2079
 189   2.0000      -0.480795       -13.0831
 190   2.0000      -0.479390       -13.0449
 191   2.0000      -0.478211       -13.0128
 192   2.0000      -0.468611       -12.7515
 193   2.0000      -0.461532       -12.5589
 194   2.0000      -0.457200       -12.4410
 195   2.0000      -0.453237       -12.3332
 196   2.0000      -0.449596       -12.2341
 197   2.0000      -0.446789       -12.1577
 198   2.0000      -0.445497       -12.1226
 199   2.0000      -0.444342       -12.0911
 200   2.0000      -0.442508       -12.0412
 201   2.0000      -0.441268       -12.0075
 202   2.0000      -0.439888       -11.9699
 203   2.0000      -0.437679       -11.9098
 204   2.0000      -0.436584       -11.8801
 205   2.0000      -0.435520       -11.8511
 206   2.0000      -0.432510       -11.7692
 207   2.0000      -0.430634       -11.7181
 208   2.0000      -0.427503       -11.6329
 209   2.0000      -0.425200       -11.5703
 210   2.0000      -0.422505       -11.4969
 211   2.0000      -0.420022       -11.4294
 212   2.0000      -0.416109       -11.3229
 213   2.0000      -0.412824       -11.2335
 214   2.0000      -0.406781       -11.0691
 215   2.0000      -0.404481       -11.0065
 216   2.0000      -0.402891       -10.9632
 217   2.0000      -0.401254       -10.9187
 218   2.0000      -0.386445       -10.5157
 219   2.0000      -0.383718       -10.4415
 220   2.0000      -0.377043       -10.2599
 221   2.0000      -0.370994       -10.0953
 222   2.0000      -0.369608       -10.0576
 223   2.0000      -0.368533       -10.0283
 224   2.0000      -0.363416        -9.8891
 225   2.0000      -0.361668        -9.8415
 226   2.0000      -0.356483        -9.7004
 227   2.0000      -0.353077        -9.6077
 228   2.0000      -0.346586        -9.4311
 229   2.0000      -0.333602        -9.0778
 230   2.0000      -0.329977        -8.9791
 231   2.0000      -0.321578        -8.7506
 232   2.0000      -0.316073        -8.6008
 233   2.0000      -0.314250        -8.5512
 234   2.0000      -0.311686        -8.4814
 235   2.0000      -0.305019        -8.3000
 236   2.0000      -0.304550        -8.2872
 237   2.0000      -0.297774        -8.1028
 238   2.0000      -0.293180        -7.9778
 239   2.0000      -0.289979        -7.8907
 240   2.0000      -0.287402        -7.8206
 241   2.0000      -0.285258        -7.7623
 242   0.0000      -0.129648        -3.5279
 243   0.0000      -0.117391        -3.1944
 244   0.0000      -0.102418        -2.7869
 245   0.0000      -0.091444        -2.4883
 246   0.0000      -0.071202        -1.9375

MULLIKEN ATOMIC CHARGES
-----------------------
   0 C :    0.298332
   1 C :   -0.330666
   2 C :   -0.185069
   3 N :    0.153618
   4 C :   -0.209089
   5 N :    0.175209
   6 C :    0.051699
   7 C :   -0.005348
   8 C :   -0.077414
   9 C :    0.097689
  10 C :    0.096377
  11 C :   -0.081752
  12 C :   -0.019884
  13 C :    0.037995
  14 C :    0.036518
  15 C :   -0.016767
  16 C :    0.168414
  17 O :   -0.150101
  18 C :   -0.066853
  19 C :   -0.061707
  20 C :    0.009882
  21 C :    0.087144
  22 N :   -0.055951
  23 C :    0.031286
  24 C :    0.035180
  25 C :   -0.023209
  26 S :   -0.050186
  27 C :    0.047035
  28 C :   -0.030706
  29 N :   -0.033585
  30 C :    0.091192
  31 C :   -0.044119
  32 C :    0.094726
  33 O :   -0.150764
  34 C :    0.156026
  35 C :   -0.034548
  36 C :   -0.118795
  37 S :    0.169867
  38 C :   -0.179149
  39 C :    0.093281
  40 N :   -0.027131
  41 C :    0.011038
  42 C :   -0.004358
  43 C :    0.023285
  44 S :   -0.106581
  45 C :    0.034576
  46 C :    0.001831
  47 N :   -0.068409
  48 C :    0.093467
  49 C :    0.011885
  50 C :   -0.019770
  51 C :   -0.038776
  52 C :    0.314951
  53 C :   -0.344777
  54 C :   -0.183699
  55 N :    0.148127
  56 C :   -0.185019
  57 N :    0.160217
  58 C :    0.055907
  59 C :    0.029746
  60 C :    0.101459
  61 O :   -0.144516
  62 C :   -0.080461
  63 C :    0.097034
  64 C :    0.096326
  65 C :   -0.088913
  66 C :   -0.017514
  67 C :    0.032128
  68 C :    0.036977
  69 C :   -0.014790
  70 H :   -0.009803
  71 H :   -0.004801
  72 H :   -0.006591
  73 H :   -0.003180
  74 H :   -0.003348
  75 H :   -0.014351
  76 H :    0.030623
  77 H :    0.035361
  78 H :    0.020623
  79 H :    0.026220
  80 H :    0.000883
  81 H :    0.016531
  82 H :    0.017639
  83 H :    0.032442
  84 H :   -0.017025
  85 H :   -0.009571
  86 H :   -0.010565
  87 H :   -0.005133
  88 H :   -0.006709
  89 H :   -0.019292
Sum of atomic charges:   -0.0000000

LOEWDIN ATOMIC CHARGES
----------------------
   0 C :    0.073346
   1 C :   -0.127108
   2 C :   -0.016040
   3 N :   -0.048742
   4 C :   -0.028987
   5 N :   -0.038688
   6 C :   -0.024846
   7 C :   -0.057121
   8 C :    0.035846
   9 C :   -0.007965
  10 C :   -0.004185
  11 C :    0.019788
  12 C :   -0.005334
  13 C :   -0.011131
  14 C :   -0.011180
  15 C :   -0.008508
  16 C :    0.090850
  17 O :   -0.136889
  18 C :   -0.072527
  19 C :    0.070901
  20 C :   -0.047632
  21 C :    0.117970
  22 N :   -0.089405
  23 C :    0.032405
  24 C :    0.016813
  25 C :   -0.153727
  26 S :    0.119320
  27 C :   -0.017841
  28 C :    0.040506
  29 N :   -0.084853
  30 C :    0.107071
  31 C :   -0.059774
  32 C :    0.001670
  33 O :    0.049105
  34 C :    0.060497
  35 C :   -0.079690
  36 C :   -0.202248
  37 S :    0.388738
  38 C :   -0.195567
  39 C :    0.073601
  40 N :   -0.076610
  41 C :    0.029480
  42 C :   -0.059721
  43 C :   -0.131455
  44 S :    0.118208
  45 C :    0.000227
  46 C :    0.034179
  47 N :   -0.101044
  48 C :    0.110893
  49 C :   -0.031746
  50 C :    0.055587
  51 C :   -0.056320
  52 C :    0.076184
  53 C :   -0.129824
  54 C :   -0.016206
  55 N :   -0.051732
  56 C :   -0.019634
  57 N :   -0.044246
  58 C :   -0.024205
  59 C :   -0.051981
  60 C :    0.063929
  61 O :   -0.146643
  62 C :    0.027940
  63 C :   -0.006735
  64 C :   -0.007232
  65 C :    0.018823
  66 C :   -0.005218
  67 C :   -0.015762
  68 C :   -0.012786
  69 C :   -0.010588
  70 H :    0.039845
  71 H :    0.039613
  72 H :    0.035459
  73 H :    0.033869
  74 H :    0.033476
  75 H :    0.032759
  76 H :    0.045507
  77 H :    0.025921
  78 H :    0.025812
  79 H :    0.031334
  80 H :    0.037016
  81 H :    0.029181
  82 H :    0.029580
  83 H :    0.049753
  84 H :    0.037762
  85 H :    0.038455
  86 H :    0.034306
  87 H :    0.032702
  88 H :    0.032129
  89 H :    0.031318

  Mayer bond orders larger than 0.100000
B(  0-C ,  1-C ) :   1.6548 B(  0-C ,  6-C ) :   0.9930 B(  0-C , 18-C ) :   1.0428
B(  1-C ,  2-C ) :   1.1440 B(  1-C ,  4-C ) :   1.1343 B(  2-C ,  3-N ) :   2.9715
B(  4-C ,  5-N ) :   3.0053 B(  6-C ,  7-C ) :   1.2142 B(  6-C , 11-C ) :   1.4496
B(  7-C ,  8-C ) :   1.4655 B(  7-C , 16-C ) :   0.9578 B(  8-C ,  9-C ) :   1.1867
B(  8-C , 70-H ) :   1.0151 B(  9-C , 10-C ) :   1.2522 B(  9-C , 15-C ) :   1.2434
B( 10-C , 11-C ) :   1.2109 B( 10-C , 12-C ) :   1.2402 B( 11-C , 71-H ) :   0.9892
B( 12-C , 13-C ) :   1.4914 B( 12-C , 72-H ) :   0.9965 B( 13-C , 14-C ) :   1.2595
B( 13-C , 73-H ) :   0.9881 B( 14-C , 15-C ) :   1.4917 B( 14-C , 74-H ) :   0.9884
B( 15-C , 75-H ) :   0.9968 B( 16-C , 17-O ) :   2.1883 B( 16-C , 18-C ) :   0.9157
B( 18-C , 19-C ) :   1.6151 B( 19-C , 20-C ) :   1.1307 B( 19-C , 76-H ) :   0.9386
B( 20-C , 21-C ) :   1.0280 B( 20-C , 24-C ) :   1.4878 B( 21-C , 22-N ) :   1.6382
B( 21-C , 77-H ) :   0.9718 B( 22-N , 23-C ) :   1.2458 B( 23-C , 24-C ) :   1.0730
B( 23-C , 28-C ) :   1.4868 B( 24-C , 25-C ) :   1.0186 B( 25-C , 26-S ) :   1.7451
B( 25-C , 27-C ) :   1.0132 B( 27-C , 28-C ) :   1.0443 B( 27-C , 31-C ) :   1.5940
B( 28-C , 29-N ) :   1.2801 B( 29-N , 30-C ) :   1.6754 B( 30-C , 31-C ) :   1.0363
B( 30-C , 78-H ) :   0.9955 B( 31-C , 32-C ) :   0.9896 B( 32-C , 33-O ) :   1.2179
B( 32-C , 34-C ) :   0.1004 B( 32-C , 36-C ) :   1.4954 B( 33-O , 34-C ) :   1.1517
B( 34-C , 35-C ) :   1.5331 B( 34-C , 79-H ) :   1.0073 B( 35-C , 36-C ) :   1.2536
B( 35-C , 80-H ) :   1.0096 B( 36-C , 37-S ) :   0.9943 B( 37-S , 38-C ) :   1.0343
B( 38-C , 39-C ) :   1.0406 B( 38-C , 42-C ) :   1.6046 B( 39-C , 40-N ) :   1.7274
B( 39-C , 81-H ) :   0.9947 B( 40-N , 41-C ) :   1.2696 B( 41-C , 42-C ) :   1.0744
B( 41-C , 46-C ) :   1.5038 B( 42-C , 43-C ) :   1.0333 B( 43-C , 44-S ) :   1.6572
B( 43-C , 45-C ) :   1.0455 B( 45-C , 46-C ) :   1.0548 B( 45-C , 49-C ) :   1.5353
B( 46-C , 47-N ) :   1.2912 B( 47-N , 48-C ) :   1.6667 B( 48-C , 49-C ) :   1.0378
B( 48-C , 82-H ) :   0.9889 B( 49-C , 50-C ) :   1.0854 B( 50-C , 51-C ) :   1.6727
B( 50-C , 83-H ) :   0.9351 B( 51-C , 52-C ) :   1.0594 B( 51-C , 60-C ) :   0.8916
B( 52-C , 53-C ) :   1.6421 B( 52-C , 58-C ) :   1.0012 B( 53-C , 54-C ) :   1.1431
B( 53-C , 56-C ) :   1.1420 B( 54-C , 55-N ) :   2.9656 B( 56-C , 57-N ) :   2.9713
B( 58-C , 59-C ) :   1.2201 B( 58-C , 65-C ) :   1.4333 B( 59-C , 60-C ) :   0.9209
B( 59-C , 62-C ) :   1.4672 B( 60-C , 61-O ) :   2.2481 B( 62-C , 63-C ) :   1.1831
B( 62-C , 84-H ) :   1.0175 B( 63-C , 64-C ) :   1.2555 B( 63-C , 69-C ) :   1.2412
B( 64-C , 65-C ) :   1.2145 B( 64-C , 66-C ) :   1.2344 B( 65-C , 85-H ) :   0.9897
B( 66-C , 67-C ) :   1.4930 B( 66-C , 86-H ) :   0.9979 B( 67-C , 68-C ) :   1.2567
B( 67-C , 87-H ) :   0.9885 B( 68-C , 69-C ) :   1.4913 B( 68-C , 88-H ) :   0.9886
B( 69-C , 89-H ) :   0.9979

-----------------------------------------------------------------------------
         ABSORPTION SPECTRUM VIA TRANSITION ELECTRIC DIPOLE MOMENTS
-----------------------------------------------------------------------------
State   Energy  Wavelength   fosc         T2         TX        TY        TZ
        (cm-1)    (nm)                  (au**2)     (au)      (au)      (au)
-----------------------------------------------------------------------------
   0   14292.3    699.7   0.000222687   0.00513  -0.02414   0.06214  -0.02617
   1   14969.1    668.0   0.040135507   0.88269   0.87822   0.22103   0.25015
   2   15293.8    653.9   0.008240718   0.17739  -0.13291  -0.24007  -0.31952
   3   17132.1    583.7   0.012523867   0.24066  -0.37862  -0.30685  -0.05612
   4   17621.9    567.5   0.000464028   0.00867  -0.04941   0.07860   0.00699
   5   18201.0    549.4   0.065865816   1.19135   0.83033  -0.65304   0.27467
   6   18488.5    540.9   0.050311427   0.89586  -0.05069  -0.92086  -0.21285
   7   18687.4    535.1   0.052569617   0.92611   0.40096  -0.87481  -0.00736
   8   19741.9    506.5   0.038609494   0.64384   0.30657   0.62797   0.39436
   9   20142.6    496.5   0.005930671   0.09693   0.24666  -0.03430   0.18685
  10   20591.6    485.6   0.005048511   0.08071   0.01931   0.04757   0.27943
  11   20696.2    483.2   0.015538975   0.24718  -0.21857   0.42929   0.12292
  12   21245.3    470.7   0.128148324   1.98576   1.38150   0.12763   0.24682
  13   21786.2    459.0   0.002051209   0.03100   0.09317   0.12292   0.08488
  14   22057.9    453.4   0.005922245   0.08839   0.00005  -0.11828  -0.27276
  15   22509.5    444.3   0.003052926   0.04465  -0.08596   0.08800  -0.17180
  16   22770.9    439.2   0.041903905   0.60583   0.25438   0.61308   0.40652
  17   23026.1    434.3   0.043955122   0.62844   0.73814  -0.28907   0.00488
  18   23781.6    420.5   0.030179451   0.41778  -0.04159  -0.17259   0.62150
  19   23956.8    417.4   0.025607151   0.35189   0.35054  -0.10098  -0.46778
  20   24233.3    412.7   0.010164300   0.13808  -0.26943  -0.24570  -0.07160
  21   24444.8    409.1   0.097039984   1.30689  -0.69807  -0.42614  -0.79875
  22   24536.6    407.6   0.002242639   0.03009  -0.10160  -0.14057   0.00260
  23   24869.1    402.1   0.289646214   3.83428   1.88234  -0.00204   0.53951
  24   24927.4    401.2   0.207767068   2.74395  -0.50495  -1.49765  -0.49600
  25   25340.6    394.6   0.017103510   0.22220   0.09332   0.31838   0.33485
  26   25631.7    390.1   0.036883760   0.47373  -0.64863  -0.09276  -0.21074
  27   25983.2    384.9   0.002531532   0.03208   0.04180   0.05893   0.16387
  28   26226.0    381.3   0.013630171   0.17110  -0.36688   0.15075   0.11734
  29   26411.8    378.6   0.054023292   0.67338   0.74357   0.18754   0.29207
  30   26746.0    373.9   0.023589519   0.29036  -0.17697  -0.15304  -0.48541
  31   26863.2    372.3   0.170931473   2.09479  -1.17468  -0.21707  -0.81719
  32   27048.2    369.7   0.173880368   2.11635   0.99787   0.99243   0.36834
  33   27571.6    362.7   0.116778961   1.39437   0.96154  -0.60493   0.32230
  34   27597.7    362.3   0.095778106   1.14253  -0.83381  -0.40960  -0.52870
  35   27880.4    358.7   0.080587118   0.95157   0.87994  -0.24479   0.34257
  36   27921.3    358.1   0.036132033   0.42602  -0.19875   0.49019   0.38241
  37   28208.2    354.5   0.017548083   0.20480   0.02474  -0.38788  -0.23180
  38   28520.6    350.6   0.022080587   0.25488  -0.25344  -0.39582  -0.18432
  39   28593.1    349.7   0.053296170   0.61363  -0.21941  -0.72383  -0.20386
  40   28870.4    346.4   0.015577100   0.17763  -0.13450  -0.37590  -0.13504
  41   28876.0    346.3   0.026126694   0.29787   0.35919   0.37610   0.16553
  42   29150.1    343.1   0.046283062   0.52271  -0.57261  -0.19471  -0.39612
  43   29483.2    339.2   0.135724181   1.51551   1.11858   0.40453   0.31726
  44   29580.7    338.1   0.303922157   3.38244  -1.26559   1.23233  -0.51194
  45   29807.6    335.5   0.162336028   1.79293   0.06120  -1.09294  -0.77115
  46   29947.1    333.9   0.021159638   0.23261  -0.03634  -0.47818  -0.05128
  47   30011.2    333.2   0.012077978   0.13249  -0.04597   0.29900  -0.20243
  48   30222.2    330.9   0.007567703   0.08244   0.08673  -0.26800  -0.05558
  49   30445.5    328.5   0.031350401   0.33900  -0.12928   0.47390  -0.31258
  50   30643.8    326.3   0.001378905   0.01481   0.04904   0.11065  -0.01288
  51   30833.1    324.3   0.124967069   1.33430   0.29213  -0.50870   0.99508
  52   30979.6    322.8   0.354805740   3.77042  -1.70221  -0.77302  -0.52472
  53   31079.6    321.8   0.140945480   1.49297   0.68415  -0.96174   0.31619
  54   31523.5    317.2   0.018369649   0.19184   0.19820   0.33175   0.20616
  55   31771.7    314.7   0.016597622   0.17198  -0.16914  -0.36999   0.08049
  56   32217.7    310.4   0.093476315   0.95517  -0.89489  -0.31333  -0.23700
  57   32485.0    307.8   0.005877318   0.05956   0.02802   0.23415  -0.06285
  58   32547.2    307.2   0.115543045   1.16871  -1.00777  -0.28985   0.26286
  59   32846.3    304.4   0.017378051   0.17418   0.15446   0.15377   0.35591
  60   33072.1    302.4   0.129470756   1.28880  -0.87450   0.48088  -0.54112
  61   33183.4    301.4   0.036846537   0.36555   0.47089   0.34316   0.16143
  62   33402.9    299.4   0.052270959   0.51517  -0.62043  -0.22875  -0.27911
  63   33535.6    298.2   0.294833077   2.89431  -1.21511   0.88973  -0.79132
  64   33616.2    297.5   0.051088931   0.50033  -0.37785   0.42593  -0.41969
  65   33817.1    295.7   0.163862075   1.59521   0.67626  -1.04739  -0.20215
  66   33982.5    294.3   0.063755656   0.61764   0.69364   0.04729   0.36644
  67   34257.1    291.9   0.034097722   0.32768  -0.27975   0.24140  -0.43720
  68   34353.7    291.1   0.025240530   0.24188   0.36502   0.30497   0.12502
  69   34452.5    290.3   0.101133241   0.96638   0.09783   0.80159   0.56059
  70   34510.1    289.8   0.136073886   1.29809  -0.48226   0.61185  -0.83135
  71   34642.1    288.7   0.096783145   0.91975  -0.45285  -0.49432  -0.68581
  72   34705.5    288.1   0.016275251   0.15439  -0.03622  -0.39032  -0.02687
  73   34899.1    286.5   0.012369286   0.11668  -0.02430   0.18942   0.28322
  74   35054.4    285.3   0.018516564   0.17390  -0.07465   0.13614   0.38703
  75   35195.4    284.1   0.058594732   0.54809  -0.06812  -0.71797  -0.16722
  76   35235.2    283.8   0.024161104   0.22574   0.12731   0.31144  -0.33547
  77   35352.6    282.9   0.002224173   0.02071   0.02841   0.10535  -0.09385
  78   35508.8    281.6   0.001507650   0.01398   0.05460   0.03137  -0.10006
  79   35580.7    281.1   0.011766914   0.10887  -0.24236  -0.17044   0.14520
  80   35681.4    280.3   0.025865756   0.23865  -0.26910  -0.39781  -0.08933
  81   35728.6    279.9   0.033074517   0.30476  -0.30466  -0.42875  -0.16768
  82   36092.1    277.1   0.031656708   0.28875  -0.50782  -0.00787  -0.17553
  83   36174.2    276.4   0.019467625   0.17717  -0.34691  -0.12983   0.19993
  84   36296.4    275.5   0.061852048   0.56100   0.09036  -0.73416   0.11769
  85   36514.9    273.9   0.003606230   0.03251  -0.08685  -0.05814   0.14694
  86   36664.1    272.7   0.029801569   0.26759  -0.44812  -0.02458   0.25725
  87   36763.1    272.0   0.049269559   0.44121   0.58086   0.16051  -0.27937
  88   36980.2    270.4   0.054416367   0.48444   0.53235   0.40028  -0.20202
  89   37043.5    270.0   0.027895807   0.24791  -0.40406   0.13937  -0.25540
  90   37157.6    269.1   0.418015743   3.70357  -1.62194  -0.35821   0.97189
  91   37241.0    268.5   0.015989831   0.14135   0.32518  -0.18526   0.03592
  92   37339.8    267.8   0.137571422   1.21292   0.93807  -0.02521   0.57647
  93   37700.3    265.3   0.042776309   0.37354  -0.45057   0.31710   0.26451
  94   37971.5    263.4   0.012804491   0.11101  -0.16250   0.25197  -0.14532
  95   38087.6    262.6   0.032454983   0.28053   0.49686   0.18305  -0.01243
  96   38266.0    261.3   0.057458368   0.49433  -0.62101  -0.32929   0.01544
  97   38328.9    260.9   0.047388709   0.40703  -0.35646  -0.52429  -0.07132
  98   38415.9    260.3   0.008047425   0.06896   0.21772   0.09457   0.11232
  99   38703.6    258.4   0.280846492   2.38888  -0.38108   1.46049  -0.33262
 100   38784.9    257.8   0.146170846   1.24072   0.98637  -0.30426   0.41860
 101   38941.7    256.8   0.064483892   0.54515  -0.02826   0.56035   0.47996
 102   39069.2    256.0   0.084712213   0.71382  -0.12785   0.83502   0.01473
 103   39095.3    255.8   0.024104113   0.20298  -0.11030  -0.42070   0.11755
 104   39437.8    253.6   0.002815694   0.02350  -0.06664   0.07302  -0.11718
 105   39722.7    251.7   0.136976886   1.13523  -0.61206  -0.73769  -0.46521
 106   39920.0    250.5   0.041653302   0.34351   0.14747   0.52458   0.21580
 107   40065.8    249.6   0.064471090   0.52974   0.38001  -0.62074  -0.00470
 108   40200.0    248.8   0.018214216   0.14916  -0.20856  -0.31686  -0.07257

FINAL SINGLE POINT ENERGY     -4000.069786930740

DIPOLE MOMENT
-------------
                                X             Y             Z
Electronic contribution:      6.55398     -13.64441      11.88039
Nuclear contribution   :     -4.75257      13.50517     -13.59633
                        -----------------------------------------
Total Dipole Moment    :      1.80142      -0.13924      -1.71594
                        -----------------------------------------
Magnitude (a.u.)       :      2.49177
Magnitude (Debye)      :      6.33358

Rotational constants in cm-1:     0.001649     0.000547     0.000454
Rotational constants in MHz :    49.439405    16.398356    13.601682

                             ****ORCA TERMINATED NORMALLY****
TOTAL RUN TIME: 0 days 0 hours 10 minutes 59 seconds 509 msec
