                         Program Version 4.2.0 -  RELEASE  -
|  1> # ORCA input file
|  2> # SCF done       -194.556785741369          0.000572496567
|  3> ! CAM-B3LYP def2-SVP def2/J RIJCOSX Grid4 TightSCF
|  4> %maxcore 5000
|  5> %tddft
|  6>     Mode sTDDFT
|  7>     Ethresh 5.0
|  8>     maxcore 5000
|  9> end
| 10>
| 11> %pal
| 12>   nprocs 6
| 13>   end
| 14> * xyz 0 1
| 15>    C        3.71246         6.05486         2.14312
| 16>    C        2.37481         6.33566         2.11031
| 17>    F        1.96673         7.57600         1.78722
| 18>    C        1.39784         5.37417         2.40194
| 19>    C        1.79379         4.10754         2.73085
| 20>    C        3.16003         3.76279         2.77972
| 21>    C        4.13822         4.75633         2.48311
| 22>    C        5.51549         4.43834         2.53917
| 23>    C        5.89630         3.16886         2.87733
| 24>    C        4.91425         2.17394         3.15410
| 25>    C        3.57936         2.45532         3.11431
| 26>    C        5.58781         0.89473         3.45169
| 27>    O        5.08483        -0.15675         3.77715
| 28>    C        7.03221         1.14971         3.20465
| 29>    C        7.21758         2.57387         3.05908
| 30>    C        8.36540         3.27455         3.33443
| 31>    C        9.54577         2.66620         3.80458
| 32>    N       10.50876         2.20313         4.22560
| 33>    C        8.46554         4.67737         3.26450
| 34>    N        8.60735         5.81469         3.19812
| 35>    C        7.88932         0.09247         3.08396
| 36>    C        9.14064         0.03201         2.44714
| 37>    S        9.64388         1.17029         1.23821
| 38>    C       11.16047         0.38892         0.97608
| 39>    C       11.26285        -0.76881         1.76744
| 40>    C       10.11529        -0.97270         2.59344
| 41>    C       10.05621        -2.07704         3.46156
| 42>    C       11.09260        -2.96685         3.46743
| 43>    F       11.05670        -4.03218         4.27752
| 44>    C       12.20290        -2.79848         2.60974
| 45>    F       13.17741        -3.72088         2.61815
| 46>    C       12.29579        -1.72596         1.76999
| 47>    C       12.06976         0.99490         0.06961
| 48>    C       13.41821         0.87677         0.08064
| 49>    C       14.24499         1.55047        -0.86927
| 50>    C       15.59048         1.58579        -0.88278
| 51>    C       16.48856         0.96867         0.13649
| 52>    C       16.30456         2.36447        -1.96340
| 53>    N       16.70318         3.65996        -1.46304
| 54>    C       17.92938         3.92999        -0.97927
| 55>    C       18.22885         5.04979        -0.27062
| 56>    C       19.51584         5.41733         0.18199
| 57>    S       19.71601         6.91133         1.02318
| 58>    C       21.43126         6.66221         1.20539
| 59>    C       21.79549         5.42778         0.61938
| 60>    C       20.73542         4.72734         0.04907
| 61>    O       20.77674         3.52609        -0.57116
| 62>    C       23.21997         4.97334         0.63994
| 63>    F       24.04013         5.80821        -0.01679
| 64>    F       23.70590         4.84065         1.88398
| 65>    F       23.39697         3.76546         0.05662
| 66>    C       22.33771         7.53065         1.82070
| 67>    C       22.11931         8.74663         2.42982
| 68>    C       23.13684         9.57892         3.03958
| 69>    C       24.48547         9.33863         3.11223
| 70>    C       25.40842        10.20810         3.73039
| 71>    N       26.21392        10.86626         4.21683
| 72>    C       25.16911         8.21722         2.59513
| 73>    N       25.82157         7.35357         2.21110
| 74>    C       22.46958        10.76240         3.57952
| 75>    C       21.08365        10.66537         3.30538
| 76>    C       20.82570         9.41039         2.57945
| 77>    O       19.73695         9.01923         2.18894
| 78>    C       20.17911        11.62632         3.68485
| 79>    C       20.66654        12.74335         4.37150
| 80>    C       22.05199        12.83400         4.64184
| 81>    C       22.96606        11.85981         4.25676
| 82>    S       22.44112        14.29462         5.49889
| 83>    C       20.75991        14.75638         5.48280
| 84>    C       19.94723        13.86513         4.86753
| 85>   Br       20.23620        16.37295         6.27679
| 86>    H        4.43708         6.82146         1.91727
| 87>    H        0.35719         5.65405         2.36093
| 88>    H        1.05963         3.34980         2.95943
| 89>    H        6.23603         5.20598         2.30484
| 90>    H        2.85045         1.69083         3.33750
| 91>    H        7.50302        -0.84927         3.46199
| 92>    H        9.21237        -2.23451         4.11263
| 93>    H       13.13976        -1.64726         1.10640
| 94>    H       11.61928         1.67730        -0.64173
| 95>    H       13.89836         0.29038         0.84670
| 96>    H       13.71307         2.06886        -1.65849
| 97>    H       15.96459         0.71671         1.05225
| 98>    H       17.29907         1.65491         0.38057
| 99>    H       16.93832         0.06048        -0.26695
|100>    H       15.64996         2.50938        -2.82802
|101>    H       17.20267         1.83255        -2.28526
|102>    H       15.95114         4.27371        -1.18097
|103>    H       18.70171         3.22089        -1.23493
|104>    H       17.43954         5.75004        -0.03185
|105>    H       21.67392         3.17024        -0.59728
|106>    H       23.36577         7.19502         1.81503
|107>    H       19.12965        11.51999         3.45940
|108>    H       24.01086        11.97876         4.48885
|109>    H       18.88473        13.99133         4.76656
|110> *
|111>
|112>                          ****END OF INPUT****

CARTESIAN COORDINATES (ANGSTROEM)
---------------------------------
  C      3.712460    6.054860    2.143120
  C      2.374810    6.335660    2.110310
  F      1.966730    7.576000    1.787220
  C      1.397840    5.374170    2.401940
  C      1.793790    4.107540    2.730850
  C      3.160030    3.762790    2.779720
  C      4.138220    4.756330    2.483110
  C      5.515490    4.438340    2.539170
  C      5.896300    3.168860    2.877330
  C      4.914250    2.173940    3.154100
  C      3.579360    2.455320    3.114310
  C      5.587810    0.894730    3.451690
  O      5.084830   -0.156750    3.777150
  C      7.032210    1.149710    3.204650
  C      7.217580    2.573870    3.059080
  C      8.365400    3.274550    3.334430
  C      9.545770    2.666200    3.804580
  N     10.508760    2.203130    4.225600
  C      8.465540    4.677370    3.264500
  N      8.607350    5.814690    3.198120
  C      7.889320    0.092470    3.083960
  C      9.140640    0.032010    2.447140
  S      9.643880    1.170290    1.238210
  C     11.160470    0.388920    0.976080
  C     11.262850   -0.768810    1.767440
  C     10.115290   -0.972700    2.593440
  C     10.056210   -2.077040    3.461560
  C     11.092600   -2.966850    3.467430
  F     11.056700   -4.032180    4.277520
  C     12.202900   -2.798480    2.609740
  F     13.177410   -3.720880    2.618150
  C     12.295790   -1.725960    1.769990
  C     12.069760    0.994900    0.069610
  C     13.418210    0.876770    0.080640
  C     14.244990    1.550470   -0.869270
  C     15.590480    1.585790   -0.882780
  C     16.488560    0.968670    0.136490
  C     16.304560    2.364470   -1.963400
  N     16.703180    3.659960   -1.463040
  C     17.929380    3.929990   -0.979270
  C     18.228850    5.049790   -0.270620
  C     19.515840    5.417330    0.181990
  S     19.716010    6.911330    1.023180
  C     21.431260    6.662210    1.205390
  C     21.795490    5.427780    0.619380
  C     20.735420    4.727340    0.049070
  O     20.776740    3.526090   -0.571160
  C     23.219970    4.973340    0.639940
  F     24.040130    5.808210   -0.016790
  F     23.705900    4.840650    1.883980
  F     23.396970    3.765460    0.056620
  C     22.337710    7.530650    1.820700
  C     22.119310    8.746630    2.429820
  C     23.136840    9.578920    3.039580
  C     24.485470    9.338630    3.112230
  C     25.408420   10.208100    3.730390
  N     26.213920   10.866260    4.216830
  C     25.169110    8.217220    2.595130
  N     25.821570    7.353570    2.211100
  C     22.469580   10.762400    3.579520
  C     21.083650   10.665370    3.305380
  C     20.825700    9.410390    2.579450
  O     19.736950    9.019230    2.188940
  C     20.179110   11.626320    3.684850
  C     20.666540   12.743350    4.371500
  C     22.051990   12.834000    4.641840
  C     22.966060   11.859810    4.256760
  S     22.441120   14.294620    5.498890
  C     20.759910   14.756380    5.482800
  C     19.947230   13.865130    4.867530
  Br    20.236200   16.372950    6.276790
  H      4.437080    6.821460    1.917270
  H      0.357190    5.654050    2.360930
  H      1.059630    3.349800    2.959430
  H      6.236030    5.205980    2.304840
  H      2.850450    1.690830    3.337500
  H      7.503020   -0.849270    3.461990
  H      9.212370   -2.234510    4.112630
  H     13.139760   -1.647260    1.106400
  H     11.619280    1.677300   -0.641730
  H     13.898360    0.290380    0.846700
  H     13.713070    2.068860   -1.658490
  H     15.964590    0.716710    1.052250
  H     17.299070    1.654910    0.380570
  H     16.938320    0.060480   -0.266950
  H     15.649960    2.509380   -2.828020
  H     17.202670    1.832550   -2.285260
  H     15.951140    4.273710   -1.180970
  H     18.701710    3.220890   -1.234930
  H     17.439540    5.750040   -0.031850
  H     21.673920    3.170240   -0.597280
  H     23.365770    7.195020    1.815030
  H     19.129650   11.519990    3.459400
  H     24.010860   11.978760    4.488850
  H     18.884730   13.991330    4.766560

 Total Charge           Charge          ....    0
 Multiplicity           Mult            ....    1
 Number of Electrons    NEL             ....  538
 Basis Dimension        Dim             .... 1144

ORBITAL ENERGIES
----------------

  NO   OCC          E(Eh)            E(eV)
   0   2.0000    -482.879653    -13139.8234
   1   2.0000     -88.989759     -2421.5345
   2   2.0000     -88.968047     -2420.9436
   3   2.0000     -88.964305     -2420.8418
   4   2.0000     -62.557362     -1702.2724
   5   2.0000     -56.391303     -1534.4854
   6   2.0000     -56.388605     -1534.4120
   7   2.0000     -56.388567     -1534.4109
   8   2.0000     -24.820571      -675.4021
   9   2.0000     -24.801942      -674.8952
  10   2.0000     -24.801781      -674.8908
  11   2.0000     -24.801375      -674.8797
  12   2.0000     -24.799357      -674.8248
  13   2.0000     -24.786654      -674.4791
  14   2.0000     -19.264743      -524.2203
  15   2.0000     -19.212598      -522.8014
  16   2.0000     -19.211336      -522.7670
  17   2.0000     -14.457741      -393.4151
  18   2.0000     -14.415667      -392.2702
  19   2.0000     -14.415029      -392.2529
  20   2.0000     -14.403694      -391.9444
  21   2.0000     -14.402759      -391.9190
  22   2.0000     -10.529394      -286.5194
  23   2.0000     -10.386575      -282.6331
  24   2.0000     -10.382270      -282.5159
  25   2.0000     -10.370224      -282.1882
  26   2.0000     -10.364634      -282.0360
  27   2.0000     -10.358788      -281.8770
  28   2.0000     -10.353138      -281.7232
  29   2.0000     -10.351681      -281.6836
  30   2.0000     -10.342126      -281.4235
  31   2.0000     -10.341472      -281.4058
  32   2.0000     -10.340835      -281.3884
  33   2.0000     -10.333296      -281.1833
  34   2.0000     -10.332385      -281.1585
  35   2.0000     -10.329909      -281.0911
  36   2.0000     -10.328496      -281.0527
  37   2.0000     -10.324265      -280.9375
  38   2.0000     -10.323807      -280.9251
  39   2.0000     -10.318762      -280.7878
  40   2.0000     -10.317381      -280.7502
  41   2.0000     -10.317109      -280.7428
  42   2.0000     -10.316629      -280.7298
  43   2.0000     -10.315542      -280.7002
  44   2.0000     -10.313081      -280.6332
  45   2.0000     -10.312685      -280.6224
  46   2.0000     -10.312560      -280.6190
  47   2.0000     -10.308705      -280.5141
  48   2.0000     -10.308477      -280.5079
  49   2.0000     -10.307434      -280.4796
  50   2.0000     -10.307288      -280.4756
  51   2.0000     -10.306736      -280.4606
  52   2.0000     -10.306718      -280.4600
  53   2.0000     -10.306618      -280.4573
  54   2.0000     -10.306288      -280.4484
  55   2.0000     -10.306279      -280.4481
  56   2.0000     -10.304233      -280.3924
  57   2.0000     -10.301603      -280.3209
  58   2.0000     -10.300123      -280.2806
  59   2.0000     -10.299218      -280.2560
  60   2.0000     -10.298609      -280.2394
  61   2.0000     -10.298583      -280.2387
  62   2.0000     -10.298324      -280.2316
  63   2.0000     -10.296216      -280.1743
  64   2.0000     -10.295903      -280.1658
  65   2.0000     -10.295052      -280.1426
  66   2.0000     -10.293857      -280.1101
  67   2.0000     -10.292987      -280.0864
  68   2.0000     -10.290152      -280.0093
  69   2.0000     -10.289920      -280.0030
  70   2.0000     -10.289737      -279.9980
  71   2.0000     -10.288028      -279.9515
  72   2.0000     -10.284022      -279.8425
  73   2.0000     -10.283173      -279.8194
  74   2.0000     -10.274886      -279.5938
  75   2.0000      -8.786786      -239.1006
  76   2.0000      -8.084555      -219.9919
  77   2.0000      -8.064121      -219.4359
  78   2.0000      -8.057580      -219.2579
  79   2.0000      -6.623042      -180.2221
  80   2.0000      -6.608533      -179.8273
  81   2.0000      -6.608361      -179.8226
  82   2.0000      -6.053522      -164.7247
  83   2.0000      -6.049379      -164.6120
  84   2.0000      -6.047375      -164.5574
  85   2.0000      -6.033806      -164.1882
  86   2.0000      -6.029541      -164.0722
  87   2.0000      -6.027008      -164.0032
  88   2.0000      -6.025318      -163.9572
  89   2.0000      -6.022538      -163.8816
  90   2.0000      -6.019656      -163.8032
  91   2.0000      -2.738932       -74.5301
  92   2.0000      -2.734842       -74.4188
  93   2.0000      -2.734712       -74.4153
  94   2.0000      -2.723179       -74.1015
  95   2.0000      -2.723159       -74.1009
  96   2.0000      -1.397922       -38.0394
  97   2.0000      -1.323630       -36.0178
  98   2.0000      -1.308305       -35.6008
  99   2.0000      -1.303734       -35.4764
 100   2.0000      -1.301667       -35.4202
 101   2.0000      -1.294283       -35.2192
 102   2.0000      -1.160532       -31.5797
 103   2.0000      -1.128046       -30.6957
 104   2.0000      -1.126534       -30.6545
 105   2.0000      -1.058790       -28.8111
 106   2.0000      -1.027415       -27.9574
 107   2.0000      -1.017024       -27.6746
 108   2.0000      -1.013911       -27.5899
 109   2.0000      -1.003289       -27.3009
 110   2.0000      -1.000746       -27.2317
 111   2.0000      -0.995751       -27.0958
 112   2.0000      -0.994005       -27.0483
 113   2.0000      -0.982188       -26.7267
 114   2.0000      -0.979788       -26.6614
 115   2.0000      -0.977062       -26.5872
 116   2.0000      -0.962230       -26.1836
 117   2.0000      -0.946140       -25.7458
 118   2.0000      -0.934409       -25.4266
 119   2.0000      -0.930615       -25.3233
 120   2.0000      -0.920340       -25.0437
 121   2.0000      -0.908360       -24.7177
 122   2.0000      -0.899697       -24.4820
 123   2.0000      -0.898099       -24.4385
 124   2.0000      -0.888384       -24.1742
 125   2.0000      -0.885724       -24.1018
 126   2.0000      -0.881127       -23.9767
 127   2.0000      -0.877256       -23.8713
 128   2.0000      -0.868613       -23.6362
 129   2.0000      -0.862894       -23.4806
 130   2.0000      -0.855477       -23.2787
 131   2.0000      -0.851958       -23.1830
 132   2.0000      -0.835933       -22.7469
 133   2.0000      -0.828938       -22.5566
 134   2.0000      -0.821223       -22.3466
 135   2.0000      -0.814369       -22.1601
 136   2.0000      -0.807010       -21.9599
 137   2.0000      -0.794761       -21.6266
 138   2.0000      -0.783095       -21.3091
 139   2.0000      -0.774918       -21.0866
 140   2.0000      -0.760325       -20.6895
 141   2.0000      -0.755531       -20.5590
 142   2.0000      -0.753266       -20.4974
 143   2.0000      -0.749663       -20.3994
 144   2.0000      -0.733450       -19.9582
 145   2.0000      -0.730819       -19.8866
 146   2.0000      -0.723207       -19.6795
 147   2.0000      -0.715642       -19.4736
 148   2.0000      -0.710289       -19.3280
 149   2.0000      -0.709526       -19.3072
 150   2.0000      -0.691047       -18.8043
 151   2.0000      -0.687074       -18.6962
 152   2.0000      -0.682912       -18.5830
 153   2.0000      -0.679633       -18.4938
 154   2.0000      -0.679069       -18.4784
 155   2.0000      -0.676688       -18.4136
 156   2.0000      -0.673740       -18.3334
 157   2.0000      -0.670760       -18.2523
 158   2.0000      -0.662927       -18.0392
 159   2.0000      -0.651832       -17.7372
 160   2.0000      -0.650200       -17.6928
 161   2.0000      -0.644229       -17.5304
 162   2.0000      -0.638635       -17.3782
 163   2.0000      -0.634018       -17.2525
 164   2.0000      -0.631127       -17.1738
 165   2.0000      -0.628680       -17.1072
 166   2.0000      -0.624098       -16.9826
 167   2.0000      -0.617068       -16.7913
 168   2.0000      -0.612227       -16.6595
 169   2.0000      -0.610352       -16.6085
 170   2.0000      -0.603909       -16.4332
 171   2.0000      -0.596962       -16.2442
 172   2.0000      -0.592142       -16.1130
 173   2.0000      -0.588359       -16.0101
 174   2.0000      -0.588222       -16.0063
 175   2.0000      -0.585750       -15.9391
 176   2.0000      -0.581017       -15.8103
 177   2.0000      -0.577996       -15.7281
 178   2.0000      -0.567607       -15.4454
 179   2.0000      -0.567054       -15.4303
 180   2.0000      -0.560498       -15.2519
 181   2.0000      -0.559578       -15.2269
 182   2.0000      -0.558928       -15.2092
 183   2.0000      -0.554852       -15.0983
 184   2.0000      -0.552630       -15.0378
 185   2.0000      -0.551603       -15.0099
 186   2.0000      -0.549658       -14.9569
 187   2.0000      -0.549478       -14.9520
 188   2.0000      -0.545440       -14.8422
 189   2.0000      -0.542002       -14.7486
 190   2.0000      -0.537376       -14.6227
 191   2.0000      -0.535737       -14.5782
 192   2.0000      -0.535137       -14.5618
 193   2.0000      -0.533596       -14.5199
 194   2.0000      -0.531148       -14.4533
 195   2.0000      -0.527343       -14.3497
 196   2.0000      -0.524428       -14.2704
 197   2.0000      -0.524071       -14.2607
 198   2.0000      -0.521400       -14.1880
 199   2.0000      -0.517078       -14.0704
 200   2.0000      -0.514645       -14.0042
 201   2.0000      -0.513973       -13.9859
 202   2.0000      -0.511717       -13.9245
 203   2.0000      -0.507150       -13.8002
 204   2.0000      -0.506657       -13.7868
 205   2.0000      -0.505033       -13.7426
 206   2.0000      -0.501042       -13.6340
 207   2.0000      -0.500841       -13.6286
 208   2.0000      -0.498087       -13.5536
 209   2.0000      -0.496761       -13.5176
 210   2.0000      -0.492715       -13.4075
 211   2.0000      -0.492309       -13.3964
 212   2.0000      -0.491232       -13.3671
 213   2.0000      -0.488514       -13.2931
 214   2.0000      -0.486070       -13.2266
 215   2.0000      -0.485504       -13.2112
 216   2.0000      -0.483752       -13.1635
 217   2.0000      -0.482566       -13.1313
 218   2.0000      -0.476362       -12.9625
 219   2.0000      -0.475616       -12.9422
 220   2.0000      -0.470872       -12.8131
 221   2.0000      -0.465988       -12.6802
 222   2.0000      -0.465400       -12.6642
 223   2.0000      -0.463205       -12.6045
 224   2.0000      -0.457610       -12.4522
 225   2.0000      -0.452567       -12.3150
 226   2.0000      -0.451763       -12.2931
 227   2.0000      -0.451684       -12.2910
 228   2.0000      -0.449642       -12.2354
 229   2.0000      -0.447106       -12.1664
 230   2.0000      -0.444888       -12.1060
 231   2.0000      -0.440554       -11.9881
 232   2.0000      -0.439288       -11.9536
 233   2.0000      -0.438546       -11.9334
 234   2.0000      -0.438030       -11.9194
 235   2.0000      -0.437145       -11.8953
 236   2.0000      -0.436733       -11.8841
 237   2.0000      -0.432729       -11.7752
 238   2.0000      -0.431293       -11.7361
 239   2.0000      -0.430137       -11.7046
 240   2.0000      -0.427806       -11.6412
 241   2.0000      -0.425415       -11.5761
 242   2.0000      -0.420418       -11.4401
 243   2.0000      -0.417995       -11.3742
 244   2.0000      -0.415287       -11.3005
 245   2.0000      -0.407528       -11.0894
 246   2.0000      -0.407048       -11.0763
 247   2.0000      -0.404394       -11.0041
 248   2.0000      -0.399211       -10.8631
 249   2.0000      -0.394286       -10.7291
 250   2.0000      -0.384885       -10.4732
 251   2.0000      -0.383327       -10.4309
 252   2.0000      -0.378345       -10.2953
 253   2.0000      -0.377510       -10.2726
 254   2.0000      -0.369097       -10.0436
 255   2.0000      -0.353543        -9.6204
 256   2.0000      -0.348194        -9.4748
 257   2.0000      -0.335033        -9.1167
 258   2.0000      -0.329118        -8.9558
 259   2.0000      -0.326907        -8.8956
 260   2.0000      -0.325875        -8.8675
 261   2.0000      -0.321501        -8.7485
 262   2.0000      -0.313696        -8.5361
 263   2.0000      -0.311089        -8.4652
 264   2.0000      -0.306092        -8.3292
 265   2.0000      -0.299148        -8.1402
 266   2.0000      -0.285456        -7.7676
 267   2.0000      -0.259497        -7.0613
 268   2.0000      -0.238513        -6.4903
 269   0.0000      -0.108847        -2.9619
 270   0.0000      -0.085582        -2.3288
 271   0.0000      -0.062669        -1.7053
 272   0.0000      -0.052952        -1.4409
 273   0.0000      -0.047621        -1.2958

MULLIKEN ATOMIC CHARGES
-----------------------
   0 C :   -0.096197
   1 C :    0.302176
   2 F :   -0.190420
   3 C :   -0.033041
   4 C :   -0.008037
   5 C :    0.097635
   6 C :    0.098689
   7 C :   -0.082959
   8 C :    0.038507
   9 C :    0.009890
  10 C :   -0.077464
  11 C :    0.140504
  12 O :   -0.148007
  13 C :   -0.146427
  14 C :    0.252349
  15 C :   -0.330683
  16 C :   -0.213513
  17 N :    0.170295
  18 C :   -0.174022
  19 N :    0.146997
  20 C :    0.024690
  21 C :   -0.146562
  22 S :    0.197820
  23 C :   -0.094344
  24 C :    0.125603
  25 C :    0.167349
  26 C :   -0.105622
  27 C :    0.238738
  28 F :   -0.168593
  29 C :    0.225766
  30 F :   -0.176640
  31 C :   -0.115457
  32 C :    0.016529
  33 C :    0.011191
  34 C :    0.002645
  35 C :   -0.183170
  36 C :    0.087193
  37 C :    0.199160
  38 N :   -0.136391
  39 C :    0.064368
  40 C :   -0.019539
  41 C :   -0.099627
  42 S :    0.209772
  43 C :   -0.091172
  44 C :   -0.112897
  45 C :    0.116588
  46 O :   -0.195258
  47 C :    0.535261
  48 F :   -0.151781
  49 F :   -0.153333
  50 F :   -0.179497
  51 C :   -0.033139
  52 C :   -0.107078
  53 C :    0.327822
  54 C :   -0.358983
  55 C :   -0.191284
  56 N :    0.143568
  57 C :   -0.200670
  58 N :    0.153735
  59 C :    0.009827
  60 C :   -0.004659
  61 C :    0.156264
  62 O :   -0.193130
  63 C :   -0.079816
  64 C :    0.119795
  65 C :   -0.090771
  66 C :   -0.024865
  67 S :    0.183071
  68 C :   -0.123040
  69 C :    0.035859
  70 Br:    0.018116
  71 H :   -0.002926
  72 H :    0.004066
  73 H :   -0.008757
  74 H :   -0.005968
  75 H :   -0.011945
  76 H :    0.022810
  77 H :    0.002200
  78 H :   -0.008791
  79 H :   -0.003177
  80 H :    0.005819
  81 H :   -0.022527
  82 H :    0.026315
  83 H :    0.033578
  84 H :    0.035992
  85 H :    0.018807
  86 H :    0.020047
  87 H :    0.122002
  88 H :    0.026993
  89 H :   -0.028615
  90 H :    0.190776
  91 H :    0.020699
  92 H :   -0.013852
  93 H :   -0.008494
  94 H :   -0.004737
Sum of atomic charges:   -0.0000000

LOEWDIN ATOMIC CHARGES
----------------------
   0 C :   -0.042984
   1 C :    0.092691
   2 F :   -0.064938
   3 C :   -0.037724
   4 C :    0.004631
   5 C :   -0.019239
   6 C :    0.002990
   7 C :    0.008839
   8 C :   -0.016475
   9 C :   -0.058776
  10 C :    0.033408
  11 C :    0.080778
  12 O :   -0.150282
  13 C :   -0.108078
  14 C :    0.060499
  15 C :   -0.150799
  16 C :   -0.034958
  17 N :   -0.054917
  18 C :   -0.020421
  19 N :   -0.057384
  20 C :    0.047280
  21 C :   -0.198529
  22 S :    0.525976
  23 C :   -0.134160
  24 C :   -0.048253
  25 C :   -0.010262
  26 C :   -0.037065
  27 C :    0.075842
  28 F :   -0.045916
  29 C :    0.060967
  30 F :   -0.054196
  31 C :   -0.034152
  32 C :   -0.049203
  33 C :   -0.000550
  34 C :   -0.054158
  35 C :   -0.022998
  36 C :   -0.048727
  37 C :    0.048909
  38 N :    0.015059
  39 C :    0.059088
  40 C :   -0.142088
  41 C :   -0.162756
  42 S :    0.533645
  43 C :   -0.187766
  44 C :   -0.128666
  45 C :    0.009666
  46 O :   -0.050735
  47 C :    0.175723
  48 F :   -0.048172
  49 F :   -0.048852
  50 F :   -0.063069
  51 C :    0.044384
  52 C :   -0.119152
  53 C :    0.075526
  54 C :   -0.148253
  55 C :   -0.017586
  56 N :   -0.062668
  57 C :   -0.027997
  58 N :   -0.050672
  59 C :   -0.018516
  60 C :   -0.049363
  61 C :    0.081993
  62 O :   -0.178709
  63 C :    0.018846
  64 C :   -0.035280
  65 C :   -0.145071
  66 C :   -0.011420
  67 S :    0.430470
  68 C :   -0.273885
  69 C :   -0.070989
  70 Br:    0.132596
  71 H :    0.042787
  72 H :    0.041914
  73 H :    0.035775
  74 H :    0.038567
  75 H :    0.039604
  76 H :    0.047993
  77 H :    0.045506
  78 H :    0.040583
  79 H :    0.032294
  80 H :    0.029310
  81 H :    0.026246
  82 H :    0.032947
  83 H :    0.039958
  84 H :    0.042840
  85 H :    0.028774
  86 H :    0.033829
  87 H :    0.082037
  88 H :    0.029015
  89 H :    0.023904
  90 H :    0.082410
  91 H :    0.042615
  92 H :    0.039480
  93 H :    0.040560
  94 H :    0.038054

  Mayer bond orders larger than 0.100000
B(  0-C ,  1-C ) :   1.4412 B(  0-C ,  6-C ) :   1.2029 B(  0-C , 71-H ) :   1.0056
B(  1-C ,  2-F ) :   1.0885 B(  1-C ,  3-C ) :   1.2556 B(  3-C ,  4-C ) :   1.4592
B(  3-C , 72-H ) :   0.9936 B(  4-C ,  5-C ) :   1.2363 B(  4-C , 73-H ) :   0.9965
B(  5-C ,  6-C ) :   1.2573 B(  5-C , 10-C ) :   1.1892 B(  6-C ,  7-C ) :   1.2035
B(  7-C ,  8-C ) :   1.4645 B(  7-C , 74-H ) :   0.9940 B(  8-C ,  9-C ) :   1.2175
B(  8-C , 14-C ) :   0.9975 B(  9-C , 10-C ) :   1.4772 B(  9-C , 11-C ) :   0.9194
B( 10-C , 75-H ) :   1.0143 B( 11-C , 12-O ) :   2.2603 B( 11-C , 13-C ) :   0.9498
B( 13-C , 14-C ) :   1.0571 B( 13-C , 20-C ) :   1.5957 B( 14-C , 15-C ) :   1.6334
B( 15-C , 16-C ) :   1.1622 B( 15-C , 18-C ) :   1.1364 B( 16-C , 17-N ) :   3.0215
B( 18-C , 19-N ) :   2.9857 B( 20-C , 21-C ) :   1.2030 B( 20-C , 76-H ) :   0.9358
B( 21-C , 22-S ) :   1.1212 B( 21-C , 25-C ) :   1.2793 B( 22-S , 23-C ) :   1.2071
B( 23-C , 24-C ) :   1.3253 B( 23-C , 32-C ) :   1.1134 B( 24-C , 25-C ) :   1.2319
B( 24-C , 31-C ) :   1.1604 B( 25-C , 26-C ) :   1.1896 B( 26-C , 27-C ) :   1.4827
B( 26-C , 31-C ) :   0.1095 B( 26-C , 77-H ) :   0.9977 B( 27-C , 28-F ) :   1.1367
B( 27-C , 29-C ) :   1.1621 B( 29-C , 30-F ) :   1.1276 B( 29-C , 31-C ) :   1.4998
B( 31-C , 78-H ) :   0.9942 B( 32-C , 33-C ) :   1.6919 B( 32-C , 79-H ) :   0.9582
B( 33-C , 34-C ) :   1.1161 B( 33-C , 80-H ) :   0.9689 B( 34-C , 35-C ) :   1.7506
B( 34-C , 81-H ) :   0.9745 B( 35-C , 36-C ) :   1.0749 B( 35-C , 37-C ) :   1.0361
B( 36-C , 82-H ) :   0.9522 B( 36-C , 83-H ) :   0.9448 B( 36-C , 84-H ) :   0.9425
B( 37-C , 38-N ) :   1.0104 B( 37-C , 85-H ) :   0.9425 B( 37-C , 86-H ) :   0.9301
B( 38-N , 39-C ) :   1.2476 B( 38-N , 87-H ) :   0.9360 B( 39-C , 40-C ) :   1.5656
B( 39-C , 88-H ) :   0.9452 B( 40-C , 41-C ) :   1.2123 B( 40-C , 89-H ) :   0.9430
B( 41-C , 42-S ) :   1.1362 B( 41-C , 45-C ) :   1.3187 B( 42-S , 43-C ) :   1.0898
B( 43-C , 44-C ) :   1.3225 B( 43-C , 51-C ) :   1.3251 B( 44-C , 45-C ) :   1.3738
B( 44-C , 47-C ) :   0.9509 B( 45-C , 46-O ) :   1.2464 B( 46-O , 90-H ) :   0.9311
B( 47-C , 48-F ) :   1.1591 B( 47-C , 49-F ) :   1.1556 B( 47-C , 50-F ) :   1.0954
B( 51-C , 52-C ) :   1.4737 B( 51-C , 91-H ) :   0.9150 B( 52-C , 53-C ) :   1.0973
B( 52-C , 61-C ) :   0.9940 B( 53-C , 54-C ) :   1.6072 B( 53-C , 59-C ) :   0.9879
B( 54-C , 55-C ) :   1.1514 B( 54-C , 57-C ) :   1.1412 B( 55-C , 56-N ) :   2.9638
B( 57-C , 58-N ) :   2.9774 B( 59-C , 60-C ) :   1.2784 B( 59-C , 66-C ) :   1.4191
B( 60-C , 61-C ) :   0.9583 B( 60-C , 63-C ) :   1.4217 B( 61-C , 62-O ) :   2.1084
B( 63-C , 64-C ) :   1.2392 B( 63-C , 92-H ) :   1.0182 B( 64-C , 65-C ) :   1.3127
B( 64-C , 69-C ) :   1.1608 B( 65-C , 66-C ) :   1.3206 B( 65-C , 67-S ) :   1.0856
B( 66-C , 93-H ) :   0.9797 B( 67-S , 68-C ) :   1.0865 B( 68-C , 69-C ) :   1.6188
B( 68-C , 70-Br) :   1.0157 B( 69-C , 94-H ) :   1.0008

-----------------------------------------------------------------------------
         ABSORPTION SPECTRUM VIA TRANSITION ELECTRIC DIPOLE MOMENTS
-----------------------------------------------------------------------------
State   Energy  Wavelength   fosc         T2         TX        TY        TZ
        (cm-1)    (nm)                  (au**2)     (au)      (au)      (au)
-----------------------------------------------------------------------------
   0   15431.1    648.0   0.786947003  16.78896  -4.04401  -0.08054   0.65458
   1   17846.5    560.3   1.024095150  18.89134   1.37029   3.50561   2.17355
   2   18944.6    527.9   0.230467194   4.00497   1.33845   1.08828   1.01448
   3   23685.4    422.2   0.083962381   1.16702  -0.09244  -0.97218  -0.46190
   4   24878.5    402.0   0.042061075   0.55658   0.20803   0.49259  -0.52025
   5   26147.9    382.4   0.135224788   1.70253   1.23132   0.23824  -0.36004
   6   27207.8    367.5   0.246797933   2.98623  -1.61006  -0.56309   0.27724
   7   28053.0    356.5   0.321643606   3.77461  -0.88828   1.57590   0.70859
   8   28673.3    348.8   0.028326746   0.32523   0.39917  -0.30134  -0.27403
   9   28817.5    347.0   0.100682558   1.15020  -1.06912   0.08435  -0.00885
  10   29036.7    344.4   0.008108078   0.09193  -0.28426   0.07002   0.07889
  11   29066.1    344.0   0.043119405   0.48838   0.58048  -0.38829   0.02565
  12   29413.2    340.0   0.065600349   0.73424  -0.56203   0.53589  -0.36219
  13   30090.1    332.3   0.012096281   0.13234   0.18126   0.16287   0.27011
  14   30157.3    331.6   0.256178139   2.79657  -0.02567   1.52482  -0.68617
  15   30383.5    329.1   0.059185258   0.64128   0.67187  -0.43136  -0.06162
  16   32017.6    312.3   0.061867796   0.63614  -0.42510   0.63459   0.22962
  17   32287.0    309.7   0.017649936   0.17997   0.17474  -0.36771  -0.11925
  18   32612.7    306.6   0.207695872   2.09660  -1.42640   0.10994  -0.22335
  19   32647.0    306.3   0.026065516   0.26284  -0.50298   0.09693  -0.02152
  20   33376.5    299.6   0.082298086   0.81175  -0.28625   0.85336   0.03996
  21   33674.8    297.0   0.257380970   2.51621   1.24242  -0.86419  -0.47516
  22   33853.4    295.4   0.023409041   0.22764   0.08306   0.41411  -0.22194
  23   34235.4    292.1   0.617016880   5.93332   1.86662  -1.50322   0.43517
  24   34441.7    290.3   0.113544867   1.08532   0.93076  -0.32535  -0.33637
  25   34728.3    287.9   0.069598672   0.65977  -0.38969  -0.70554   0.10064
  26   34892.7    286.6   0.273001777   2.57577   1.58701   0.02521  -0.23778
  27   35426.9    282.3   0.137432230   1.27712  -0.16865   0.93591  -0.61053
  28   36608.6    273.2   0.106584812   0.95849   0.89738  -0.32392   0.21971
  29   36781.3    271.9   0.045451962   0.40682  -0.21143   0.38115   0.46566
  30   36902.9    271.0   0.031384940   0.27999   0.14527  -0.48460  -0.15506
  31   37099.1    269.5   0.081805137   0.72593  -0.23498  -0.79173  -0.20945
  32   37609.0    265.9   0.168894052   1.47842   0.70321   0.95359   0.27312
  33   37799.2    264.6   0.114303531   0.99553  -0.41654  -0.71696  -0.55497
  34   38300.7    261.1   0.018903344   0.16248   0.02072  -0.33196  -0.22772
  35   38868.0    257.3   0.265729465   2.25073  -1.18727  -0.90445   0.15198
  36   39203.0    255.1   0.002306808   0.01937   0.11719  -0.07056   0.02567
  37   39294.4    254.5   0.092524176   0.77518   0.85288  -0.21814  -0.01336
  38   40151.5    249.1   0.019358678   0.15873   0.15884  -0.34032   0.13295
  39   40313.1    248.1   0.164524027   1.34357  -0.77860   0.81125  -0.28147

FINAL SINGLE POINT ENERGY     -6896.841462667911

DIPOLE MOMENT
-------------
                                X             Y             Z
Electronic contribution:     85.11714     122.61015      58.52105
Nuclear contribution   :    -89.36953    -124.52037     -61.46549
                        -----------------------------------------
Total Dipole Moment    :     -4.25240      -1.91021      -2.94445
                        -----------------------------------------
Magnitude (a.u.)       :      5.51376
Magnitude (Debye)      :     14.01486

Rotational constants in cm-1:     0.000787     0.000232     0.000189
Rotational constants in MHz :    23.595248     6.967238     5.655948

                             ****ORCA TERMINATED NORMALLY****
TOTAL RUN TIME: 0 days 0 hours 10 minutes 23 seconds 968 msec
