                         Program Version 4.2.0 -  RELEASE  -
|  1> # ORCA input file
|  2> # SCF done       -185.839271904198          0.000766768279
|  3> ! CAM-B3LYP def2-SVP def2/J RIJCOSX Grid4 TightSCF
|  4> %maxcore 5000
|  5> %tddft
|  6>     Mode sTDDFT
|  7>     Ethresh 5.0
|  8>     maxcore 5000
|  9> end
| 10>
| 11> %pal
| 12>   nprocs 6
| 13>   end
| 14> * xyz 0 1
| 15>    C       -6.79261         0.91916         4.94739
| 16>    C       -6.21442        -0.21346         4.42825
| 17>    C       -5.81694        -1.32261         5.20152
| 18>    N       -5.46941        -2.25528         5.77472
| 19>    C       -5.94162        -0.44793         3.06534
| 20>    N       -5.68550        -0.72667         1.98064
| 21>    C       -7.07908         1.13705         6.36494
| 22>    C       -7.68210         2.40860         6.51168
| 23>    C       -8.05197         2.92194         7.72964
| 24>    C       -7.84349         2.12764         8.86235
| 25>    C       -7.25303         0.85221         8.70719
| 26>    C       -6.85807         0.34354         7.47469
| 27>    S       -7.09546         0.03318        10.23280
| 28>    C       -7.82116         1.39555        11.04353
| 29>    C       -8.16101         2.41402        10.21867
| 30>   Br       -8.06918         1.34583        12.90274
| 31>    C       -7.83581         3.03043         5.18090
| 32>    O       -8.37097         4.10139         4.95981
| 33>    C       -7.23870         2.08785         4.22252
| 34>    C       -7.11559         2.32135         2.87165
| 35>    C       -7.58144         3.45911         2.19768
| 36>    C       -7.36127         3.62180         0.85654
| 37>    C       -7.78870         4.71915         0.09510
| 38>    O       -8.52600         5.73708         0.61173
| 39>    C       -8.76910         6.63248        -0.37220
| 40>    C       -8.17122         6.19095        -1.55680
| 41>    C       -7.54926         4.96901        -1.26427
| 42>    O       -6.85435         4.17975        -2.09871
| 43>    O       -8.15342         6.76576        -2.78649
| 44>    C       -9.53207         7.80478        -0.16030
| 45>    C      -10.13656         8.13848         1.01210
| 46>    C      -10.91523         9.30888         1.22190
| 47>    C      -11.08896        10.30736         0.31489
| 48>    C      -11.87435        11.46664         0.50495
| 49>    O      -12.57843        11.71369         1.64308
| 50>    C      -12.08429        12.51899        -0.37144
| 51>    C      -11.75429        13.03151        -1.70135
| 52>    O      -11.06218        12.57620        -2.57788
| 53>    N      -12.44873        14.23562        -1.76692
| 54>    C      -13.19425        14.55743        -0.62812
| 55>    O      -13.85879        15.55412        -0.50059
| 56>    C      -12.94892        13.43242         0.27045
| 57>    C      -13.23971        12.90225         1.52150
| 58>    C      -14.05715        13.40319         2.55102
| 59>    C      -14.26187        12.75471         3.73815
| 60>    C      -15.07864        13.24006         4.76406
| 61>    C      -15.28074        12.57404         5.95280
| 62>    C      -16.08586        12.98106         7.04364
| 63>    C      -16.09037        12.10733         8.09090
| 64>    C      -15.28808        10.96580         7.87830
| 65>    S      -14.52617        11.03342         6.30743
| 66>    C      -15.06139         9.88822         8.71649
| 67>    C      -15.56901         9.63640        10.00993
| 68>    C      -15.13123         8.46463        10.54769
| 69>    C      -14.25362         7.72710         9.70817
| 70>    S      -14.01115         8.59206         8.20425
| 71>    C      -13.68435         6.51998        10.02477
| 72>    C      -12.81097         5.74478         9.23715
| 73>    S      -12.22427         4.20824         9.86488
| 74>    C      -11.28611         3.84509         8.47397
| 75>    C      -11.39359         4.85524         7.54664
| 76>    C      -12.25463         5.91320         7.97922
| 77>    O      -12.33295         6.87035         7.03261
| 78>    C      -11.53906         6.44363         6.01232
| 79>    N      -11.45386         7.27010         4.87175
| 80>    O      -10.79618         6.85146         3.93665
| 81>    O      -12.04040         8.33309         4.88429
| 82>    C      -10.93858         5.23773         6.25340
| 83>    H       -8.48706         3.90594         7.80752
| 84>    H       -6.40361        -0.63083         7.41348
| 85>    H       -8.61838         3.32826        10.55071
| 86>    H       -6.61349         1.57670         2.26726
| 87>    H       -8.11624         4.22076         2.74453
| 88>    H       -6.81054         2.87410         0.30086
| 89>    H       -6.84138         4.59075        -2.97383
| 90>    H       -8.63426         7.60083        -2.77181
| 91>    H       -9.62947         8.44922        -1.02420
| 92>    H      -10.04044         7.45947         1.84770
| 93>    H      -11.39958         9.40120         2.18449
| 94>    H      -10.61062        10.27884        -0.65338
| 95>    H      -12.41961        14.83542        -2.57879
| 96>    H      -14.53169        14.35191         2.34680
| 97>    H      -13.76484        11.80584         3.89748
| 98>    H      -15.58286        14.18682         4.62327
| 99>    H      -16.63560        13.90547         7.02027
|100>    H      -16.64409        12.25308         9.00119
|101>    H      -16.23672        10.31887        10.50455
|102>    H      -15.40726         8.10037        11.52147
|103>    H      -13.93032         6.10334        10.99241
|104>    H      -10.73847         2.92758         8.41879
|105>    H      -10.24238         4.73807         5.60792
|106> *
|107>
|108>                          ****END OF INPUT****

CARTESIAN COORDINATES (ANGSTROEM)
---------------------------------
  C     -6.792610    0.919160    4.947390
  C     -6.214420   -0.213460    4.428250
  C     -5.816940   -1.322610    5.201520
  N     -5.469410   -2.255280    5.774720
  C     -5.941620   -0.447930    3.065340
  N     -5.685500   -0.726670    1.980640
  C     -7.079080    1.137050    6.364940
  C     -7.682100    2.408600    6.511680
  C     -8.051970    2.921940    7.729640
  C     -7.843490    2.127640    8.862350
  C     -7.253030    0.852210    8.707190
  C     -6.858070    0.343540    7.474690
  S     -7.095460    0.033180   10.232800
  C     -7.821160    1.395550   11.043530
  C     -8.161010    2.414020   10.218670
  Br    -8.069180    1.345830   12.902740
  C     -7.835810    3.030430    5.180900
  O     -8.370970    4.101390    4.959810
  C     -7.238700    2.087850    4.222520
  C     -7.115590    2.321350    2.871650
  C     -7.581440    3.459110    2.197680
  C     -7.361270    3.621800    0.856540
  C     -7.788700    4.719150    0.095100
  O     -8.526000    5.737080    0.611730
  C     -8.769100    6.632480   -0.372200
  C     -8.171220    6.190950   -1.556800
  C     -7.549260    4.969010   -1.264270
  O     -6.854350    4.179750   -2.098710
  O     -8.153420    6.765760   -2.786490
  C     -9.532070    7.804780   -0.160300
  C    -10.136560    8.138480    1.012100
  C    -10.915230    9.308880    1.221900
  C    -11.088960   10.307360    0.314890
  C    -11.874350   11.466640    0.504950
  O    -12.578430   11.713690    1.643080
  C    -12.084290   12.518990   -0.371440
  C    -11.754290   13.031510   -1.701350
  O    -11.062180   12.576200   -2.577880
  N    -12.448730   14.235620   -1.766920
  C    -13.194250   14.557430   -0.628120
  O    -13.858790   15.554120   -0.500590
  C    -12.948920   13.432420    0.270450
  C    -13.239710   12.902250    1.521500
  C    -14.057150   13.403190    2.551020
  C    -14.261870   12.754710    3.738150
  C    -15.078640   13.240060    4.764060
  C    -15.280740   12.574040    5.952800
  C    -16.085860   12.981060    7.043640
  C    -16.090370   12.107330    8.090900
  C    -15.288080   10.965800    7.878300
  S    -14.526170   11.033420    6.307430
  C    -15.061390    9.888220    8.716490
  C    -15.569010    9.636400   10.009930
  C    -15.131230    8.464630   10.547690
  C    -14.253620    7.727100    9.708170
  S    -14.011150    8.592060    8.204250
  C    -13.684350    6.519980   10.024770
  C    -12.810970    5.744780    9.237150
  S    -12.224270    4.208240    9.864880
  C    -11.286110    3.845090    8.473970
  C    -11.393590    4.855240    7.546640
  C    -12.254630    5.913200    7.979220
  O    -12.332950    6.870350    7.032610
  C    -11.539060    6.443630    6.012320
  N    -11.453860    7.270100    4.871750
  O    -10.796180    6.851460    3.936650
  O    -12.040400    8.333090    4.884290
  C    -10.938580    5.237730    6.253400
  H     -8.487060    3.905940    7.807520
  H     -6.403610   -0.630830    7.413480
  H     -8.618380    3.328260   10.550710
  H     -6.613490    1.576700    2.267260
  H     -8.116240    4.220760    2.744530
  H     -6.810540    2.874100    0.300860
  H     -6.841380    4.590750   -2.973830
  H     -8.634260    7.600830   -2.771810
  H     -9.629470    8.449220   -1.024200
  H    -10.040440    7.459470    1.847700
  H    -11.399580    9.401200    2.184490
  H    -10.610620   10.278840   -0.653380
  H    -12.419610   14.835420   -2.578790
  H    -14.531690   14.351910    2.346800
  H    -13.764840   11.805840    3.897480
  H    -15.582860   14.186820    4.623270
  H    -16.635600   13.905470    7.020270
  H    -16.644090   12.253080    9.001190
  H    -16.236720   10.318870   10.504550
  H    -15.407260    8.100370   11.521470
  H    -13.930320    6.103340   10.992410
  H    -10.738470    2.927580    8.418790
  H    -10.242380    4.738070    5.607920

 Total Charge           Charge          ....    0
 Multiplicity           Mult            ....    1
 Number of Electrons    NEL             ....  524
 Basis Dimension        Dim             .... 1101

ORBITAL ENERGIES
----------------

  NO   OCC          E(Eh)            E(eV)
   0   2.0000    -482.886240    -13140.0026
   1   2.0000     -88.981783     -2421.3174
   2   2.0000     -88.974861     -2421.1290
   3   2.0000     -88.945931     -2420.3418
   4   2.0000     -88.945731     -2420.3364
   5   2.0000     -62.563935     -1702.4512
   6   2.0000     -56.397885     -1534.6645
   7   2.0000     -56.395171     -1534.5906
   8   2.0000     -56.395140     -1534.5898
   9   2.0000     -19.311176      -525.4838
  10   2.0000     -19.300194      -525.1850
  11   2.0000     -19.298100      -525.1280
  12   2.0000     -19.276505      -524.5404
  13   2.0000     -19.275880      -524.5234
  14   2.0000     -19.253997      -523.9279
  15   2.0000     -19.251764      -523.8671
  16   2.0000     -19.212912      -522.8099
  17   2.0000     -19.203269      -522.5475
  18   2.0000     -19.200712      -522.4779
  19   2.0000     -14.663899      -399.0250
  20   2.0000     -14.445584      -393.0843
  21   2.0000     -14.407167      -392.0389
  22   2.0000     -14.406096      -392.0098
  23   2.0000     -10.392031      -282.7815
  24   2.0000     -10.390048      -282.7276
  25   2.0000     -10.389105      -282.7019
  26   2.0000     -10.362573      -281.9800
  27   2.0000     -10.358931      -281.8808
  28   2.0000     -10.357808      -281.8503
  29   2.0000     -10.353691      -281.7383
  30   2.0000     -10.353108      -281.7224
  31   2.0000     -10.352154      -281.6964
  32   2.0000     -10.351991      -281.6920
  33   2.0000     -10.349412      -281.6218
  34   2.0000     -10.338862      -281.3347
  35   2.0000     -10.332659      -281.1659
  36   2.0000     -10.330773      -281.1146
  37   2.0000     -10.325538      -280.9722
  38   2.0000     -10.323789      -280.9246
  39   2.0000     -10.318419      -280.7785
  40   2.0000     -10.316308      -280.7210
  41   2.0000     -10.313604      -280.6474
  42   2.0000     -10.313006      -280.6312
  43   2.0000     -10.312383      -280.6142
  44   2.0000     -10.310599      -280.5657
  45   2.0000     -10.309962      -280.5483
  46   2.0000     -10.309079      -280.5243
  47   2.0000     -10.306514      -280.4545
  48   2.0000     -10.305436      -280.4252
  49   2.0000     -10.304977      -280.4127
  50   2.0000     -10.304224      -280.3922
  51   2.0000     -10.303344      -280.3682
  52   2.0000     -10.302238      -280.3382
  53   2.0000     -10.299131      -280.2536
  54   2.0000     -10.298790      -280.2443
  55   2.0000     -10.296969      -280.1948
  56   2.0000     -10.293964      -280.1130
  57   2.0000     -10.293824      -280.1092
  58   2.0000     -10.293268      -280.0941
  59   2.0000     -10.291778      -280.0535
  60   2.0000     -10.288782      -279.9720
  61   2.0000     -10.288182      -279.9557
  62   2.0000     -10.287885      -279.9476
  63   2.0000     -10.285353      -279.8787
  64   2.0000     -10.283037      -279.8157
  65   2.0000     -10.282853      -279.8106
  66   2.0000     -10.282143      -279.7913
  67   2.0000     -10.281316      -279.7688
  68   2.0000     -10.281222      -279.7663
  69   2.0000     -10.279475      -279.7187
  70   2.0000     -10.278711      -279.6980
  71   2.0000     -10.272611      -279.5320
  72   2.0000      -8.793349      -239.2792
  73   2.0000      -8.076724      -219.7788
  74   2.0000      -8.070890      -219.6201
  75   2.0000      -8.042398      -218.8448
  76   2.0000      -8.042048      -218.8353
  77   2.0000      -6.629635      -180.4015
  78   2.0000      -6.615087      -180.0057
  79   2.0000      -6.614899      -180.0005
  80   2.0000      -6.046028      -164.5208
  81   2.0000      -6.041758      -164.4046
  82   2.0000      -6.040566      -164.3722
  83   2.0000      -6.039055      -164.3310
  84   2.0000      -6.036308      -164.2563
  85   2.0000      -6.032097      -164.1417
  86   2.0000      -6.012106      -163.5977
  87   2.0000      -6.011792      -163.5892
  88   2.0000      -6.008012      -163.4863
  89   2.0000      -6.007642      -163.4763
  90   2.0000      -6.003315      -163.3585
  91   2.0000      -6.002793      -163.3443
  92   2.0000      -2.745497       -74.7088
  93   2.0000      -2.741420       -74.5978
  94   2.0000      -2.741297       -74.5945
  95   2.0000      -2.729722       -74.2795
  96   2.0000      -2.729707       -74.2791
  97   2.0000      -1.335343       -36.3365
  98   2.0000      -1.233694       -33.5705
  99   2.0000      -1.220572       -33.2135
 100   2.0000      -1.214850       -33.0578
 101   2.0000      -1.175250       -31.9802
 102   2.0000      -1.158772       -31.5318
 103   2.0000      -1.150214       -31.2989
 104   2.0000      -1.145752       -31.1775
 105   2.0000      -1.127196       -30.6726
 106   2.0000      -1.125014       -30.6132
 107   2.0000      -1.033317       -28.1180
 108   2.0000      -1.019711       -27.7477
 109   2.0000      -1.006923       -27.3998
 110   2.0000      -1.003870       -27.3167
 111   2.0000      -0.998271       -27.1643
 112   2.0000      -0.985774       -26.8243
 113   2.0000      -0.983778       -26.7700
 114   2.0000      -0.977774       -26.6066
 115   2.0000      -0.940927       -25.6039
 116   2.0000      -0.940010       -25.5790
 117   2.0000      -0.933906       -25.4129
 118   2.0000      -0.924870       -25.1670
 119   2.0000      -0.916494       -24.9391
 120   2.0000      -0.912119       -24.8200
 121   2.0000      -0.905945       -24.6520
 122   2.0000      -0.904759       -24.6197
 123   2.0000      -0.902850       -24.5678
 124   2.0000      -0.895526       -24.3685
 125   2.0000      -0.885648       -24.0997
 126   2.0000      -0.883744       -24.0479
 127   2.0000      -0.878547       -23.9065
 128   2.0000      -0.865885       -23.5619
 129   2.0000      -0.855809       -23.2878
 130   2.0000      -0.846616       -23.0376
 131   2.0000      -0.833071       -22.6690
 132   2.0000      -0.827748       -22.5242
 133   2.0000      -0.826121       -22.4799
 134   2.0000      -0.817815       -22.2539
 135   2.0000      -0.803806       -21.8727
 136   2.0000      -0.794763       -21.6266
 137   2.0000      -0.782276       -21.2868
 138   2.0000      -0.768712       -20.9177
 139   2.0000      -0.759875       -20.6773
 140   2.0000      -0.755897       -20.5690
 141   2.0000      -0.751863       -20.4592
 142   2.0000      -0.745948       -20.2983
 143   2.0000      -0.731718       -19.9110
 144   2.0000      -0.723366       -19.6838
 145   2.0000      -0.712630       -19.3916
 146   2.0000      -0.710785       -19.3414
 147   2.0000      -0.705262       -19.1911
 148   2.0000      -0.700322       -19.0567
 149   2.0000      -0.690844       -18.7988
 150   2.0000      -0.687971       -18.7206
 151   2.0000      -0.681387       -18.5415
 152   2.0000      -0.674695       -18.3594
 153   2.0000      -0.670718       -18.2512
 154   2.0000      -0.660330       -17.9685
 155   2.0000      -0.657950       -17.9037
 156   2.0000      -0.655597       -17.8397
 157   2.0000      -0.652836       -17.7646
 158   2.0000      -0.647580       -17.6215
 159   2.0000      -0.634933       -17.2774
 160   2.0000      -0.634090       -17.2545
 161   2.0000      -0.627968       -17.0879
 162   2.0000      -0.622649       -16.9431
 163   2.0000      -0.621128       -16.9018
 164   2.0000      -0.620458       -16.8835
 165   2.0000      -0.616054       -16.7637
 166   2.0000      -0.613062       -16.6823
 167   2.0000      -0.600458       -16.3393
 168   2.0000      -0.598353       -16.2820
 169   2.0000      -0.595593       -16.2069
 170   2.0000      -0.592069       -16.1110
 171   2.0000      -0.586072       -15.9478
 172   2.0000      -0.582178       -15.8419
 173   2.0000      -0.580453       -15.7949
 174   2.0000      -0.579860       -15.7788
 175   2.0000      -0.574170       -15.6240
 176   2.0000      -0.571247       -15.5444
 177   2.0000      -0.570142       -15.5144
 178   2.0000      -0.565189       -15.3796
 179   2.0000      -0.560537       -15.2530
 180   2.0000      -0.555692       -15.1211
 181   2.0000      -0.548641       -14.9293
 182   2.0000      -0.545492       -14.8436
 183   2.0000      -0.540067       -14.6960
 184   2.0000      -0.538731       -14.6596
 185   2.0000      -0.535312       -14.5666
 186   2.0000      -0.534863       -14.5544
 187   2.0000      -0.533915       -14.5286
 188   2.0000      -0.531094       -14.4518
 189   2.0000      -0.527513       -14.3544
 190   2.0000      -0.522901       -14.2289
 191   2.0000      -0.519414       -14.1340
 192   2.0000      -0.516531       -14.0555
 193   2.0000      -0.512294       -13.9402
 194   2.0000      -0.507862       -13.8196
 195   2.0000      -0.506530       -13.7834
 196   2.0000      -0.504271       -13.7219
 197   2.0000      -0.502011       -13.6604
 198   2.0000      -0.501932       -13.6583
 199   2.0000      -0.500006       -13.6059
 200   2.0000      -0.499259       -13.5855
 201   2.0000      -0.493902       -13.4398
 202   2.0000      -0.491910       -13.3855
 203   2.0000      -0.490093       -13.3361
 204   2.0000      -0.487569       -13.2674
 205   2.0000      -0.486893       -13.2490
 206   2.0000      -0.483411       -13.1543
 207   2.0000      -0.482125       -13.1193
 208   2.0000      -0.479798       -13.0560
 209   2.0000      -0.474829       -12.9208
 210   2.0000      -0.473704       -12.8901
 211   2.0000      -0.469899       -12.7866
 212   2.0000      -0.466238       -12.6870
 213   2.0000      -0.465214       -12.6591
 214   2.0000      -0.463337       -12.6081
 215   2.0000      -0.460781       -12.5385
 216   2.0000      -0.455469       -12.3940
 217   2.0000      -0.454162       -12.3584
 218   2.0000      -0.451746       -12.2926
 219   2.0000      -0.446375       -12.1465
 220   2.0000      -0.441757       -12.0208
 221   2.0000      -0.441085       -12.0025
 222   2.0000      -0.440885       -11.9971
 223   2.0000      -0.437676       -11.9098
 224   2.0000      -0.436450       -11.8764
 225   2.0000      -0.435538       -11.8516
 226   2.0000      -0.434751       -11.8302
 227   2.0000      -0.431592       -11.7442
 228   2.0000      -0.426654       -11.6099
 229   2.0000      -0.421435       -11.4678
 230   2.0000      -0.420419       -11.4402
 231   2.0000      -0.418363       -11.3842
 232   2.0000      -0.416357       -11.3296
 233   2.0000      -0.407592       -11.0911
 234   2.0000      -0.401580       -10.9275
 235   2.0000      -0.400514       -10.8985
 236   2.0000      -0.399655       -10.8752
 237   2.0000      -0.393441       -10.7061
 238   2.0000      -0.389771       -10.6062
 239   2.0000      -0.386587       -10.5196
 240   2.0000      -0.382910       -10.4195
 241   2.0000      -0.379213       -10.3189
 242   2.0000      -0.375708       -10.2235
 243   2.0000      -0.374446       -10.1892
 244   2.0000      -0.366087        -9.9617
 245   2.0000      -0.361134        -9.8269
 246   2.0000      -0.358835        -9.7644
 247   2.0000      -0.353288        -9.6135
 248   2.0000      -0.342740        -9.3264
 249   2.0000      -0.337977        -9.1968
 250   2.0000      -0.336981        -9.1697
 251   2.0000      -0.333080        -9.0636
 252   2.0000      -0.328491        -8.9387
 253   2.0000      -0.327494        -8.9116
 254   2.0000      -0.324528        -8.8308
 255   2.0000      -0.314575        -8.5600
 256   2.0000      -0.312019        -8.4905
 257   2.0000      -0.294019        -8.0007
 258   2.0000      -0.289272        -7.8715
 259   2.0000      -0.268065        -7.2944
 260   2.0000      -0.239378        -6.5138
 261   2.0000      -0.209019        -5.6877
 262   0.0000      -0.099461        -2.7065
 263   0.0000      -0.088940        -2.4202
 264   0.0000      -0.068293        -1.8583
 265   0.0000      -0.063047        -1.7156
 266   0.0000      -0.047783        -1.3002

MULLIKEN ATOMIC CHARGES
-----------------------
   0 C :    0.334486
   1 C :   -0.364443
   2 C :   -0.187578
   3 N :    0.141681
   4 C :   -0.190585
   5 N :    0.141152
   6 C :    0.009188
   7 C :    0.002637
   8 C :   -0.099257
   9 C :    0.112318
  10 C :   -0.092940
  11 C :   -0.019223
  12 S :    0.187243
  13 C :   -0.122477
  14 C :    0.027342
  15 Br:    0.020368
  16 C :    0.153405
  17 O :   -0.183648
  18 C :   -0.068978
  19 C :   -0.033348
  20 C :   -0.006259
  21 C :   -0.004095
  22 C :    0.083770
  23 O :   -0.205828
  24 C :    0.131811
  25 C :    0.074765
  26 C :    0.110223
  27 O :   -0.154391
  28 O :   -0.195372
  29 C :   -0.046310
  30 C :    0.017139
  31 C :    0.020920
  32 C :   -0.016720
  33 C :    0.105217
  34 O :   -0.216900
  35 C :   -0.043054
  36 C :    0.163690
  37 O :   -0.160276
  38 N :   -0.169817
  39 C :    0.159485
  40 O :   -0.148418
  41 C :   -0.035051
  42 C :    0.111146
  43 C :   -0.055225
  44 C :    0.032995
  45 C :   -0.019008
  46 C :   -0.011041
  47 C :    0.034369
  48 C :    0.031050
  49 C :   -0.052114
  50 S :    0.093989
  51 C :   -0.033783
  52 C :    0.030787
  53 C :    0.037730
  54 C :   -0.034054
  55 S :    0.096902
  56 C :    0.052035
  57 C :   -0.237845
  58 S :    0.152007
  59 C :   -0.152654
  60 C :    0.123636
  61 C :    0.198316
  62 O :   -0.196913
  63 C :    0.236738
  64 N :    0.288623
  65 O :   -0.240249
  66 O :   -0.226593
  67 C :   -0.049940
  68 H :   -0.015928
  69 H :   -0.009142
  70 H :   -0.006959
  71 H :    0.009254
  72 H :    0.033736
  73 H :    0.026500
  74 H :    0.201833
  75 H :    0.197744
  76 H :   -0.031937
  77 H :    0.017672
  78 H :    0.001902
  79 H :   -0.000292
  80 H :    0.134489
  81 H :    0.006687
  82 H :    0.024853
  83 H :   -0.012589
  84 H :   -0.010230
  85 H :   -0.011825
  86 H :   -0.011379
  87 H :   -0.012161
  88 H :   -0.021001
  89 H :    0.044028
  90 H :    0.001971
Sum of atomic charges:   -0.0000000

LOEWDIN ATOMIC CHARGES
----------------------
   0 C :    0.075286
   1 C :   -0.150930
   2 C :   -0.018544
   3 N :   -0.063570
   4 C :   -0.020845
   5 N :   -0.059840
   6 C :   -0.016944
   7 C :   -0.050270
   8 C :    0.008002
   9 C :   -0.039290
  10 C :   -0.145585
  11 C :   -0.010087
  12 S :    0.432430
  13 C :   -0.272935
  14 C :   -0.077086
  15 Br:    0.134006
  16 C :    0.090867
  17 O :   -0.159438
  18 C :   -0.118654
  19 C :    0.071491
  20 C :   -0.047688
  21 C :    0.031722
  22 C :   -0.010998
  23 O :    0.013864
  24 C :    0.023006
  25 C :   -0.026393
  26 C :    0.024536
  27 O :   -0.027509
  28 O :   -0.057456
  29 C :   -0.051390
  30 C :    0.005262
  31 C :   -0.006445
  32 C :   -0.031149
  33 C :    0.065208
  34 O :    0.010012
  35 C :   -0.096177
  36 C :    0.083307
  37 O :   -0.174518
  38 N :   -0.008862
  39 C :    0.084267
  40 O :   -0.165970
  41 C :   -0.106345
  42 C :    0.076673
  43 C :   -0.052444
  44 C :   -0.001104
  45 C :   -0.064046
  46 C :   -0.132766
  47 C :   -0.036655
  48 C :   -0.024871
  49 C :   -0.181124
  50 S :    0.391924
  51 C :   -0.176342
  52 C :   -0.032223
  53 C :   -0.030066
  54 C :   -0.145248
  55 S :    0.406687
  56 C :   -0.080505
  57 C :   -0.201408
  58 S :    0.475299
  59 C :   -0.189065
  60 C :   -0.082031
  61 C :    0.013239
  62 O :   -0.005467
  63 C :    0.019865
  64 N :    0.279774
  65 O :   -0.201450
  66 O :   -0.194670
  67 C :    0.006556
  68 H :    0.037034
  69 H :    0.040962
  70 H :    0.035863
  71 H :    0.041245
  72 H :    0.036054
  73 H :    0.049410
  74 H :    0.110632
  75 H :    0.102428
  76 H :    0.024099
  77 H :    0.036259
  78 H :    0.034490
  79 H :    0.037327
  80 H :    0.092232
  81 H :    0.043927
  82 H :    0.029696
  83 H :    0.033741
  84 H :    0.034309
  85 H :    0.032742
  86 H :    0.032386
  87 H :    0.033138
  88 H :    0.034365
  89 H :    0.028991
  90 H :    0.041795

  Mayer bond orders larger than 0.100000
B(  0-C ,  1-C ) :   1.6036 B(  0-C ,  6-C ) :   0.9849 B(  0-C , 18-C ) :   1.0966
B(  1-C ,  2-C ) :   1.1478 B(  1-C ,  4-C ) :   1.1504 B(  2-C ,  3-N ) :   2.9635
B(  4-C ,  5-N ) :   2.9622 B(  6-C ,  7-C ) :   1.2817 B(  6-C , 11-C ) :   1.4207
B(  7-C ,  8-C ) :   1.4155 B(  7-C , 16-C ) :   0.9413 B(  8-C ,  9-C ) :   1.2420
B(  8-C , 68-H ) :   1.0126 B(  9-C , 10-C ) :   1.3168 B(  9-C , 14-C ) :   1.1561
B( 10-C , 11-C ) :   1.3198 B( 10-C , 12-S ) :   1.0852 B( 11-C , 69-H ) :   0.9783
B( 12-S , 13-C ) :   1.0892 B( 13-C , 14-C ) :   1.6163 B( 13-C , 15-Br) :   1.0171
B( 14-C , 70-H ) :   0.9999 B( 16-C , 17-O ) :   2.0712 B( 16-C , 18-C ) :   0.9953
B( 18-C , 19-C ) :   1.4303 B( 19-C , 20-C ) :   1.2291 B( 19-C , 71-H ) :   0.9611
B( 20-C , 21-C ) :   1.4283 B( 20-C , 72-H ) :   0.9977 B( 21-C , 22-C ) :   1.2289
B( 21-C , 73-H ) :   0.9754 B( 22-C , 23-O ) :   1.1058 B( 22-C , 24-C ) :   0.1053
B( 22-C , 26-C ) :   1.3068 B( 23-O , 24-C ) :   1.1457 B( 24-C , 25-C ) :   1.2736
B( 24-C , 29-C ) :   1.1732 B( 25-C , 26-C ) :   1.2656 B( 25-C , 28-O ) :   1.2317
B( 26-C , 27-O ) :   1.3028 B( 27-O , 74-H ) :   0.9478 B( 28-O , 75-H ) :   0.9554
B( 29-C , 30-C ) :   1.6319 B( 29-C , 76-H ) :   0.9438 B( 30-C , 31-C ) :   1.1282
B( 30-C , 77-H ) :   0.9820 B( 31-C , 32-C ) :   1.5993 B( 31-C , 78-H ) :   0.9839
B( 32-C , 33-C ) :   1.2046 B( 32-C , 79-H ) :   0.9415 B( 33-C , 34-O ) :   1.1480
B( 33-C , 35-C ) :   1.3808 B( 34-O , 42-C ) :   1.1413 B( 35-C , 36-C ) :   0.8850
B( 35-C , 41-C ) :   1.2759 B( 36-C , 37-O ) :   2.2425 B( 36-C , 38-N ) :   1.0893
B( 38-N , 39-C ) :   1.0667 B( 38-N , 80-H ) :   0.9153 B( 39-C , 40-O ) :   2.2628
B( 39-C , 41-C ) :   0.8915 B( 41-C , 42-C ) :   1.3599 B( 42-C , 43-C ) :   1.2052
B( 43-C , 44-C ) :   1.5519 B( 43-C , 81-H ) :   0.9688 B( 44-C , 45-C ) :   1.1705
B( 44-C , 82-H ) :   0.9797 B( 45-C , 46-C ) :   1.5208 B( 45-C , 83-H ) :   0.9880
B( 46-C , 47-C ) :   1.1567 B( 46-C , 50-S ) :   1.0489 B( 47-C , 48-C ) :   1.5724
B( 47-C , 84-H ) :   0.9996 B( 48-C , 49-C ) :   1.2015 B( 48-C , 85-H ) :   0.9938
B( 49-C , 50-S ) :   1.0500 B( 49-C , 51-C ) :   1.4893 B( 51-C , 52-C ) :   1.1876
B( 51-C , 55-S ) :   1.0449 B( 52-C , 53-C ) :   1.5913 B( 52-C , 86-H ) :   0.9937
B( 53-C , 54-C ) :   1.1405 B( 53-C , 87-H ) :   1.0001 B( 54-C , 55-S ) :   1.0453
B( 54-C , 56-C ) :   1.5995 B( 56-C , 57-C ) :   1.1538 B( 56-C , 88-H ) :   0.9450
B( 57-C , 58-S ) :   1.1295 B( 57-C , 59-C ) :   0.1067 B( 57-C , 61-C ) :   1.4213
B( 58-S , 59-C ) :   1.1821 B( 59-C , 60-C ) :   1.4255 B( 59-C , 89-H ) :   0.9681
B( 60-C , 61-C ) :   1.2329 B( 60-C , 67-C ) :   1.0619 B( 61-C , 62-O ) :   1.1002
B( 62-O , 63-C ) :   1.1015 B( 63-C , 64-N ) :   0.9203 B( 63-C , 67-C ) :   1.5722
B( 64-N , 65-O ) :   1.4976 B( 64-N , 66-O ) :   1.5056 B( 65-O , 66-O ) :   0.2682
B( 67-C , 90-H ) :   1.0039

-----------------------------------------------------------------------------
         ABSORPTION SPECTRUM VIA TRANSITION ELECTRIC DIPOLE MOMENTS
-----------------------------------------------------------------------------
State   Energy  Wavelength   fosc         T2         TX        TY        TZ
        (cm-1)    (nm)                  (au**2)     (au)      (au)      (au)
-----------------------------------------------------------------------------
   0   10609.0    942.6   0.199461076   6.18953  -1.27950  -0.09086   2.13170
   1   13947.9    717.0   0.424044291  10.00873  -1.32727   2.72269  -0.91328
   2   15355.3    651.2   0.767052872  16.44528   0.59087  -2.98893   2.67628
   3   16969.1    589.3   1.379524103  26.76374   1.68979  -4.13387   2.61141
   4   19935.2    501.6   0.110634350   1.82703  -0.35670  -0.13046   1.29722
   5   20750.1    481.9   0.100000065   1.58656   0.67766  -1.03863  -0.22041
   6   21696.6    460.9   0.007019095   0.10650   0.16834  -0.18406  -0.21045
   7   22863.9    437.4   0.425500246   6.12669   1.36846  -1.43314  -1.48327
   8   23228.4    430.5   0.028308371   0.40121   0.22073  -0.25556  -0.53589
   9   24176.9    413.6   0.038427736   0.52326  -0.45714   0.36337   0.42691
  10   24652.6    405.6   0.496756378   6.63371  -1.26013   0.59201   2.16686
  11   26461.1    377.9   0.229788445   2.85888  -1.05546   0.87451   0.99000
  12   27405.0    364.9   0.059046196   0.70931  -0.36424   0.75606   0.07078
  13   27619.3    362.1   0.181787036   2.16684   0.61943  -0.06557  -1.33373
  14   28240.3    354.1   0.081465651   0.94969   0.04634  -0.38680  -0.89327
  15   28810.6    347.1   0.259040070   2.95999  -0.54427   0.34760   1.59466
  16   29538.3    338.5   0.000665373   0.00742  -0.00114   0.00445   0.08599
  17   30121.0    332.0   0.103505878   1.13128   0.37341  -0.39318  -0.91502
  18   30531.0    327.5   0.039254316   0.42327  -0.11725   0.11892   0.62880
  19   30877.3    323.9   0.030229708   0.32231  -0.25308   0.28889   0.41809
  20   31500.3    317.5   0.000817493   0.00854  -0.06477   0.05859   0.03026
  21   31849.0    314.0   0.019266519   0.19915   0.24730  -0.35559   0.10748
  22   32090.0    311.6   0.091587544   0.93960  -0.35531   0.55780   0.70867
  23   32302.3    309.6   0.016106760   0.16415  -0.04920  -0.38793   0.10605
  24   32436.5    308.3   0.020735730   0.21046  -0.12358   0.44070  -0.03117
  25   32729.3    305.5   0.001787274   0.01798  -0.03874   0.11763  -0.05138
  26   32856.1    304.4   0.078731107   0.78887   0.44897  -0.41477  -0.64441
  27   32941.7    303.6   0.015439253   0.15430  -0.13874  -0.03463   0.36585
  28   33372.0    299.7   0.011522074   0.11366   0.25481   0.06789  -0.21006
  29   33656.4    297.1   0.481756053   4.71233  -0.64855   0.87775   1.87650
  30   33993.1    294.2   0.000416571   0.00403  -0.03726   0.03801   0.03466
  31   34125.0    293.0   0.298606995   2.88073  -0.27233  -0.73500   1.50544
  32   34649.6    288.6   0.006302610   0.05988   0.10418  -0.22143   0.00009
  33   34962.3    286.0   0.057700504   0.54332  -0.22830   0.06956   0.69740
  34   35610.7    280.8   0.055923312   0.51700   0.00751   0.50847  -0.50833
  35   35933.6    278.3   0.041722782   0.38225  -0.24015   0.38270   0.42204
  36   36292.7    275.5   0.153959685   1.39657   0.38752  -0.18253  -1.10140
  37   36350.1    275.1   0.074486237   0.67460   0.09203   0.28760  -0.76382
  38   36393.7    274.8   0.046577634   0.42133  -0.23598   0.58505  -0.15284
  39   36654.6    272.8   0.031502834   0.28294   0.24019  -0.29873  -0.36880
  40   36744.9    272.1   0.005472223   0.04903  -0.17149   0.13981   0.00860
  41   36896.2    271.0   0.000625470   0.00558  -0.05925  -0.03533  -0.02867
  42   37081.4    269.7   0.001451354   0.01289  -0.02275   0.10405  -0.03925
  43   37268.3    268.3   0.003404732   0.03008   0.07206  -0.15223   0.04137
  44   37408.2    267.3   0.080116074   0.70506   0.00699  -0.63880   0.54493
  45   37692.4    265.3   0.038328444   0.33477   0.06657   0.39565  -0.41689
  46   37822.5    264.4   0.000232808   0.00203  -0.03532  -0.02690  -0.00744
  47   37836.3    264.3   0.011839292   0.10301  -0.03627  -0.19790   0.25007
  48   38216.1    261.7   0.220842399   1.90244  -0.18826   1.03083  -0.89688
  49   38436.9    260.2   0.087479717   0.74926  -0.35677   0.03289   0.78797
  50   38697.1    258.4   0.231658797   1.97081   0.18978  -1.04016   0.92351
  51   38890.6    257.1   0.018306486   0.15497  -0.07605   0.27907  -0.26703
  52   39246.3    254.8   0.012557442   0.10534   0.04958   0.18290  -0.26349
  53   39804.8    251.2   0.019622379   0.16229  -0.13212   0.31931  -0.20707
  54   40051.9    249.7   0.005774635   0.04747   0.06258  -0.02105  -0.20762

FINAL SINGLE POINT ENERGY     -7014.824093420195

DIPOLE MOMENT
-------------
                                X             Y             Z
Electronic contribution:     36.31866     -74.12343      94.21516
Nuclear contribution   :    -38.22941      75.84172     -92.39330
                        -----------------------------------------
Total Dipole Moment    :     -1.91075       1.71828       1.82186
                        -----------------------------------------
Magnitude (a.u.)       :      3.15002
Magnitude (Debye)      :      8.00672

Rotational constants in cm-1:     0.000927     0.000480     0.000322
Rotational constants in MHz :    27.779649    14.401488     9.662009

                             ****ORCA TERMINATED NORMALLY****
TOTAL RUN TIME: 0 days 0 hours 11 minutes 4 seconds 513 msec
