                         Program Version 4.2.0 -  RELEASE  -
|  1> # ORCA input file
|  2> # SCF done       -200.057798085856          0.000607533984
|  3> ! CAM-B3LYP def2-SVP def2/J RIJCOSX Grid4 TightSCF
|  4> %maxcore 5000
|  5> %tddft
|  6>     Mode sTDDFT
|  7>     Ethresh 5.0
|  8>     maxcore 5000
|  9> end
| 10>
| 11> %pal
| 12>   nprocs 6
| 13>   end
| 14> * xyz 0 1
| 15>    C       -6.68608         9.27047         2.48706
| 16>    C       -5.35095         9.18153         2.19308
| 17>    C       -4.37648        10.07205         2.69045
| 18>    N       -3.54546        10.77095         3.06252
| 19>    C       -4.75931         8.16025         1.41756
| 20>    N       -4.19833         7.34401         0.83751
| 21>    C       -7.29459        10.22423         3.40503
| 22>    C       -8.64142         9.84318         3.62131
| 23>    C       -9.48472        10.54411         4.44897
| 24>    C       -8.97706        11.68159         5.08525
| 25>    C       -7.63169        12.05902         4.85652
| 26>    C       -6.77646        11.34516         4.02621
| 27>    S       -7.21479        13.50071         5.73122
| 28>    C       -8.82997        13.57633         6.38420
| 29>    C       -9.64127        12.57390         5.97058
| 30>   Br       -9.29243        14.97209         7.54786
| 31>    C       -8.94854         8.63486         2.82925
| 32>    O       -9.99405         8.02219         2.84029
| 33>    C       -7.73041         8.37280         2.02344
| 34>    C       -7.63385         7.59657         0.90170
| 35>    C       -8.55949         6.70109         0.33033
| 36>    C       -9.68256         6.06155         0.79047
| 37>    C      -10.23617         5.22501        -0.22993
| 38>    C       -9.48109         5.30623        -1.36838
| 39>    C       -8.33547         6.23996        -1.08663
| 40>    O       -7.43986         6.55785        -1.82032
| 41>    C       -9.70324         4.66620        -2.60528
| 42>    O       -8.87991         4.88621        -3.66244
| 43>    C      -10.69250         3.78047        -3.00739
| 44>    C      -11.88883         3.05613        -2.56871
| 45>    O      -12.45521         3.03293        -1.50733
| 46>    N      -12.27508         2.34708        -3.70467
| 47>    C      -11.46774         2.53318        -4.82205
| 48>    O      -11.63832         2.01172        -5.89658
| 49>    C      -10.43917         3.46607        -4.36061
| 50>    C       -9.30461         4.17582        -4.73321
| 51>    C       -8.60292         4.27932        -5.96141
| 52>    C       -9.00438         3.61436        -7.06947
| 53>    C       -8.33074         3.66341        -8.33721
| 54>    C       -6.98726         3.93381        -8.39529
| 55>    S       -6.30194         3.85656        -9.95584
| 56>    C       -7.86216         3.46563       -10.61650
| 57>    C       -8.87989         3.39902        -9.65513
| 58>    C      -10.20380         3.17062       -10.10649
| 59>    C      -11.33975         3.29572        -9.12348
| 60>    C      -11.50335         4.74369        -8.65441
| 61>    C      -10.45519         2.91509       -11.45465
| 62>    C      -11.85819         2.63230       -11.91277
| 63>    C      -12.26093         1.19720       -11.55693
| 64>    C       -9.41014         2.91539       -12.41284
| 65>    C       -9.39035         2.75718       -13.86109
| 66>    C       -8.14526         3.06606       -14.36526
| 67>    S       -6.94247         3.42637       -13.21794
| 68>    C       -8.12392         3.25462       -11.95759
| 69>    C      -10.29917         2.30196       -14.88425
| 70>    C      -11.33352         1.42643       -14.91257
| 71>    C      -11.83248         0.98503       -16.16638
| 72>    C      -12.84637         0.10842       -16.41185
| 73>    C      -13.89037        -0.41138       -15.55917
| 74>    C      -14.50589         0.28261       -14.54986
| 75>    C      -15.54241        -0.23690       -13.75081
| 76>    N      -16.36391        -0.63381       -13.05394
| 77>    C      -14.23694         1.64596       -14.31276
| 78>    N      -14.08920         2.77252       -14.15022
| 79>    C      -14.35087        -1.66458       -16.14326
| 80>    C      -13.79061        -1.78603       -17.44071
| 81>    C      -12.88956        -0.64066       -17.69474
| 82>    O      -12.27493        -0.39170       -18.70637
| 83>    C      -14.08362        -2.84077       -18.27016
| 84>    C      -14.95918        -3.82282       -17.79374
| 85>    C      -15.50299        -3.69631       -16.49281
| 86>    C      -15.21535        -2.62510       -15.65566
| 87>    S      -16.55344        -5.02517       -16.10722
| 88>    C      -16.25691        -5.72103       -17.67857
| 89>    C      -15.41304        -4.99833       -18.45257
| 90>   Br      -17.08737        -7.33614       -18.14641
| 91>    H      -10.50518        10.22760         4.59766
| 92>    H       -5.76140        11.67432         3.87886
| 93>    H      -10.66644        12.46758         6.27487
| 94>    H       -6.73834         7.71071         0.29753
| 95>    H      -10.10282         6.15805         1.77430
| 96>    H      -11.12049         4.62414        -0.11000
| 97>    H      -13.08430         1.74244        -3.71747
| 98>    H       -7.75619         4.94920        -5.96090
| 99>    H       -9.87589         2.98593        -6.98635
|100>    H       -6.33971         4.12493        -7.56215
|101>    H      -11.18118         2.63712        -8.27158
|102>    H      -12.28008         2.98870        -9.56820
|103>    H      -10.59772         5.12264        -8.18831
|104>    H      -12.31240         4.80539        -7.93076
|105>    H      -11.74577         5.38395        -9.50018
|106>    H      -12.56046         3.33031       -11.45758
|107>    H      -11.92986         2.79473       -12.98402
|108>    H      -13.26184         0.98268       -11.92535
|109>    H      -12.25890         1.04532       -10.48078
|110>    H      -11.56065         0.48047       -11.98353
|111>    H       -7.86467         3.03940       -15.40139
|112>    H       -9.99034         2.65662       -15.86339
|113>    H      -11.73389         0.97036       -14.02389
|114>    H      -11.26259         1.27173       -17.04483
|115>    H      -13.65376        -2.90688       -19.25727
|116>    H      -15.64882        -2.56682       -14.67053
|117>    H      -15.12105        -5.28053       -19.44758
|118> *
|119>
|120>                          ****END OF INPUT****

CARTESIAN COORDINATES (ANGSTROEM)
---------------------------------
  C     -6.686080    9.270470    2.487060
  C     -5.350950    9.181530    2.193080
  C     -4.376480   10.072050    2.690450
  N     -3.545460   10.770950    3.062520
  C     -4.759310    8.160250    1.417560
  N     -4.198330    7.344010    0.837510
  C     -7.294590   10.224230    3.405030
  C     -8.641420    9.843180    3.621310
  C     -9.484720   10.544110    4.448970
  C     -8.977060   11.681590    5.085250
  C     -7.631690   12.059020    4.856520
  C     -6.776460   11.345160    4.026210
  S     -7.214790   13.500710    5.731220
  C     -8.829970   13.576330    6.384200
  C     -9.641270   12.573900    5.970580
  Br    -9.292430   14.972090    7.547860
  C     -8.948540    8.634860    2.829250
  O     -9.994050    8.022190    2.840290
  C     -7.730410    8.372800    2.023440
  C     -7.633850    7.596570    0.901700
  C     -8.559490    6.701090    0.330330
  C     -9.682560    6.061550    0.790470
  C    -10.236170    5.225010   -0.229930
  C     -9.481090    5.306230   -1.368380
  C     -8.335470    6.239960   -1.086630
  O     -7.439860    6.557850   -1.820320
  C     -9.703240    4.666200   -2.605280
  O     -8.879910    4.886210   -3.662440
  C    -10.692500    3.780470   -3.007390
  C    -11.888830    3.056130   -2.568710
  O    -12.455210    3.032930   -1.507330
  N    -12.275080    2.347080   -3.704670
  C    -11.467740    2.533180   -4.822050
  O    -11.638320    2.011720   -5.896580
  C    -10.439170    3.466070   -4.360610
  C     -9.304610    4.175820   -4.733210
  C     -8.602920    4.279320   -5.961410
  C     -9.004380    3.614360   -7.069470
  C     -8.330740    3.663410   -8.337210
  C     -6.987260    3.933810   -8.395290
  S     -6.301940    3.856560   -9.955840
  C     -7.862160    3.465630  -10.616500
  C     -8.879890    3.399020   -9.655130
  C    -10.203800    3.170620  -10.106490
  C    -11.339750    3.295720   -9.123480
  C    -11.503350    4.743690   -8.654410
  C    -10.455190    2.915090  -11.454650
  C    -11.858190    2.632300  -11.912770
  C    -12.260930    1.197200  -11.556930
  C     -9.410140    2.915390  -12.412840
  C     -9.390350    2.757180  -13.861090
  C     -8.145260    3.066060  -14.365260
  S     -6.942470    3.426370  -13.217940
  C     -8.123920    3.254620  -11.957590
  C    -10.299170    2.301960  -14.884250
  C    -11.333520    1.426430  -14.912570
  C    -11.832480    0.985030  -16.166380
  C    -12.846370    0.108420  -16.411850
  C    -13.890370   -0.411380  -15.559170
  C    -14.505890    0.282610  -14.549860
  C    -15.542410   -0.236900  -13.750810
  N    -16.363910   -0.633810  -13.053940
  C    -14.236940    1.645960  -14.312760
  N    -14.089200    2.772520  -14.150220
  C    -14.350870   -1.664580  -16.143260
  C    -13.790610   -1.786030  -17.440710
  C    -12.889560   -0.640660  -17.694740
  O    -12.274930   -0.391700  -18.706370
  C    -14.083620   -2.840770  -18.270160
  C    -14.959180   -3.822820  -17.793740
  C    -15.502990   -3.696310  -16.492810
  C    -15.215350   -2.625100  -15.655660
  S    -16.553440   -5.025170  -16.107220
  C    -16.256910   -5.721030  -17.678570
  C    -15.413040   -4.998330  -18.452570
  Br   -17.087370   -7.336140  -18.146410
  H    -10.505180   10.227600    4.597660
  H     -5.761400   11.674320    3.878860
  H    -10.666440   12.467580    6.274870
  H     -6.738340    7.710710    0.297530
  H    -10.102820    6.158050    1.774300
  H    -11.120490    4.624140   -0.110000
  H    -13.084300    1.742440   -3.717470
  H     -7.756190    4.949200   -5.960900
  H     -9.875890    2.985930   -6.986350
  H     -6.339710    4.124930   -7.562150
  H    -11.181180    2.637120   -8.271580
  H    -12.280080    2.988700   -9.568200
  H    -10.597720    5.122640   -8.188310
  H    -12.312400    4.805390   -7.930760
  H    -11.745770    5.383950   -9.500180
  H    -12.560460    3.330310  -11.457580
  H    -11.929860    2.794730  -12.984020
  H    -13.261840    0.982680  -11.925350
  H    -12.258900    1.045320  -10.480780
  H    -11.560650    0.480470  -11.983530
  H     -7.864670    3.039400  -15.401390
  H     -9.990340    2.656620  -15.863390
  H    -11.733890    0.970360  -14.023890
  H    -11.262590    1.271730  -17.044830
  H    -13.653760   -2.906880  -19.257270
  H    -15.648820   -2.566820  -14.670530
  H    -15.121050   -5.280530  -19.447580

 Total Charge           Charge          ....    0
 Multiplicity           Mult            ....    1
 Number of Electrons    NEL             ....  598
 Basis Dimension        Dim             .... 1251

ORBITAL ENERGIES
----------------

  NO   OCC          E(Eh)            E(eV)
   0   2.0000    -482.886414    -13140.0073
   1   2.0000    -482.885637    -13139.9862
   2   2.0000     -88.976383     -2421.1705
   3   2.0000     -88.975515     -2421.1469
   4   2.0000     -88.969542     -2420.9843
   5   2.0000     -88.965884     -2420.8848
   6   2.0000     -62.564132     -1702.4566
   7   2.0000     -62.563336     -1702.4349
   8   2.0000     -56.398085     -1534.6699
   9   2.0000     -56.397289     -1534.6483
  10   2.0000     -56.395364     -1534.5959
  11   2.0000     -56.395333     -1534.5950
  12   2.0000     -56.394572     -1534.5743
  13   2.0000     -56.394539     -1534.5734
  14   2.0000     -19.319702      -525.7158
  15   2.0000     -19.247746      -523.7578
  16   2.0000     -19.225195      -523.1442
  17   2.0000     -19.224045      -523.1129
  18   2.0000     -19.222022      -523.0578
  19   2.0000     -19.212346      -522.7945
  20   2.0000     -14.465768      -393.6336
  21   2.0000     -14.416801      -392.3011
  22   2.0000     -14.414888      -392.2490
  23   2.0000     -14.413464      -392.2103
  24   2.0000     -14.412250      -392.1773
  25   2.0000     -10.412472      -283.3378
  26   2.0000     -10.411561      -283.3130
  27   2.0000     -10.384339      -282.5722
  28   2.0000     -10.373783      -282.2850
  29   2.0000     -10.372086      -282.2388
  30   2.0000     -10.371985      -282.2360
  31   2.0000     -10.363798      -282.0133
  32   2.0000     -10.359846      -281.9057
  33   2.0000     -10.358622      -281.8724
  34   2.0000     -10.342474      -281.4330
  35   2.0000     -10.342214      -281.4259
  36   2.0000     -10.340457      -281.3781
  37   2.0000     -10.340217      -281.3716
  38   2.0000     -10.326750      -281.0052
  39   2.0000     -10.325789      -280.9790
  40   2.0000     -10.319128      -280.7978
  41   2.0000     -10.317899      -280.7643
  42   2.0000     -10.317551      -280.7548
  43   2.0000     -10.316458      -280.7251
  44   2.0000     -10.316333      -280.7217
  45   2.0000     -10.315956      -280.7114
  46   2.0000     -10.315366      -280.6954
  47   2.0000     -10.314660      -280.6762
  48   2.0000     -10.313324      -280.6398
  49   2.0000     -10.311863      -280.6000
  50   2.0000     -10.310230      -280.5556
  51   2.0000     -10.309846      -280.5452
  52   2.0000     -10.309046      -280.5234
  53   2.0000     -10.308876      -280.5188
  54   2.0000     -10.308783      -280.5163
  55   2.0000     -10.308258      -280.5020
  56   2.0000     -10.307684      -280.4863
  57   2.0000     -10.307291      -280.4756
  58   2.0000     -10.306507      -280.4543
  59   2.0000     -10.305945      -280.4390
  60   2.0000     -10.303993      -280.3859
  61   2.0000     -10.303760      -280.3796
  62   2.0000     -10.302512      -280.3456
  63   2.0000     -10.301478      -280.3175
  64   2.0000     -10.300890      -280.3015
  65   2.0000     -10.300831      -280.2999
  66   2.0000     -10.297701      -280.2147
  67   2.0000     -10.296914      -280.1933
  68   2.0000     -10.296871      -280.1921
  69   2.0000     -10.296507      -280.1822
  70   2.0000     -10.295431      -280.1529
  71   2.0000     -10.294304      -280.1222
  72   2.0000     -10.294194      -280.1192
  73   2.0000     -10.293822      -280.1091
  74   2.0000     -10.292361      -280.0694
  75   2.0000     -10.290851      -280.0283
  76   2.0000     -10.289780      -279.9992
  77   2.0000     -10.288837      -279.9735
  78   2.0000     -10.281092      -279.7627
  79   2.0000     -10.280676      -279.7514
  80   2.0000     -10.259946      -279.1873
  81   2.0000     -10.257290      -279.1151
  82   2.0000     -10.255724      -279.0724
  83   2.0000     -10.252978      -278.9977
  84   2.0000      -8.793564      -239.2850
  85   2.0000      -8.792750      -239.2629
  86   2.0000      -8.072449      -219.6625
  87   2.0000      -8.071535      -219.6376
  88   2.0000      -8.066060      -219.4886
  89   2.0000      -8.062176      -219.3830
  90   2.0000      -6.629889      -180.4085
  91   2.0000      -6.629048      -180.3856
  92   2.0000      -6.615291      -180.0112
  93   2.0000      -6.615080      -180.0055
  94   2.0000      -6.614486      -179.9893
  95   2.0000      -6.614289      -179.9840
  96   2.0000      -6.042130      -164.4147
  97   2.0000      -6.041215      -164.3898
  98   2.0000      -6.037862      -164.2986
  99   2.0000      -6.036965      -164.2742
 100   2.0000      -6.035361      -164.2305
 101   2.0000      -6.033652      -164.1840
 102   2.0000      -6.032749      -164.1594
 103   2.0000      -6.031578      -164.1276
 104   2.0000      -6.031196      -164.1172
 105   2.0000      -6.027980      -164.0297
 106   2.0000      -6.027358      -164.0128
 107   2.0000      -6.024002      -163.9214
 108   2.0000      -2.745720       -74.7148
 109   2.0000      -2.744920       -74.6931
 110   2.0000      -2.741672       -74.6047
 111   2.0000      -2.741523       -74.6006
 112   2.0000      -2.740824       -74.5816
 113   2.0000      -2.740696       -74.5781
 114   2.0000      -2.729914       -74.2847
 115   2.0000      -2.729895       -74.2842
 116   2.0000      -2.729110       -74.2629
 117   2.0000      -2.729091       -74.2624
 118   2.0000      -1.238622       -33.7046
 119   2.0000      -1.167939       -31.7812
 120   2.0000      -1.159314       -31.5465
 121   2.0000      -1.147818       -31.2337
 122   2.0000      -1.136886       -30.9362
 123   2.0000      -1.127436       -30.6791
 124   2.0000      -1.054725       -28.7005
 125   2.0000      -1.023544       -27.8521
 126   2.0000      -1.022743       -27.8302
 127   2.0000      -1.015205       -27.6251
 128   2.0000      -1.012993       -27.5649
 129   2.0000      -1.012656       -27.5558
 130   2.0000      -0.994383       -27.0585
 131   2.0000      -0.992957       -27.0197
 132   2.0000      -0.991263       -26.9736
 133   2.0000      -0.988929       -26.9101
 134   2.0000      -0.988374       -26.8950
 135   2.0000      -0.986907       -26.8551
 136   2.0000      -0.944372       -25.6977
 137   2.0000      -0.943973       -25.6868
 138   2.0000      -0.937467       -25.5098
 139   2.0000      -0.932673       -25.3793
 140   2.0000      -0.930074       -25.3086
 141   2.0000      -0.923984       -25.1429
 142   2.0000      -0.908924       -24.7331
 143   2.0000      -0.908129       -24.7114
 144   2.0000      -0.906204       -24.6591
 145   2.0000      -0.893144       -24.3037
 146   2.0000      -0.886931       -24.1346
 147   2.0000      -0.886027       -24.1100
 148   2.0000      -0.885597       -24.0983
 149   2.0000      -0.870608       -23.6904
 150   2.0000      -0.868386       -23.6300
 151   2.0000      -0.858878       -23.3712
 152   2.0000      -0.855336       -23.2749
 153   2.0000      -0.836332       -22.7578
 154   2.0000      -0.830173       -22.5901
 155   2.0000      -0.829299       -22.5664
 156   2.0000      -0.822788       -22.3892
 157   2.0000      -0.813925       -22.1480
 158   2.0000      -0.800472       -21.7819
 159   2.0000      -0.791350       -21.5337
 160   2.0000      -0.786425       -21.3997
 161   2.0000      -0.774375       -21.0718
 162   2.0000      -0.772933       -21.0326
 163   2.0000      -0.765769       -20.8376
 164   2.0000      -0.762708       -20.7543
 165   2.0000      -0.756977       -20.5984
 166   2.0000      -0.752802       -20.4848
 167   2.0000      -0.728194       -19.8152
 168   2.0000      -0.724184       -19.7061
 169   2.0000      -0.717895       -19.5349
 170   2.0000      -0.711603       -19.3637
 171   2.0000      -0.707062       -19.2401
 172   2.0000      -0.704966       -19.1831
 173   2.0000      -0.700431       -19.0597
 174   2.0000      -0.691887       -18.8272
 175   2.0000      -0.690920       -18.8009
 176   2.0000      -0.683768       -18.6063
 177   2.0000      -0.682131       -18.5617
 178   2.0000      -0.669001       -18.2044
 179   2.0000      -0.664041       -18.0695
 180   2.0000      -0.659731       -17.9522
 181   2.0000      -0.653596       -17.7853
 182   2.0000      -0.647516       -17.6198
 183   2.0000      -0.640921       -17.4403
 184   2.0000      -0.637225       -17.3398
 185   2.0000      -0.626125       -17.0377
 186   2.0000      -0.623384       -16.9631
 187   2.0000      -0.621953       -16.9242
 188   2.0000      -0.617124       -16.7928
 189   2.0000      -0.610124       -16.6023
 190   2.0000      -0.606075       -16.4921
 191   2.0000      -0.603063       -16.4102
 192   2.0000      -0.600480       -16.3399
 193   2.0000      -0.597310       -16.2536
 194   2.0000      -0.595791       -16.2123
 195   2.0000      -0.592862       -16.1326
 196   2.0000      -0.591000       -16.0819
 197   2.0000      -0.584650       -15.9091
 198   2.0000      -0.581270       -15.8172
 199   2.0000      -0.572030       -15.5657
 200   2.0000      -0.563172       -15.3247
 201   2.0000      -0.558714       -15.2034
 202   2.0000      -0.555909       -15.1271
 203   2.0000      -0.552948       -15.0465
 204   2.0000      -0.550225       -14.9724
 205   2.0000      -0.547124       -14.8880
 206   2.0000      -0.546209       -14.8631
 207   2.0000      -0.544207       -14.8086
 208   2.0000      -0.542861       -14.7720
 209   2.0000      -0.539225       -14.6731
 210   2.0000      -0.538004       -14.6398
 211   2.0000      -0.534943       -14.5565
 212   2.0000      -0.534087       -14.5332
 213   2.0000      -0.531042       -14.4504
 214   2.0000      -0.528999       -14.3948
 215   2.0000      -0.525937       -14.3115
 216   2.0000      -0.523594       -14.2477
 217   2.0000      -0.520472       -14.1628
 218   2.0000      -0.518112       -14.0985
 219   2.0000      -0.514781       -14.0079
 220   2.0000      -0.513721       -13.9791
 221   2.0000      -0.510763       -13.8986
 222   2.0000      -0.509104       -13.8534
 223   2.0000      -0.508707       -13.8426
 224   2.0000      -0.506664       -13.7870
 225   2.0000      -0.504558       -13.7297
 226   2.0000      -0.504204       -13.7201
 227   2.0000      -0.500158       -13.6100
 228   2.0000      -0.498610       -13.5679
 229   2.0000      -0.497053       -13.5255
 230   2.0000      -0.494643       -13.4599
 231   2.0000      -0.494376       -13.4526
 232   2.0000      -0.493300       -13.4234
 233   2.0000      -0.492168       -13.3926
 234   2.0000      -0.489761       -13.3271
 235   2.0000      -0.487431       -13.2637
 236   2.0000      -0.483313       -13.1516
 237   2.0000      -0.476678       -12.9711
 238   2.0000      -0.475437       -12.9373
 239   2.0000      -0.473095       -12.8736
 240   2.0000      -0.467922       -12.7328
 241   2.0000      -0.466483       -12.6937
 242   2.0000      -0.461628       -12.5615
 243   2.0000      -0.459306       -12.4984
 244   2.0000      -0.458223       -12.4689
 245   2.0000      -0.454331       -12.3630
 246   2.0000      -0.452228       -12.3058
 247   2.0000      -0.450748       -12.2655
 248   2.0000      -0.449374       -12.2281
 249   2.0000      -0.448645       -12.2082
 250   2.0000      -0.446924       -12.1614
 251   2.0000      -0.446069       -12.1382
 252   2.0000      -0.443720       -12.0742
 253   2.0000      -0.442223       -12.0335
 254   2.0000      -0.442016       -12.0279
 255   2.0000      -0.441324       -12.0090
 256   2.0000      -0.439066       -11.9476
 257   2.0000      -0.436966       -11.8905
 258   2.0000      -0.436063       -11.8659
 259   2.0000      -0.432760       -11.7760
 260   2.0000      -0.429241       -11.6802
 261   2.0000      -0.426402       -11.6030
 262   2.0000      -0.425804       -11.5867
 263   2.0000      -0.422684       -11.5018
 264   2.0000      -0.421471       -11.4688
 265   2.0000      -0.420595       -11.4450
 266   2.0000      -0.411840       -11.2067
 267   2.0000      -0.409579       -11.1452
 268   2.0000      -0.408376       -11.1125
 269   2.0000      -0.407124       -11.0784
 270   2.0000      -0.404899       -11.0179
 271   2.0000      -0.398986       -10.8570
 272   2.0000      -0.395055       -10.7500
 273   2.0000      -0.390314       -10.6210
 274   2.0000      -0.388076       -10.5601
 275   2.0000      -0.387293       -10.5388
 276   2.0000      -0.385026       -10.4771
 277   2.0000      -0.382539       -10.4094
 278   2.0000      -0.381126       -10.3710
 279   2.0000      -0.375855       -10.2275
 280   2.0000      -0.375024       -10.2049
 281   2.0000      -0.372738       -10.1427
 282   2.0000      -0.369959       -10.0671
 283   2.0000      -0.361222        -9.8293
 284   2.0000      -0.358657        -9.7595
 285   2.0000      -0.354581        -9.6486
 286   2.0000      -0.349616        -9.5135
 287   2.0000      -0.344722        -9.3804
 288   2.0000      -0.340051        -9.2533
 289   2.0000      -0.333015        -9.0618
 290   2.0000      -0.317242        -8.6326
 291   2.0000      -0.315562        -8.5869
 292   2.0000      -0.315006        -8.5718
 293   2.0000      -0.306186        -8.3318
 294   2.0000      -0.294618        -8.0170
 295   2.0000      -0.293636        -7.9902
 296   2.0000      -0.283225        -7.7069
 297   2.0000      -0.268046        -7.2939
 298   2.0000      -0.256765        -6.9869
 299   0.0000      -0.118739        -3.2310
 300   0.0000      -0.088603        -2.4110
 301   0.0000      -0.072961        -1.9854
 302   0.0000      -0.057638        -1.5684
 303   0.0000      -0.057166        -1.5556

MULLIKEN ATOMIC CHARGES
-----------------------
   0 C :    0.290230
   1 C :   -0.332846
   2 C :   -0.184979
   3 N :    0.147092
   4 C :   -0.206308
   5 N :    0.168661
   6 C :    0.017991
   7 C :   -0.017054
   8 C :   -0.069988
   9 C :    0.117141
  10 C :   -0.091064
  11 C :   -0.018645
  12 S :    0.187428
  13 C :   -0.123794
  14 C :    0.039426
  15 Br:    0.024519
  16 C :    0.153009
  17 O :   -0.157833
  18 C :   -0.067419
  19 C :   -0.018017
  20 C :   -0.034989
  21 C :    0.041390
  22 C :   -0.021153
  23 C :   -0.035343
  24 C :    0.134938
  25 O :   -0.084058
  26 C :    0.139829
  27 O :   -0.177810
  28 C :   -0.070598
  29 C :    0.176760
  30 O :   -0.144314
  31 N :   -0.158322
  32 C :    0.191962
  33 O :   -0.155623
  34 C :   -0.089401
  35 C :    0.140563
  36 C :   -0.011748
  37 C :   -0.025245
  38 C :    0.068444
  39 C :   -0.106451
  40 S :    0.146078
  41 C :   -0.146266
  42 C :    0.125290
  43 C :   -0.119302
  44 C :    0.021159
  45 C :    0.023736
  46 C :   -0.116854
  47 C :    0.013272
  48 C :    0.028429
  49 C :    0.135428
  50 C :    0.068497
  51 C :   -0.098115
  52 S :    0.155979
  53 C :   -0.162204
  54 C :   -0.004291
  55 C :    0.023173
  56 C :    0.014370
  57 C :   -0.115873
  58 C :    0.263172
  59 C :   -0.326815
  60 C :   -0.169580
  61 N :    0.149262
  62 C :   -0.195478
  63 N :    0.149936
  64 C :    0.009021
  65 C :   -0.005601
  66 C :    0.146423
  67 O :   -0.144542
  68 C :   -0.071147
  69 C :    0.111347
  70 C :   -0.087655
  71 C :   -0.021835
  72 S :    0.183741
  73 C :   -0.126370
  74 C :    0.043380
  75 Br:    0.023228
  76 H :   -0.010718
  77 H :   -0.004979
  78 H :   -0.003450
  79 H :    0.034629
  80 H :    0.029802
  81 H :    0.015822
  82 H :    0.141712
  83 H :   -0.006358
  84 H :    0.026221
  85 H :    0.029613
  86 H :    0.032653
  87 H :    0.001642
  88 H :    0.021082
  89 H :    0.014651
  90 H :    0.011269
  91 H :    0.017331
  92 H :    0.015156
  93 H :    0.023379
  94 H :    0.013644
  95 H :    0.019116
  96 H :    0.034202
  97 H :    0.004614
  98 H :   -0.014579
  99 H :    0.011590
 100 H :   -0.009885
 101 H :   -0.004377
 102 H :   -0.003155
Sum of atomic charges:   -0.0000000

LOEWDIN ATOMIC CHARGES
----------------------
   0 C :    0.073411
   1 C :   -0.135837
   2 C :   -0.017768
   3 N :   -0.052501
   4 C :   -0.027729
   5 N :   -0.043399
   6 C :   -0.020195
   7 C :   -0.051325
   8 C :    0.021577
   9 C :   -0.032792
  10 C :   -0.143468
  11 C :   -0.009707
  12 S :    0.433551
  13 C :   -0.271429
  14 C :   -0.070249
  15 Br:    0.137544
  16 C :    0.086529
  17 O :   -0.143400
  18 C :   -0.086179
  19 C :    0.069363
  20 C :   -0.091823
  21 C :    0.080420
  22 C :    0.020908
  23 C :   -0.058331
  24 C :    0.105214
  25 O :   -0.073127
  26 C :    0.058228
  27 O :    0.037149
  28 C :   -0.080260
  29 C :    0.089270
  30 O :   -0.154725
  31 N :   -0.000334
  32 C :    0.092251
  33 O :   -0.161427
  34 C :   -0.112316
  35 C :    0.086344
  36 C :   -0.056446
  37 C :    0.037222
  38 C :   -0.069859
  39 C :   -0.150989
  40 S :    0.432373
  41 C :   -0.179915
  42 C :   -0.033736
  43 C :   -0.012865
  44 C :   -0.033586
  45 C :   -0.048636
  46 C :   -0.012457
  47 C :   -0.033399
  48 C :   -0.052520
  49 C :   -0.039135
  50 C :   -0.064268
  51 C :   -0.148118
  52 S :    0.440748
  53 C :   -0.177396
  54 C :    0.041204
  55 C :   -0.045839
  56 C :    0.075664
  57 C :   -0.102724
  58 C :    0.073801
  59 C :   -0.144016
  60 C :   -0.021962
  61 N :   -0.053154
  62 C :   -0.017768
  63 N :   -0.049239
  64 C :   -0.018474
  65 C :   -0.051241
  66 C :    0.083066
  67 O :   -0.145886
  68 C :    0.022187
  69 C :   -0.033616
  70 C :   -0.143801
  71 C :   -0.012707
  72 S :    0.431113
  73 C :   -0.272307
  74 C :   -0.069840
  75 Br:    0.136373
  76 H :    0.040634
  77 H :    0.041339
  78 H :    0.038875
  79 H :    0.049442
  80 H :    0.038470
  81 H :    0.037968
  82 H :    0.097223
  83 H :    0.038061
  84 H :    0.036083
  85 H :    0.026523
  86 H :    0.028980
  87 H :    0.028910
  88 H :    0.021771
  89 H :    0.025714
  90 H :    0.025908
  91 H :    0.032745
  92 H :    0.025107
  93 H :    0.025274
  94 H :    0.026962
  95 H :    0.020587
  96 H :    0.027249
  97 H :    0.039103
  98 H :    0.032198
  99 H :    0.042563
 100 H :    0.041304
 101 H :    0.040814
 102 H :    0.038902

  Mayer bond orders larger than 0.100000
B(  0-C ,  1-C ) :   1.6468 B(  0-C ,  6-C ) :   1.0036 B(  0-C , 18-C ) :   1.0608
B(  1-C ,  2-C ) :   1.1388 B(  1-C ,  4-C ) :   1.1357 B(  2-C ,  3-N ) :   2.9745
B(  4-C ,  5-N ) :   3.0068 B(  6-C ,  7-C ) :   1.2730 B(  6-C , 11-C ) :   1.4112
B(  7-C ,  8-C ) :   1.4230 B(  7-C , 16-C ) :   0.9489 B(  8-C ,  9-C ) :   1.2482
B(  8-C , 76-H ) :   1.0161 B(  9-C , 10-C ) :   1.3037 B(  9-C , 14-C ) :   1.1634
B( 10-C , 11-C ) :   1.3303 B( 10-C , 12-S ) :   1.0864 B( 11-C , 77-H ) :   0.9813
B( 12-S , 13-C ) :   1.0864 B( 13-C , 14-C ) :   1.6195 B( 13-C , 15-Br) :   1.0186
B( 14-C , 78-H ) :   0.9999 B( 16-C , 17-O ) :   2.1854 B( 16-C , 18-C ) :   0.9475
B( 18-C , 19-C ) :   1.5467 B( 19-C , 20-C ) :   1.1974 B( 19-C , 79-H ) :   0.9369
B( 20-C , 21-C ) :   1.5699 B( 20-C , 24-C ) :   0.9187 B( 21-C , 22-C ) :   1.0303
B( 21-C , 80-H ) :   0.9955 B( 22-C , 23-C ) :   1.6423 B( 22-C , 81-H ) :   0.9993
B( 23-C , 24-C ) :   0.8811 B( 23-C , 26-C ) :   1.1086 B( 24-C , 25-O ) :   2.2774
B( 26-C , 27-O ) :   1.1825 B( 26-C , 28-C ) :   1.4109 B( 27-O , 35-C ) :   1.1644
B( 28-C , 29-C ) :   0.8799 B( 28-C , 34-C ) :   1.2968 B( 29-C , 30-O ) :   2.2119
B( 29-C , 31-N ) :   1.0913 B( 31-N , 32-C ) :   1.0992 B( 31-N , 82-H ) :   0.9146
B( 32-C , 33-O ) :   2.1525 B( 32-C , 34-C ) :   0.8936 B( 34-C , 35-C ) :   1.3818
B( 35-C , 36-C ) :   1.1578 B( 36-C , 37-C ) :   1.6529 B( 36-C , 83-H ) :   0.9688
B( 37-C , 38-C ) :   1.0589 B( 37-C , 84-H ) :   0.9539 B( 38-C , 39-C ) :   1.5785
B( 38-C , 42-C ) :   1.1283 B( 39-C , 40-S ) :   1.1428 B( 39-C , 85-H ) :   0.9603
B( 40-S , 41-C ) :   1.0731 B( 41-C , 42-C ) :   1.3768 B( 41-C , 53-C ) :   1.3848
B( 42-C , 43-C ) :   1.2591 B( 43-C , 44-C ) :   1.0646 B( 43-C , 46-C ) :   1.4928
B( 44-C , 45-C ) :   1.1049 B( 44-C , 86-H ) :   0.9204 B( 44-C , 87-H ) :   0.9053
B( 45-C , 88-H ) :   0.9655 B( 45-C , 89-H ) :   0.9657 B( 45-C , 90-H ) :   0.9585
B( 46-C , 47-C ) :   1.0573 B( 46-C , 49-C ) :   1.2910 B( 47-C , 48-C ) :   1.1044
B( 47-C , 91-H ) :   0.9099 B( 47-C , 92-H ) :   0.9191 B( 48-C , 93-H ) :   0.9623
B( 48-C , 94-H ) :   0.9550 B( 48-C , 95-H ) :   0.9478 B( 49-C , 50-C ) :   1.0958
B( 49-C , 53-C ) :   1.3763 B( 50-C , 51-C ) :   1.5391 B( 50-C , 54-C ) :   1.0625
B( 51-C , 52-S ) :   1.1560 B( 51-C , 96-H ) :   0.9698 B( 52-S , 53-C ) :   1.0690
B( 54-C , 55-C ) :   1.6734 B( 54-C , 97-H ) :   0.9601 B( 55-C , 56-C ) :   1.1534
B( 55-C , 98-H ) :   0.9540 B( 56-C , 57-C ) :   1.5944 B( 56-C , 99-H ) :   0.9535
B( 57-C , 58-C ) :   1.0430 B( 57-C , 66-C ) :   0.9459 B( 58-C , 59-C ) :   1.6441
B( 58-C , 64-C ) :   1.0180 B( 59-C , 60-C ) :   1.1230 B( 59-C , 62-C ) :   1.1696
B( 60-C , 61-N ) :   2.9840 B( 62-C , 63-N ) :   2.9373 B( 64-C , 65-C ) :   1.2738
B( 64-C , 71-C ) :   1.4157 B( 65-C , 66-C ) :   0.9200 B( 65-C , 68-C ) :   1.4292
B( 66-C , 67-O ) :   2.2631 B( 68-C , 69-C ) :   1.2514 B( 68-C ,100-H ) :   1.0154
B( 69-C , 70-C ) :   1.3104 B( 69-C , 74-C ) :   1.1638 B( 70-C , 71-C ) :   1.3243
B( 70-C , 72-S ) :   1.0826 B( 71-C ,101-H ) :   0.9847 B( 72-S , 73-C ) :   1.0870
B( 73-C , 74-C ) :   1.6191 B( 73-C , 75-Br) :   1.0188 B( 74-C ,102-H ) :   0.9998

-----------------------------------------------------------------------------
         ABSORPTION SPECTRUM VIA TRANSITION ELECTRIC DIPOLE MOMENTS
-----------------------------------------------------------------------------
State   Energy  Wavelength   fosc         T2         TX        TY        TZ
        (cm-1)    (nm)                  (au**2)     (au)      (au)      (au)
-----------------------------------------------------------------------------
   0   13849.7    722.0   0.786446580  18.69414  -1.09096  -2.33266  -3.47313
   1   21819.8    458.3   0.046268258   0.69809   0.17737  -0.15887  -0.80086
   2   22359.6    447.2   0.726787089  10.70088  -2.58063  -1.65565  -1.14020
   3   23437.3    426.7   0.007920583   0.11126   0.29134  -0.00079  -0.16241
   4   23714.7    421.7   0.005957627   0.08270  -0.00487   0.28226   0.05484
   5   24110.6    414.8   0.121488121   1.65883   0.07831   1.06398   0.72156
   6   25589.1    390.8   0.023173380   0.29813  -0.44247  -0.24794   0.20217
   7   25716.3    388.9   0.099800202   1.27761  -0.71961  -0.50847  -0.70798
   8   26069.0    383.6   0.030247319   0.38198   0.57167   0.20696   0.11108
   9   26680.1    374.8   0.607668288   7.49816  -1.57970  -0.19975   2.22774
  10   27643.5    361.7   0.018112726   0.21571   0.35981  -0.02847  -0.29229
  11   27958.6    357.7   0.110926493   1.30616   0.13671  -1.08063  -0.34598
  12   28347.8    352.8   0.051364800   0.59652   0.12289  -0.15910  -0.74572
  13   29470.1    339.3   0.419933084   4.69109  -0.77314  -1.52968  -1.32417
  14   29797.2    335.6   0.054933358   0.60693   0.50681   0.57319  -0.14673
  15   29873.7    334.7   0.340166183   3.74868   0.50229   1.52313   1.08464
  16   30956.8    323.0   0.121088666   1.28773  -0.34359  -0.82617  -0.69794
  17   31177.2    320.7   0.025018434   0.26418  -0.17343  -0.25566  -0.41078
  18   31501.1    317.4   0.213600617   2.23230   0.92287   1.05382   0.51969
  19   31635.5    316.1   0.631458166   6.57121  -1.47468   1.43845   1.52558
  20   31861.0    313.9   0.005776010   0.05968  -0.18206   0.13683  -0.08840
  21   32249.3    310.1   0.026370843   0.26920  -0.43976   0.11937   0.24813
  22   32348.4    309.1   0.003648179   0.03713  -0.07570   0.03447   0.17381
  23   32828.1    304.6   0.299770241   3.00620  -0.55789  -1.04883  -1.26290
  24   32936.8    303.6   0.147360564   1.47291   0.84789   0.84658   0.19311
  25   33110.0    302.0   0.000613407   0.00610  -0.02866   0.01070  -0.07186
  26   33249.5    300.8   0.114314678   1.13186  -0.02602  -0.47551  -0.95135
  27   33576.7    297.8   0.069445531   0.68090   0.41294  -0.10732  -0.70630
  28   33971.6    294.4   0.012642920   0.12252   0.23983  -0.04542  -0.25087
  29   34086.8    293.4   0.292851347   2.82837   0.51800   1.29472   0.94007
  30   34099.9    293.3   0.214647021   2.07227  -0.48991   1.10183   0.78628
  31   34404.2    290.7   0.011359855   0.10870   0.13822  -0.26905  -0.13118
  32   35261.2    283.6   0.017795241   0.16614   0.31949  -0.20318  -0.15096
  33   35998.8    277.8   0.000070181   0.00064  -0.02177  -0.01295   0.00033
  34   36944.3    270.7   0.333477086   2.97163   1.65968   0.40357   0.23285
  35   37124.2    269.4   0.051156854   0.45365   0.57508   0.07122  -0.34331
  36   37257.0    268.4   0.000173367   0.00153   0.03371  -0.01968  -0.00283
  37   37793.6    264.6   0.255326438   2.22409   0.15132  -0.56986  -1.36984
  38   37891.6    263.9   0.039359986   0.34197   0.01204   0.29646   0.50392
  39   38056.7    262.8   0.038826993   0.33588  -0.28506  -0.41951  -0.28040
  40   38580.6    259.2   0.127412161   1.08722  -0.55442  -0.50966   0.72117
  41   38774.0    257.9   0.042262542   0.35883   0.14022   0.32302   0.48459
  42   39067.0    256.0   0.004752867   0.04005   0.07060  -0.17571  -0.06475
  43   39140.0    255.5   0.026103786   0.21956  -0.01429  -0.22680  -0.40978
  44   39310.8    254.4   0.075646207   0.63351  -0.65235   0.44215   0.11158
  45   39730.2    251.7   0.108077941   0.89555   0.49661   0.37042  -0.71535
  46   40194.1    248.8   0.082630500   0.67679  -0.09104   0.15399   0.80299
  47   40314.0    248.1   0.076539226   0.62503  -0.46824   0.25055   0.58567

FINAL SINGLE POINT ENERGY     -9726.004701050222

DIPOLE MOMENT
-------------
                                X             Y             Z
Electronic contribution:    -39.02457       9.35966      67.00638
Nuclear contribution   :     38.13665     -10.12915     -67.60645
                        -----------------------------------------
Total Dipole Moment    :     -0.88792      -0.76949      -0.60008
                        -----------------------------------------
Magnitude (a.u.)       :      1.31932
Magnitude (Debye)      :      3.35345

Rotational constants in cm-1:     0.001576     0.000121     0.000116
Rotational constants in MHz :    47.234947     3.618351     3.485234

                             ****ORCA TERMINATED NORMALLY****
TOTAL RUN TIME: 0 days 0 hours 10 minutes 57 seconds 1 msec
