                         Program Version 4.2.0 -  RELEASE  -
|  1> # ORCA input file
|  2> # SCF done       -175.827589723538          0.000490434636
|  3> ! CAM-B3LYP def2-SVP def2/J RIJCOSX Grid4 TightSCF
|  4> %maxcore 5000
|  5> %tddft
|  6>     Mode sTDDFT
|  7>     Ethresh 5.0
|  8>     maxcore 5000
|  9> end
| 10>
| 11> %pal
| 12>   nprocs 6
| 13>   end
| 14> * xyz 0 1
| 15>    C      -17.19532        -1.76129         1.77122
| 16>    C      -17.29203        -1.61503         3.14256
| 17>    C      -16.51206        -2.35234         4.04595
| 18>    N      -15.85531        -2.91020         4.80872
| 19>    C      -18.09795        -0.65987         3.78714
| 20>    N      -18.73288         0.09603         4.37593
| 21>    C      -16.30735        -2.71844         1.10590
| 22>    C      -16.28554        -2.41200        -0.27389
| 23>    C      -15.45267        -3.04244        -1.16257
| 24>    C      -14.62413        -4.05784        -0.66783
| 25>    C      -14.73796        -4.43268         0.68823
| 26>    C      -15.56335        -3.77281         1.59401
| 27>    S      -13.68842        -5.76554         1.06955
| 28>    C      -13.05392        -5.73294        -0.55139
| 29>    C      -13.63352        -4.81397        -1.35622
| 30>   Br      -11.64926        -6.89198        -0.99932
| 31>    C      -17.26613        -1.33698        -0.54011
| 32>    O      -17.60720        -0.95219        -1.64465
| 33>    C      -17.77650        -0.91896         0.77413
| 34>    C      -18.77876         0.04155         0.97285
| 35>    C      -19.09113         1.10240         0.14213
| 36>    C      -18.23869         1.67578        -0.80565
| 37>    C      -18.57460         2.47462        -1.91129
| 38>    C      -17.51805         2.74046        -2.75198
| 39>    C      -16.30918         2.18761        -2.31026
| 40>    S      -16.51876         1.45356        -0.74402
| 41>    C      -15.10700         1.93396        -2.97225
| 42>    C      -14.64946         2.25790        -4.25649
| 43>    C      -13.48636         1.61207        -4.59979
| 44>    C      -12.98713         0.74672        -3.60742
| 45>    S      -14.00105         0.83692        -2.19094
| 46>    C      -11.91548        -0.12921        -3.72293
| 47>    C      -11.51967        -1.06905        -2.78324
| 48>    S      -12.33531        -1.17826        -1.24618
| 49>    C      -11.34081        -2.47582        -0.67380
| 50>    C      -10.41213        -2.86331        -1.67209
| 51>    C      -10.49927        -2.06412        -2.85516
| 52>    C       -9.62272        -2.34776        -3.92310
| 53>    S       -9.62995        -1.41049        -5.42214
| 54>    C       -8.72647        -3.39279        -3.81128
| 55>    C       -8.67199        -4.18002        -2.66401
| 56>    C       -9.49854        -3.92361        -1.60087
| 57>    C      -11.62529        -2.89922         0.63334
| 58>    C      -11.00909        -3.82417         1.42702
| 59>    C      -11.50817        -4.15437         2.70666
| 60>    O      -12.62415        -3.54615         3.20389
| 61>    C      -12.91785        -4.08821         4.37658
| 62>    C      -11.99640        -5.05551         4.70695
| 63>    N      -11.92731        -5.73253         5.94513
| 64>    O      -12.92855        -5.76103         6.63006
| 65>    O      -10.84976        -6.19911         6.26756
| 66>    C      -11.07176        -5.12397         3.61862
| 67>    N      -10.01268        -5.96350         3.44775
| 68>    C       -9.91420        -7.22669         3.96290
| 69>    C      -10.92984        -8.08437         4.36744
| 70>    C      -10.42005        -9.34996         4.81147
| 71>    N      -11.26282       -10.31956         5.23182
| 72>    C      -12.52885       -10.03549         5.18708
| 73>    C      -13.05026        -8.78203         4.73267
| 74>    C      -14.53198        -8.57554         4.70862
| 75>    C      -14.94676        -7.14458         4.39626
| 76>    N      -12.25605        -7.82244         4.33788
| 77>    C       -9.03639        -9.45776         4.74063
| 78>    S       -8.36499        -7.97770         4.12993
| 79>    C       -8.24883       -10.59165         5.10078
| 80>    C       -6.91840       -10.65364         5.03337
| 81>    H      -15.43342        -2.76054        -2.20359
| 82>    H      -15.59896        -4.08952         2.62255
| 83>    H      -13.36849        -4.66331        -2.38716
| 84>    H      -19.41917        -0.09699         1.83618
| 85>    H      -20.07090         1.55210         0.24305
| 86>    H      -19.59103         2.76445        -2.11206
| 87>    H      -17.60430         3.26853        -3.68509
| 88>    H      -15.18169         2.93081        -4.90465
| 89>    H      -12.99950         1.71400        -5.55394
| 90>    H      -11.37962        -0.07834        -4.65762
| 91>    H       -8.64911        -2.09878        -6.00764
| 92>    H       -8.05794        -3.61396        -4.63083
| 93>    H       -7.97193        -4.99949        -2.62216
| 94>    H       -9.45554        -4.54986        -0.72863
| 95>    H      -12.47770        -2.39619         1.07618
| 96>    H      -10.13223        -4.36258         1.10829
| 97>    H      -13.78150        -3.72270         4.90557
| 98>    H       -9.27116        -5.65794         2.83310
| 99>    H      -13.20659       -10.80648         5.52955
|100>    H      -14.93572        -8.87693         5.67899
|101>    H      -14.94766        -9.26059         3.96119
|102>    H      -14.63184        -6.48078         5.19588
|103>    H      -16.02773        -7.08249         4.30023
|104>    H      -14.48944        -6.81515         3.46673
|105>    H       -8.83415       -11.42974         5.45431
|106>    H       -6.33427        -9.81645         4.68642
|107>    H       -6.37950       -11.53707         5.32369
|108> *
|109>
|110>                          ****END OF INPUT****

CARTESIAN COORDINATES (ANGSTROEM)
---------------------------------
  C    -17.195320   -1.761290    1.771220
  C    -17.292030   -1.615030    3.142560
  C    -16.512060   -2.352340    4.045950
  N    -15.855310   -2.910200    4.808720
  C    -18.097950   -0.659870    3.787140
  N    -18.732880    0.096030    4.375930
  C    -16.307350   -2.718440    1.105900
  C    -16.285540   -2.412000   -0.273890
  C    -15.452670   -3.042440   -1.162570
  C    -14.624130   -4.057840   -0.667830
  C    -14.737960   -4.432680    0.688230
  C    -15.563350   -3.772810    1.594010
  S    -13.688420   -5.765540    1.069550
  C    -13.053920   -5.732940   -0.551390
  C    -13.633520   -4.813970   -1.356220
  Br   -11.649260   -6.891980   -0.999320
  C    -17.266130   -1.336980   -0.540110
  O    -17.607200   -0.952190   -1.644650
  C    -17.776500   -0.918960    0.774130
  C    -18.778760    0.041550    0.972850
  C    -19.091130    1.102400    0.142130
  C    -18.238690    1.675780   -0.805650
  C    -18.574600    2.474620   -1.911290
  C    -17.518050    2.740460   -2.751980
  C    -16.309180    2.187610   -2.310260
  S    -16.518760    1.453560   -0.744020
  C    -15.107000    1.933960   -2.972250
  C    -14.649460    2.257900   -4.256490
  C    -13.486360    1.612070   -4.599790
  C    -12.987130    0.746720   -3.607420
  S    -14.001050    0.836920   -2.190940
  C    -11.915480   -0.129210   -3.722930
  C    -11.519670   -1.069050   -2.783240
  S    -12.335310   -1.178260   -1.246180
  C    -11.340810   -2.475820   -0.673800
  C    -10.412130   -2.863310   -1.672090
  C    -10.499270   -2.064120   -2.855160
  C     -9.622720   -2.347760   -3.923100
  S     -9.629950   -1.410490   -5.422140
  C     -8.726470   -3.392790   -3.811280
  C     -8.671990   -4.180020   -2.664010
  C     -9.498540   -3.923610   -1.600870
  C    -11.625290   -2.899220    0.633340
  C    -11.009090   -3.824170    1.427020
  C    -11.508170   -4.154370    2.706660
  O    -12.624150   -3.546150    3.203890
  C    -12.917850   -4.088210    4.376580
  C    -11.996400   -5.055510    4.706950
  N    -11.927310   -5.732530    5.945130
  O    -12.928550   -5.761030    6.630060
  O    -10.849760   -6.199110    6.267560
  C    -11.071760   -5.123970    3.618620
  N    -10.012680   -5.963500    3.447750
  C     -9.914200   -7.226690    3.962900
  C    -10.929840   -8.084370    4.367440
  C    -10.420050   -9.349960    4.811470
  N    -11.262820  -10.319560    5.231820
  C    -12.528850  -10.035490    5.187080
  C    -13.050260   -8.782030    4.732670
  C    -14.531980   -8.575540    4.708620
  C    -14.946760   -7.144580    4.396260
  N    -12.256050   -7.822440    4.337880
  C     -9.036390   -9.457760    4.740630
  S     -8.364990   -7.977700    4.129930
  C     -8.248830  -10.591650    5.100780
  C     -6.918400  -10.653640    5.033370
  H    -15.433420   -2.760540   -2.203590
  H    -15.598960   -4.089520    2.622550
  H    -13.368490   -4.663310   -2.387160
  H    -19.419170   -0.096990    1.836180
  H    -20.070900    1.552100    0.243050
  H    -19.591030    2.764450   -2.112060
  H    -17.604300    3.268530   -3.685090
  H    -15.181690    2.930810   -4.904650
  H    -12.999500    1.714000   -5.553940
  H    -11.379620   -0.078340   -4.657620
  H     -8.649110   -2.098780   -6.007640
  H     -8.057940   -3.613960   -4.630830
  H     -7.971930   -4.999490   -2.622160
  H     -9.455540   -4.549860   -0.728630
  H    -12.477700   -2.396190    1.076180
  H    -10.132230   -4.362580    1.108290
  H    -13.781500   -3.722700    4.905570
  H     -9.271160   -5.657940    2.833100
  H    -13.206590  -10.806480    5.529550
  H    -14.935720   -8.876930    5.678990
  H    -14.947660   -9.260590    3.961190
  H    -14.631840   -6.480780    5.195880
  H    -16.027730   -7.082490    4.300230
  H    -14.489440   -6.815150    3.466730
  H     -8.834150  -11.429740    5.454310
  H     -6.334270   -9.816450    4.686420
  H     -6.379500  -11.537070    5.323690

 Total Charge           Charge          ....    0
 Multiplicity           Mult            ....    1
 Number of Electrons    NEL             ....  526
 Basis Dimension        Dim             .... 1101

ORBITAL ENERGIES
----------------

  NO   OCC          E(Eh)            E(eV)
   0   2.0000    -482.885250    -13139.9757
   1   2.0000     -88.981915     -2421.3210
   2   2.0000     -88.970870     -2421.0205
   3   2.0000     -88.967224     -2420.9212
   4   2.0000     -88.964165     -2420.8380
   5   2.0000     -88.953348     -2420.5437
   6   2.0000     -88.948488     -2420.4114
   7   2.0000     -62.562561     -1702.4138
   8   2.0000     -56.396450     -1534.6254
   9   2.0000     -56.393886     -1534.5557
  10   2.0000     -56.393767     -1534.5524
  11   2.0000     -19.314495      -525.5741
  12   2.0000     -19.237081      -523.4676
  13   2.0000     -19.234965      -523.4100
  14   2.0000     -19.185101      -522.0531
  15   2.0000     -14.645584      -398.5266
  16   2.0000     -14.480048      -394.0221
  17   2.0000     -14.418929      -392.3590
  18   2.0000     -14.415729      -392.2719
  19   2.0000     -14.396239      -391.7416
  20   2.0000     -14.385401      -391.4467
  21   2.0000     -10.355338      -281.7831
  22   2.0000     -10.349442      -281.6226
  23   2.0000     -10.348874      -281.6072
  24   2.0000     -10.346280      -281.5366
  25   2.0000     -10.345035      -281.5027
  26   2.0000     -10.335982      -281.2564
  27   2.0000     -10.335353      -281.2392
  28   2.0000     -10.331642      -281.1383
  29   2.0000     -10.330585      -281.1095
  30   2.0000     -10.326766      -281.0056
  31   2.0000     -10.325215      -280.9634
  32   2.0000     -10.317632      -280.7570
  33   2.0000     -10.316400      -280.7235
  34   2.0000     -10.315699      -280.7044
  35   2.0000     -10.315519      -280.6995
  36   2.0000     -10.314554      -280.6733
  37   2.0000     -10.312603      -280.6202
  38   2.0000     -10.312574      -280.6194
  39   2.0000     -10.310822      -280.5717
  40   2.0000     -10.310700      -280.5684
  41   2.0000     -10.309258      -280.5292
  42   2.0000     -10.306498      -280.4541
  43   2.0000     -10.306467      -280.4532
  44   2.0000     -10.304539      -280.4008
  45   2.0000     -10.304281      -280.3937
  46   2.0000     -10.303040      -280.3600
  47   2.0000     -10.302568      -280.3471
  48   2.0000     -10.297730      -280.2155
  49   2.0000     -10.297573      -280.2112
  50   2.0000     -10.295255      -280.1481
  51   2.0000     -10.294579      -280.1297
  52   2.0000     -10.294193      -280.1192
  53   2.0000     -10.293651      -280.1045
  54   2.0000     -10.292880      -280.0835
  55   2.0000     -10.292292      -280.0675
  56   2.0000     -10.290514      -280.0191
  57   2.0000     -10.288872      -279.9744
  58   2.0000     -10.288644      -279.9682
  59   2.0000     -10.287896      -279.9479
  60   2.0000     -10.284173      -279.8466
  61   2.0000     -10.283612      -279.8313
  62   2.0000     -10.279692      -279.7247
  63   2.0000     -10.273138      -279.5463
  64   2.0000     -10.271870      -279.5118
  65   2.0000     -10.268210      -279.4122
  66   2.0000     -10.265541      -279.3396
  67   2.0000     -10.260441      -279.2008
  68   2.0000     -10.257769      -279.1281
  69   2.0000     -10.240223      -278.6506
  70   2.0000      -8.791886      -239.2394
  71   2.0000      -8.076879      -219.7831
  72   2.0000      -8.066359      -219.4968
  73   2.0000      -8.061410      -219.3621
  74   2.0000      -8.060418      -219.3351
  75   2.0000      -8.048601      -219.0136
  76   2.0000      -8.044350      -218.8979
  77   2.0000      -6.627897      -180.3543
  78   2.0000      -6.613845      -179.9719
  79   2.0000      -6.613526      -179.9632
  80   2.0000      -6.045952      -164.5187
  81   2.0000      -6.041674      -164.4023
  82   2.0000      -6.039457      -164.3420
  83   2.0000      -6.035572      -164.2363
  84   2.0000      -6.031501      -164.1255
  85   2.0000      -6.031261      -164.1190
  86   2.0000      -6.029973      -164.0839
  87   2.0000      -6.028607      -164.0467
  88   2.0000      -6.026914      -164.0007
  89   2.0000      -6.025607      -163.9651
  90   2.0000      -6.022708      -163.8862
  91   2.0000      -6.021850      -163.8629
  92   2.0000      -6.018986      -163.7849
  93   2.0000      -6.014638      -163.6666
  94   2.0000      -6.013891      -163.6463
  95   2.0000      -6.009686      -163.5319
  96   2.0000      -6.008786      -163.5074
  97   2.0000      -6.005814      -163.4265
  98   2.0000      -2.743807       -74.6628
  99   2.0000      -2.739908       -74.5567
 100   2.0000      -2.739719       -74.5515
 101   2.0000      -2.728518       -74.2467
 102   2.0000      -2.728497       -74.2462
 103   2.0000      -1.316908       -35.8349
 104   2.0000      -1.235371       -33.6162
 105   2.0000      -1.135744       -30.9052
 106   2.0000      -1.099616       -29.9221
 107   2.0000      -1.086315       -29.5601
 108   2.0000      -1.066719       -29.0269
 109   2.0000      -1.021578       -27.7985
 110   2.0000      -1.008214       -27.4349
 111   2.0000      -1.007161       -27.4063
 112   2.0000      -0.998395       -27.1677
 113   2.0000      -0.992531       -27.0081
 114   2.0000      -0.981767       -26.7152
 115   2.0000      -0.974320       -26.5126
 116   2.0000      -0.971528       -26.4366
 117   2.0000      -0.966630       -26.3034
 118   2.0000      -0.962239       -26.1839
 119   2.0000      -0.939863       -25.5750
 120   2.0000      -0.933325       -25.3971
 121   2.0000      -0.927690       -25.2437
 122   2.0000      -0.914964       -24.8974
 123   2.0000      -0.900074       -24.4923
 124   2.0000      -0.893330       -24.3087
 125   2.0000      -0.886780       -24.1305
 126   2.0000      -0.882431       -24.0122
 127   2.0000      -0.873904       -23.7801
 128   2.0000      -0.870382       -23.6843
 129   2.0000      -0.865369       -23.5479
 130   2.0000      -0.861627       -23.4461
 131   2.0000      -0.856282       -23.3006
 132   2.0000      -0.847329       -23.0570
 133   2.0000      -0.836426       -22.7603
 134   2.0000      -0.826787       -22.4980
 135   2.0000      -0.825341       -22.4587
 136   2.0000      -0.821535       -22.3551
 137   2.0000      -0.814347       -22.1595
 138   2.0000      -0.808816       -22.0090
 139   2.0000      -0.800622       -21.7860
 140   2.0000      -0.794127       -21.6093
 141   2.0000      -0.780870       -21.2486
 142   2.0000      -0.763166       -20.7668
 143   2.0000      -0.757491       -20.6124
 144   2.0000      -0.740590       -20.1525
 145   2.0000      -0.734262       -19.9803
 146   2.0000      -0.733639       -19.9633
 147   2.0000      -0.724483       -19.7142
 148   2.0000      -0.718588       -19.5538
 149   2.0000      -0.712431       -19.3862
 150   2.0000      -0.700724       -19.0677
 151   2.0000      -0.695730       -18.9318
 152   2.0000      -0.679650       -18.4942
 153   2.0000      -0.676924       -18.4200
 154   2.0000      -0.672585       -18.3020
 155   2.0000      -0.668053       -18.1787
 156   2.0000      -0.664109       -18.0713
 157   2.0000      -0.657534       -17.8924
 158   2.0000      -0.648619       -17.6498
 159   2.0000      -0.643232       -17.5032
 160   2.0000      -0.640555       -17.4304
 161   2.0000      -0.636145       -17.3104
 162   2.0000      -0.631086       -17.1727
 163   2.0000      -0.629093       -17.1185
 164   2.0000      -0.627387       -17.0721
 165   2.0000      -0.624832       -17.0025
 166   2.0000      -0.615663       -16.7530
 167   2.0000      -0.611981       -16.6528
 168   2.0000      -0.606463       -16.5027
 169   2.0000      -0.603157       -16.4127
 170   2.0000      -0.598577       -16.2881
 171   2.0000      -0.589254       -16.0344
 172   2.0000      -0.584346       -15.9009
 173   2.0000      -0.581010       -15.8101
 174   2.0000      -0.578535       -15.7427
 175   2.0000      -0.574878       -15.6432
 176   2.0000      -0.574111       -15.6223
 177   2.0000      -0.571805       -15.5596
 178   2.0000      -0.568873       -15.4798
 179   2.0000      -0.561539       -15.2802
 180   2.0000      -0.554672       -15.0934
 181   2.0000      -0.549925       -14.9642
 182   2.0000      -0.547967       -14.9109
 183   2.0000      -0.540997       -14.7213
 184   2.0000      -0.536448       -14.5975
 185   2.0000      -0.534213       -14.5367
 186   2.0000      -0.531473       -14.4621
 187   2.0000      -0.528479       -14.3806
 188   2.0000      -0.526421       -14.3246
 189   2.0000      -0.522933       -14.2297
 190   2.0000      -0.521593       -14.1933
 191   2.0000      -0.520653       -14.1677
 192   2.0000      -0.512958       -13.9583
 193   2.0000      -0.512487       -13.9455
 194   2.0000      -0.511725       -13.9248
 195   2.0000      -0.508676       -13.8418
 196   2.0000      -0.504197       -13.7199
 197   2.0000      -0.500006       -13.6058
 198   2.0000      -0.498946       -13.5770
 199   2.0000      -0.498174       -13.5560
 200   2.0000      -0.495562       -13.4849
 201   2.0000      -0.492225       -13.3941
 202   2.0000      -0.491308       -13.3692
 203   2.0000      -0.488576       -13.2948
 204   2.0000      -0.480546       -13.0763
 205   2.0000      -0.477338       -12.9890
 206   2.0000      -0.476981       -12.9793
 207   2.0000      -0.475616       -12.9422
 208   2.0000      -0.471065       -12.8183
 209   2.0000      -0.465629       -12.6704
 210   2.0000      -0.465402       -12.6642
 211   2.0000      -0.463959       -12.6250
 212   2.0000      -0.460968       -12.5436
 213   2.0000      -0.455246       -12.3879
 214   2.0000      -0.453450       -12.3390
 215   2.0000      -0.448634       -12.2080
 216   2.0000      -0.445633       -12.1263
 217   2.0000      -0.443235       -12.0610
 218   2.0000      -0.441604       -12.0166
 219   2.0000      -0.440493       -11.9864
 220   2.0000      -0.437839       -11.9142
 221   2.0000      -0.432425       -11.7669
 222   2.0000      -0.430472       -11.7138
 223   2.0000      -0.429668       -11.6919
 224   2.0000      -0.427883       -11.6433
 225   2.0000      -0.421657       -11.4739
 226   2.0000      -0.420545       -11.4436
 227   2.0000      -0.419438       -11.4135
 228   2.0000      -0.417288       -11.3550
 229   2.0000      -0.414408       -11.2766
 230   2.0000      -0.413798       -11.2600
 231   2.0000      -0.408347       -11.1117
 232   2.0000      -0.406238       -11.0543
 233   2.0000      -0.402114       -10.9421
 234   2.0000      -0.400262       -10.8917
 235   2.0000      -0.394877       -10.7451
 236   2.0000      -0.392526       -10.6812
 237   2.0000      -0.390929       -10.6377
 238   2.0000      -0.387905       -10.5554
 239   2.0000      -0.387042       -10.5319
 240   2.0000      -0.383163       -10.4264
 241   2.0000      -0.376517       -10.2455
 242   2.0000      -0.374420       -10.1885
 243   2.0000      -0.373249       -10.1566
 244   2.0000      -0.367086        -9.9889
 245   2.0000      -0.365293        -9.9401
 246   2.0000      -0.358188        -9.7468
 247   2.0000      -0.353251        -9.6124
 248   2.0000      -0.349426        -9.5084
 249   2.0000      -0.341428        -9.2907
 250   2.0000      -0.334173        -9.0933
 251   2.0000      -0.330052        -8.9812
 252   2.0000      -0.320542        -8.7224
 253   2.0000      -0.315664        -8.5897
 254   2.0000      -0.312222        -8.4960
 255   2.0000      -0.311178        -8.4676
 256   2.0000      -0.301533        -8.2051
 257   2.0000      -0.294603        -8.0166
 258   2.0000      -0.293023        -7.9736
 259   2.0000      -0.279149        -7.5960
 260   2.0000      -0.256724        -6.9858
 261   2.0000      -0.236979        -6.4485
 262   2.0000      -0.210940        -5.7400
 263   0.0000      -0.118006        -3.2111
 264   0.0000      -0.066303        -1.8042
 265   0.0000      -0.054984        -1.4962
 266   0.0000      -0.046468        -1.2645
 267   0.0000      -0.029202        -0.7946

MULLIKEN ATOMIC CHARGES
-----------------------
   0 C :    0.299681
   1 C :   -0.377204
   2 C :   -0.156386
   3 N :    0.106254
   4 C :   -0.206745
   5 N :    0.140244
   6 C :    0.025977
   7 C :   -0.000025
   8 C :   -0.088662
   9 C :    0.085628
  10 C :   -0.077364
  11 C :   -0.043258
  12 S :    0.148356
  13 C :   -0.130028
  14 C :    0.070320
  15 Br:   -0.001210
  16 C :    0.127296
  17 O :   -0.167049
  18 C :   -0.175564
  19 C :    0.014156
  20 C :    0.010873
  21 C :   -0.019539
  22 C :    0.040848
  23 C :    0.041608
  24 C :   -0.055474
  25 S :    0.111912
  26 C :    0.019425
  27 C :    0.015570
  28 C :    0.047698
  29 C :   -0.083034
  30 S :    0.069937
  31 C :    0.040455
  32 C :   -0.140030
  33 S :    0.135615
  34 C :   -0.065649
  35 C :    0.107662
  36 C :    0.134548
  37 C :   -0.086750
  38 S :    0.023200
  39 C :   -0.002652
  40 C :    0.031057
  41 C :   -0.029316
  42 C :    0.043051
  43 C :   -0.060179
  44 C :    0.084503
  45 O :   -0.179508
  46 C :    0.090654
  47 C :    0.129214
  48 N :    0.268336
  49 O :   -0.232133
  50 O :   -0.231935
  51 C :    0.069179
  52 N :    0.026695
  53 C :   -0.184829
  54 C :    0.118564
  55 C :    0.011588
  56 N :    0.007066
  57 C :    0.017644
  58 C :   -0.106107
  59 C :    0.035576
  60 C :    0.018530
  61 N :   -0.046957
  62 C :   -0.168040
  63 S :    0.133464
  64 C :    0.016150
  65 C :   -0.037496
  66 H :   -0.022795
  67 H :   -0.017273
  68 H :   -0.009389
  69 H :    0.028903
  70 H :   -0.005925
  71 H :   -0.010799
  72 H :   -0.009958
  73 H :   -0.008615
  74 H :   -0.002750
  75 H :    0.008154
  76 H :    0.069744
  77 H :   -0.022055
  78 H :   -0.010486
  79 H :   -0.043463
  80 H :    0.016543
  81 H :   -0.029698
  82 H :    0.027405
  83 H :    0.136410
  84 H :   -0.000009
  85 H :    0.026469
  86 H :    0.023380
  87 H :    0.036460
  88 H :    0.009033
  89 H :    0.008279
  90 H :    0.003651
  91 H :    0.009798
  92 H :    0.023571
Sum of atomic charges:   -0.0000000

LOEWDIN ATOMIC CHARGES
----------------------
   0 C :    0.072766
   1 C :   -0.181010
   2 C :    0.004755
   3 N :   -0.098887
   4 C :   -0.026210
   5 N :   -0.074359
   6 C :   -0.013093
   7 C :   -0.042544
   8 C :    0.006950
   9 C :   -0.046941
  10 C :   -0.149547
  11 C :   -0.024931
  12 S :    0.453828
  13 C :   -0.285147
  14 C :   -0.068130
  15 Br:    0.124049
  16 C :    0.053567
  17 O :   -0.174073
  18 C :   -0.149411
  19 C :    0.041391
  20 C :   -0.083468
  21 C :   -0.092865
  22 C :   -0.049778
  23 C :   -0.008554
  24 C :   -0.198937
  25 S :    0.457900
  26 C :   -0.134551
  27 C :   -0.059917
  28 C :   -0.005989
  29 C :   -0.187687
  30 S :    0.406199
  31 C :   -0.033379
  32 C :   -0.194801
  33 S :    0.497935
  34 C :   -0.128572
  35 C :   -0.045893
  36 C :   -0.044844
  37 C :   -0.138326
  38 S :    0.248458
  39 C :   -0.044567
  40 C :   -0.019660
  41 C :   -0.017994
  42 C :   -0.063289
  43 C :   -0.020204
  44 C :   -0.021005
  45 O :    0.040392
  46 C :    0.108323
  47 C :   -0.091280
  48 N :    0.291862
  49 O :   -0.198142
  50 O :   -0.197041
  51 C :    0.012802
  52 N :    0.037536
  53 C :   -0.142089
  54 C :   -0.084279
  55 C :   -0.044062
  56 N :   -0.030334
  57 C :    0.010940
  58 C :    0.005193
  59 C :   -0.039289
  60 C :   -0.060914
  61 N :   -0.064690
  62 C :   -0.194188
  63 S :    0.459777
  64 C :   -0.028619
  65 C :   -0.064941
  66 H :    0.034719
  67 H :    0.035280
  68 H :    0.036128
  69 H :    0.042717
  70 H :    0.036101
  71 H :    0.033833
  72 H :    0.033764
  73 H :    0.034331
  74 H :    0.036781
  75 H :    0.026013
  76 H :   -0.020886
  77 H :    0.026813
  78 H :    0.033276
  79 H :    0.021162
  80 H :    0.035954
  81 H :    0.026263
  82 H :    0.034609
  83 H :    0.089539
  84 H :    0.024652
  85 H :    0.037991
  86 H :    0.037651
  87 H :    0.025426
  88 H :    0.025151
  89 H :    0.006719
  90 H :    0.041310
  91 H :    0.012885
  92 H :    0.025626

  Mayer bond orders larger than 0.100000
B(  0-C ,  1-C ) :   1.5283 B(  0-C ,  6-C ) :   0.9678 B(  0-C , 18-C ) :   1.2134
B(  1-C ,  2-C ) :   1.1805 B(  1-C ,  4-C ) :   1.1502 B(  2-C ,  3-N ) :   2.9038
B(  3-N , 82-H ) :   0.1078 B(  4-C ,  5-N ) :   2.9949 B(  6-C ,  7-C ) :   1.2835
B(  6-C , 11-C ) :   1.4261 B(  7-C ,  8-C ) :   1.4345 B(  7-C , 16-C ) :   0.9173
B(  8-C ,  9-C ) :   1.2172 B(  8-C , 66-H ) :   1.0201 B(  9-C , 10-C ) :   1.3354
B(  9-C , 14-C ) :   1.1575 B( 10-C , 11-C ) :   1.3029 B( 10-C , 12-S ) :   1.0773
B( 11-C , 67-H ) :   0.9828 B( 12-S , 13-C ) :   1.0932 B( 13-C , 14-C ) :   1.6136
B( 13-C , 15-Br) :   1.0035 B( 14-C , 68-H ) :   1.0016 B( 16-C , 17-O ) :   2.2086
B( 16-C , 18-C ) :   1.0056 B( 18-C , 19-C ) :   1.2846 B( 19-C , 20-C ) :   1.4828
B( 19-C , 69-H ) :   0.9479 B( 20-C , 21-C ) :   1.3083 B( 20-C , 70-H ) :   0.9576
B( 21-C , 22-C ) :   1.2777 B( 21-C , 25-S ) :   1.1378 B( 22-C , 23-C ) :   1.4592
B( 22-C , 71-H ) :   0.9958 B( 23-C , 24-C ) :   1.3014 B( 23-C , 72-H ) :   0.9930
B( 24-C , 25-S ) :   1.0719 B( 24-C , 26-C ) :   1.3359 B( 26-C , 27-C ) :   1.2787
B( 26-C , 30-S ) :   1.1001 B( 27-C , 28-C ) :   1.4795 B( 27-C , 73-H ) :   0.9967
B( 28-C , 29-C ) :   1.2410 B( 28-C , 74-H ) :   0.9976 B( 29-C , 30-S ) :   1.0457
B( 29-C , 31-C ) :   1.4315 B( 31-C , 32-C ) :   1.3371 B( 31-C , 75-H ) :   0.9458
B( 32-C , 33-S ) :   1.0734 B( 32-C , 36-C ) :   1.2258 B( 33-S , 34-C ) :   1.1927
B( 34-C , 35-C ) :   1.2352 B( 34-C , 42-C ) :   1.2164 B( 35-C , 36-C ) :   1.2625
B( 35-C , 41-C ) :   1.2432 B( 36-C , 37-C ) :   1.2941 B( 37-C , 38-S ) :   1.0437
B( 37-C , 39-C ) :   1.4720 B( 38-S , 76-H ) :   0.9501 B( 39-C , 40-C ) :   1.3007
B( 39-C , 77-H ) :   0.9776 B( 40-C , 41-C ) :   1.4769 B( 40-C , 78-H ) :   0.9828
B( 41-C , 79-H ) :   0.9986 B( 42-C , 43-C ) :   1.5625 B( 42-C , 80-H ) :   0.9421
B( 43-C , 44-C ) :   1.2275 B( 43-C , 81-H ) :   0.9616 B( 44-C , 45-O ) :   1.0880
B( 44-C , 51-C ) :   1.3439 B( 45-O , 46-C ) :   1.1951 B( 46-C , 47-C ) :   1.4285
B( 46-C , 82-H ) :   0.9874 B( 47-C , 48-N ) :   0.9233 B( 47-C , 51-C ) :   1.2600
B( 48-N , 49-O ) :   1.5302 B( 48-N , 50-O ) :   1.5280 B( 49-O , 50-O ) :   0.2543
B( 51-C , 52-N ) :   1.1977 B( 52-N , 53-C ) :   1.1368 B( 52-N , 83-H ) :   0.8930
B( 53-C , 54-C ) :   1.3206 B( 53-C , 62-C ) :   0.1132 B( 53-C , 63-S ) :   1.1765
B( 54-C , 55-C ) :   1.2204 B( 54-C , 61-N ) :   1.3191 B( 55-C , 56-N ) :   1.3803
B( 55-C , 62-C ) :   1.3891 B( 56-N , 57-C ) :   1.7656 B( 57-C , 58-C ) :   1.1401
B( 57-C , 84-H ) :   0.9786 B( 58-C , 59-C ) :   1.0009 B( 58-C , 61-N ) :   1.7178
B( 59-C , 60-C ) :   1.1298 B( 59-C , 85-H ) :   0.9309 B( 59-C , 86-H ) :   0.9227
B( 60-C , 87-H ) :   0.9585 B( 60-C , 88-H ) :   0.9538 B( 60-C , 89-H ) :   0.9582
B( 62-C , 63-S ) :   1.0996 B( 62-C , 64-C ) :   1.1762 B( 64-C , 65-C ) :   1.8730
B( 64-C , 90-H ) :   0.9631 B( 65-C , 91-H ) :   0.9571 B( 65-C , 92-H ) :   0.9510

-----------------------------------------------------------------------------
         ABSORPTION SPECTRUM VIA TRANSITION ELECTRIC DIPOLE MOMENTS
-----------------------------------------------------------------------------
State   Energy  Wavelength   fosc         T2         TX        TY        TZ
        (cm-1)    (nm)                  (au**2)     (au)      (au)      (au)
-----------------------------------------------------------------------------
   0    6007.9   1664.5   0.255894687  14.02221  -3.27700   1.79444  -0.25186
   1   13123.8    762.0   0.417954924  10.48446   0.10237  -2.24267   2.33333
   2   15236.9    656.3   0.245056247   5.29473  -0.26872  -1.57245   1.65829
   3   17661.3    566.2   0.749079078  13.96306   0.47030  -2.75242   2.48315
   4   18602.2    537.6   0.081593319   1.44399  -0.55323   0.64598  -0.84890
   5   19196.4    520.9   0.040892752   0.70130   0.52799  -0.42537  -0.49151
   6   19508.6    512.6   0.015621038   0.26361   0.03960   0.06062  -0.50830
   7   21144.0    472.9   0.058804326   0.91558  -0.38159  -0.70774   0.51873
   8   22229.3    449.9   0.062915961   0.93177  -0.35711  -0.15705   0.88294
   9   23387.0    427.6   0.083044864   1.16900   0.72487  -0.31942  -0.73589
  10   23666.0    422.5   0.025539363   0.35527  -0.16333   0.13837  -0.55628
  11   23804.0    420.1   0.005193957   0.07183   0.01156  -0.23824  -0.12223
  12   24443.3    409.1   0.067743204   0.91239   0.41135  -0.57938   0.63835
  13   24618.3    406.2   0.070916076   0.94833  -0.76490  -0.03510   0.60169
  14   25878.4    386.4   0.147740349   1.87948   0.79328  -0.15371  -1.10750
  15   26507.5    377.3   0.276155173   3.42974  -1.47028   1.09753   0.25188
  16   26967.8    370.8   0.019689641   0.24036   0.04214  -0.46969  -0.13407
  17   27536.5    363.2   0.227224946   2.71658  -1.43054   0.54784   0.60828
  18   27799.3    359.7   0.015836495   0.18754  -0.04709  -0.36924   0.22134
  19   28239.9    354.1   0.049262766   0.57429   0.25392   0.02879  -0.71343
  20   29003.3    344.8   0.027840730   0.31602   0.01804   0.38559  -0.40867
  21   29127.1    343.3   0.002813010   0.03179  -0.01447   0.06938  -0.16362
  22   29563.9    338.3   0.057002539   0.63476  -0.48006   0.63355  -0.05394
  23   29971.5    333.6   0.006779658   0.07447  -0.14796  -0.21059   0.09070
  24   30333.2    329.7   0.149070727   1.61789   0.68413  -0.99148  -0.40845
  25   30596.8    326.8   0.048374018   0.52049   0.20853   0.20572  -0.65930
  26   30659.5    326.2   0.040846719   0.43860   0.37991  -0.50401   0.20061
  27   31029.2    322.3   0.025174686   0.26710  -0.01223   0.05259  -0.51399
  28   31146.6    321.1   0.017058212   0.18030   0.09650  -0.40018  -0.10414
  29   31535.0    317.1   0.092278928   0.96335   0.80889  -0.31372  -0.45894
  30   31645.3    316.0   0.203970402   2.12194   0.71824  -0.91513  -0.87670
  31   31984.2    312.7   0.010851557   0.11169  -0.05732   0.32437  -0.05653
  32   32485.8    307.8   0.159487793   1.61625  -0.78641   0.69106   0.72128
  33   32607.8    306.7   0.009171212   0.09259  -0.11212   0.20911  -0.19052
  34   33080.8    302.3   0.079276972   0.78895  -0.52638   0.01154   0.71535
  35   33521.9    298.3   0.336555811   3.30525   1.03323  -1.01049  -1.10299
  36   34244.8    292.0   0.022134959   0.21279   0.04411   0.45918  -0.00037
  37   34417.5    290.5   0.032866064   0.31437  -0.02569   0.36685   0.42324
  38   34921.8    286.4   0.019517593   0.18399  -0.00652   0.26807  -0.33480
  39   35018.3    285.6   0.003071959   0.02888  -0.15109   0.01338   0.07664
  40   35297.5    283.3   0.045811194   0.42727   0.63388  -0.15084   0.05212
  41   35493.4    281.7   0.038994348   0.36168  -0.19797   0.34308   0.45254
  42   35835.1    279.1   0.016038270   0.14734  -0.10599   0.07148  -0.36194
  43   36015.4    277.7   0.052878332   0.48335   0.52242  -0.18576   0.41944
  44   36086.9    277.1   0.036963115   0.33720   0.05156   0.44025  -0.37513
  45   36348.7    275.1   0.077094750   0.69825  -0.20034  -0.43832   0.68264
  46   36599.1    273.2   0.003722426   0.03348  -0.00348   0.05618   0.17411
  47   36636.7    273.0   0.017030735   0.15304  -0.36067  -0.12289  -0.08862
  48   36817.4    271.6   0.009083423   0.08122   0.11911  -0.23477   0.10917
  49   37010.4    270.2   0.113181024   1.00676  -0.06241   0.51797   0.85707
  50   37434.7    267.1   0.018620926   0.16376   0.06584  -0.19374   0.34912
  51   37647.2    265.6   0.082719842   0.72336   0.02794  -0.38368   0.75853
  52   37717.4    265.1   0.056121329   0.48985   0.09632   0.05603  -0.69096
  53   37872.6    264.0   0.019153781   0.16650   0.24285  -0.30920   0.10916
  54   38274.5    261.3   0.030868955   0.26551  -0.31172   0.35886  -0.19891
  55   38528.1    259.6   0.014461069   0.12357  -0.04273   0.03265  -0.34738
  56   38637.8    258.8   0.082516921   0.70308   0.52749  -0.50364  -0.41375
  57   38783.0    257.8   0.102896636   0.87345  -0.81720   0.12537   0.43580
  58   39166.3    255.3   0.103664181   0.87135  -0.90384   0.20877   0.10408
  59   39442.2    253.5   0.284024637   2.37067   1.40077  -0.57967  -0.26927
  60   39523.0    253.0   0.144726069   1.20552  -0.87861   0.39079  -0.52994
  61   39953.5    250.3   0.009062086   0.07467  -0.05691   0.16711  -0.20858
  62   40098.3    249.4   0.031395911   0.25776   0.47213  -0.09320   0.16176
  63   40234.8    248.5   0.022769378   0.18630  -0.19939   0.09118   0.37180

FINAL SINGLE POINT ENERGY     -7471.850892086150

DIPOLE MOMENT
-------------
                                X             Y             Z
Electronic contribution:     13.01745     -15.86955     -20.14517
Nuclear contribution   :     -9.89332      15.95049      15.07302
                        -----------------------------------------
Total Dipole Moment    :      3.12413       0.08094      -5.07214
                        -----------------------------------------
Magnitude (a.u.)       :      5.95763
Magnitude (Debye)      :     15.14309

Rotational constants in cm-1:     0.001507     0.000690     0.000526
Rotational constants in MHz :    45.175730    20.697362    15.759139

                             ****ORCA TERMINATED NORMALLY****
TOTAL RUN TIME: 0 days 0 hours 16 minutes 48 seconds 295 msec
