                         Program Version 4.2.0 -  RELEASE  -
|  1> # ORCA input file
|  2> # SCF done       -200.412134058021          0.000607493884
|  3> ! CAM-B3LYP def2-SVP def2/J RIJCOSX Grid4 TightSCF
|  4> %maxcore 5000
|  5> %tddft
|  6>     Mode sTDDFT
|  7>     Ethresh 5.0
|  8>     maxcore 5000
|  9> end
| 10>
| 11> %pal
| 12>   nprocs 6
| 13>   end
| 14> * xyz 0 1
| 15>    C        4.99031        -8.41409        -1.00351
| 16>    C        6.06440        -7.75600        -0.47481
| 17>    F        7.23842        -7.75049        -1.12648
| 18>    C        5.95354        -7.07328         0.75173
| 19>    F        7.02409        -6.43094         1.23753
| 20>    C        4.76829        -7.05586         1.43296
| 21>    C        3.63761        -7.71060         0.90610
| 22>    C        3.75171        -8.40384        -0.33292
| 23>    C        2.63061        -9.06017        -0.89117
| 24>    C        1.42720        -9.00895        -0.24095
| 25>    C        1.31728        -8.30353         0.98861
| 26>    C        2.38603        -7.67628         1.56205
| 27>    C       -0.09217        -8.31262         1.42651
| 28>    O       -0.54304        -7.80161         2.43286
| 29>    C       -0.83280        -9.06897         0.39767
| 30>    C        0.10584        -9.51851        -0.60687
| 31>    C       -0.17691       -10.19895        -1.76547
| 32>    C        0.78980       -10.54482        -2.73131
| 33>    N        1.52876       -10.84813        -3.55662
| 34>    C       -1.45639       -10.62028        -2.18199
| 35>    N       -2.46156       -10.97774        -2.60822
| 36>    C       -2.18397        -9.31035         0.38758
| 37>    C       -3.22249        -8.76615         1.20616
| 38>    S       -4.41502       -10.03925         1.55522
| 39>    C       -5.85961        -9.14866         2.00878
| 40>    C       -7.11247        -9.66646         1.89276
| 41>    S       -8.31132        -8.60113         2.51018
| 42>    C       -7.11775        -7.43380         2.91119
| 43>    C       -5.86274        -7.85720         2.59611
| 44>    S       -4.43613        -6.86483         2.86628
| 45>    C       -3.29713        -7.47817         1.66709
| 46>    C       -2.36138        -6.48025         1.24251
| 47>    C       -1.84363        -6.44373        -0.00990
| 48>    C       -0.60387        -5.85004        -0.34285
| 49>    C        0.28371        -5.17130         0.47804
| 50>    C        1.53969        -5.03715        -0.10136
| 51>    C        1.62153        -5.61457        -1.38806
| 52>    S        0.13158        -6.27580        -1.89134
| 53>    C        2.95132        -5.50370        -1.84586
| 54>    C        3.71618        -4.85164        -0.86160
| 55>    C        2.84917        -4.52957         0.26229
| 56>    C        3.20401        -3.90513         1.42132
| 57>    C        2.27917        -3.66471         2.45950
| 58>    N        1.53576        -3.47091         3.31059
| 59>    C        4.52160        -3.46101         1.66160
| 60>    N        5.59079        -3.09934         1.86252
| 61>    C        5.05908        -4.72701        -1.20105
| 62>    C        5.33861        -5.28791        -2.43830
| 63>    S        3.90052        -5.96772        -3.19254
| 64>    C        6.60344        -5.36471        -3.06832
| 65>    N        6.77845        -5.91229        -4.31963
| 66>    C        8.09942        -5.84495        -4.63539
| 67>    C        9.03097        -6.13006        -5.61907
| 68>    C       10.27244        -5.69602        -5.11450
| 69>    N       10.08906        -5.16254        -3.85242
| 70>    C        8.77446        -5.23766        -3.53768
| 71>    C        7.83708        -4.93432        -2.55904
| 72>    C       11.54465        -5.72956        -5.71585
| 73>    C       11.80613        -6.19984        -6.97196
| 74>    C       13.10197        -6.17353        -7.51272
| 75>    C       13.43898        -6.60331        -8.77268
| 76>    C       14.75628        -6.58133        -9.37078
| 77>    C       15.91748        -6.10994        -8.81164
| 78>    C       17.16997        -6.11727        -9.46074
| 79>    N       18.21905        -6.09184        -9.92637
| 80>    C       16.04154        -5.54693        -7.52476
| 81>    N       16.23016        -5.07391        -6.49487
| 82>    C       14.64054        -7.15116       -10.71307
| 83>    C       13.30001        -7.50409       -10.94349
| 84>    C       12.48805        -7.17607        -9.75048
| 85>    O       11.29317        -7.34953        -9.62685
| 86>    C       12.88880        -8.06739       -12.13357
| 87>    C       13.83979        -8.28620       -13.12258
| 88>    C       15.17662        -7.93860       -12.90262
| 89>    C       15.58630        -7.37038       -11.70105
| 90>   Cl       16.34353        -8.21416       -14.13280
| 91>   Cl       13.36892        -8.98599       -14.61862
| 92>    H        5.09184        -8.93893        -1.94071
| 93>    H        4.70556        -6.53623         2.37665
| 94>    H        2.75480        -9.57716        -1.82827
| 95>    H        2.27252        -7.14802         2.49697
| 96>    H       -2.53219       -10.09986        -0.26960
| 97>    H       -7.38709       -10.62140         1.49385
| 98>    H       -7.39590        -6.50427         3.36415
| 99>    H       -2.04769        -5.77208         1.99584
|100>    H       -2.30028        -7.04882        -0.78340
|101>    H        0.02145        -4.82881         1.46159
|102>    H        5.80770        -4.25588        -0.59212
|103>    H        6.04106        -6.29733        -4.88516
|104>    H        8.87198        -6.58599        -6.57456
|105>    H       10.82586        -4.79364        -3.27547
|106>    H        7.99824        -4.48319        -1.60194
|107>    H       12.36788        -5.33679        -5.12939
|108>    H       11.00810        -6.59427        -7.58015
|109>    H       13.88342        -5.77649        -6.87772
|110>    H       11.85443        -8.33028       -12.28911
|111>    H       16.62518        -7.11654       -11.56958
|112> *
|113>
|114>                          ****END OF INPUT****

CARTESIAN COORDINATES (ANGSTROEM)
---------------------------------
  C      4.990310   -8.414090   -1.003510
  C      6.064400   -7.756000   -0.474810
  F      7.238420   -7.750490   -1.126480
  C      5.953540   -7.073280    0.751730
  F      7.024090   -6.430940    1.237530
  C      4.768290   -7.055860    1.432960
  C      3.637610   -7.710600    0.906100
  C      3.751710   -8.403840   -0.332920
  C      2.630610   -9.060170   -0.891170
  C      1.427200   -9.008950   -0.240950
  C      1.317280   -8.303530    0.988610
  C      2.386030   -7.676280    1.562050
  C     -0.092170   -8.312620    1.426510
  O     -0.543040   -7.801610    2.432860
  C     -0.832800   -9.068970    0.397670
  C      0.105840   -9.518510   -0.606870
  C     -0.176910  -10.198950   -1.765470
  C      0.789800  -10.544820   -2.731310
  N      1.528760  -10.848130   -3.556620
  C     -1.456390  -10.620280   -2.181990
  N     -2.461560  -10.977740   -2.608220
  C     -2.183970   -9.310350    0.387580
  C     -3.222490   -8.766150    1.206160
  S     -4.415020  -10.039250    1.555220
  C     -5.859610   -9.148660    2.008780
  C     -7.112470   -9.666460    1.892760
  S     -8.311320   -8.601130    2.510180
  C     -7.117750   -7.433800    2.911190
  C     -5.862740   -7.857200    2.596110
  S     -4.436130   -6.864830    2.866280
  C     -3.297130   -7.478170    1.667090
  C     -2.361380   -6.480250    1.242510
  C     -1.843630   -6.443730   -0.009900
  C     -0.603870   -5.850040   -0.342850
  C      0.283710   -5.171300    0.478040
  C      1.539690   -5.037150   -0.101360
  C      1.621530   -5.614570   -1.388060
  S      0.131580   -6.275800   -1.891340
  C      2.951320   -5.503700   -1.845860
  C      3.716180   -4.851640   -0.861600
  C      2.849170   -4.529570    0.262290
  C      3.204010   -3.905130    1.421320
  C      2.279170   -3.664710    2.459500
  N      1.535760   -3.470910    3.310590
  C      4.521600   -3.461010    1.661600
  N      5.590790   -3.099340    1.862520
  C      5.059080   -4.727010   -1.201050
  C      5.338610   -5.287910   -2.438300
  S      3.900520   -5.967720   -3.192540
  C      6.603440   -5.364710   -3.068320
  N      6.778450   -5.912290   -4.319630
  C      8.099420   -5.844950   -4.635390
  C      9.030970   -6.130060   -5.619070
  C     10.272440   -5.696020   -5.114500
  N     10.089060   -5.162540   -3.852420
  C      8.774460   -5.237660   -3.537680
  C      7.837080   -4.934320   -2.559040
  C     11.544650   -5.729560   -5.715850
  C     11.806130   -6.199840   -6.971960
  C     13.101970   -6.173530   -7.512720
  C     13.438980   -6.603310   -8.772680
  C     14.756280   -6.581330   -9.370780
  C     15.917480   -6.109940   -8.811640
  C     17.169970   -6.117270   -9.460740
  N     18.219050   -6.091840   -9.926370
  C     16.041540   -5.546930   -7.524760
  N     16.230160   -5.073910   -6.494870
  C     14.640540   -7.151160  -10.713070
  C     13.300010   -7.504090  -10.943490
  C     12.488050   -7.176070   -9.750480
  O     11.293170   -7.349530   -9.626850
  C     12.888800   -8.067390  -12.133570
  C     13.839790   -8.286200  -13.122580
  C     15.176620   -7.938600  -12.902620
  C     15.586300   -7.370380  -11.701050
  Cl    16.343530   -8.214160  -14.132800
  Cl    13.368920   -8.985990  -14.618620
  H      5.091840   -8.938930   -1.940710
  H      4.705560   -6.536230    2.376650
  H      2.754800   -9.577160   -1.828270
  H      2.272520   -7.148020    2.496970
  H     -2.532190  -10.099860   -0.269600
  H     -7.387090  -10.621400    1.493850
  H     -7.395900   -6.504270    3.364150
  H     -2.047690   -5.772080    1.995840
  H     -2.300280   -7.048820   -0.783400
  H      0.021450   -4.828810    1.461590
  H      5.807700   -4.255880   -0.592120
  H      6.041060   -6.297330   -4.885160
  H      8.871980   -6.585990   -6.574560
  H     10.825860   -4.793640   -3.275470
  H      7.998240   -4.483190   -1.601940
  H     12.367880   -5.336790   -5.129390
  H     11.008100   -6.594270   -7.580150
  H     13.883420   -5.776490   -6.877720
  H     11.854430   -8.330280  -12.289110
  H     16.625180   -7.116540  -11.569580

 Total Charge           Charge          ....    0
 Multiplicity           Mult            ....    1
 Number of Electrons    NEL             ....  572
 Basis Dimension        Dim             .... 1206

ORBITAL ENERGIES
----------------

  NO   OCC          E(Eh)            E(eV)
   0   2.0000    -101.596654     -2764.5855
   1   2.0000    -101.594605     -2764.5298
   2   2.0000     -89.006426     -2421.9880
   3   2.0000     -89.003034     -2421.8957
   4   2.0000     -88.971901     -2421.0485
   5   2.0000     -88.962725     -2420.7988
   6   2.0000     -88.953914     -2420.5591
   7   2.0000     -24.807975      -675.0593
   8   2.0000     -24.807361      -675.0426
   9   2.0000     -19.219904      -523.0002
  10   2.0000     -19.215576      -522.8824
  11   2.0000     -14.484870      -394.1534
  12   2.0000     -14.480289      -394.0287
  13   2.0000     -14.444154      -393.0454
  14   2.0000     -14.443666      -393.0321
  15   2.0000     -14.421502      -392.4290
  16   2.0000     -14.421264      -392.4225
  17   2.0000     -14.414467      -392.2376
  18   2.0000     -14.410627      -392.1331
  19   2.0000     -10.388551      -282.6868
  20   2.0000     -10.387730      -282.6645
  21   2.0000     -10.378942      -282.4254
  22   2.0000     -10.369052      -282.1563
  23   2.0000     -10.366186      -282.0783
  24   2.0000     -10.365378      -282.0563
  25   2.0000     -10.351504      -281.6787
  26   2.0000     -10.350954      -281.6638
  27   2.0000     -10.349701      -281.6297
  28   2.0000     -10.347286      -281.5640
  29   2.0000     -10.346522      -281.5432
  30   2.0000     -10.344510      -281.4884
  31   2.0000     -10.343912      -281.4722
  32   2.0000     -10.343855      -281.4706
  33   2.0000     -10.343256      -281.4543
  34   2.0000     -10.342750      -281.4405
  35   2.0000     -10.341720      -281.4125
  36   2.0000     -10.338733      -281.3312
  37   2.0000     -10.338118      -281.3145
  38   2.0000     -10.334247      -281.2091
  39   2.0000     -10.330173      -281.0983
  40   2.0000     -10.329046      -281.0676
  41   2.0000     -10.326401      -280.9957
  42   2.0000     -10.325139      -280.9613
  43   2.0000     -10.323923      -280.9282
  44   2.0000     -10.320869      -280.8451
  45   2.0000     -10.320584      -280.8374
  46   2.0000     -10.320243      -280.8281
  47   2.0000     -10.318886      -280.7912
  48   2.0000     -10.317805      -280.7617
  49   2.0000     -10.317748      -280.7602
  50   2.0000     -10.317353      -280.7495
  51   2.0000     -10.316833      -280.7353
  52   2.0000     -10.316672      -280.7309
  53   2.0000     -10.314410      -280.6694
  54   2.0000     -10.314015      -280.6586
  55   2.0000     -10.313833      -280.6537
  56   2.0000     -10.313219      -280.6370
  57   2.0000     -10.312693      -280.6226
  58   2.0000     -10.311111      -280.5796
  59   2.0000     -10.310480      -280.5624
  60   2.0000     -10.310404      -280.5603
  61   2.0000     -10.310149      -280.5534
  62   2.0000     -10.309622      -280.5391
  63   2.0000     -10.308405      -280.5060
  64   2.0000     -10.308119      -280.4982
  65   2.0000     -10.307437      -280.4796
  66   2.0000     -10.306839      -280.4634
  67   2.0000     -10.304547      -280.4010
  68   2.0000     -10.303727      -280.3787
  69   2.0000     -10.303302      -280.3671
  70   2.0000     -10.303079      -280.3610
  71   2.0000     -10.298532      -280.2373
  72   2.0000     -10.295785      -280.1625
  73   2.0000     -10.290311      -280.0136
  74   2.0000     -10.289786      -279.9993
  75   2.0000     -10.289299      -279.9861
  76   2.0000     -10.281735      -279.7802
  77   2.0000      -9.551656      -259.9138
  78   2.0000      -9.549659      -259.8594
  79   2.0000      -8.100487      -220.4255
  80   2.0000      -8.097000      -220.3306
  81   2.0000      -8.068076      -219.5435
  82   2.0000      -8.058459      -219.2818
  83   2.0000      -8.049442      -219.0365
  84   2.0000      -7.322009      -199.2420
  85   2.0000      -7.320039      -199.1884
  86   2.0000      -7.311937      -198.9679
  87   2.0000      -7.311219      -198.9484
  88   2.0000      -7.309901      -198.9125
  89   2.0000      -7.309212      -198.8938
  90   2.0000      -6.069815      -165.1681
  91   2.0000      -6.066241      -165.0708
  92   2.0000      -6.065744      -165.0573
  93   2.0000      -6.062742      -164.9756
  94   2.0000      -6.062108      -164.9584
  95   2.0000      -6.059472      -164.8866
  96   2.0000      -6.037440      -164.2871
  97   2.0000      -6.033054      -164.1678
  98   2.0000      -6.030161      -164.0890
  99   2.0000      -6.028683      -164.0488
 100   2.0000      -6.024588      -163.9374
 101   2.0000      -6.019980      -163.8120
 102   2.0000      -6.018394      -163.7688
 103   2.0000      -6.015574      -163.6921
 104   2.0000      -6.009084      -163.5155
 105   2.0000      -1.329355       -36.1736
 106   2.0000      -1.314400       -35.7666
 107   2.0000      -1.134546       -30.8726
 108   2.0000      -1.129834       -30.7443
 109   2.0000      -1.115984       -30.3675
 110   2.0000      -1.080024       -29.3890
 111   2.0000      -1.058238       -28.7961
 112   2.0000      -1.035447       -28.1759
 113   2.0000      -1.026245       -27.9255
 114   2.0000      -1.025664       -27.9097
 115   2.0000      -1.021331       -27.7918
 116   2.0000      -1.013283       -27.5728
 117   2.0000      -1.011964       -27.5369
 118   2.0000      -1.010446       -27.4956
 119   2.0000      -1.010114       -27.4866
 120   2.0000      -1.000212       -27.2172
 121   2.0000      -0.991344       -26.9759
 122   2.0000      -0.988575       -26.9005
 123   2.0000      -0.985651       -26.8209
 124   2.0000      -0.977191       -26.5907
 125   2.0000      -0.971320       -26.4309
 126   2.0000      -0.957509       -26.0551
 127   2.0000      -0.937112       -25.5001
 128   2.0000      -0.935344       -25.4520
 129   2.0000      -0.933837       -25.4110
 130   2.0000      -0.921645       -25.0792
 131   2.0000      -0.917485       -24.9660
 132   2.0000      -0.907742       -24.7009
 133   2.0000      -0.902489       -24.5580
 134   2.0000      -0.899642       -24.4805
 135   2.0000      -0.896098       -24.3841
 136   2.0000      -0.890300       -24.2263
 137   2.0000      -0.888817       -24.1859
 138   2.0000      -0.881956       -23.9992
 139   2.0000      -0.873463       -23.7681
 140   2.0000      -0.868257       -23.6265
 141   2.0000      -0.859921       -23.3996
 142   2.0000      -0.855879       -23.2896
 143   2.0000      -0.850905       -23.1543
 144   2.0000      -0.846638       -23.0382
 145   2.0000      -0.832224       -22.6460
 146   2.0000      -0.822609       -22.3843
 147   2.0000      -0.799040       -21.7430
 148   2.0000      -0.795347       -21.6425
 149   2.0000      -0.793361       -21.5885
 150   2.0000      -0.778999       -21.1976
 151   2.0000      -0.773075       -21.0364
 152   2.0000      -0.763537       -20.7769
 153   2.0000      -0.759177       -20.6583
 154   2.0000      -0.749363       -20.3912
 155   2.0000      -0.741964       -20.1899
 156   2.0000      -0.733958       -19.9720
 157   2.0000      -0.722006       -19.6468
 158   2.0000      -0.717772       -19.5316
 159   2.0000      -0.713856       -19.4250
 160   2.0000      -0.711691       -19.3661
 161   2.0000      -0.710542       -19.3348
 162   2.0000      -0.699443       -19.0328
 163   2.0000      -0.695537       -18.9265
 164   2.0000      -0.690811       -18.7979
 165   2.0000      -0.688435       -18.7333
 166   2.0000      -0.680831       -18.5264
 167   2.0000      -0.675284       -18.3754
 168   2.0000      -0.672212       -18.2918
 169   2.0000      -0.668912       -18.2020
 170   2.0000      -0.663142       -18.0450
 171   2.0000      -0.654371       -17.8064
 172   2.0000      -0.651787       -17.7360
 173   2.0000      -0.649417       -17.6715
 174   2.0000      -0.643626       -17.5140
 175   2.0000      -0.642405       -17.4807
 176   2.0000      -0.630528       -17.1575
 177   2.0000      -0.627357       -17.0712
 178   2.0000      -0.622541       -16.9402
 179   2.0000      -0.620673       -16.8894
 180   2.0000      -0.613142       -16.6844
 181   2.0000      -0.607704       -16.5365
 182   2.0000      -0.600090       -16.3293
 183   2.0000      -0.598281       -16.2801
 184   2.0000      -0.596984       -16.2448
 185   2.0000      -0.593213       -16.1421
 186   2.0000      -0.589804       -16.0494
 187   2.0000      -0.584478       -15.9045
 188   2.0000      -0.580261       -15.7897
 189   2.0000      -0.570619       -15.5273
 190   2.0000      -0.569318       -15.4919
 191   2.0000      -0.567279       -15.4364
 192   2.0000      -0.564986       -15.3740
 193   2.0000      -0.562840       -15.3157
 194   2.0000      -0.562294       -15.3008
 195   2.0000      -0.555867       -15.1259
 196   2.0000      -0.554063       -15.0768
 197   2.0000      -0.552170       -15.0253
 198   2.0000      -0.546438       -14.8693
 199   2.0000      -0.544899       -14.8275
 200   2.0000      -0.543644       -14.7933
 201   2.0000      -0.540006       -14.6943
 202   2.0000      -0.539110       -14.6699
 203   2.0000      -0.537655       -14.6303
 204   2.0000      -0.537277       -14.6201
 205   2.0000      -0.530493       -14.4354
 206   2.0000      -0.529434       -14.4066
 207   2.0000      -0.522593       -14.2205
 208   2.0000      -0.521505       -14.1909
 209   2.0000      -0.520107       -14.1528
 210   2.0000      -0.518393       -14.1062
 211   2.0000      -0.517576       -14.0840
 212   2.0000      -0.513532       -13.9739
 213   2.0000      -0.509849       -13.8737
 214   2.0000      -0.507940       -13.8217
 215   2.0000      -0.506837       -13.7917
 216   2.0000      -0.505611       -13.7584
 217   2.0000      -0.504375       -13.7247
 218   2.0000      -0.503668       -13.7055
 219   2.0000      -0.500529       -13.6201
 220   2.0000      -0.499664       -13.5966
 221   2.0000      -0.498246       -13.5580
 222   2.0000      -0.491831       -13.3834
 223   2.0000      -0.490872       -13.3573
 224   2.0000      -0.488053       -13.2806
 225   2.0000      -0.479347       -13.0437
 226   2.0000      -0.477927       -13.0051
 227   2.0000      -0.476946       -12.9784
 228   2.0000      -0.474936       -12.9237
 229   2.0000      -0.474065       -12.9000
 230   2.0000      -0.471592       -12.8327
 231   2.0000      -0.470752       -12.8098
 232   2.0000      -0.469488       -12.7754
 233   2.0000      -0.469301       -12.7703
 234   2.0000      -0.464997       -12.6532
 235   2.0000      -0.460838       -12.5400
 236   2.0000      -0.458691       -12.4816
 237   2.0000      -0.456459       -12.4209
 238   2.0000      -0.455588       -12.3972
 239   2.0000      -0.453910       -12.3515
 240   2.0000      -0.453567       -12.3422
 241   2.0000      -0.452709       -12.3188
 242   2.0000      -0.451159       -12.2767
 243   2.0000      -0.449435       -12.2298
 244   2.0000      -0.447153       -12.1676
 245   2.0000      -0.444825       -12.1043
 246   2.0000      -0.440143       -11.9769
 247   2.0000      -0.440015       -11.9734
 248   2.0000      -0.438720       -11.9382
 249   2.0000      -0.436683       -11.8827
 250   2.0000      -0.433937       -11.8080
 251   2.0000      -0.433611       -11.7992
 252   2.0000      -0.432781       -11.7766
 253   2.0000      -0.429683       -11.6923
 254   2.0000      -0.428444       -11.6585
 255   2.0000      -0.423995       -11.5375
 256   2.0000      -0.423768       -11.5313
 257   2.0000      -0.422774       -11.5043
 258   2.0000      -0.416583       -11.3358
 259   2.0000      -0.413266       -11.2455
 260   2.0000      -0.409343       -11.1388
 261   2.0000      -0.407991       -11.1020
 262   2.0000      -0.402996       -10.9661
 263   2.0000      -0.402353       -10.9486
 264   2.0000      -0.390267       -10.6197
 265   2.0000      -0.388000       -10.5580
 266   2.0000      -0.384590       -10.4652
 267   2.0000      -0.377710       -10.2780
 268   2.0000      -0.377101       -10.2614
 269   2.0000      -0.369414       -10.0523
 270   2.0000      -0.362708        -9.8698
 271   2.0000      -0.356941        -9.7129
 272   2.0000      -0.344074        -9.3627
 273   2.0000      -0.339390        -9.2353
 274   2.0000      -0.336612        -9.1597
 275   2.0000      -0.334933        -9.1140
 276   2.0000      -0.328274        -8.9328
 277   2.0000      -0.321664        -8.7529
 278   2.0000      -0.314375        -8.5546
 279   2.0000      -0.312220        -8.4959
 280   2.0000      -0.308417        -8.3925
 281   2.0000      -0.304076        -8.2743
 282   2.0000      -0.300359        -8.1732
 283   2.0000      -0.279503        -7.6057
 284   2.0000      -0.261853        -7.1254
 285   2.0000      -0.237489        -6.4624
 286   0.0000      -0.122687        -3.3385
 287   0.0000      -0.107668        -2.9298
 288   0.0000      -0.092721        -2.5231
 289   0.0000      -0.071690        -1.9508
 290   0.0000      -0.064077        -1.7436

MULLIKEN ATOMIC CHARGES
-----------------------
   0 C :   -0.122349
   1 C :    0.257993
   2 F :   -0.172588
   3 C :    0.249625
   4 F :   -0.170195
   5 C :   -0.130129
   6 C :    0.110036
   7 C :    0.141351
   8 C :   -0.119326
   9 C :    0.059989
  10 C :   -0.000219
  11 C :   -0.088967
  12 C :    0.155084
  13 O :   -0.150636
  14 C :   -0.086733
  15 C :    0.339294
  16 C :   -0.367158
  17 C :   -0.179613
  18 N :    0.138801
  19 C :   -0.205002
  20 N :    0.163822
  21 C :   -0.062163
  22 C :   -0.062876
  23 S :    0.104043
  24 C :   -0.008485
  25 C :   -0.115220
  26 S :    0.137139
  27 C :   -0.113809
  28 C :   -0.016038
  29 S :    0.127345
  30 C :   -0.049976
  31 C :    0.028241
  32 C :    0.083252
  33 C :   -0.145934
  34 C :    0.012313
  35 C :   -0.000646
  36 C :   -0.095632
  37 S :    0.196484
  38 C :   -0.090619
  39 C :    0.019319
  40 C :    0.310662
  41 C :   -0.314998
  42 C :   -0.195581
  43 N :    0.190236
  44 C :   -0.201882
  45 N :    0.191815
  46 C :   -0.061610
  47 C :   -0.056871
  48 S :    0.160492
  49 C :    0.090633
  50 N :   -0.048752
  51 C :    0.120572
  52 C :   -0.148032
  53 C :    0.100418
  54 N :   -0.023336
  55 C :    0.133839
  56 C :   -0.170775
  57 C :    0.037372
  58 C :   -0.025785
  59 C :   -0.026661
  60 C :   -0.083383
  61 C :    0.333370
  62 C :   -0.356886
  63 C :   -0.189626
  64 N :    0.148868
  65 C :   -0.188508
  66 N :    0.141566
  67 C :    0.030139
  68 C :   -0.011570
  69 C :    0.146106
  70 O :   -0.155842
  71 C :   -0.035829
  72 C :    0.061989
  73 C :    0.047493
  74 C :   -0.018643
  75 Cl:   -0.039119
  76 Cl:   -0.047178
  77 H :   -0.002274
  78 H :    0.003801
  79 H :   -0.016112
  80 H :   -0.014159
  81 H :    0.040424
  82 H :    0.032524
  83 H :    0.031467
  84 H :    0.028453
  85 H :    0.012950
  86 H :    0.012833
  87 H :    0.013233
  88 H :    0.130751
  89 H :   -0.010128
  90 H :    0.130636
  91 H :   -0.020264
  92 H :   -0.006932
  93 H :    0.022308
  94 H :    0.001477
  95 H :   -0.004135
  96 H :   -0.001371
Sum of atomic charges:   -0.0000000

LOEWDIN ATOMIC CHARGES
----------------------
   0 C :   -0.034756
   1 C :    0.063115
   2 F :   -0.047483
   3 C :    0.064635
   4 F :   -0.047170
   5 C :   -0.039642
   6 C :   -0.011886
   7 C :   -0.009742
   8 C :    0.005561
   9 C :   -0.023102
  10 C :   -0.047908
  11 C :    0.020632
  12 C :    0.072959
  13 O :   -0.141780
  14 C :   -0.101094
  15 C :    0.069794
  16 C :   -0.148023
  17 C :   -0.016455
  18 N :   -0.062044
  19 C :   -0.027283
  20 N :   -0.048735
  21 C :    0.043773
  22 C :   -0.189430
  23 S :    0.365653
  24 C :   -0.216799
  25 C :   -0.198975
  26 S :    0.458931
  27 C :   -0.200701
  28 C :   -0.215700
  29 S :    0.392045
  30 C :   -0.125865
  31 C :   -0.029979
  32 C :   -0.023291
  33 C :   -0.173277
  34 C :   -0.005557
  35 C :   -0.069346
  36 C :   -0.167289
  37 S :    0.492354
  38 C :   -0.189093
  39 C :   -0.056436
  40 C :    0.081254
  41 C :   -0.101450
  42 C :   -0.020291
  43 N :   -0.023746
  44 C :   -0.019933
  45 N :   -0.026166
  46 C :   -0.029137
  47 C :   -0.157688
  48 S :    0.462529
  49 C :   -0.008258
  50 N :    0.066137
  51 C :   -0.012784
  52 C :   -0.057380
  53 C :   -0.009800
  54 N :    0.078677
  55 C :   -0.001148
  56 C :   -0.080508
  57 C :    0.024068
  58 C :   -0.041329
  59 C :    0.065171
  60 C :   -0.111691
  61 C :    0.074580
  62 C :   -0.144720
  63 C :   -0.020705
  64 N :   -0.054361
  65 C :   -0.018482
  66 N :   -0.059293
  67 C :   -0.012990
  68 C :   -0.042627
  69 C :    0.083710
  70 O :   -0.150805
  71 C :   -0.002288
  72 C :   -0.135616
  73 C :   -0.132173
  74 C :   -0.013668
  75 Cl:    0.158663
  76 Cl:    0.155356
  77 H :    0.042813
  78 H :    0.043598
  79 H :    0.037091
  80 H :    0.038122
  81 H :    0.041356
  82 H :    0.028826
  83 H :    0.027837
  84 H :    0.037588
  85 H :    0.034065
  86 H :    0.042783
  87 H :    0.040714
  88 H :    0.085867
  89 H :    0.034807
  90 H :    0.095593
  91 H :    0.030923
  92 H :    0.035965
  93 H :    0.031953
  94 H :    0.040104
  95 H :    0.044265
  96 H :    0.044004

  Mayer bond orders larger than 0.100000
B(  0-C ,  1-C ) :   1.4289 B(  0-C ,  5-C ) :   0.1069 B(  0-C ,  7-C ) :   1.1858
B(  0-C , 77-H ) :   1.0092 B(  1-C ,  2-F ) :   1.1070 B(  1-C ,  3-C ) :   1.2009
B(  3-C ,  4-F ) :   1.1330 B(  3-C ,  5-C ) :   1.4392 B(  5-C ,  6-C ) :   1.1764
B(  5-C , 78-H ) :   1.0081 B(  6-C ,  7-C ) :   1.2710 B(  6-C , 11-C ) :   1.1772
B(  7-C ,  8-C ) :   1.2003 B(  8-C ,  9-C ) :   1.4392 B(  8-C , 79-H ) :   0.9947
B(  9-C , 10-C ) :   1.2237 B(  9-C , 15-C ) :   0.9683 B( 10-C , 11-C ) :   1.4603
B( 10-C , 12-C ) :   0.9287 B( 11-C , 80-H ) :   1.0252 B( 12-C , 13-O ) :   2.1908
B( 12-C , 14-C ) :   0.9584 B( 14-C , 15-C ) :   1.0926 B( 14-C , 21-C ) :   1.5599
B( 15-C , 16-C ) :   1.6118 B( 16-C , 17-C ) :   1.1518 B( 16-C , 19-C ) :   1.1465
B( 17-C , 18-N ) :   2.9529 B( 19-C , 20-N ) :   2.9754 B( 21-C , 22-C ) :   1.1513
B( 21-C , 81-H ) :   0.9136 B( 22-C , 23-S ) :   1.0222 B( 22-C , 30-C ) :   1.6166
B( 23-S , 24-C ) :   0.9769 B( 24-C , 25-C ) :   1.5960 B( 24-C , 28-C ) :   1.2693
B( 25-C , 26-S ) :   1.1775 B( 25-C , 82-H ) :   0.9694 B( 26-S , 27-C ) :   1.1823
B( 27-C , 28-C ) :   1.5892 B( 27-C , 83-H ) :   0.9701 B( 28-C , 29-S ) :   0.9757
B( 29-S , 30-C ) :   1.0364 B( 30-C , 31-C ) :   1.1186 B( 31-C , 32-C ) :   1.7446
B( 31-C , 84-H ) :   0.9264 B( 32-C , 33-C ) :   1.1496 B( 32-C , 85-H ) :   0.9412
B( 33-C , 34-C ) :   1.4177 B( 33-C , 37-S ) :   1.0984 B( 34-C , 35-C ) :   1.3310
B( 34-C , 86-H ) :   0.9900 B( 35-C , 36-C ) :   1.3900 B( 35-C , 40-C ) :   1.0069
B( 36-C , 37-S ) :   1.1381 B( 36-C , 38-C ) :   1.2261 B( 38-C , 39-C ) :   1.4394
B( 38-C , 48-S ) :   1.0983 B( 39-C , 40-C ) :   0.9788 B( 39-C , 46-C ) :   1.3066
B( 40-C , 41-C ) :   1.7205 B( 41-C , 42-C ) :   1.1336 B( 41-C , 44-C ) :   1.1374
B( 42-C , 43-N ) :   2.9929 B( 44-C , 45-N ) :   2.9868 B( 46-C , 47-C ) :   1.4606
B( 46-C , 87-H ) :   0.9843 B( 47-C , 48-S ) :   1.0933 B( 47-C , 49-C ) :   1.1059
B( 49-C , 50-N ) :   1.2101 B( 49-C , 56-C ) :   1.4132 B( 50-N , 51-C ) :   1.1490
B( 50-N , 88-H ) :   0.9301 B( 51-C , 52-C ) :   1.2995 B( 51-C , 55-C ) :   1.2816
B( 52-C , 53-C ) :   1.3506 B( 52-C , 89-H ) :   1.0334 B( 53-C , 54-N ) :   1.1547
B( 53-C , 57-C ) :   1.1403 B( 54-N , 55-C ) :   1.1947 B( 54-N , 90-H ) :   0.9338
B( 55-C , 56-C ) :   1.2562 B( 56-C , 91-H ) :   1.0284 B( 57-C , 58-C ) :   1.5076
B( 57-C , 92-H ) :   0.9786 B( 58-C , 59-C ) :   1.2220 B( 58-C , 93-H ) :   0.9805
B( 59-C , 60-C ) :   1.4696 B( 59-C , 94-H ) :   0.9600 B( 60-C , 61-C ) :   1.0914
B( 60-C , 69-C ) :   0.9636 B( 61-C , 62-C ) :   1.6127 B( 61-C , 67-C ) :   0.9840
B( 62-C , 63-C ) :   1.1423 B( 62-C , 65-C ) :   1.1527 B( 63-C , 64-N ) :   2.9680
B( 65-C , 66-N ) :   2.9575 B( 67-C , 68-C ) :   1.3338 B( 67-C , 74-C ) :   1.3435
B( 68-C , 69-C ) :   0.9402 B( 68-C , 71-C ) :   1.3479 B( 69-C , 70-O ) :   2.1925
B( 71-C , 72-C ) :   1.3362 B( 71-C , 95-H ) :   1.0169 B( 72-C , 73-C ) :   1.4127
B( 72-C , 76-Cl) :   1.0427 B( 73-C , 74-C ) :   1.3558 B( 73-C , 75-Cl) :   1.0731
B( 74-C , 96-H ) :   0.9861

-----------------------------------------------------------------------------
         ABSORPTION SPECTRUM VIA TRANSITION ELECTRIC DIPOLE MOMENTS
-----------------------------------------------------------------------------
State   Energy  Wavelength   fosc         T2         TX        TY        TZ
        (cm-1)    (nm)                  (au**2)     (au)      (au)      (au)
-----------------------------------------------------------------------------
   0    9403.8   1063.4   0.372502380  13.04075  -3.07738  -0.24584   1.87350
   1   13609.3    734.8   0.286664418   6.93449  -1.82084  -1.49921   1.17107
   2   15339.2    651.9   0.712536732  15.29258  -3.27810   0.67491   2.02266
   3   16970.5    589.3   0.960873708  18.64002  -3.49801   0.52535   2.47547
   4   17837.5    560.6   0.389849046   7.19514  -1.93743   0.69605   1.71960
   5   19412.4    515.1   0.006708251   0.11376  -0.22671  -0.07220   0.23907
   6   20878.8    479.0   0.003603133   0.05681  -0.12638  -0.09855   0.17643
   7   21491.5    465.3   0.083660746   1.28154  -0.63300  -0.66256   0.66473
   8   22148.8    451.5   0.005458347   0.08113  -0.02103  -0.23336  -0.16196
   9   23328.0    428.7   0.109197482   1.54103   0.66082  -0.39118  -0.97536
  10   23964.0    417.3   0.018582481   0.25528  -0.14757  -0.37953  -0.29910
  11   24253.2    412.3   0.004912201   0.06668   0.05020   0.12123  -0.22240
  12   24934.8    401.0   0.044641588   0.58940   0.36459  -0.17155  -0.65348
  13   25844.3    386.9   0.114333630   1.45641   1.15013  -0.21196  -0.29780
  14   25906.2    386.0   0.012414926   0.15777  -0.38214  -0.05665  -0.09234
  15   26572.4    376.3   0.003278072   0.04061   0.04507   0.09510   0.17186
  16   26701.0    374.5   0.142914767   1.76208   1.21372  -0.28692  -0.45457
  17   27435.8    364.5   0.011879760   0.14255  -0.35888   0.05255   0.10485
  18   27927.5    358.1   0.116277909   1.37069   1.16090   0.14621  -0.04021
  19   28046.3    356.6   0.027224577   0.31957  -0.03921  -0.33794  -0.45147
  20   28709.6    348.3   0.072099535   0.82676   0.56387   0.54152   0.46429
  21   28806.7    347.1   0.025427289   0.29059  -0.43507  -0.20696  -0.24181
  22   28907.7    345.9   0.001459631   0.01662  -0.08822  -0.07706  -0.05387
  23   29337.2    340.9   0.052069629   0.58431  -0.61547   0.12069   0.43697
  24   29609.2    337.7   0.084824303   0.94313   0.12024   0.23211   0.93530
  25   29750.5    336.1   0.069281303   0.76665   0.56591  -0.38402  -0.54674
  26   30086.0    332.4   0.101394121   1.10949   0.93267   0.10447  -0.47824
  27   30589.0    326.9   0.085778596   0.92318   0.50886   0.53104   0.61826
  28   30967.6    322.9   0.105957080   1.12641   0.99629   0.35465   0.08965
  29   31164.9    320.9   0.153601811   1.62258  -0.28901  -0.56099  -1.10650
  30   31305.1    319.4   0.040022933   0.42089   0.23874  -0.06437  -0.59979
  31   31473.9    317.7   0.000062099   0.00065   0.00361  -0.02497  -0.00359
  32   31936.1    313.1   0.387663880   3.99622   1.16280   0.79269   1.41978
  33   32101.2    311.5   0.132468069   1.35852  -0.82913  -0.52105  -0.63211
  34   32623.0    306.5   0.081418815   0.82163  -0.56818   0.11762   0.69640
  35   33369.8    299.7   0.191175581   1.88605   1.16180   0.70002   0.21503
  36   33601.4    297.6   0.107298434   1.05126   0.99195   0.24031  -0.09777
  37   33890.0    295.1   0.093720957   0.91042  -0.78141  -0.38260  -0.39169
  38   34146.8    292.9   0.059510439   0.57374   0.66676   0.35807   0.03095
  39   34228.1    292.2   0.383211051   3.68579  -1.43658  -0.84400  -0.95377
  40   34244.8    292.0   0.110840748   1.06557  -0.91020  -0.39264  -0.28799
  41   34507.2    289.8   0.040173816   0.38327  -0.11979   0.03408   0.60644
  42   34829.7    287.1   0.002482242   0.02346   0.00491  -0.14676   0.04359
  43   34994.2    285.8   0.115143526   1.08323   1.00644   0.26182  -0.04201
  44   35388.7    282.6   0.074927665   0.69703   0.00684   0.30085   0.77876
  45   35734.9    279.8   0.016610812   0.15303  -0.21983   0.31945   0.05156
  46   35920.8    278.4   0.022731965   0.20834  -0.39617  -0.08338  -0.21079
  47   36013.3    277.7   0.516531550   4.72182   0.99880   0.98814   1.65765
  48   36363.0    275.0   0.037938892   0.34348   0.40460   0.32341   0.27420
  49   36750.0    272.1   0.342692422   3.06989  -1.42820   0.19520   0.99601
  50   36993.6    270.3   0.099852881   0.88861  -0.84664  -0.35507  -0.21386
  51   37323.2    267.9   0.063498383   0.56009   0.70549   0.24809  -0.02872
  52   37517.8    266.5   0.047002393   0.41244   0.23648   0.34335   0.48849
  53   37724.3    265.1   0.004490257   0.03919   0.00518   0.13468   0.14498
  54   38001.2    263.1   0.008499923   0.07364   0.25778  -0.08384   0.01255
  55   38159.2    262.1   0.005008065   0.04321   0.20255  -0.04590  -0.00857
  56   38329.9    260.9   0.013699325   0.11766  -0.09446   0.12594   0.30476
  57   38424.6    260.2   0.166870220   1.42970   1.11749   0.02432  -0.42466
  58   38562.2    259.3   0.000731502   0.00624   0.06979  -0.01103  -0.03539
  59   38608.5    259.0   0.171020260   1.45828  -0.12864   0.73806   0.94710
  60   38825.2    257.6   0.040895977   0.34677  -0.57814  -0.11171  -0.00699
  61   39283.6    254.6   0.044899424   0.37627   0.22256   0.28699   0.49434
  62   39458.9    253.4   0.260140916   2.17040  -1.47130  -0.06892   0.03036
  63   39535.5    252.9   0.027426978   0.22838   0.34100  -0.10527  -0.31784
  64   39778.9    251.4   0.041655800   0.34474   0.40086   0.25238   0.34694
  65   39893.6    250.7   0.030466005   0.25141   0.01292   0.20954   0.45535
  66   40014.4    249.9   0.086118882   0.70853   0.77687   0.17870  -0.27032
  67   40145.9    249.1   0.003151177   0.02584   0.12275  -0.09013  -0.05147
  68   40212.0    248.7   0.066518396   0.54458   0.63680   0.30013  -0.22132

FINAL SINGLE POINT ENERGY     -5916.869039642190

DIPOLE MOMENT
-------------
                                X             Y             Z
Electronic contribution:     24.91698      -8.58786     -30.93658
Nuclear contribution   :    -28.51598       9.31879      32.15760
                        -----------------------------------------
Total Dipole Moment    :     -3.59900       0.73093       1.22102
                        -----------------------------------------
Magnitude (a.u.)       :      3.87014
Magnitude (Debye)      :      9.83711

Rotational constants in cm-1:     0.001829     0.000202     0.000188
Rotational constants in MHz :    54.834339     6.042967     5.630354

                             ****ORCA TERMINATED NORMALLY****
TOTAL RUN TIME: 0 days 0 hours 20 minutes 32 seconds 721 msec
