                         Program Version 4.2.0 -  RELEASE  -
|  1> # ORCA input file
|  2> # SCF done       -187.697264981154          0.000922242753
|  3> ! CAM-B3LYP def2-SVP def2/J RIJCOSX Grid4 TightSCF
|  4> %maxcore 5000
|  5> %tddft
|  6>     Mode sTDDFT
|  7>     Ethresh 5.0
|  8>     maxcore 5000
|  9> end
| 10>
| 11> %pal
| 12>   nprocs 6
| 13>   end
| 14> * xyz 0 1
| 15>    C        2.57689        -0.31714         6.31962
| 16>    C        2.19987        -0.94893         5.17459
| 17>    C        1.59665        -0.05387         4.26954
| 18>    C        1.53226         1.25340         4.77148
| 19>    S        2.20589         1.37760         6.33384
| 20>    C        0.90023         2.08590         3.80318
| 21>    C        0.58439         1.29510         2.69128
| 22>    C        0.98714        -0.07943         2.95594
| 23>    C        0.76263        -1.15475         2.14353
| 24>    C        0.07912        -1.01235         0.91984
| 25>    N       -0.49060        -0.87884        -0.06764
| 26>    C        1.17072        -2.46002         2.48424
| 27>    N        1.51776        -3.51850         2.75784
| 28>    C       -0.03467         2.01179         1.67134
| 29>    C       -0.23107         3.33647         2.01314
| 30>    S        0.41266         3.70963         3.59943
| 31>    C       -0.87385         4.31222         1.20545
| 32>    S       -0.33092         5.94023         1.15517
| 33>    C       -1.35271         6.35168        -0.19482
| 34>    C       -2.14018         5.24475        -0.56476
| 35>    C       -1.90064         4.10498         0.27916
| 36>    C       -2.69501         2.93039         0.18604
| 37>    C       -2.78508         1.93934         1.29441
| 38>    O       -2.84291         2.25970         2.45181
| 39>    O       -2.89807         0.64913         0.93951
| 40>    C       -3.60537         2.84482        -0.84018
| 41>    C       -3.79435         3.91100        -1.71950
| 42>    C       -3.13722         5.11479        -1.57652
| 43>    O       -3.44856         6.15064        -2.37740
| 44>    C       -1.19225         7.69263        -0.66529
| 45>    C       -1.36321         8.15130        -1.95169
| 46>    C       -1.02209         9.43223        -2.38687
| 47>    C       -0.39740        10.41155        -1.49828
| 48>    C       -0.18407        10.21094        -0.18039
| 49>    S       -0.59926         8.75565         0.61935
| 50>    C       -0.10495        11.54077        -2.31196
| 51>    C       -0.52786        11.31351        -3.62176
| 52>    C       -0.23669        12.41616        -4.45882
| 53>    C        0.37628        13.41798        -3.77557
| 54>    S        0.62847        13.07783        -2.09875
| 55>    C       -1.12791         9.99969        -3.68340
| 56>    C       -1.77362         9.39303        -4.76736
| 57>    C       -1.97090         9.94478        -6.00515
| 58>    C       -2.74917         9.32639        -6.99523
| 59>    S       -3.62562         7.87801        -6.61884
| 60>    C       -4.53127         7.90028        -8.10833
| 61>    C       -4.12017         8.98603        -8.90028
| 62>    C       -3.08462         9.76764        -8.29187
| 63>    C       -2.55157        10.88697        -8.97688
| 64>    C       -1.35475        11.63876        -8.50578
| 65>    O       -1.31157        12.82882        -8.36984
| 66>    O       -0.25215        10.88310        -8.29772
| 67>    C       -3.11283        11.27108       -10.17217
| 68>    C       -4.15242        10.53800       -10.75077
| 69>    C       -4.64529         9.40382       -10.14862
| 70>    O       -5.63887         8.67501       -10.70752
| 71>    C       -5.50101         6.88080        -8.22625
| 72>    C       -5.83331         6.07024        -7.14067
| 73>    C       -6.76566         5.10320        -7.45828
| 74>    C       -7.16746         5.14497        -8.80206
| 75>    S       -6.38516         6.40678        -9.66630
| 76>    C       -8.12596         4.11803        -8.99230
| 77>    C       -8.31650         3.43404        -7.77403
| 78>    C       -7.47622         4.02810        -6.77259
| 79>    C       -7.32734         3.70212        -5.44742
| 80>    C       -8.03502         2.64649        -4.84113
| 81>    N       -8.60316         1.78207        -4.34474
| 82>    C       -6.43855         4.40904        -4.62417
| 83>    N       -5.69659         4.98700        -3.96023
| 84>    C       -9.25680         2.38808        -7.88609
| 85>    C       -9.75140         2.29511        -9.14732
| 86>    S       -9.09282         3.47527       -10.24429
| 87>    H        3.05791        -0.74177         7.17775
| 88>    H        2.34844        -1.99786         4.99289
| 89>    H       -0.29690         1.61335         0.70904
| 90>    H       -2.74660         0.49043        -0.00327
| 91>    H       -4.24181         1.97686        -0.93804
| 92>    H       -4.53729         3.82012        -2.49725
| 93>    H       -4.20248         5.89727        -2.94500
| 94>    H       -1.74687         7.44578        -2.67193
| 95>    H        0.25575        10.95604         0.46302
| 96>    H       -0.44484        12.49548        -5.50968
| 97>    H        0.70635        14.36265        -4.16076
| 98>    H       -2.18934         8.40895        -4.58738
| 99>    H       -1.57403        10.92183        -6.22013
|100>    H       -0.42300         9.94032        -8.42135
|101>    H       -2.72445        12.13938       -10.68071
|102>    H       -4.56836        10.86099       -11.69477
|103>    H       -5.91105         9.06207       -11.54928
|104>    H       -5.40803         6.21573        -6.16543
|105>    H       -9.54920         1.74159        -7.07854
|106>    H      -10.47494         1.60039        -9.52387
|107> *
|108>
|109>                          ****END OF INPUT****

CARTESIAN COORDINATES (ANGSTROEM)
---------------------------------
  C      2.576890   -0.317140    6.319620
  C      2.199870   -0.948930    5.174590
  C      1.596650   -0.053870    4.269540
  C      1.532260    1.253400    4.771480
  S      2.205890    1.377600    6.333840
  C      0.900230    2.085900    3.803180
  C      0.584390    1.295100    2.691280
  C      0.987140   -0.079430    2.955940
  C      0.762630   -1.154750    2.143530
  C      0.079120   -1.012350    0.919840
  N     -0.490600   -0.878840   -0.067640
  C      1.170720   -2.460020    2.484240
  N      1.517760   -3.518500    2.757840
  C     -0.034670    2.011790    1.671340
  C     -0.231070    3.336470    2.013140
  S      0.412660    3.709630    3.599430
  C     -0.873850    4.312220    1.205450
  S     -0.330920    5.940230    1.155170
  C     -1.352710    6.351680   -0.194820
  C     -2.140180    5.244750   -0.564760
  C     -1.900640    4.104980    0.279160
  C     -2.695010    2.930390    0.186040
  C     -2.785080    1.939340    1.294410
  O     -2.842910    2.259700    2.451810
  O     -2.898070    0.649130    0.939510
  C     -3.605370    2.844820   -0.840180
  C     -3.794350    3.911000   -1.719500
  C     -3.137220    5.114790   -1.576520
  O     -3.448560    6.150640   -2.377400
  C     -1.192250    7.692630   -0.665290
  C     -1.363210    8.151300   -1.951690
  C     -1.022090    9.432230   -2.386870
  C     -0.397400   10.411550   -1.498280
  C     -0.184070   10.210940   -0.180390
  S     -0.599260    8.755650    0.619350
  C     -0.104950   11.540770   -2.311960
  C     -0.527860   11.313510   -3.621760
  C     -0.236690   12.416160   -4.458820
  C      0.376280   13.417980   -3.775570
  S      0.628470   13.077830   -2.098750
  C     -1.127910    9.999690   -3.683400
  C     -1.773620    9.393030   -4.767360
  C     -1.970900    9.944780   -6.005150
  C     -2.749170    9.326390   -6.995230
  S     -3.625620    7.878010   -6.618840
  C     -4.531270    7.900280   -8.108330
  C     -4.120170    8.986030   -8.900280
  C     -3.084620    9.767640   -8.291870
  C     -2.551570   10.886970   -8.976880
  C     -1.354750   11.638760   -8.505780
  O     -1.311570   12.828820   -8.369840
  O     -0.252150   10.883100   -8.297720
  C     -3.112830   11.271080  -10.172170
  C     -4.152420   10.538000  -10.750770
  C     -4.645290    9.403820  -10.148620
  O     -5.638870    8.675010  -10.707520
  C     -5.501010    6.880800   -8.226250
  C     -5.833310    6.070240   -7.140670
  C     -6.765660    5.103200   -7.458280
  C     -7.167460    5.144970   -8.802060
  S     -6.385160    6.406780   -9.666300
  C     -8.125960    4.118030   -8.992300
  C     -8.316500    3.434040   -7.774030
  C     -7.476220    4.028100   -6.772590
  C     -7.327340    3.702120   -5.447420
  C     -8.035020    2.646490   -4.841130
  N     -8.603160    1.782070   -4.344740
  C     -6.438550    4.409040   -4.624170
  N     -5.696590    4.987000   -3.960230
  C     -9.256800    2.388080   -7.886090
  C     -9.751400    2.295110   -9.147320
  S     -9.092820    3.475270  -10.244290
  H      3.057910   -0.741770    7.177750
  H      2.348440   -1.997860    4.992890
  H     -0.296900    1.613350    0.709040
  H     -2.746600    0.490430   -0.003270
  H     -4.241810    1.976860   -0.938040
  H     -4.537290    3.820120   -2.497250
  H     -4.202480    5.897270   -2.945000
  H     -1.746870    7.445780   -2.671930
  H      0.255750   10.956040    0.463020
  H     -0.444840   12.495480   -5.509680
  H      0.706350   14.362650   -4.160760
  H     -2.189340    8.408950   -4.587380
  H     -1.574030   10.921830   -6.220130
  H     -0.423000    9.940320   -8.421350
  H     -2.724450   12.139380  -10.680710
  H     -4.568360   10.860990  -11.694770
  H     -5.911050    9.062070  -11.549280
  H     -5.408030    6.215730   -6.165430
  H     -9.549200    1.741590   -7.078540
  H    -10.474940    1.600390   -9.523870

 Total Charge           Charge          ....    0
 Multiplicity           Mult            ....    1
 Number of Electrons    NEL             ....  548
 Basis Dimension        Dim             .... 1140

ORBITAL ENERGIES
----------------

  NO   OCC          E(Eh)            E(eV)
   0   2.0000     -88.987623     -2421.4763
   1   2.0000     -88.985128     -2421.4084
   2   2.0000     -88.977232     -2421.1936
   3   2.0000     -88.976912     -2421.1849
   4   2.0000     -88.971769     -2421.0449
   5   2.0000     -88.970255     -2421.0037
   6   2.0000     -88.968449     -2420.9546
   7   2.0000     -88.949531     -2420.4398
   8   2.0000     -19.276145      -524.5306
   9   2.0000     -19.255037      -523.9562
  10   2.0000     -19.248014      -523.7651
  11   2.0000     -19.245043      -523.6842
  12   2.0000     -19.198274      -522.4116
  13   2.0000     -19.180730      -521.9342
  14   2.0000     -14.453490      -393.2995
  15   2.0000     -14.431408      -392.6986
  16   2.0000     -14.423213      -392.4756
  17   2.0000     -14.419067      -392.3628
  18   2.0000     -10.399980      -282.9978
  19   2.0000     -10.387777      -282.6658
  20   2.0000     -10.364875      -282.0426
  21   2.0000     -10.359116      -281.8859
  22   2.0000     -10.358859      -281.8789
  23   2.0000     -10.356683      -281.8197
  24   2.0000     -10.351387      -281.6756
  25   2.0000     -10.347242      -281.5628
  26   2.0000     -10.340342      -281.3750
  27   2.0000     -10.333936      -281.2007
  28   2.0000     -10.332519      -281.1621
  29   2.0000     -10.327696      -281.0309
  30   2.0000     -10.326063      -280.9865
  31   2.0000     -10.325441      -280.9695
  32   2.0000     -10.321694      -280.8676
  33   2.0000     -10.320825      -280.8439
  34   2.0000     -10.320407      -280.8325
  35   2.0000     -10.319895      -280.8186
  36   2.0000     -10.319687      -280.8130
  37   2.0000     -10.317474      -280.7527
  38   2.0000     -10.316015      -280.7130
  39   2.0000     -10.314311      -280.6667
  40   2.0000     -10.313236      -280.6374
  41   2.0000     -10.310956      -280.5754
  42   2.0000     -10.309526      -280.5365
  43   2.0000     -10.300869      -280.3009
  44   2.0000     -10.300630      -280.2944
  45   2.0000     -10.298540      -280.2375
  46   2.0000     -10.298270      -280.2302
  47   2.0000     -10.297873      -280.2194
  48   2.0000     -10.296488      -280.1817
  49   2.0000     -10.295964      -280.1674
  50   2.0000     -10.295406      -280.1522
  51   2.0000     -10.292789      -280.0810
  52   2.0000     -10.292467      -280.0723
  53   2.0000     -10.289726      -279.9977
  54   2.0000     -10.287785      -279.9449
  55   2.0000     -10.287446      -279.9356
  56   2.0000     -10.287396      -279.9343
  57   2.0000     -10.287160      -279.9279
  58   2.0000     -10.287027      -279.9242
  59   2.0000     -10.286327      -279.9052
  60   2.0000     -10.285146      -279.8730
  61   2.0000     -10.285040      -279.8702
  62   2.0000     -10.284215      -279.8477
  63   2.0000     -10.282673      -279.8058
  64   2.0000     -10.280397      -279.7438
  65   2.0000     -10.280361      -279.7428
  66   2.0000     -10.278260      -279.6857
  67   2.0000     -10.274018      -279.5702
  68   2.0000     -10.271275      -279.4956
  69   2.0000     -10.268366      -279.4165
  70   2.0000     -10.265073      -279.3268
  71   2.0000     -10.263566      -279.2858
  72   2.0000      -8.082637      -219.9397
  73   2.0000      -8.078152      -219.8177
  74   2.0000      -8.072004      -219.6504
  75   2.0000      -8.071794      -219.6447
  76   2.0000      -8.067300      -219.5224
  77   2.0000      -8.066050      -219.4884
  78   2.0000      -8.063452      -219.4177
  79   2.0000      -8.045092      -218.9181
  80   2.0000      -6.051873      -164.6798
  81   2.0000      -6.047588      -164.5632
  82   2.0000      -6.047429      -164.5589
  83   2.0000      -6.045273      -164.5002
  84   2.0000      -6.043163      -164.4428
  85   2.0000      -6.041225      -164.3901
  86   2.0000      -6.041031      -164.3848
  87   2.0000      -6.040469      -164.3695
  88   2.0000      -6.036863      -164.2714
  89   2.0000      -6.036828      -164.2704
  90   2.0000      -6.036323      -164.2567
  91   2.0000      -6.035631      -164.2379
  92   2.0000      -6.034604      -164.2099
  93   2.0000      -6.034222      -164.1995
  94   2.0000      -6.032637      -164.1564
  95   2.0000      -6.032063      -164.1408
  96   2.0000      -6.030999      -164.1118
  97   2.0000      -6.029974      -164.0839
  98   2.0000      -6.028533      -164.0447
  99   2.0000      -6.027848      -164.0261
 100   2.0000      -6.025800      -163.9703
 101   2.0000      -6.014488      -163.6625
 102   2.0000      -6.010275      -163.5479
 103   2.0000      -6.007157      -163.4631
 104   2.0000      -1.177599       -32.0441
 105   2.0000      -1.173026       -31.9197
 106   2.0000      -1.166848       -31.7516
 107   2.0000      -1.147098       -31.2141
 108   2.0000      -1.093763       -29.7628
 109   2.0000      -1.079459       -29.3736
 110   2.0000      -1.046303       -28.4714
 111   2.0000      -1.033298       -28.1175
 112   2.0000      -1.031344       -28.0643
 113   2.0000      -1.014638       -27.6097
 114   2.0000      -1.012746       -27.5582
 115   2.0000      -1.008673       -27.4474
 116   2.0000      -1.008109       -27.4320
 117   2.0000      -0.998734       -27.1769
 118   2.0000      -0.997781       -27.1510
 119   2.0000      -0.987766       -26.8785
 120   2.0000      -0.980582       -26.6830
 121   2.0000      -0.964435       -26.2436
 122   2.0000      -0.959312       -26.1042
 123   2.0000      -0.945317       -25.7234
 124   2.0000      -0.942536       -25.6477
 125   2.0000      -0.934366       -25.4254
 126   2.0000      -0.922670       -25.1071
 127   2.0000      -0.913468       -24.8567
 128   2.0000      -0.902972       -24.5711
 129   2.0000      -0.894298       -24.3351
 130   2.0000      -0.884925       -24.0800
 131   2.0000      -0.867738       -23.6123
 132   2.0000      -0.864679       -23.5291
 133   2.0000      -0.860879       -23.4257
 134   2.0000      -0.852738       -23.2042
 135   2.0000      -0.850583       -23.1455
 136   2.0000      -0.843668       -22.9574
 137   2.0000      -0.841321       -22.8935
 138   2.0000      -0.839043       -22.8315
 139   2.0000      -0.833515       -22.6811
 140   2.0000      -0.823418       -22.4063
 141   2.0000      -0.818689       -22.2777
 142   2.0000      -0.797970       -21.7139
 143   2.0000      -0.791921       -21.5493
 144   2.0000      -0.778738       -21.1905
 145   2.0000      -0.773755       -21.0549
 146   2.0000      -0.764867       -20.8131
 147   2.0000      -0.760673       -20.6990
 148   2.0000      -0.744127       -20.2487
 149   2.0000      -0.735826       -20.0228
 150   2.0000      -0.731211       -19.8973
 151   2.0000      -0.721196       -19.6248
 152   2.0000      -0.720644       -19.6097
 153   2.0000      -0.711392       -19.3580
 154   2.0000      -0.708442       -19.2777
 155   2.0000      -0.699438       -19.0327
 156   2.0000      -0.693481       -18.8706
 157   2.0000      -0.692904       -18.8549
 158   2.0000      -0.687458       -18.7067
 159   2.0000      -0.680478       -18.5167
 160   2.0000      -0.670776       -18.2528
 161   2.0000      -0.670116       -18.2348
 162   2.0000      -0.665512       -18.1095
 163   2.0000      -0.659664       -17.9504
 164   2.0000      -0.653673       -17.7874
 165   2.0000      -0.646345       -17.5879
 166   2.0000      -0.643431       -17.5086
 167   2.0000      -0.637679       -17.3521
 168   2.0000      -0.637041       -17.3348
 169   2.0000      -0.629864       -17.1395
 170   2.0000      -0.625700       -17.0262
 171   2.0000      -0.615662       -16.7530
 172   2.0000      -0.614643       -16.7253
 173   2.0000      -0.610367       -16.6089
 174   2.0000      -0.604732       -16.4556
 175   2.0000      -0.595252       -16.1976
 176   2.0000      -0.590458       -16.0672
 177   2.0000      -0.587964       -15.9993
 178   2.0000      -0.581040       -15.8109
 179   2.0000      -0.576346       -15.6832
 180   2.0000      -0.571449       -15.5499
 181   2.0000      -0.563179       -15.3249
 182   2.0000      -0.560867       -15.2620
 183   2.0000      -0.551024       -14.9941
 184   2.0000      -0.548100       -14.9145
 185   2.0000      -0.545100       -14.8329
 186   2.0000      -0.544506       -14.8168
 187   2.0000      -0.537345       -14.6219
 188   2.0000      -0.536754       -14.6058
 189   2.0000      -0.533639       -14.5210
 190   2.0000      -0.532820       -14.4988
 191   2.0000      -0.532133       -14.4801
 192   2.0000      -0.525581       -14.3018
 193   2.0000      -0.525199       -14.2914
 194   2.0000      -0.522947       -14.2301
 195   2.0000      -0.520136       -14.1536
 196   2.0000      -0.516635       -14.0583
 197   2.0000      -0.514200       -13.9921
 198   2.0000      -0.512264       -13.9394
 199   2.0000      -0.509073       -13.8526
 200   2.0000      -0.508613       -13.8401
 201   2.0000      -0.504290       -13.7224
 202   2.0000      -0.503561       -13.7026
 203   2.0000      -0.502029       -13.6609
 204   2.0000      -0.499560       -13.5937
 205   2.0000      -0.495786       -13.4910
 206   2.0000      -0.493347       -13.4247
 207   2.0000      -0.492367       -13.3980
 208   2.0000      -0.491160       -13.3652
 209   2.0000      -0.489735       -13.3264
 210   2.0000      -0.486083       -13.2270
 211   2.0000      -0.485167       -13.2021
 212   2.0000      -0.484836       -13.1930
 213   2.0000      -0.478226       -13.0132
 214   2.0000      -0.477158       -12.9841
 215   2.0000      -0.474314       -12.9067
 216   2.0000      -0.472998       -12.8709
 217   2.0000      -0.468144       -12.7388
 218   2.0000      -0.466259       -12.6876
 219   2.0000      -0.461958       -12.5705
 220   2.0000      -0.460366       -12.5272
 221   2.0000      -0.458753       -12.4833
 222   2.0000      -0.457269       -12.4429
 223   2.0000      -0.453554       -12.3418
 224   2.0000      -0.452710       -12.3189
 225   2.0000      -0.451295       -12.2804
 226   2.0000      -0.449724       -12.2376
 227   2.0000      -0.448474       -12.2036
 228   2.0000      -0.448392       -12.2014
 229   2.0000      -0.446970       -12.1627
 230   2.0000      -0.446194       -12.1416
 231   2.0000      -0.442207       -12.0331
 232   2.0000      -0.439123       -11.9491
 233   2.0000      -0.437797       -11.9131
 234   2.0000      -0.436106       -11.8670
 235   2.0000      -0.435862       -11.8604
 236   2.0000      -0.431702       -11.7472
 237   2.0000      -0.430963       -11.7271
 238   2.0000      -0.429229       -11.6799
 239   2.0000      -0.425485       -11.5780
 240   2.0000      -0.423314       -11.5190
 241   2.0000      -0.422681       -11.5017
 242   2.0000      -0.419001       -11.4016
 243   2.0000      -0.418082       -11.3766
 244   2.0000      -0.417011       -11.3474
 245   2.0000      -0.414118       -11.2687
 246   2.0000      -0.408415       -11.1135
 247   2.0000      -0.406620       -11.0647
 248   2.0000      -0.404294       -11.0014
 249   2.0000      -0.402403       -10.9500
 250   2.0000      -0.399662       -10.8754
 251   2.0000      -0.392877       -10.6907
 252   2.0000      -0.386337       -10.5128
 253   2.0000      -0.385629       -10.4935
 254   2.0000      -0.374661       -10.1950
 255   2.0000      -0.360942        -9.8217
 256   2.0000      -0.357207        -9.7201
 257   2.0000      -0.350429        -9.5357
 258   2.0000      -0.344459        -9.3732
 259   2.0000      -0.339163        -9.2291
 260   2.0000      -0.337618        -9.1871
 261   2.0000      -0.333390        -9.0720
 262   2.0000      -0.330095        -8.9823
 263   2.0000      -0.325644        -8.8612
 264   2.0000      -0.323453        -8.8016
 265   2.0000      -0.319515        -8.6944
 266   2.0000      -0.316293        -8.6068
 267   2.0000      -0.309398        -8.4192
 268   2.0000      -0.292763        -7.9665
 269   2.0000      -0.282523        -7.6878
 270   2.0000      -0.274945        -7.4816
 271   2.0000      -0.261500        -7.1158
 272   2.0000      -0.234994        -6.3945
 273   2.0000      -0.203800        -5.5457
 274   0.0000      -0.109059        -2.9677
 275   0.0000      -0.092300        -2.5116
 276   0.0000      -0.078870        -2.1462
 277   0.0000      -0.051215        -1.3936
 278   0.0000      -0.031721        -0.8632

MULLIKEN ATOMIC CHARGES
-----------------------
   0 C :   -0.085533
   1 C :    0.036630
   2 C :   -0.036427
   3 C :   -0.119119
   4 S :    0.176669
   5 C :   -0.088609
   6 C :   -0.010484
   7 C :    0.304472
   8 C :   -0.302311
   9 C :   -0.155491
  10 N :    0.132082
  11 C :   -0.190867
  12 N :    0.171613
  13 C :    0.019546
  14 C :   -0.105281
  15 S :    0.197655
  16 C :   -0.138906
  17 S :    0.167715
  18 C :   -0.152759
  19 C :    0.119738
  20 C :    0.120880
  21 C :   -0.083977
  22 C :    0.127253
  23 O :   -0.182228
  24 O :   -0.160438
  25 C :   -0.010914
  26 C :   -0.069110
  27 C :    0.120424
  28 O :   -0.192332
  29 C :   -0.061835
  30 C :   -0.012084
  31 C :    0.040591
  32 C :    0.070103
  33 C :   -0.131277
  34 S :    0.119995
  35 C :   -0.115152
  36 C :    0.051929
  37 C :   -0.009039
  38 C :   -0.065130
  39 S :    0.123349
  40 C :    0.098836
  41 C :   -0.042501
  42 C :   -0.030428
  43 C :   -0.127236
  44 S :    0.096315
  45 C :   -0.142670
  46 C :    0.107292
  47 C :    0.114072
  48 C :   -0.079469
  49 C :    0.124091
  50 O :   -0.184628
  51 O :   -0.172706
  52 C :    0.008736
  53 C :   -0.075099
  54 C :    0.119247
  55 O :   -0.189239
  56 C :   -0.048820
  57 C :   -0.096192
  58 C :    0.027123
  59 C :   -0.101117
  60 S :    0.210371
  61 C :   -0.112867
  62 C :   -0.049826
  63 C :    0.316622
  64 C :   -0.316587
  65 C :   -0.205337
  66 N :    0.184415
  67 C :   -0.094189
  68 N :    0.091905
  69 C :    0.047259
  70 C :   -0.088355
  71 S :    0.176677
  72 H :    0.032764
  73 H :    0.010229
  74 H :    0.001508
  75 H :    0.189176
  76 H :   -0.014037
  77 H :   -0.036254
  78 H :    0.189247
  79 H :   -0.007107
  80 H :    0.035453
  81 H :    0.006487
  82 H :    0.026422
  83 H :   -0.018235
  84 H :   -0.007219
  85 H :    0.190148
  86 H :   -0.002875
  87 H :   -0.037228
  88 H :    0.192677
  89 H :    0.015113
  90 H :    0.011580
  91 H :    0.035113
Sum of atomic charges:   -0.0000000

LOEWDIN ATOMIC CHARGES
----------------------
   0 C :   -0.182770
   1 C :   -0.033428
   2 C :   -0.081656
   3 C :   -0.176456
   4 S :    0.474647
   5 C :   -0.184134
   6 C :   -0.064597
   7 C :    0.092103
   8 C :   -0.109723
   9 C :    0.002787
  10 N :   -0.057678
  11 C :   -0.017398
  12 N :   -0.038100
  13 C :   -0.025789
  14 C :   -0.179200
  15 S :    0.480414
  16 C :   -0.198067
  17 S :    0.477632
  18 C :   -0.186450
  19 C :   -0.058447
  20 C :   -0.022288
  21 C :   -0.104049
  22 C :    0.075114
  23 O :   -0.163265
  24 O :   -0.025921
  25 C :   -0.001342
  26 C :   -0.093842
  27 C :    0.078814
  28 O :   -0.038761
  29 C :   -0.173092
  30 C :   -0.016536
  31 C :   -0.009143
  32 C :   -0.049514
  33 C :   -0.146007
  34 S :    0.440500
  35 C :   -0.202043
  36 C :   -0.037421
  37 C :   -0.061674
  38 C :   -0.162995
  39 S :    0.420740
  40 C :   -0.053202
  41 C :   -0.004714
  42 C :   -0.080980
  43 C :   -0.165269
  44 S :    0.480617
  45 C :   -0.187461
  46 C :   -0.063285
  47 C :   -0.054650
  48 C :   -0.089906
  49 C :    0.076449
  50 O :   -0.154501
  51 O :   -0.036048
  52 C :    0.009612
  53 C :   -0.093192
  54 C :    0.066542
  55 O :   -0.048765
  56 C :   -0.180295
  57 C :   -0.051722
  58 C :   -0.068954
  59 C :   -0.209688
  60 S :    0.502381
  61 C :   -0.162778
  62 C :   -0.095737
  63 C :    0.101809
  64 C :   -0.127815
  65 C :   -0.022582
  66 N :   -0.033544
  67 C :    0.043712
  68 N :   -0.062095
  69 C :   -0.029736
  70 C :   -0.183991
  71 S :    0.473215
  72 H :    0.026001
  73 H :    0.041911
  74 H :    0.035225
  75 H :    0.090316
  76 H :    0.030735
  77 H :    0.026695
  78 H :    0.075754
  79 H :    0.034780
  80 H :    0.036240
  81 H :    0.034854
  82 H :    0.024747
  83 H :    0.018499
  84 H :    0.033490
  85 H :    0.095795
  86 H :    0.039020
  87 H :    0.027181
  88 H :    0.102335
  89 H :    0.022342
  90 H :    0.042918
  91 H :    0.026775

  Mayer bond orders larger than 0.100000
B(  0-C ,  1-C ) :   1.5531 B(  0-C ,  4-S ) :   1.1438 B(  0-C , 72-H ) :   0.9645
B(  1-C ,  2-C ) :   1.2729 B(  1-C , 73-H ) :   0.9964 B(  2-C ,  3-C ) :   1.4563
B(  2-C ,  7-C ) :   1.0190 B(  3-C ,  4-S ) :   1.1415 B(  3-C ,  5-C ) :   1.1792
B(  5-C ,  6-C ) :   1.4658 B(  5-C , 15-S ) :   1.1237 B(  6-C ,  7-C ) :   0.9929
B(  6-C , 13-C ) :   1.3274 B(  7-C ,  8-C ) :   1.7020 B(  8-C ,  9-C ) :   1.1472
B(  8-C , 11-C ) :   1.1260 B(  9-C , 10-N ) :   2.9401 B( 11-C , 12-N ) :   3.0068
B( 13-C , 14-C ) :   1.4928 B( 13-C , 74-H ) :   0.9607 B( 14-C , 15-S ) :   1.1131
B( 14-C , 16-C ) :   1.0804 B( 16-C , 17-S ) :   1.1585 B( 16-C , 18-C ) :   0.1256
B( 16-C , 20-C ) :   1.4149 B( 17-S , 18-C ) :   1.1555 B( 18-C , 19-C ) :   1.3563
B( 18-C , 29-C ) :   1.1100 B( 19-C , 20-C ) :   1.2302 B( 19-C , 27-C ) :   1.1544
B( 20-C , 21-C ) :   1.2053 B( 21-C , 22-C ) :   0.9146 B( 21-C , 25-C ) :   1.4945
B( 22-C , 23-O ) :   2.1662 B( 22-C , 24-O ) :   1.2288 B( 24-O , 75-H ) :   0.9329
B( 25-C , 26-C ) :   1.2346 B( 25-C , 76-H ) :   0.9821 B( 26-C , 27-C ) :   1.4647
B( 26-C , 77-H ) :   0.9757 B( 27-C , 28-O ) :   1.2607 B( 28-O , 78-H ) :   0.9150
B( 29-C , 30-C ) :   1.5577 B( 29-C , 34-S ) :   1.0420 B( 30-C , 31-C ) :   1.2646
B( 30-C , 79-H ) :   0.9514 B( 31-C , 32-C ) :   1.0562 B( 31-C , 40-C ) :   1.3269
B( 32-C , 33-C ) :   1.5977 B( 32-C , 35-C ) :   1.1738 B( 33-C , 34-S ) :   1.1337
B( 33-C , 80-H ) :   0.9427 B( 35-C , 36-C ) :   1.4564 B( 35-C , 39-S ) :   1.0805
B( 36-C , 37-C ) :   1.2126 B( 36-C , 40-C ) :   1.0690 B( 37-C , 38-C ) :   1.5910
B( 37-C , 81-H ) :   0.9925 B( 38-C , 39-S ) :   1.1525 B( 38-C , 82-H ) :   0.9619
B( 40-C , 41-C ) :   1.2336 B( 41-C , 42-C ) :   1.5280 B( 41-C , 83-H ) :   0.9557
B( 42-C , 43-C ) :   1.2099 B( 42-C , 84-H ) :   0.9691 B( 43-C , 44-S ) :   1.1247
B( 43-C , 47-C ) :   1.3139 B( 44-S , 45-C ) :   1.1381 B( 45-C , 46-C ) :   1.3392
B( 45-C , 56-C ) :   1.2078 B( 46-C , 47-C ) :   1.2130 B( 46-C , 54-C ) :   1.1763
B( 47-C , 48-C ) :   1.2019 B( 48-C , 49-C ) :   0.9161 B( 48-C , 52-C ) :   1.5559
B( 49-C , 50-O ) :   2.1641 B( 49-C , 51-O ) :   1.1978 B( 51-O , 85-H ) :   0.9488
B( 52-C , 53-C ) :   1.1972 B( 52-C , 86-H ) :   0.9912 B( 53-C , 54-C ) :   1.4652
B( 53-C , 87-H ) :   0.9833 B( 54-C , 55-O ) :   1.2205 B( 55-O , 88-H ) :   0.9472
B( 56-C , 57-C ) :   1.3910 B( 56-C , 60-S ) :   1.1253 B( 57-C , 58-C ) :   1.3342
B( 57-C , 89-H ) :   0.9712 B( 58-C , 59-C ) :   1.4335 B( 58-C , 63-C ) :   0.9871
B( 59-C , 60-S ) :   1.0815 B( 59-C , 61-C ) :   1.2013 B( 61-C , 62-C ) :   1.4206
B( 61-C , 71-S ) :   1.1516 B( 62-C , 63-C ) :   1.0513 B( 62-C , 69-C ) :   1.2577
B( 63-C , 64-C ) :   1.6589 B( 64-C , 65-C ) :   1.1291 B( 64-C , 67-C ) :   1.1591
B( 65-C , 66-N ) :   3.0152 B( 67-C , 68-N ) :   2.8512 B( 68-N , 78-H ) :   0.1041
B( 69-C , 70-C ) :   1.5687 B( 69-C , 90-H ) :   0.9961 B( 70-C , 71-S ) :   1.1256
B( 70-C , 91-H ) :   0.9646

-----------------------------------------------------------------------------
         ABSORPTION SPECTRUM VIA TRANSITION ELECTRIC DIPOLE MOMENTS
-----------------------------------------------------------------------------
State   Energy  Wavelength   fosc         T2         TX        TY        TZ
        (cm-1)    (nm)                  (au**2)     (au)      (au)      (au)
-----------------------------------------------------------------------------
   0    6092.0   1641.5   0.103194072   5.57665  -1.70644  -1.00213  -1.28859
   1   11332.9    882.4   0.408140311  11.85619   1.34494  -1.57595   2.75022
   2   12714.6    786.5   0.403943163  10.45904  -1.44192   0.35195  -2.87333
   3   14144.0    707.0   0.030150767   0.70178  -0.56278  -0.51833  -0.34117
   4   16994.6    588.4   0.006457616   0.12509  -0.25331  -0.23564   0.07350
   5   18502.6    540.5   0.302805706   5.38775  -0.81451  -2.17341   0.02499
   6   19076.4    524.2   0.303299130   5.23419  -0.42964  -2.07795   0.85540
   7   19740.7    506.6   0.395882367   6.60207  -0.96528  -2.38046   0.06083
   8   20627.1    484.8   0.051896771   0.82828  -0.22087   0.80922  -0.35307
   9   22625.5    442.0   0.014694625   0.21381   0.35378   0.07346   0.28854
  10   23398.7    427.4   0.037805549   0.53191  -0.63632  -0.30507   0.18423
  11   24718.4    404.6   0.066130039   0.88075   0.89385  -0.03312   0.28405
  12   25472.4    392.6   0.105785357   1.36720   0.36275  -0.72022   0.84669
  13   25824.6    387.2   0.036607752   0.46668  -0.52695   0.41976   0.11315
  14   26403.3    378.7   0.005381000   0.06709   0.09813   0.12171   0.20652
  15   27771.1    360.1   0.035402269   0.41967  -0.44246  -0.46158   0.10413
  16   28121.0    355.6   0.075167615   0.87999   0.30391  -0.12748   0.87828
  17   28286.0    353.5   0.050172438   0.58394  -0.31364  -0.52851   0.45415
  18   28420.8    351.9   0.161249969   1.86784   0.48310   0.89176  -0.91609
  19   28984.9    345.0   0.086880697   0.98680  -0.12966   0.43187  -0.88514
  20   29481.5    339.2   0.605297387   6.75919  -0.46390   1.59270  -2.00183
  21   30143.7    331.7   0.197579440   2.15785   0.03934  -1.11970  -0.95004
  22   30286.6    330.2   0.157779482   1.71505   0.58572  -0.48166   1.06770
  23   30519.6    327.7   0.320230020   3.45429  -0.40899  -0.51612   1.73800
  24   30959.6    323.0   0.086927599   0.92435   0.04692   0.15784   0.94723
  25   31179.6    320.7   0.273504368   2.88781  -0.19935  -1.18814  -1.19849
  26   31711.5    315.3   0.312473936   3.24394  -1.14416  -1.09308  -0.86024
  27   31965.6    312.8   0.143879514   1.48181  -0.73550  -0.73360  -0.63457
  28   32283.5    309.8   0.010756626   0.10969  -0.11237  -0.31152   0.00403
  29   32426.5    308.4   0.294072593   2.98559  -0.70472  -0.39152  -1.52829
  30   32661.4    306.2   0.000857035   0.00864  -0.01805  -0.07743  -0.04814
  31   32797.1    304.9   0.050457426   0.50648   0.22260   0.65759  -0.15656
  32   33088.6    302.2   0.116992251   1.16400   0.38813  -0.74904   0.67253
  33   33463.0    298.8   0.150071094   1.47641  -0.02997   0.18505  -1.20053
  34   33809.4    295.8   0.010998674   0.10710   0.14236   0.12905   0.26491
  35   34098.8    293.3   0.051386801   0.49612   0.53325   0.05534   0.45684
  36   34718.0    288.0   0.014442740   0.13695  -0.17776  -0.30524  -0.11038
  37   34863.8    286.8   0.026271304   0.24807   0.35704   0.27126  -0.21683
  38   34938.5    286.2   0.007416273   0.06988   0.06231  -0.12427  -0.22484
  39   35139.6    284.6   0.054442915   0.51006   0.13421   0.60737   0.35092
  40   35238.4    283.8   0.049638697   0.46375  -0.47014  -0.47500  -0.13070
  41   35405.6    282.4   0.005866500   0.05455   0.00547   0.20172   0.11760
  42   35620.4    280.7   0.027895562   0.25782   0.13856   0.48817  -0.01744
  43   35765.4    279.6   0.041451625   0.38155  -0.08308   0.50375  -0.34769
  44   36171.4    276.5   0.041871000   0.38109   0.28887   0.54498   0.02520
  45   36378.4    274.9   0.055516886   0.50241  -0.36312   0.28555  -0.53760
  46   36539.7    273.7   0.021641438   0.19498  -0.27295  -0.34709   0.00250
  47   36698.6    272.5   0.086694497   0.77771  -0.52754   0.40464  -0.57938
  48   36849.1    271.4   0.033619291   0.30036  -0.01441  -0.41139   0.36181
  49   37250.3    268.5   0.025658007   0.22676  -0.02373  -0.13669   0.45554
  50   37652.2    265.6   0.019958193   0.17450  -0.30111  -0.28828  -0.02703
  51   37824.8    264.4   0.251565994   2.18953  -0.69876  -1.29835   0.12465
  52   38059.3    262.7   0.022019848   0.19047  -0.10316   0.34978  -0.23976
  53   38259.2    261.4   0.209223477   1.80032   0.61771   0.97829  -0.67949
  54   38301.0    261.1   0.004795220   0.04122  -0.19500  -0.00888  -0.05578
  55   38661.9    258.7   0.155083777   1.32056  -0.73024  -0.62824  -0.62660
  56   38934.3    256.8   0.058299665   0.49296  -0.36506  -0.59756   0.05118
  57   39329.7    254.3   0.052903034   0.44283   0.16781  -0.37536   0.52323
  58   39627.7    252.3   0.309855114   2.57416  -0.04128  -0.82000   1.37842
  59   39754.3    251.5   0.063237132   0.52368  -0.36961  -0.60893   0.12757
  60   39958.8    250.3   0.000994059   0.00819  -0.07482   0.03920  -0.03248
  61   40270.0    248.3   0.021702031   0.17742   0.26796   0.13604   0.29514

FINAL SINGLE POINT ENERGY     -5921.153243309426

DIPOLE MOMENT
-------------
                                X             Y             Z
Electronic contribution:      3.15129     -11.54940      19.23883
Nuclear contribution   :     -4.00058      12.84214     -22.24243
                        -----------------------------------------
Total Dipole Moment    :     -0.84929       1.29274      -3.00360
                        -----------------------------------------
Magnitude (a.u.)       :      3.37847
Magnitude (Debye)      :      8.58740

Rotational constants in cm-1:     0.000973     0.000410     0.000304
Rotational constants in MHz :    29.156793    12.295211     9.126145

                             ****ORCA TERMINATED NORMALLY****
TOTAL RUN TIME: 0 days 0 hours 10 minutes 31 seconds 416 msec
