                         Program Version 4.2.0 -  RELEASE  -
|  1> # ORCA input file
|  2> # SCF done       -167.051715386391          0.000839605912
|  3> ! CAM-B3LYP def2-SVP def2/J RIJCOSX Grid4 TightSCF
|  4> %maxcore 5000
|  5> %tddft
|  6>     Mode sTDDFT
|  7>     Ethresh 5.0
|  8>     maxcore 5000
|  9> end
| 10>
| 11> %pal
| 12>   nprocs 6
| 13>   end
| 14> * xyz 0 1
| 15>    C        1.56515         1.35973         0.31740
| 16>    C        0.46311         0.97106         1.03982
| 17>    N       -0.15960         1.90673         1.91762
| 18>    O        0.46492         2.91786         2.16837
| 19>    O       -1.26494         1.66110         2.35547
| 20>    C        0.06961        -0.37925         0.80679
| 21>    C       -1.06162        -1.07939         1.47511
| 22>    C        0.90756        -0.97991        -0.11122
| 23>    S        2.15083         0.11805        -0.67497
| 24>    C        0.89379        -2.30467        -0.63910
| 25>    C        1.79756        -2.82102        -1.54772
| 26>    C        1.51865        -4.14742        -1.88012
| 27>    C        0.38421        -4.64683        -1.21764
| 28>    S       -0.32905        -3.48658        -0.19044
| 29>    C        0.18176        -5.99206        -1.61380
| 30>    C        1.18942        -6.34178        -2.52730
| 31>    C        2.05462        -5.18981        -2.73793
| 32>    C        3.12034        -5.10625        -3.58593
| 33>    C        3.88791        -3.92860        -3.70294
| 34>    N        4.50630        -2.96772        -3.79595
| 35>    C        3.49497        -6.17644        -4.42631
| 36>    N        3.77163        -7.03592        -5.13315
| 37>    C        1.09707        -7.65925        -2.96616
| 38>    C        0.02023        -8.32329        -2.40082
| 39>    S       -0.89342        -7.28716        -1.31289
| 40>    C       -0.36772        -9.67899        -2.61229
| 41>    C        0.45409       -10.58487        -3.24008
| 42>    C        0.13089       -11.91600        -3.48489
| 43>    C       -1.16718       -12.47140        -3.09650
| 44>    C       -2.12385       -11.76961        -2.45059
| 45>    S       -1.96046       -10.11857        -2.01002
| 46>    C       -1.13484       -13.82620        -3.52817
| 47>    C        0.09195       -14.10950        -4.13554
| 48>    C        0.15884       -15.45349        -4.56720
| 49>    C       -0.98501       -16.13139        -4.28660
| 50>    S       -2.18911       -15.18094        -3.48840
| 51>    C        0.90462       -12.91853        -4.10885
| 52>    C        2.22465       -12.71611        -4.55897
| 53>    C        3.02640       -13.60298        -5.20976
| 54>    C        4.35795       -13.30611        -5.58255
| 55>    C        5.10547       -12.16602        -5.30798
| 56>    C        6.38973       -12.23935        -5.82980
| 57>    C        6.64154       -13.43922        -6.51894
| 58>    S        5.28457       -14.48075        -6.50755
| 59>    C        7.96549       -13.40117        -7.01335
| 60>    C        8.55322       -12.17518        -6.64214
| 61>    C        7.59344       -11.41637        -5.86415
| 62>    C        7.77777       -10.21654        -5.24150
| 63>    C        6.77166        -9.61837        -4.45327
| 64>    N        5.96696        -9.14572        -3.78607
| 65>    C        9.00552        -9.52170        -5.28454
| 66>    N       10.00666        -8.96320        -5.28551
| 67>    C        9.86266       -12.03620        -7.10333
| 68>    C       10.28068       -13.14040        -7.81643
| 69>    S        9.03269       -14.38334        -7.90672
| 70>    C       11.55290       -13.41807        -8.39867
| 71>    C       12.53242       -12.56432        -8.89353
| 72>    N       12.33253       -11.17629        -9.11185
| 73>    O       11.18815       -10.77277        -9.21206
| 74>    O       13.31532       -10.47003        -9.21930
| 75>    C       13.72640       -13.23863        -9.30179
| 76>    C       14.93414       -12.58179        -9.87085
| 77>    C       13.61412       -14.58129        -9.13331
| 78>    S       12.10494       -15.05960        -8.46131
| 79>    H        2.02655         2.32748         0.33473
| 80>    H       -1.54629        -0.42615         2.19320
| 81>    H       -0.70479        -1.97280         1.98765
| 82>    H       -1.80264        -1.39029         0.73856
| 83>    H        2.61883        -2.24897        -1.94082
| 84>    H        1.77104        -8.10470        -3.67341
| 85>    H        1.42357       -10.22743        -3.55253
| 86>    H       -3.06900       -12.20018        -2.16012
| 87>    H        0.99631       -15.91363        -5.05787
| 88>    H       -1.20672       -17.15837        -4.50206
| 89>    H        2.63430       -11.73790        -4.35152
| 90>    H        2.65798       -14.58172        -5.47441
| 91>    H        4.72749       -11.32969        -4.75092
| 92>    H       10.47846       -11.17521        -6.92224
| 93>    H       14.66584       -11.94633       -10.71284
| 94>    H       15.64716       -13.33330       -10.19959
| 95>    H       15.40177       -11.94235        -9.12456
| 96>    H       14.34240       -15.33138        -9.36783
| 97> *
| 98>
| 99>                          ****END OF INPUT****

CARTESIAN COORDINATES (ANGSTROEM)
---------------------------------
  C      1.565150    1.359730    0.317400
  C      0.463110    0.971060    1.039820
  N     -0.159600    1.906730    1.917620
  O      0.464920    2.917860    2.168370
  O     -1.264940    1.661100    2.355470
  C      0.069610   -0.379250    0.806790
  C     -1.061620   -1.079390    1.475110
  C      0.907560   -0.979910   -0.111220
  S      2.150830    0.118050   -0.674970
  C      0.893790   -2.304670   -0.639100
  C      1.797560   -2.821020   -1.547720
  C      1.518650   -4.147420   -1.880120
  C      0.384210   -4.646830   -1.217640
  S     -0.329050   -3.486580   -0.190440
  C      0.181760   -5.992060   -1.613800
  C      1.189420   -6.341780   -2.527300
  C      2.054620   -5.189810   -2.737930
  C      3.120340   -5.106250   -3.585930
  C      3.887910   -3.928600   -3.702940
  N      4.506300   -2.967720   -3.795950
  C      3.494970   -6.176440   -4.426310
  N      3.771630   -7.035920   -5.133150
  C      1.097070   -7.659250   -2.966160
  C      0.020230   -8.323290   -2.400820
  S     -0.893420   -7.287160   -1.312890
  C     -0.367720   -9.678990   -2.612290
  C      0.454090  -10.584870   -3.240080
  C      0.130890  -11.916000   -3.484890
  C     -1.167180  -12.471400   -3.096500
  C     -2.123850  -11.769610   -2.450590
  S     -1.960460  -10.118570   -2.010020
  C     -1.134840  -13.826200   -3.528170
  C      0.091950  -14.109500   -4.135540
  C      0.158840  -15.453490   -4.567200
  C     -0.985010  -16.131390   -4.286600
  S     -2.189110  -15.180940   -3.488400
  C      0.904620  -12.918530   -4.108850
  C      2.224650  -12.716110   -4.558970
  C      3.026400  -13.602980   -5.209760
  C      4.357950  -13.306110   -5.582550
  C      5.105470  -12.166020   -5.307980
  C      6.389730  -12.239350   -5.829800
  C      6.641540  -13.439220   -6.518940
  S      5.284570  -14.480750   -6.507550
  C      7.965490  -13.401170   -7.013350
  C      8.553220  -12.175180   -6.642140
  C      7.593440  -11.416370   -5.864150
  C      7.777770  -10.216540   -5.241500
  C      6.771660   -9.618370   -4.453270
  N      5.966960   -9.145720   -3.786070
  C      9.005520   -9.521700   -5.284540
  N     10.006660   -8.963200   -5.285510
  C      9.862660  -12.036200   -7.103330
  C     10.280680  -13.140400   -7.816430
  S      9.032690  -14.383340   -7.906720
  C     11.552900  -13.418070   -8.398670
  C     12.532420  -12.564320   -8.893530
  N     12.332530  -11.176290   -9.111850
  O     11.188150  -10.772770   -9.212060
  O     13.315320  -10.470030   -9.219300
  C     13.726400  -13.238630   -9.301790
  C     14.934140  -12.581790   -9.870850
  C     13.614120  -14.581290   -9.133310
  S     12.104940  -15.059600   -8.461310
  H      2.026550    2.327480    0.334730
  H     -1.546290   -0.426150    2.193200
  H     -0.704790   -1.972800    1.987650
  H     -1.802640   -1.390290    0.738560
  H      2.618830   -2.248970   -1.940820
  H      1.771040   -8.104700   -3.673410
  H      1.423570  -10.227430   -3.552530
  H     -3.069000  -12.200180   -2.160120
  H      0.996310  -15.913630   -5.057870
  H     -1.206720  -17.158370   -4.502060
  H      2.634300  -11.737900   -4.351520
  H      2.657980  -14.581720   -5.474410
  H      4.727490  -11.329690   -4.750920
  H     10.478460  -11.175210   -6.922240
  H     14.665840  -11.946330  -10.712840
  H     15.647160  -13.333300  -10.199590
  H     15.401770  -11.942350   -9.124560
  H     14.342400  -15.331380   -9.367830

 Total Charge           Charge          ....    0
 Multiplicity           Mult            ....    1
 Number of Electrons    NEL             ....  496
 Basis Dimension        Dim             .... 1018

ORBITAL ENERGIES
----------------

  NO   OCC          E(Eh)            E(eV)
   0   2.0000     -88.993649     -2421.6403
   1   2.0000     -88.991993     -2421.5952
   2   2.0000     -88.983912     -2421.3754
   3   2.0000     -88.983237     -2421.3570
   4   2.0000     -88.982642     -2421.3408
   5   2.0000     -88.978724     -2421.2342
   6   2.0000     -88.974108     -2421.1086
   7   2.0000     -88.961705     -2420.7711
   8   2.0000     -19.243607      -523.6452
   9   2.0000     -19.240531      -523.5615
  10   2.0000     -19.234776      -523.4049
  11   2.0000     -19.230582      -523.2907
  12   2.0000     -14.651586      -398.6899
  13   2.0000     -14.642440      -398.4410
  14   2.0000     -14.429471      -392.6459
  15   2.0000     -14.427985      -392.6054
  16   2.0000     -14.421694      -392.4342
  17   2.0000     -14.419325      -392.3698
  18   2.0000     -10.364605      -282.0352
  19   2.0000     -10.354888      -281.7708
  20   2.0000     -10.350816      -281.6600
  21   2.0000     -10.341736      -281.4129
  22   2.0000     -10.335606      -281.2461
  23   2.0000     -10.333916      -281.2002
  24   2.0000     -10.333849      -281.1983
  25   2.0000     -10.332568      -281.1635
  26   2.0000     -10.331675      -281.1392
  27   2.0000     -10.331491      -281.1342
  28   2.0000     -10.331003      -281.1209
  29   2.0000     -10.329764      -281.0872
  30   2.0000     -10.329570      -281.0819
  31   2.0000     -10.327506      -281.0257
  32   2.0000     -10.327128      -281.0154
  33   2.0000     -10.326376      -280.9950
  34   2.0000     -10.325159      -280.9619
  35   2.0000     -10.323186      -280.9082
  36   2.0000     -10.322066      -280.8777
  37   2.0000     -10.319371      -280.8044
  38   2.0000     -10.317798      -280.7616
  39   2.0000     -10.317323      -280.7486
  40   2.0000     -10.314856      -280.6815
  41   2.0000     -10.310465      -280.5620
  42   2.0000     -10.303719      -280.3785
  43   2.0000     -10.303669      -280.3771
  44   2.0000     -10.302992      -280.3587
  45   2.0000     -10.302157      -280.3359
  46   2.0000     -10.301797      -280.3262
  47   2.0000     -10.301151      -280.3086
  48   2.0000     -10.300906      -280.3019
  49   2.0000     -10.299877      -280.2739
  50   2.0000     -10.297868      -280.2192
  51   2.0000     -10.294720      -280.1336
  52   2.0000     -10.294027      -280.1147
  53   2.0000     -10.292308      -280.0679
  54   2.0000     -10.291632      -280.0496
  55   2.0000     -10.290423      -280.0166
  56   2.0000     -10.287083      -279.9258
  57   2.0000     -10.283523      -279.8289
  58   2.0000     -10.282680      -279.8060
  59   2.0000     -10.280264      -279.7402
  60   2.0000     -10.280140      -279.7368
  61   2.0000     -10.279872      -279.7295
  62   2.0000     -10.275115      -279.6001
  63   2.0000     -10.265627      -279.3419
  64   2.0000      -8.087488      -220.0717
  65   2.0000      -8.086503      -220.0449
  66   2.0000      -8.079612      -219.8574
  67   2.0000      -8.078146      -219.8175
  68   2.0000      -8.077899      -219.8108
  69   2.0000      -8.073282      -219.6852
  70   2.0000      -8.070135      -219.5995
  71   2.0000      -8.057118      -219.2453
  72   2.0000      -6.056867      -164.8157
  73   2.0000      -6.055837      -164.7877
  74   2.0000      -6.052484      -164.6965
  75   2.0000      -6.051578      -164.6718
  76   2.0000      -6.049873      -164.6254
  77   2.0000      -6.048814      -164.5966
  78   2.0000      -6.048771      -164.5954
  79   2.0000      -6.047802      -164.5691
  80   2.0000      -6.047164      -164.5517
  81   2.0000      -6.044560      -164.4808
  82   2.0000      -6.043195      -164.4437
  83   2.0000      -6.042995      -164.4382
  84   2.0000      -6.042498      -164.4247
  85   2.0000      -6.041949      -164.4098
  86   2.0000      -6.040261      -164.3639
  87   2.0000      -6.039914      -164.3544
  88   2.0000      -6.039444      -164.3416
  89   2.0000      -6.038425      -164.3139
  90   2.0000      -6.035702      -164.2398
  91   2.0000      -6.035037      -164.2217
  92   2.0000      -6.032386      -164.1496
  93   2.0000      -6.026523      -163.9900
  94   2.0000      -6.022291      -163.8749
  95   2.0000      -6.019216      -163.7912
  96   2.0000      -1.324208       -36.0335
  97   2.0000      -1.314409       -35.7669
  98   2.0000      -1.141671       -31.0664
  99   2.0000      -1.131478       -30.7891
 100   2.0000      -1.045469       -28.4487
 101   2.0000      -1.035040       -28.1649
 102   2.0000      -1.021718       -27.8024
 103   2.0000      -1.018676       -27.7196
 104   2.0000      -1.013515       -27.5792
 105   2.0000      -1.011626       -27.5277
 106   2.0000      -1.008170       -27.4337
 107   2.0000      -1.005876       -27.3713
 108   2.0000      -0.998497       -27.1705
 109   2.0000      -0.997622       -27.1467
 110   2.0000      -0.983994       -26.7758
 111   2.0000      -0.976173       -26.5630
 112   2.0000      -0.956884       -26.0381
 113   2.0000      -0.949386       -25.8341
 114   2.0000      -0.933144       -25.3921
 115   2.0000      -0.920102       -25.0373
 116   2.0000      -0.910746       -24.7827
 117   2.0000      -0.905888       -24.6505
 118   2.0000      -0.898765       -24.4566
 119   2.0000      -0.894721       -24.3466
 120   2.0000      -0.883647       -24.0452
 121   2.0000      -0.880102       -23.9488
 122   2.0000      -0.870872       -23.6976
 123   2.0000      -0.866691       -23.5839
 124   2.0000      -0.857826       -23.3426
 125   2.0000      -0.853414       -23.2226
 126   2.0000      -0.845061       -22.9953
 127   2.0000      -0.841937       -22.9103
 128   2.0000      -0.829895       -22.5826
 129   2.0000      -0.812613       -22.1123
 130   2.0000      -0.809153       -22.0182
 131   2.0000      -0.794871       -21.6296
 132   2.0000      -0.777763       -21.1640
 133   2.0000      -0.776987       -21.1429
 134   2.0000      -0.769054       -20.9270
 135   2.0000      -0.763380       -20.7726
 136   2.0000      -0.755098       -20.5473
 137   2.0000      -0.752177       -20.4678
 138   2.0000      -0.733814       -19.9681
 139   2.0000      -0.733053       -19.9474
 140   2.0000      -0.712034       -19.3754
 141   2.0000      -0.700759       -19.0686
 142   2.0000      -0.695889       -18.9361
 143   2.0000      -0.687792       -18.7158
 144   2.0000      -0.680599       -18.5200
 145   2.0000      -0.678083       -18.4516
 146   2.0000      -0.669178       -18.2093
 147   2.0000      -0.659935       -17.9577
 148   2.0000      -0.656403       -17.8616
 149   2.0000      -0.648166       -17.6375
 150   2.0000      -0.644807       -17.5461
 151   2.0000      -0.636166       -17.3110
 152   2.0000      -0.634383       -17.2624
 153   2.0000      -0.631074       -17.1724
 154   2.0000      -0.628851       -17.1119
 155   2.0000      -0.626206       -17.0399
 156   2.0000      -0.621493       -16.9117
 157   2.0000      -0.617365       -16.7994
 158   2.0000      -0.615581       -16.7508
 159   2.0000      -0.614507       -16.7216
 160   2.0000      -0.613347       -16.6900
 161   2.0000      -0.604263       -16.4428
 162   2.0000      -0.592035       -16.1101
 163   2.0000      -0.590174       -16.0595
 164   2.0000      -0.580433       -15.7944
 165   2.0000      -0.575163       -15.6510
 166   2.0000      -0.572498       -15.5785
 167   2.0000      -0.567690       -15.4476
 168   2.0000      -0.560584       -15.2543
 169   2.0000      -0.558343       -15.1933
 170   2.0000      -0.548695       -14.9308
 171   2.0000      -0.546594       -14.8736
 172   2.0000      -0.539633       -14.6842
 173   2.0000      -0.537332       -14.6216
 174   2.0000      -0.533611       -14.5203
 175   2.0000      -0.528738       -14.3877
 176   2.0000      -0.528180       -14.3725
 177   2.0000      -0.520282       -14.1576
 178   2.0000      -0.517966       -14.0946
 179   2.0000      -0.517487       -14.0815
 180   2.0000      -0.511521       -13.9192
 181   2.0000      -0.509354       -13.8602
 182   2.0000      -0.507975       -13.8227
 183   2.0000      -0.505586       -13.7577
 184   2.0000      -0.503039       -13.6884
 185   2.0000      -0.501312       -13.6414
 186   2.0000      -0.495521       -13.4838
 187   2.0000      -0.494200       -13.4479
 188   2.0000      -0.492381       -13.3984
 189   2.0000      -0.489734       -13.3263
 190   2.0000      -0.487772       -13.2730
 191   2.0000      -0.485682       -13.2161
 192   2.0000      -0.481969       -13.1150
 193   2.0000      -0.478768       -13.0279
 194   2.0000      -0.474668       -12.9164
 195   2.0000      -0.473284       -12.8787
 196   2.0000      -0.470018       -12.7898
 197   2.0000      -0.468520       -12.7491
 198   2.0000      -0.464306       -12.6344
 199   2.0000      -0.460520       -12.5314
 200   2.0000      -0.460499       -12.5308
 201   2.0000      -0.459520       -12.5042
 202   2.0000      -0.457739       -12.4557
 203   2.0000      -0.456475       -12.4213
 204   2.0000      -0.451525       -12.2866
 205   2.0000      -0.451071       -12.2743
 206   2.0000      -0.448151       -12.1948
 207   2.0000      -0.447751       -12.1839
 208   2.0000      -0.444465       -12.0945
 209   2.0000      -0.441521       -12.0144
 210   2.0000      -0.437921       -11.9164
 211   2.0000      -0.436900       -11.8887
 212   2.0000      -0.434273       -11.8172
 213   2.0000      -0.432893       -11.7796
 214   2.0000      -0.430028       -11.7017
 215   2.0000      -0.428872       -11.6702
 216   2.0000      -0.428593       -11.6626
 217   2.0000      -0.426894       -11.6164
 218   2.0000      -0.426059       -11.5936
 219   2.0000      -0.425510       -11.5787
 220   2.0000      -0.422249       -11.4900
 221   2.0000      -0.420342       -11.4381
 222   2.0000      -0.417430       -11.3589
 223   2.0000      -0.415600       -11.3090
 224   2.0000      -0.405487       -11.0339
 225   2.0000      -0.398083       -10.8324
 226   2.0000      -0.386565       -10.5190
 227   2.0000      -0.386183       -10.5086
 228   2.0000      -0.381683       -10.3861
 229   2.0000      -0.379263       -10.3203
 230   2.0000      -0.377345       -10.2681
 231   2.0000      -0.371755       -10.1160
 232   2.0000      -0.367623       -10.0035
 233   2.0000      -0.367006        -9.9867
 234   2.0000      -0.354885        -9.6569
 235   2.0000      -0.349603        -9.5132
 236   2.0000      -0.342358        -9.3160
 237   2.0000      -0.339051        -9.2260
 238   2.0000      -0.337350        -9.1798
 239   2.0000      -0.331910        -9.0317
 240   2.0000      -0.328557        -8.9405
 241   2.0000      -0.322223        -8.7681
 242   2.0000      -0.314383        -8.5548
 243   2.0000      -0.309738        -8.4284
 244   2.0000      -0.288508        -7.8507
 245   2.0000      -0.273975        -7.4552
 246   2.0000      -0.254972        -6.9381
 247   2.0000      -0.219254        -5.9662
 248   0.0000      -0.106203        -2.8899
 249   0.0000      -0.095301        -2.5933
 250   0.0000      -0.067037        -1.8242
 251   0.0000      -0.052548        -1.4299
 252   0.0000      -0.048531        -1.3206

MULLIKEN ATOMIC CHARGES
-----------------------
   0 C :   -0.077850
   1 C :    0.110473
   2 N :    0.261891
   3 O :   -0.242922
   4 O :   -0.238184
   5 C :   -0.105138
   6 C :    0.115261
   7 C :   -0.133011
   8 S :    0.172590
   9 C :   -0.057595
  10 C :   -0.068277
  11 C :    0.024685
  12 C :   -0.095302
  13 S :    0.156284
  14 C :   -0.098348
  15 C :    0.008002
  16 C :    0.301878
  17 C :   -0.285023
  18 C :   -0.187475
  19 N :    0.171139
  20 C :   -0.173143
  21 N :    0.168917
  22 C :   -0.040399
  23 C :   -0.065593
  24 S :    0.185275
  25 C :   -0.034784
  26 C :   -0.063715
  27 C :    0.054576
  28 C :    0.073281
  29 C :   -0.128124
  30 S :    0.125432
  31 C :   -0.117074
  32 C :    0.053151
  33 C :   -0.006430
  34 C :   -0.066613
  35 S :    0.131364
  36 C :    0.104313
  37 C :   -0.018636
  38 C :    0.036941
  39 C :   -0.070232
  40 C :   -0.048574
  41 C :    0.015569
  42 C :   -0.110525
  43 S :    0.176804
  44 C :   -0.091306
  45 C :   -0.031776
  46 C :    0.306973
  47 C :   -0.293933
  48 C :   -0.172820
  49 N :    0.158431
  50 C :   -0.191321
  51 N :    0.176574
  52 C :    0.038101
  53 C :   -0.106524
  54 S :    0.177561
  55 C :   -0.134829
  56 C :    0.149756
  57 N :    0.248760
  58 O :   -0.242559
  59 O :   -0.241719
  60 C :   -0.085239
  61 C :    0.157273
  62 C :   -0.133612
  63 S :    0.147683
  64 H :    0.046528
  65 H :    0.045610
  66 H :    0.031767
  67 H :    0.033804
  68 H :    0.015946
  69 H :    0.013896
  70 H :   -0.015270
  71 H :    0.036436
  72 H :   -0.013904
  73 H :    0.026250
  74 H :   -0.034736
  75 H :   -0.048682
  76 H :    0.006534
  77 H :    0.009280
  78 H :    0.029838
  79 H :    0.000209
  80 H :    0.041655
  81 H :    0.024499
Sum of atomic charges:   -0.0000000

LOEWDIN ATOMIC CHARGES
----------------------
   0 C :   -0.149341
   1 C :   -0.077740
   2 N :    0.288030
   3 O :   -0.206013
   4 O :   -0.199883
   5 C :   -0.047787
   6 C :   -0.066016
   7 C :   -0.186350
   8 S :    0.494443
   9 C :   -0.179523
  10 C :   -0.039884
  11 C :   -0.067131
  12 C :   -0.186385
  13 S :    0.496328
  14 C :   -0.184554
  15 C :   -0.065820
  16 C :    0.080463
  17 C :   -0.095083
  18 C :   -0.015454
  19 N :   -0.030827
  20 C :   -0.014522
  21 N :   -0.025571
  22 C :   -0.024685
  23 C :   -0.183785
  24 S :    0.464419
  25 C :   -0.183900
  26 C :   -0.015938
  27 C :   -0.017230
  28 C :   -0.047519
  29 C :   -0.140348
  30 S :    0.436955
  31 C :   -0.201208
  32 C :   -0.036104
  33 C :   -0.065825
  34 C :   -0.164760
  35 S :    0.426645
  36 C :   -0.049299
  37 C :   -0.003571
  38 C :   -0.063955
  39 C :   -0.151349
  40 C :   -0.037184
  41 C :   -0.056735
  42 C :   -0.201721
  43 S :    0.463984
  44 C :   -0.167427
  45 C :   -0.078894
  46 C :    0.082456
  47 C :   -0.099807
  48 C :   -0.011235
  49 N :   -0.038460
  50 C :   -0.018014
  51 N :   -0.028538
  52 C :    0.000698
  53 C :   -0.201525
  54 S :    0.465902
  55 C :   -0.160024
  56 C :   -0.081567
  57 N :    0.285169
  58 O :   -0.204717
  59 O :   -0.197464
  60 C :   -0.041120
  61 C :   -0.043931
  62 C :   -0.196832
  63 S :    0.456684
  64 H :    0.039773
  65 H :    0.038273
  66 H :    0.030122
  67 H :    0.034122
  68 H :    0.034217
  69 H :    0.040582
  70 H :    0.039022
  71 H :    0.036923
  72 H :    0.028410
  73 H :    0.024004
  74 H :    0.028787
  75 H :    0.023266
  76 H :    0.036750
  77 H :    0.039674
  78 H :    0.038874
  79 H :    0.028111
  80 H :    0.043564
  81 H :    0.025905

  Mayer bond orders larger than 0.100000
B(  0-C ,  1-C ) :   1.5276 B(  0-C ,  8-S ) :   1.2033 B(  0-C , 64-H ) :   0.9544
B(  1-C ,  2-N ) :   0.9169 B(  1-C ,  5-C ) :   1.2463 B(  2-N ,  3-O ) :   1.5514
B(  2-N ,  4-O ) :   1.5240 B(  3-O ,  4-O ) :   0.2642 B(  5-C ,  6-C ) :   1.1205
B(  5-C ,  7-C ) :   1.5301 B(  6-C , 65-H ) :   0.9164 B(  6-C , 66-H ) :   0.9304
B(  6-C , 67-H ) :   0.9284 B(  7-C ,  8-S ) :   1.1346 B(  7-C ,  9-C ) :   1.1485
B(  9-C , 10-C ) :   1.4618 B(  9-C , 13-S ) :   1.1028 B( 10-C , 11-C ) :   1.3020
B( 10-C , 68-H ) :   0.9857 B( 11-C , 12-C ) :   1.4411 B( 11-C , 16-C ) :   0.9958
B( 12-C , 13-S ) :   1.1149 B( 12-C , 14-C ) :   1.1862 B( 14-C , 15-C ) :   1.4403
B( 14-C , 24-S ) :   1.1152 B( 15-C , 16-C ) :   0.9988 B( 15-C , 22-C ) :   1.2998
B( 16-C , 17-C ) :   1.7138 B( 17-C , 18-C ) :   1.1344 B( 17-C , 20-C ) :   1.1318
B( 18-C , 19-N ) :   2.9886 B( 20-C , 21-N ) :   2.9638 B( 22-C , 23-C ) :   1.4815
B( 22-C , 69-H ) :   0.9850 B( 23-C , 24-S ) :   1.1016 B( 23-C , 25-C ) :   1.1071
B( 25-C , 26-C ) :   1.5607 B( 25-C , 30-S ) :   1.0413 B( 26-C , 27-C ) :   1.2383
B( 26-C , 70-H ) :   0.9665 B( 27-C , 28-C ) :   1.0482 B( 27-C , 36-C ) :   1.3657
B( 28-C , 29-C ) :   1.6141 B( 28-C , 31-C ) :   1.1746 B( 29-C , 30-S ) :   1.1335
B( 29-C , 71-H ) :   0.9398 B( 31-C , 32-C ) :   1.4539 B( 31-C , 35-S ) :   1.0795
B( 32-C , 33-C ) :   1.2169 B( 32-C , 36-C ) :   1.0680 B( 33-C , 34-C ) :   1.5850
B( 33-C , 72-H ) :   1.0003 B( 34-C , 35-S ) :   1.1588 B( 34-C , 73-H ) :   0.9644
B( 36-C , 37-C ) :   1.1955 B( 37-C , 38-C ) :   1.6227 B( 37-C , 74-H ) :   0.9550
B( 38-C , 39-C ) :   1.1311 B( 38-C , 75-H ) :   0.9683 B( 39-C , 40-C ) :   1.4327
B( 39-C , 43-S ) :   1.1120 B( 40-C , 41-C ) :   1.3150 B( 40-C , 76-H ) :   0.9852
B( 41-C , 42-C ) :   1.4350 B( 41-C , 46-C ) :   0.9947 B( 42-C , 43-S ) :   1.0994
B( 42-C , 44-C ) :   1.2042 B( 44-C , 45-C ) :   1.4186 B( 44-C , 54-S ) :   1.1366
B( 45-C , 46-C ) :   0.9971 B( 45-C , 52-C ) :   1.3232 B( 46-C , 47-C ) :   1.7105
B( 47-C , 48-C ) :   1.1351 B( 47-C , 50-C ) :   1.1326 B( 48-C , 49-N ) :   2.9667
B( 50-C , 51-N ) :   2.9961 B( 52-C , 53-C ) :   1.4957 B( 52-C , 77-H ) :   0.9793
B( 53-C , 54-S ) :   1.0837 B( 53-C , 55-C ) :   1.0919 B( 55-C , 56-C ) :   1.4839
B( 55-C , 63-S ) :   1.1991 B( 56-C , 57-N ) :   0.9366 B( 56-C , 60-C ) :   1.2411
B( 57-N , 58-O ) :   1.5193 B( 57-N , 59-O ) :   1.5110 B( 58-O , 59-O ) :   0.2601
B( 60-C , 61-C ) :   1.1014 B( 60-C , 62-C ) :   1.6113 B( 61-C , 78-H ) :   0.9375
B( 61-C , 79-H ) :   0.9404 B( 61-C , 80-H ) :   0.9382 B( 62-C , 63-S ) :   1.1102
B( 62-C , 81-H ) :   0.9655

-----------------------------------------------------------------------------
         ABSORPTION SPECTRUM VIA TRANSITION ELECTRIC DIPOLE MOMENTS
-----------------------------------------------------------------------------
State   Energy  Wavelength   fosc         T2         TX        TY        TZ
        (cm-1)    (nm)                  (au**2)     (au)      (au)      (au)
-----------------------------------------------------------------------------
   0    9749.7   1025.7   0.276351091   9.33137   1.84981  -2.04172  -1.31945
   1   10795.7    926.3   0.093325233   2.84593   1.27877   1.09204  -0.13458
   2   16376.7    610.6   0.048804411   0.98109  -0.92332   0.15425   0.32368
   3   17879.2    559.3   0.809342457  14.90257  -2.37702   2.53656   1.67875
   4   19884.1    502.9   0.055971161   0.92669   0.75844  -0.40879  -0.42936
   5   21316.4    469.1   0.305556097   4.71903   1.80971  -0.67337  -0.99526
   6   22702.1    440.5   0.455050600   6.59886  -1.73762  -1.86017   0.34540
   7   24068.4    415.5   0.031451349   0.43020  -0.55089  -0.33285   0.12623
   8   25297.0    395.3   0.113797029   1.48094  -0.90267  -0.81571   0.02743
   9   26777.1    373.5   0.080906676   0.99471   0.62957   0.77025  -0.07116
  10   26832.7    372.7   0.150468806   1.84611  -0.89218  -1.02462   0.01652
  11   27253.9    366.9   0.204266203   2.46743  -0.89925  -1.27174  -0.20362
  12   28783.9    347.4   0.472445363   5.40354   1.66243   1.61159   0.20648
  13   29697.5    336.7   0.028701880   0.31818   0.35451  -0.42034  -0.12573
  14   30135.0    331.8   0.395030375   4.31553  -0.91113   1.46667   1.15510
  15   30460.2    328.3   0.061765863   0.66756   0.53259   0.60315   0.14184
  16   31064.4    321.9   0.463125287   4.90807   1.37339  -0.88369  -1.49698
  17   31258.3    319.9   0.374509201   3.94432   1.50210  -0.71145  -1.08713
  18   31683.7    315.6   0.235307398   2.44498   1.15287   0.17281  -1.04212
  19   31879.3    313.7   0.573145168   5.91876   1.46259   1.94381  -0.03423
  20   32468.6    308.0   0.084886602   0.86070   0.32831  -0.70565  -0.50495
  21   32780.1    305.1   0.343800631   3.45281   0.14475  -1.72857  -0.66626
  22   33160.6    301.6   0.232157144   2.30481  -1.41561   0.00345   0.54850
  23   33264.4    300.6   0.047955268   0.47460  -0.26121   0.52969   0.35468
  24   33465.6    298.8   0.160932752   1.58315   0.46405  -0.90749  -0.73775
  25   34022.3    293.9   0.047736640   0.46192  -0.00247   0.63331   0.24665
  26   34471.6    290.1   0.362011377   3.45730   0.21439   1.74739   0.59829
  27   35026.8    285.5   0.064564590   0.60683  -0.03788   0.70440   0.33048
  28   35223.2    283.9   0.023013889   0.21510   0.25931   0.29356  -0.24835
  29   35989.9    277.9   0.059612412   0.54530   0.33359  -0.55723  -0.35145
  30   36125.4    276.8   0.036815983   0.33550   0.27002  -0.43768  -0.26651
  31   36329.9    275.3   0.010371348   0.09398   0.25773  -0.01090  -0.16564
  32   36463.5    274.2   0.017433882   0.15740   0.35774   0.16374   0.05112
  33   36631.6    273.0   0.034299877   0.30826   0.13791  -0.31966  -0.43250
  34   37165.6    269.1   0.085466754   0.75706   0.64258   0.48027  -0.33689
  35   37432.7    267.1   0.069570754   0.61186   0.14298  -0.72822  -0.24720
  36   37546.6    266.3   0.032299538   0.28321  -0.28521  -0.44889   0.01894
  37   37805.8    264.5   0.063048439   0.54902   0.32000  -0.63914  -0.19526
  38   38255.0    261.4   0.029875182   0.25710  -0.14774   0.46841   0.12593
  39   38550.0    259.4   0.063638427   0.54346  -0.19653  -0.70271  -0.10507
  40   39032.7    256.2   0.038521217   0.32490  -0.41009  -0.39501   0.02638
  41   39175.8    255.3   0.129538798   1.08857   0.22557   1.01401   0.09731
  42   39896.4    250.6   0.021906337   0.18076  -0.11543  -0.40672  -0.04496
  43   40208.3    248.7   0.022508417   0.18429  -0.34559   0.06009   0.24748
  44   40260.1    248.4   0.059667650   0.48791  -0.19182   0.66637   0.08403

FINAL SINGLE POINT ENERGY     -5574.352416695030

DIPOLE MOMENT
-------------
                                X             Y             Z
Electronic contribution:    -11.47220       3.94682       4.28452
Nuclear contribution   :      9.45750      -7.85161      -4.19606
                        -----------------------------------------
Total Dipole Moment    :     -2.01469      -3.90479       0.08846
                        -----------------------------------------
Magnitude (a.u.)       :      4.39479
Magnitude (Debye)      :     11.17068

Rotational constants in cm-1:     0.001085     0.000361     0.000274
Rotational constants in MHz :    32.538706    10.831695     8.208266

                             ****ORCA TERMINATED NORMALLY****
TOTAL RUN TIME: 0 days 0 hours 7 minutes 15 seconds 517 msec
