                         Program Version 4.2.0 -  RELEASE  -
|  1> # ORCA input file
|  2> # SCF done       -210.067405544862          0.000692691496
|  3> ! CAM-B3LYP def2-SVP def2/J RIJCOSX Grid4 TightSCF
|  4> %maxcore 5000
|  5> %tddft
|  6>     Mode sTDDFT
|  7>     Ethresh 5.0
|  8>     maxcore 5000
|  9> end
| 10>
| 11> %pal
| 12>   nprocs 6
| 13>   end
| 14> * xyz 0 1
| 15>    C       -3.97197         1.86480        -6.16488
| 16>    C       -3.93829         2.99939        -6.93451
| 17>    C       -3.42761         3.03851        -8.24892
| 18>    N       -3.03740         3.12072        -9.32485
| 19>    C       -4.49421         4.23111        -6.54097
| 20>    N       -4.95672         5.24518        -6.26363
| 21>    C       -3.61263         0.52991        -6.63381
| 22>    C       -4.24175        -0.43208        -5.79050
| 23>    C       -4.11150        -1.77283        -6.01132
| 24>    C       -3.31840        -2.21873        -7.09282
| 25>    C       -2.66582        -1.26177        -7.92298
| 26>    C       -2.82852         0.12154        -7.67811
| 27>    C       -1.86390        -1.72084        -8.98729
| 28>    C       -1.71619        -3.06024        -9.22544
| 29>    C       -2.36245        -4.00158        -8.41055
| 30>    C       -3.14667        -3.58979        -7.36730
| 31>    C       -4.96457         0.26618        -4.71431
| 32>    O       -5.65769        -0.20877        -3.84363
| 33>    C       -4.61049         1.70742        -4.87568
| 34>    C       -4.83805         2.55102        -3.83056
| 35>    C       -4.26761         3.81445        -3.56882
| 36>    C       -3.12759         4.39079        -4.11109
| 37>    C       -2.86108         5.64091        -3.57048
| 38>    C       -3.79843         6.02898        -2.59070
| 39>    S       -4.99327         4.84464        -2.33693
| 40>    C       -3.43945         7.31357        -2.11433
| 41>    C       -2.28488         7.73972        -2.79579
| 42>    C       -1.88115         6.70087        -3.73030
| 43>    C       -0.81483         6.70909        -4.58002
| 44>    C        0.11616         7.76948        -4.61877
| 45>    N        0.89672         8.60865        -4.62706
| 46>    C       -0.56200         5.62598        -5.44871
| 47>    N       -0.36393         4.73495        -6.14280
| 48>    C       -1.84825         9.00003        -2.39407
| 49>    C       -2.65781         9.53827        -1.40851
| 50>    S       -3.97327         8.46403        -0.96904
| 51>    C       -2.45734        10.76412        -0.71637
| 52>    S       -2.81958        10.86623         0.96878
| 53>    C       -2.07485        12.41589         1.11923
| 54>    C       -1.50626        12.82283        -0.09578
| 55>    C       -1.81623        11.92371        -1.16968
| 56>    C       -1.47607        12.27976        -2.50129
| 57>    C       -2.05901        11.66104        -3.70954
| 58>    O       -1.52268        11.61595        -4.78640
| 59>    O       -3.32127        11.22749        -3.52626
| 60>    C       -0.65740        13.37113        -2.69846
| 61>    C       -0.17483        14.12671        -1.63114
| 62>    C       -0.58653        13.88460        -0.33801
| 63>    O       -0.03686        14.62761         0.63880
| 64>    C       -2.17760        13.07765         2.39204
| 65>    C       -2.39635        14.44146         2.57124
| 66>    F       -2.53528        15.23416         1.49220
| 67>    C       -2.50264        15.05353         3.83098
| 68>    F       -2.58711        16.38853         3.84139
| 69>    C       -2.43417        14.34964         5.02633
| 70>    C       -2.23912        12.95828         4.87448
| 71>    C       -2.13942        12.33738         3.59701
| 72>    N       -1.96918        11.02459         3.80206
| 73>    N       -1.97927        10.89790         5.09961
| 74>    N       -2.13397        11.99018         5.79407
| 75>    C       -1.84514         9.62296         5.73244
| 76>    C       -2.45376        14.94528         6.33523
| 77>    C       -3.23363        15.98283         6.72025
| 78>    C       -3.14584        16.73167         7.96477
| 79>    C       -2.17099        16.61021         8.91878
| 80>    C       -2.11465        17.38507        10.09720
| 81>    N       -2.01178        17.97501        11.07642
| 82>    C       -1.08637        15.70923         8.86685
| 83>    N       -0.17257        15.01428         8.89191
| 84>    C       -4.24177        17.69064         7.98158
| 85>    C       -5.01341        17.53157         6.79428
| 86>    C       -4.44607        16.44746         5.97782
| 87>    O       -4.91910        15.95634         4.97864
| 88>    C       -6.10549        18.30860         6.53416
| 89>    C       -6.47735        19.30750         7.46126
| 90>    C       -5.71304        19.47131         8.65304
| 91>    C       -4.59292        18.64622         8.89969
| 92>    C       -6.09426        20.46966         9.57296
| 93>    C       -7.17638        21.27021         9.32804
| 94>    C       -7.92730        21.10909         8.15378
| 95>    C       -7.58531        20.14902         7.24034
| 96>    H       -4.60399        -2.48603        -5.36713
| 97>    H       -2.31491         0.82562        -8.31402
| 98>    H       -1.37117        -0.99207        -9.61384
| 99>    H       -1.10045        -3.40191       -10.04389
|100>    H       -2.23511        -5.05458        -8.61268
|101>    H       -3.64595        -4.31014        -6.73581
|102>    H       -5.49420         2.15395        -3.06164
|103>    H       -2.50370         3.89177        -4.82958
|104>    H       -0.97116         9.49638        -2.76832
|105>    H       -3.67960        10.91302        -4.37153
|106>    H       -0.38587        13.63399        -3.70898
|107>    H        0.52052        14.93255        -1.79867
|108>    H       -0.34923        14.36084         1.51102
|109>    H       -2.79303         9.08333         5.69170
|110>    H       -1.56352         9.78568         6.77014
|111>    H       -1.08633         9.04170         5.21150
|112>    H       -1.78416        14.47482         7.04340
|113>    H       -6.67288        18.16842         5.62616
|114>    H       -4.03812        18.79209         9.81288
|115>    H       -5.51180        20.59065        10.47451
|116>    H       -7.45950        22.03312        10.03759
|117>    H       -8.77828        21.74965         7.97688
|118>    H       -8.15975        20.02072         6.33467
|119> *
|120>
|121>                          ****END OF INPUT****

CARTESIAN COORDINATES (ANGSTROEM)
---------------------------------
  C     -3.971970    1.864800   -6.164880
  C     -3.938290    2.999390   -6.934510
  C     -3.427610    3.038510   -8.248920
  N     -3.037400    3.120720   -9.324850
  C     -4.494210    4.231110   -6.540970
  N     -4.956720    5.245180   -6.263630
  C     -3.612630    0.529910   -6.633810
  C     -4.241750   -0.432080   -5.790500
  C     -4.111500   -1.772830   -6.011320
  C     -3.318400   -2.218730   -7.092820
  C     -2.665820   -1.261770   -7.922980
  C     -2.828520    0.121540   -7.678110
  C     -1.863900   -1.720840   -8.987290
  C     -1.716190   -3.060240   -9.225440
  C     -2.362450   -4.001580   -8.410550
  C     -3.146670   -3.589790   -7.367300
  C     -4.964570    0.266180   -4.714310
  O     -5.657690   -0.208770   -3.843630
  C     -4.610490    1.707420   -4.875680
  C     -4.838050    2.551020   -3.830560
  C     -4.267610    3.814450   -3.568820
  C     -3.127590    4.390790   -4.111090
  C     -2.861080    5.640910   -3.570480
  C     -3.798430    6.028980   -2.590700
  S     -4.993270    4.844640   -2.336930
  C     -3.439450    7.313570   -2.114330
  C     -2.284880    7.739720   -2.795790
  C     -1.881150    6.700870   -3.730300
  C     -0.814830    6.709090   -4.580020
  C      0.116160    7.769480   -4.618770
  N      0.896720    8.608650   -4.627060
  C     -0.562000    5.625980   -5.448710
  N     -0.363930    4.734950   -6.142800
  C     -1.848250    9.000030   -2.394070
  C     -2.657810    9.538270   -1.408510
  S     -3.973270    8.464030   -0.969040
  C     -2.457340   10.764120   -0.716370
  S     -2.819580   10.866230    0.968780
  C     -2.074850   12.415890    1.119230
  C     -1.506260   12.822830   -0.095780
  C     -1.816230   11.923710   -1.169680
  C     -1.476070   12.279760   -2.501290
  C     -2.059010   11.661040   -3.709540
  O     -1.522680   11.615950   -4.786400
  O     -3.321270   11.227490   -3.526260
  C     -0.657400   13.371130   -2.698460
  C     -0.174830   14.126710   -1.631140
  C     -0.586530   13.884600   -0.338010
  O     -0.036860   14.627610    0.638800
  C     -2.177600   13.077650    2.392040
  C     -2.396350   14.441460    2.571240
  F     -2.535280   15.234160    1.492200
  C     -2.502640   15.053530    3.830980
  F     -2.587110   16.388530    3.841390
  C     -2.434170   14.349640    5.026330
  C     -2.239120   12.958280    4.874480
  C     -2.139420   12.337380    3.597010
  N     -1.969180   11.024590    3.802060
  N     -1.979270   10.897900    5.099610
  N     -2.133970   11.990180    5.794070
  C     -1.845140    9.622960    5.732440
  C     -2.453760   14.945280    6.335230
  C     -3.233630   15.982830    6.720250
  C     -3.145840   16.731670    7.964770
  C     -2.170990   16.610210    8.918780
  C     -2.114650   17.385070   10.097200
  N     -2.011780   17.975010   11.076420
  C     -1.086370   15.709230    8.866850
  N     -0.172570   15.014280    8.891910
  C     -4.241770   17.690640    7.981580
  C     -5.013410   17.531570    6.794280
  C     -4.446070   16.447460    5.977820
  O     -4.919100   15.956340    4.978640
  C     -6.105490   18.308600    6.534160
  C     -6.477350   19.307500    7.461260
  C     -5.713040   19.471310    8.653040
  C     -4.592920   18.646220    8.899690
  C     -6.094260   20.469660    9.572960
  C     -7.176380   21.270210    9.328040
  C     -7.927300   21.109090    8.153780
  C     -7.585310   20.149020    7.240340
  H     -4.603990   -2.486030   -5.367130
  H     -2.314910    0.825620   -8.314020
  H     -1.371170   -0.992070   -9.613840
  H     -1.100450   -3.401910  -10.043890
  H     -2.235110   -5.054580   -8.612680
  H     -3.645950   -4.310140   -6.735810
  H     -5.494200    2.153950   -3.061640
  H     -2.503700    3.891770   -4.829580
  H     -0.971160    9.496380   -2.768320
  H     -3.679600   10.913020   -4.371530
  H     -0.385870   13.633990   -3.708980
  H      0.520520   14.932550   -1.798670
  H     -0.349230   14.360840    1.511020
  H     -2.793030    9.083330    5.691700
  H     -1.563520    9.785680    6.770140
  H     -1.086330    9.041700    5.211500
  H     -1.784160   14.474820    7.043400
  H     -6.672880   18.168420    5.626160
  H     -4.038120   18.792090    9.812880
  H     -5.511800   20.590650   10.474510
  H     -7.459500   22.033120   10.037590
  H     -8.778280   21.749650    7.976880
  H     -8.159750   20.020720    6.334670

 Total Charge           Charge          ....    0
 Multiplicity           Mult            ....    1
 Number of Electrons    NEL             ....  564
 Basis Dimension        Dim             .... 1261

ORBITAL ENERGIES
----------------

  NO   OCC          E(Eh)            E(eV)
   0   2.0000     -88.993637     -2421.6400
   1   2.0000     -88.993002     -2421.6227
   2   2.0000     -88.985416     -2421.4163
   3   2.0000     -24.809557      -675.1024
   4   2.0000     -24.808502      -675.0737
   5   2.0000     -19.259610      -524.0806
   6   2.0000     -19.255412      -523.9664
   7   2.0000     -19.222260      -523.0643
   8   2.0000     -19.211080      -522.7601
   9   2.0000     -19.196203      -522.3552
  10   2.0000     -14.563481      -396.2925
  11   2.0000     -14.465348      -393.6221
  12   2.0000     -14.464027      -393.5862
  13   2.0000     -14.430633      -392.6775
  14   2.0000     -14.426775      -392.5725
  15   2.0000     -14.422503      -392.4563
  16   2.0000     -14.421352      -392.4250
  17   2.0000     -14.414454      -392.2372
  18   2.0000     -14.409075      -392.0909
  19   2.0000     -10.398043      -282.9451
  20   2.0000     -10.396789      -282.9110
  21   2.0000     -10.393120      -282.8112
  22   2.0000     -10.372796      -282.2581
  23   2.0000     -10.365313      -282.0545
  24   2.0000     -10.362649      -281.9820
  25   2.0000     -10.354701      -281.7657
  26   2.0000     -10.351621      -281.6819
  27   2.0000     -10.350264      -281.6450
  28   2.0000     -10.347124      -281.5596
  29   2.0000     -10.342062      -281.4218
  30   2.0000     -10.339331      -281.3475
  31   2.0000     -10.338447      -281.3234
  32   2.0000     -10.337338      -281.2933
  33   2.0000     -10.336836      -281.2796
  34   2.0000     -10.332962      -281.1742
  35   2.0000     -10.332556      -281.1631
  36   2.0000     -10.331234      -281.1272
  37   2.0000     -10.331120      -281.1241
  38   2.0000     -10.330723      -281.1133
  39   2.0000     -10.330372      -281.1037
  40   2.0000     -10.326898      -281.0092
  41   2.0000     -10.326008      -280.9850
  42   2.0000     -10.325443      -280.9696
  43   2.0000     -10.324642      -280.9478
  44   2.0000     -10.324625      -280.9473
  45   2.0000     -10.323659      -280.9210
  46   2.0000     -10.322062      -280.8776
  47   2.0000     -10.321920      -280.8737
  48   2.0000     -10.315710      -280.7047
  49   2.0000     -10.311674      -280.5949
  50   2.0000     -10.310328      -280.5583
  51   2.0000     -10.309991      -280.5491
  52   2.0000     -10.308607      -280.5115
  53   2.0000     -10.308452      -280.5072
  54   2.0000     -10.305155      -280.4175
  55   2.0000     -10.304706      -280.4053
  56   2.0000     -10.303284      -280.3666
  57   2.0000     -10.302783      -280.3530
  58   2.0000     -10.302561      -280.3469
  59   2.0000     -10.302158      -280.3360
  60   2.0000     -10.301746      -280.3248
  61   2.0000     -10.300986      -280.3041
  62   2.0000     -10.299428      -280.2617
  63   2.0000     -10.296267      -280.1757
  64   2.0000     -10.294190      -280.1191
  65   2.0000     -10.293998      -280.1139
  66   2.0000     -10.293997      -280.1139
  67   2.0000     -10.293717      -280.1063
  68   2.0000     -10.292638      -280.0769
  69   2.0000     -10.291168      -280.0369
  70   2.0000     -10.290542      -280.0199
  71   2.0000     -10.290344      -280.0145
  72   2.0000     -10.289885      -280.0020
  73   2.0000     -10.286993      -279.9233
  74   2.0000     -10.285952      -279.8950
  75   2.0000     -10.283291      -279.8226
  76   2.0000     -10.282802      -279.8093
  77   2.0000     -10.282799      -279.8092
  78   2.0000     -10.282342      -279.7968
  79   2.0000     -10.281669      -279.7784
  80   2.0000     -10.270282      -279.4686
  81   2.0000      -8.088347      -220.0951
  82   2.0000      -8.087729      -220.0783
  83   2.0000      -8.080357      -219.8777
  84   2.0000      -6.057529      -164.8337
  85   2.0000      -6.056983      -164.8189
  86   2.0000      -6.053365      -164.7204
  87   2.0000      -6.052812      -164.7054
  88   2.0000      -6.050811      -164.6509
  89   2.0000      -6.050061      -164.6305
  90   2.0000      -6.049349      -164.6112
  91   2.0000      -6.045116      -164.4960
  92   2.0000      -6.043133      -164.4420
  93   2.0000      -1.333127       -36.2762
  94   2.0000      -1.315250       -35.7898
  95   2.0000      -1.242357       -33.8062
  96   2.0000      -1.182731       -32.1837
  97   2.0000      -1.158903       -31.5354
  98   2.0000      -1.137482       -30.9525
  99   2.0000      -1.126438       -30.6519
 100   2.0000      -1.086106       -29.5544
 101   2.0000      -1.047909       -28.5150
 102   2.0000      -1.025102       -27.8944
 103   2.0000      -1.024528       -27.8788
 104   2.0000      -1.020845       -27.7786
 105   2.0000      -1.015725       -27.6393
 106   2.0000      -1.014269       -27.5997
 107   2.0000      -1.007964       -27.4281
 108   2.0000      -1.005684       -27.3661
 109   2.0000      -1.003928       -27.3183
 110   2.0000      -0.999955       -27.2102
 111   2.0000      -0.995995       -27.1024
 112   2.0000      -0.995365       -27.0852
 113   2.0000      -0.988770       -26.9058
 114   2.0000      -0.976781       -26.5796
 115   2.0000      -0.968636       -26.3579
 116   2.0000      -0.960114       -26.1260
 117   2.0000      -0.949382       -25.8340
 118   2.0000      -0.943340       -25.6696
 119   2.0000      -0.931784       -25.3551
 120   2.0000      -0.925846       -25.1935
 121   2.0000      -0.921183       -25.0667
 122   2.0000      -0.914609       -24.8878
 123   2.0000      -0.899856       -24.4863
 124   2.0000      -0.893981       -24.3264
 125   2.0000      -0.886148       -24.1133
 126   2.0000      -0.881091       -23.9757
 127   2.0000      -0.878029       -23.8924
 128   2.0000      -0.874804       -23.8046
 129   2.0000      -0.861645       -23.4466
 130   2.0000      -0.860475       -23.4147
 131   2.0000      -0.857066       -23.3220
 132   2.0000      -0.846784       -23.0422
 133   2.0000      -0.837742       -22.7961
 134   2.0000      -0.833356       -22.6768
 135   2.0000      -0.827307       -22.5122
 136   2.0000      -0.824846       -22.4452
 137   2.0000      -0.811052       -22.0699
 138   2.0000      -0.799032       -21.7428
 139   2.0000      -0.779439       -21.2096
 140   2.0000      -0.775306       -21.0971
 141   2.0000      -0.767547       -20.8860
 142   2.0000      -0.760286       -20.6884
 143   2.0000      -0.758062       -20.6279
 144   2.0000      -0.753068       -20.4920
 145   2.0000      -0.751490       -20.4491
 146   2.0000      -0.732433       -19.9305
 147   2.0000      -0.723699       -19.6929
 148   2.0000      -0.713716       -19.4212
 149   2.0000      -0.710695       -19.3390
 150   2.0000      -0.708929       -19.2909
 151   2.0000      -0.703254       -19.1365
 152   2.0000      -0.701939       -19.1007
 153   2.0000      -0.698155       -18.9978
 154   2.0000      -0.694626       -18.9017
 155   2.0000      -0.688067       -18.7233
 156   2.0000      -0.684478       -18.6256
 157   2.0000      -0.682516       -18.5722
 158   2.0000      -0.675089       -18.3701
 159   2.0000      -0.672214       -18.2919
 160   2.0000      -0.670169       -18.2362
 161   2.0000      -0.666203       -18.1283
 162   2.0000      -0.655601       -17.8398
 163   2.0000      -0.645354       -17.5610
 164   2.0000      -0.640972       -17.4417
 165   2.0000      -0.637814       -17.3558
 166   2.0000      -0.634055       -17.2535
 167   2.0000      -0.628444       -17.1008
 168   2.0000      -0.626699       -17.0533
 169   2.0000      -0.623556       -16.9678
 170   2.0000      -0.620367       -16.8810
 171   2.0000      -0.617197       -16.7948
 172   2.0000      -0.611771       -16.6471
 173   2.0000      -0.605351       -16.4724
 174   2.0000      -0.604042       -16.4368
 175   2.0000      -0.600849       -16.3499
 176   2.0000      -0.600643       -16.3443
 177   2.0000      -0.595073       -16.1928
 178   2.0000      -0.592780       -16.1304
 179   2.0000      -0.587299       -15.9812
 180   2.0000      -0.576505       -15.6875
 181   2.0000      -0.574597       -15.6356
 182   2.0000      -0.564774       -15.3683
 183   2.0000      -0.562215       -15.2986
 184   2.0000      -0.559288       -15.2190
 185   2.0000      -0.554324       -15.0839
 186   2.0000      -0.553488       -15.0612
 187   2.0000      -0.551990       -15.0204
 188   2.0000      -0.551015       -14.9939
 189   2.0000      -0.548189       -14.9170
 190   2.0000      -0.546076       -14.8595
 191   2.0000      -0.543280       -14.7834
 192   2.0000      -0.541102       -14.7241
 193   2.0000      -0.540020       -14.6947
 194   2.0000      -0.538879       -14.6636
 195   2.0000      -0.535423       -14.5696
 196   2.0000      -0.532566       -14.4919
 197   2.0000      -0.529557       -14.4100
 198   2.0000      -0.526252       -14.3200
 199   2.0000      -0.524827       -14.2813
 200   2.0000      -0.522884       -14.2284
 201   2.0000      -0.520782       -14.1712
 202   2.0000      -0.519870       -14.1464
 203   2.0000      -0.518355       -14.1052
 204   2.0000      -0.517889       -14.0925
 205   2.0000      -0.514741       -14.0068
 206   2.0000      -0.512046       -13.9335
 207   2.0000      -0.508788       -13.8448
 208   2.0000      -0.506486       -13.7822
 209   2.0000      -0.506157       -13.7732
 210   2.0000      -0.504451       -13.7268
 211   2.0000      -0.502178       -13.6649
 212   2.0000      -0.501678       -13.6513
 213   2.0000      -0.500919       -13.6307
 214   2.0000      -0.498807       -13.5732
 215   2.0000      -0.494886       -13.4665
 216   2.0000      -0.492456       -13.4004
 217   2.0000      -0.489578       -13.3221
 218   2.0000      -0.488678       -13.2976
 219   2.0000      -0.482327       -13.1248
 220   2.0000      -0.481249       -13.0954
 221   2.0000      -0.480190       -13.0666
 222   2.0000      -0.474305       -12.9065
 223   2.0000      -0.473101       -12.8737
 224   2.0000      -0.470728       -12.8092
 225   2.0000      -0.469170       -12.7668
 226   2.0000      -0.462853       -12.5949
 227   2.0000      -0.461313       -12.5530
 228   2.0000      -0.460247       -12.5240
 229   2.0000      -0.456842       -12.4313
 230   2.0000      -0.455387       -12.3917
 231   2.0000      -0.454853       -12.3772
 232   2.0000      -0.450280       -12.2527
 233   2.0000      -0.448633       -12.2079
 234   2.0000      -0.447454       -12.1758
 235   2.0000      -0.446388       -12.1468
 236   2.0000      -0.445563       -12.1244
 237   2.0000      -0.441609       -12.0168
 238   2.0000      -0.440688       -11.9917
 239   2.0000      -0.439203       -11.9513
 240   2.0000      -0.438217       -11.9245
 241   2.0000      -0.437100       -11.8941
 242   2.0000      -0.437069       -11.8932
 243   2.0000      -0.435391       -11.8476
 244   2.0000      -0.435187       -11.8420
 245   2.0000      -0.434213       -11.8155
 246   2.0000      -0.431991       -11.7551
 247   2.0000      -0.428923       -11.6716
 248   2.0000      -0.427968       -11.6456
 249   2.0000      -0.425304       -11.5731
 250   2.0000      -0.424702       -11.5567
 251   2.0000      -0.422192       -11.4884
 252   2.0000      -0.420186       -11.4338
 253   2.0000      -0.418378       -11.3846
 254   2.0000      -0.414473       -11.2784
 255   2.0000      -0.413726       -11.2580
 256   2.0000      -0.411004       -11.1840
 257   2.0000      -0.406222       -11.0539
 258   2.0000      -0.402476       -10.9519
 259   2.0000      -0.399568       -10.8728
 260   2.0000      -0.394681       -10.7398
 261   2.0000      -0.389887       -10.6094
 262   2.0000      -0.381657       -10.3854
 263   2.0000      -0.378645       -10.3035
 264   2.0000      -0.370573       -10.0838
 265   2.0000      -0.360682        -9.8146
 266   2.0000      -0.352932        -9.6038
 267   2.0000      -0.349324        -9.5056
 268   2.0000      -0.347189        -9.4475
 269   2.0000      -0.346843        -9.4381
 270   2.0000      -0.338441        -9.2095
 271   2.0000      -0.334542        -9.1033
 272   2.0000      -0.329302        -8.9608
 273   2.0000      -0.326386        -8.8814
 274   2.0000      -0.322245        -8.7687
 275   2.0000      -0.321358        -8.7446
 276   2.0000      -0.312693        -8.5088
 277   2.0000      -0.306413        -8.3379
 278   2.0000      -0.297072        -8.0837
 279   2.0000      -0.292091        -7.9482
 280   2.0000      -0.278389        -7.5754
 281   2.0000      -0.243663        -6.6304
 282   0.0000      -0.113250        -3.0817
 283   0.0000      -0.103458        -2.8152
 284   0.0000      -0.086296        -2.3482
 285   0.0000      -0.070366        -1.9148
 286   0.0000      -0.057659        -1.5690

MULLIKEN ATOMIC CHARGES
-----------------------
   0 C :    0.268712
   1 C :   -0.336962
   2 C :   -0.170421
   3 N :    0.160233
   4 C :   -0.200131
   5 N :    0.165194
   6 C :    0.029197
   7 C :    0.015258
   8 C :   -0.081552
   9 C :    0.092663
  10 C :    0.092509
  11 C :   -0.075649
  12 C :   -0.015002
  13 C :    0.035029
  14 C :    0.033849
  15 C :   -0.015988
  16 C :    0.135775
  17 O :   -0.147220
  18 C :   -0.140708
  19 C :    0.081888
  20 C :   -0.110149
  21 C :   -0.001150
  22 C :   -0.006715
  23 C :   -0.072155
  24 S :    0.206684
  25 C :   -0.107055
  26 C :   -0.011126
  27 C :    0.305784
  28 C :   -0.285140
  29 C :   -0.190040
  30 N :    0.190777
  31 C :   -0.186836
  32 N :    0.168880
  33 C :   -0.010675
  34 C :   -0.085419
  35 S :    0.192866
  36 C :   -0.139693
  37 S :    0.225088
  38 C :   -0.208273
  39 C :    0.116583
  40 C :    0.135765
  41 C :   -0.038672
  42 C :    0.080474
  43 O :   -0.186190
  44 O :   -0.182568
  45 C :    0.022210
  46 C :   -0.036135
  47 C :    0.095113
  48 O :   -0.155035
  49 C :   -0.047790
  50 C :    0.104541
  51 F :   -0.162505
  52 C :    0.219390
  53 F :   -0.156828
  54 C :   -0.017004
  55 C :   -0.030676
  56 C :   -0.031221
  57 N :   -0.050420
  58 N :   -0.075339
  59 N :   -0.038427
  60 C :    0.143645
  61 C :   -0.053768
  62 C :   -0.072045
  63 C :    0.316185
  64 C :   -0.341419
  65 C :   -0.183952
  66 N :    0.153364
  67 C :   -0.194333
  68 N :    0.162900
  69 C :    0.049681
  70 C :   -0.007820
  71 C :    0.145778
  72 O :   -0.139355
  73 C :   -0.075261
  74 C :    0.097924
  75 C :    0.095642
  76 C :   -0.082551
  77 C :   -0.016503
  78 C :    0.035681
  79 C :    0.037281
  80 C :   -0.015402
  81 H :   -0.013088
  82 H :   -0.000320
  83 H :   -0.008720
  84 H :   -0.004985
  85 H :   -0.005947
  86 H :   -0.018693
  87 H :    0.018489
  88 H :    0.026289
  89 H :    0.028292
  90 H :    0.192089
  91 H :    0.008475
  92 H :   -0.010031
  93 H :    0.185719
  94 H :    0.059748
  95 H :    0.061474
  96 H :    0.058875
  97 H :    0.047907
  98 H :   -0.011093
  99 H :   -0.008037
 100 H :   -0.008379
 101 H :   -0.002722
 102 H :   -0.002936
 103 H :   -0.015670
Sum of atomic charges:   -0.0000000

LOEWDIN ATOMIC CHARGES
----------------------
   0 C :    0.066022
   1 C :   -0.139218
   2 C :   -0.018667
   3 N :   -0.048072
   4 C :   -0.015269
   5 N :   -0.049834
   6 C :   -0.022515
   7 C :   -0.057458
   8 C :    0.031591
   9 C :   -0.009557
  10 C :   -0.005317
  11 C :    0.018676
  12 C :   -0.005263
  13 C :   -0.013449
  14 C :   -0.013859
  15 C :   -0.009945
  16 C :    0.083180
  17 O :   -0.147903
  18 C :   -0.093140
  19 C :    0.041474
  20 C :   -0.183206
  21 C :    0.011214
  22 C :   -0.069068
  23 C :   -0.157063
  24 S :    0.492763
  25 C :   -0.194097
  26 C :   -0.055489
  27 C :    0.078765
  28 C :   -0.093181
  29 C :   -0.020528
  30 N :   -0.017600
  31 C :   -0.012250
  32 N :   -0.031763
  33 C :   -0.026744
  34 C :   -0.168960
  35 S :    0.474499
  36 C :   -0.197368
  37 S :    0.523549
  38 C :   -0.184694
  39 C :   -0.061180
  40 C :   -0.022126
  41 C :   -0.099426
  42 C :    0.074799
  43 O :   -0.175634
  44 O :   -0.039342
  45 C :    0.038611
  46 C :   -0.064767
  47 C :    0.076851
  48 O :   -0.020917
  49 C :   -0.077024
  50 C :    0.044937
  51 F :   -0.043449
  52 C :    0.090542
  53 F :   -0.030179
  54 C :   -0.061618
  55 C :   -0.043681
  56 C :   -0.059850
  57 N :   -0.094868
  58 N :    0.160180
  59 N :   -0.083158
  60 C :    0.035439
  61 C :    0.074737
  62 C :   -0.071522
  63 C :    0.074178
  64 C :   -0.130010
  65 C :   -0.016809
  66 N :   -0.047819
  67 C :   -0.021203
  68 N :   -0.044887
  69 C :   -0.026762
  70 C :   -0.055544
  71 C :    0.080744
  72 O :   -0.133864
  73 C :    0.034618
  74 C :   -0.007146
  75 C :   -0.005565
  76 C :    0.021162
  77 C :   -0.004483
  78 C :   -0.011806
  79 C :   -0.010151
  80 C :   -0.008763
  81 H :    0.038742
  82 H :    0.040452
  83 H :    0.035080
  84 H :    0.032981
  85 H :    0.032314
  86 H :    0.031268
  87 H :    0.044835
  88 H :    0.042811
  89 H :    0.045642
  90 H :    0.099921
  91 H :    0.042715
  92 H :    0.038383
  93 H :    0.081389
  94 H :    0.043326
  95 H :    0.046441
  96 H :    0.044508
  97 H :    0.051011
  98 H :    0.040003
  99 H :    0.039226
 100 H :    0.035132
 101 H :    0.034060
 102 H :    0.033665
 103 H :    0.032595

  Mayer bond orders larger than 0.100000
B(  0-C ,  1-C ) :   1.6471 B(  0-C ,  6-C ) :   0.9956 B(  0-C , 18-C ) :   1.0387
B(  1-C ,  2-C ) :   1.1294 B(  1-C ,  4-C ) :   1.1727 B(  2-C ,  3-N ) :   2.9941
B(  4-C ,  5-N ) :   2.9954 B(  6-C ,  7-C ) :   1.2143 B(  6-C , 11-C ) :   1.4626
B(  7-C ,  8-C ) :   1.4769 B(  7-C , 16-C ) :   0.9221 B(  8-C ,  9-C ) :   1.1844
B(  8-C , 81-H ) :   1.0154 B(  9-C , 10-C ) :   1.2570 B(  9-C , 15-C ) :   1.2459
B( 10-C , 11-C ) :   1.2048 B( 10-C , 12-C ) :   1.2414 B( 11-C , 82-H ) :   0.9944
B( 12-C , 13-C ) :   1.4896 B( 12-C , 83-H ) :   0.9977 B( 13-C , 14-C ) :   1.2600
B( 13-C , 84-H ) :   0.9887 B( 14-C , 15-C ) :   1.4900 B( 14-C , 85-H ) :   0.9890
B( 15-C , 86-H ) :   0.9973 B( 16-C , 17-O ) :   2.2629 B( 16-C , 18-C ) :   0.9426
B( 18-C , 19-C ) :   1.6594 B( 19-C , 20-C ) :   1.1470 B( 19-C , 87-H ) :   0.9278
B( 20-C , 21-C ) :   1.3929 B( 20-C , 24-S ) :   1.0811 B( 21-C , 22-C ) :   1.3612
B( 21-C , 88-H ) :   0.9779 B( 22-C , 23-C ) :   1.4046 B( 22-C , 27-C ) :   0.9990
B( 23-C , 24-S ) :   1.1547 B( 23-C , 25-C ) :   1.2026 B( 25-C , 26-C ) :   1.4359
B( 25-C , 35-S ) :   1.1040 B( 26-C , 27-C ) :   0.9880 B( 26-C , 33-C ) :   1.3311
B( 27-C , 28-C ) :   1.7201 B( 28-C , 29-C ) :   1.1321 B( 28-C , 31-C ) :   1.1372
B( 29-C , 30-N ) :   2.9927 B( 31-C , 32-N ) :   2.9812 B( 33-C , 34-C ) :   1.4713
B( 33-C , 89-H ) :   0.9710 B( 34-C , 35-S ) :   1.1191 B( 34-C , 36-C ) :   1.0945
B( 36-C , 37-S ) :   1.1698 B( 36-C , 38-C ) :   0.1347 B( 36-C , 40-C ) :   1.4033
B( 37-S , 38-C ) :   1.1929 B( 38-C , 39-C ) :   1.3521 B( 38-C , 49-C ) :   1.0541
B( 39-C , 40-C ) :   1.2262 B( 39-C , 47-C ) :   1.1033 B( 40-C , 41-C ) :   1.1582
B( 41-C , 42-C ) :   0.9322 B( 41-C , 45-C ) :   1.5339 B( 42-C , 43-O ) :   2.1631
B( 42-C , 44-O ) :   1.2279 B( 44-O , 90-H ) :   0.9435 B( 45-C , 46-C ) :   1.2082
B( 45-C , 91-H ) :   0.9900 B( 46-C , 47-C ) :   1.4844 B( 46-C , 92-H ) :   0.9939
B( 47-C , 48-O ) :   1.2871 B( 48-O , 93-H ) :   0.9570 B( 49-C , 50-C ) :   1.3779
B( 49-C , 54-C ) :   0.1218 B( 49-C , 56-C ) :   1.1871 B( 50-C , 51-F ) :   1.1681
B( 50-C , 52-C ) :   1.1540 B( 52-C , 53-F ) :   1.1627 B( 52-C , 54-C ) :   1.3872
B( 54-C , 55-C ) :   1.1721 B( 54-C , 61-C ) :   1.0782 B( 55-C , 56-C ) :   1.2228
B( 55-C , 59-N ) :   1.5087 B( 56-C , 57-N ) :   1.4859 B( 57-N , 58-N ) :   1.2311
B( 57-N , 59-N ) :   0.1579 B( 58-N , 59-N ) :   1.2320 B( 58-N , 60-C ) :   0.9476
B( 60-C , 94-H ) :   0.9697 B( 60-C , 95-H ) :   0.9667 B( 60-C , 96-H ) :   0.9684
B( 61-C , 62-C ) :   1.6867 B( 61-C , 97-H ) :   0.9390 B( 62-C , 63-C ) :   1.0402
B( 62-C , 71-C ) :   0.9239 B( 63-C , 64-C ) :   1.6518 B( 63-C , 69-C ) :   0.9991
B( 64-C , 65-C ) :   1.1442 B( 64-C , 67-C ) :   1.1424 B( 65-C , 66-N ) :   2.9652
B( 67-C , 68-N ) :   2.9740 B( 69-C , 70-C ) :   1.2104 B( 69-C , 76-C ) :   1.4446
B( 70-C , 71-C ) :   0.9463 B( 70-C , 73-C ) :   1.4694 B( 71-C , 72-O ) :   2.2360
B( 73-C , 74-C ) :   1.1844 B( 73-C , 98-H ) :   1.0164 B( 74-C , 75-C ) :   1.2519
B( 74-C , 80-C ) :   1.2411 B( 75-C , 76-C ) :   1.2113 B( 75-C , 77-C ) :   1.2405
B( 76-C , 99-H ) :   0.9890 B( 77-C , 78-C ) :   1.4899 B( 77-C ,100-H ) :   0.9972
B( 78-C , 79-C ) :   1.2574 B( 78-C ,101-H ) :   0.9890 B( 79-C , 80-C ) :   1.4907
B( 79-C ,102-H ) :   0.9892 B( 80-C ,103-H ) :   0.9981

-----------------------------------------------------------------------------
         ABSORPTION SPECTRUM VIA TRANSITION ELECTRIC DIPOLE MOMENTS
-----------------------------------------------------------------------------
State   Energy  Wavelength   fosc         T2         TX        TY        TZ
        (cm-1)    (nm)                  (au**2)     (au)      (au)      (au)
-----------------------------------------------------------------------------
   0   12017.3    832.1   0.490465568  13.43624  -0.39713  -2.94733  -2.14285
   1   16169.3    618.5   0.846551755  17.23606  -0.27973   2.49394   3.30728
   2   19342.6    517.0   0.270822551   4.60942  -0.74250  -1.87662  -0.73241
   3   20233.6    494.2   0.159265688   2.59134  -0.28695  -1.27205  -0.94387
   4   24169.2    413.7   0.019208010   0.26163   0.26429   0.31096  -0.30836
   5   24949.8    400.8   0.187146531   2.46940  -0.09919  -0.84439  -1.32158
   6   25457.8    392.8   0.019076718   0.24669   0.19264  -0.44787  -0.09484
   7   25701.3    389.1   0.097895094   1.25395  -0.61742   0.79353   0.49300
   8   25897.5    386.1   0.118342958   1.50439  -0.04484  -1.14437  -0.43909
   9   27061.5    369.5   0.080004392   0.97328   0.25691   0.95238   0.01564
  10   27781.0    360.0   0.006633554   0.07861   0.03134   0.07438  -0.26850
  11   27991.0    357.3   0.137830187   1.62107  -0.31834  -0.59152  -1.08159
  12   28251.7    354.0   0.031771607   0.37023   0.09578   0.58909   0.11844
  13   28465.7    351.3   0.091968782   1.06364   0.06728  -0.14124  -1.01939
  14   28873.4    346.3   0.202494581   2.30883  -1.12215   0.57326   0.84910
  15   29238.5    342.0   0.099512338   1.12046   0.14207   1.03747   0.15471
  16   29694.5    336.8   0.222836088   2.47050   0.27526   1.54193   0.13108
  17   30187.3    331.3   0.176762888   1.92772   0.65847  -1.13868  -0.44445
  18   30390.5    329.1   0.106957499   1.15864   0.93774  -0.21106  -0.48451
  19   30740.8    325.3   0.031827989   0.34086  -0.36441  -0.04548   0.45386
  20   31234.9    320.2   0.112938542   1.19036  -0.72874  -0.18004   0.79176
  21   31758.4    314.9   0.078133618   0.80994  -0.49313  -0.47162   0.58680
  22   32067.5    311.8   0.035658858   0.36608  -0.22960   0.11337   0.54819
  23   32187.3    310.7   0.346718673   3.54624   0.30560  -1.77122  -0.56180
  24   32795.6    304.9   0.530941093   5.32974   1.86899  -1.32582  -0.28073
  25   32948.1    303.5   0.021747638   0.21730  -0.38828   0.19391   0.17009
  26   33121.3    301.9   0.289417897   2.87670  -1.18875   1.06871  -0.56695
  27   33320.7    300.1   0.076898013   0.75976   0.29678  -0.81534   0.08307
  28   33449.3    299.0   0.048654925   0.47887   0.27376   0.62268   0.12725
  29   33993.9    294.2   0.059373668   0.57500   0.11353  -0.74070  -0.11608
  30   34134.8    293.0   0.219840111   2.12024   0.45537  -1.36394  -0.22924
  31   34436.3    290.4   0.056422398   0.53940  -0.32478  -0.62445   0.20973
  32   34608.4    288.9   0.053268211   0.50671  -0.32146   0.63428   0.03259
  33   34673.3    288.4   0.003064320   0.02909  -0.10219   0.10618   0.08590
  34   34784.0    287.5   0.222441375   2.10529  -0.95954   0.62393   0.89179
  35   34921.1    286.4   0.354799327   3.34480   1.00847   1.46522  -0.42533
  36   35282.0    283.4   0.018734561   0.17481  -0.34829   0.14643  -0.17907
  37   35866.2    278.8   0.175023983   1.60652   0.41264  -1.19455   0.09641
  38   36443.8    274.4   0.012742771   0.11511   0.26131  -0.14692  -0.15888
  39   36497.6    274.0   0.215026830   1.93957  -0.64019   1.21226   0.24524
  40   36678.3    272.6   0.029790771   0.26739   0.49279  -0.13533   0.07894
  41   36955.3    270.6   0.052276052   0.46569   0.60993  -0.08455   0.29416
  42   37329.8    267.9   0.068455727   0.60371  -0.16934   0.53145   0.54092
  43   37563.1    266.2   0.064248913   0.56309  -0.39749   0.11213  -0.62651
  44   37889.4    263.9   0.008867958   0.07705  -0.12101  -0.09746  -0.23002
  45   38076.2    262.6   0.022430126   0.19393   0.26472  -0.09802  -0.33801
  46   38467.5    260.0   0.008620164   0.07377   0.17795   0.09769   0.18045
  47   38603.1    259.0   0.042102647   0.35906  -0.23262   0.14691  -0.53232
  48   38645.2    258.8   0.005776797   0.04921   0.14354   0.09798   0.13787
  49   38918.1    257.0   0.022222762   0.18798  -0.20291   0.37930   0.05422
  50   39026.6    256.2   0.061039972   0.51491  -0.00827  -0.52236   0.49191
  51   39156.1    255.4   0.018996108   0.15971  -0.17375   0.16963  -0.31741
  52   39300.4    254.5   0.010166790   0.08517   0.12868  -0.23817  -0.10901
  53   39391.8    253.9   0.006191140   0.05174  -0.05647  -0.21906   0.02381
  54   39504.1    253.1   0.020926086   0.17439   0.23816   0.20433   0.27554
  55   39810.1    251.2   0.084532250   0.69904   0.62047   0.54789   0.11784
  56   40028.6    249.8   0.370799219   3.04961   0.21738   0.53407   1.64837
  57   40313.7    248.1   0.017977836   0.14681   0.34916   0.09294  -0.12752

FINAL SINGLE POINT ENERGY     -4634.819384940316

DIPOLE MOMENT
-------------
                                X             Y             Z
Electronic contribution:      4.26478      16.44158       0.43717
Nuclear contribution   :     -6.42220     -17.13806       2.27459
                        -----------------------------------------
Total Dipole Moment    :     -2.15742      -0.69648       2.71176
                        -----------------------------------------
Magnitude (a.u.)       :      3.53457
Magnitude (Debye)      :      8.98417

Rotational constants in cm-1:     0.002031     0.000201     0.000196
Rotational constants in MHz :    60.893146     6.037080     5.874236

                             ****ORCA TERMINATED NORMALLY****
TOTAL RUN TIME: 0 days 0 hours 12 minutes 4 seconds 763 msec
