                         Program Version 4.2.0 -  RELEASE  -
|  1> # ORCA input file
|  2> # SCF done       -185.120754876135          0.000997889651
|  3> ! CAM-B3LYP def2-SVP def2/J RIJCOSX Grid4 TightSCF
|  4> %maxcore 5000
|  5> %tddft
|  6>     Mode sTDDFT
|  7>     Ethresh 5.0
|  8>     maxcore 5000
|  9> end
| 10>
| 11> %pal
| 12>   nprocs 6
| 13>   end
| 14> * xyz 0 1
| 15>    C        2.58833        -0.79121         4.26347
| 16>    O        3.72449        -1.18387         4.47352
| 17>    C        1.59933        -0.38322         5.24409
| 18>    C        0.43012         0.04406         4.62757
| 19>    C       -0.55744         0.42915         5.55364
| 20>    C       -0.10849         0.28256         6.83386
| 21>    S        1.50475        -0.31369         6.94858
| 22>    C        0.59770        -0.05039         3.18963
| 23>    C       -0.35169         0.32040         2.27499
| 24>    C       -1.59980         0.84343         2.67689
| 25>    N       -2.61853         1.27663         2.97784
| 26>    C       -0.23145         0.25040         0.87271
| 27>    N       -0.20562         0.22676        -0.27505
| 28>    C        1.92622        -0.59956         2.95511
| 29>    C        2.45557        -0.89046         1.72592
| 30>    C        3.67436        -1.50311         1.38672
| 31>    C        4.06049        -1.74885         0.06221
| 32>    C        5.26640        -2.42360        -0.02297
| 33>    C        5.79571        -2.70485         1.26109
| 34>    S        4.85269        -2.11625         2.54495
| 35>    C        7.00272        -3.40088         1.09943
| 36>    C        7.27252        -3.56743        -0.27896
| 37>    C        6.17917        -2.95163        -1.02635
| 38>    C        6.05015        -2.88863        -2.38301
| 39>    C        4.95033        -2.26412        -3.00817
| 40>    N        4.06123        -1.75892        -3.52641
| 41>    C        7.01598        -3.44285        -3.24844
| 42>    N        7.80149        -3.89602        -3.95056
| 43>    C        8.45772        -4.24739        -0.50716
| 44>    C        9.09864        -4.61775         0.68556
| 45>    S        8.18553        -4.09018         2.09980
| 46>    C       10.30726        -5.31443         0.81548
| 47>    C       10.87321        -5.70834         2.01138
| 48>    C       12.09343        -6.39013         2.23843
| 49>    C       12.36709        -6.64730         3.55559
| 50>    C       11.36882        -6.18966         4.43510
| 51>    S       10.09015        -5.40930         3.54187
| 52>    C       11.19495        -6.24103         5.81322
| 53>    C       11.99122        -6.69983         6.87570
| 54>    C       11.41236        -6.53305         8.10614
| 55>    C       10.12447        -5.94708         8.07799
| 56>    S        9.68567        -5.60508         6.42448
| 57>    C        9.31041        -5.66896         9.15877
| 58>    C        8.01513        -5.13990         9.12386
| 59>    C        7.19575        -4.81584         8.03371
| 60>    C        5.95596        -4.34827         8.42117
| 61>    C        5.78925        -4.29124         9.82515
| 62>    S        7.18845        -4.82770        10.65492
| 63>    C        4.49224        -3.83001        10.09964
| 64>    C        3.81362        -3.61539         8.87286
| 65>    C        4.71036        -3.93201         7.78339
| 66>    C        4.43496        -3.88944         6.44529
| 67>    C        5.39520        -4.17179         5.45340
| 68>    N        6.16509        -4.40454         4.63532
| 69>    C        3.14032        -3.60111         5.96736
| 70>    N        2.07224        -3.42063         5.58906
| 71>    C        2.51165        -3.16867         9.05202
| 72>    C        2.18418        -2.99490        10.38902
| 73>    S        3.52016        -3.46201        11.45038
| 74>    C        0.91788        -2.61129        10.87693
| 75>    C        0.55379        -2.20161        12.12347
| 76>    C       -0.87572        -2.32694        12.54685
| 77>    O       -1.82919        -2.52536        11.83003
| 78>    C       -0.81152        -2.20260        14.00078
| 79>    C        0.47702        -1.89719        14.42517
| 80>    C        1.32767        -1.74410        13.26007
| 81>    C        2.50001        -1.03326        13.23374
| 82>    C        3.12250        -0.58111        14.41357
| 83>    N        3.64894        -0.22776        15.37022
| 84>    C        3.11410        -0.60260        12.04148
| 85>    N        3.59202        -0.19061        11.08217
| 86>    C        0.57308        -1.75845        15.82161
| 87>    C       -0.63635        -1.97354        16.41489
| 88>    S       -1.90886        -2.32573        15.30587
| 89>    H       -1.53801         0.78915         5.30351
| 90>    H       -0.64591         0.49555         7.73740
| 91>    H        1.84787        -0.64397         0.86299
| 92>    H        3.45961        -1.43847        -0.77471
| 93>    H        8.86253        -4.48439        -1.47475
| 94>    H       10.83063        -5.56389        -0.09776
| 95>    H       12.73754        -6.67205         1.42396
| 96>    H       13.24793        -7.15830         3.90183
| 97>    H       12.96426        -7.12988         6.71766
| 98>    H       11.87584        -6.82055         9.03352
| 99>    H        9.71486        -5.88963        10.13804
|100>    H        7.49141        -4.93109         7.00914
|101>    H        1.81958        -2.95076         8.25912
|102>    H        0.09646        -2.74562        10.17913
|103>    H        1.47347        -1.52502        16.35915
|104>    H       -0.85944        -1.93898        17.46335
|105> *
|106>
|107>                          ****END OF INPUT****

CARTESIAN COORDINATES (ANGSTROEM)
---------------------------------
  C      2.588330   -0.791210    4.263470
  O      3.724490   -1.183870    4.473520
  C      1.599330   -0.383220    5.244090
  C      0.430120    0.044060    4.627570
  C     -0.557440    0.429150    5.553640
  C     -0.108490    0.282560    6.833860
  S      1.504750   -0.313690    6.948580
  C      0.597700   -0.050390    3.189630
  C     -0.351690    0.320400    2.274990
  C     -1.599800    0.843430    2.676890
  N     -2.618530    1.276630    2.977840
  C     -0.231450    0.250400    0.872710
  N     -0.205620    0.226760   -0.275050
  C      1.926220   -0.599560    2.955110
  C      2.455570   -0.890460    1.725920
  C      3.674360   -1.503110    1.386720
  C      4.060490   -1.748850    0.062210
  C      5.266400   -2.423600   -0.022970
  C      5.795710   -2.704850    1.261090
  S      4.852690   -2.116250    2.544950
  C      7.002720   -3.400880    1.099430
  C      7.272520   -3.567430   -0.278960
  C      6.179170   -2.951630   -1.026350
  C      6.050150   -2.888630   -2.383010
  C      4.950330   -2.264120   -3.008170
  N      4.061230   -1.758920   -3.526410
  C      7.015980   -3.442850   -3.248440
  N      7.801490   -3.896020   -3.950560
  C      8.457720   -4.247390   -0.507160
  C      9.098640   -4.617750    0.685560
  S      8.185530   -4.090180    2.099800
  C     10.307260   -5.314430    0.815480
  C     10.873210   -5.708340    2.011380
  C     12.093430   -6.390130    2.238430
  C     12.367090   -6.647300    3.555590
  C     11.368820   -6.189660    4.435100
  S     10.090150   -5.409300    3.541870
  C     11.194950   -6.241030    5.813220
  C     11.991220   -6.699830    6.875700
  C     11.412360   -6.533050    8.106140
  C     10.124470   -5.947080    8.077990
  S      9.685670   -5.605080    6.424480
  C      9.310410   -5.668960    9.158770
  C      8.015130   -5.139900    9.123860
  C      7.195750   -4.815840    8.033710
  C      5.955960   -4.348270    8.421170
  C      5.789250   -4.291240    9.825150
  S      7.188450   -4.827700   10.654920
  C      4.492240   -3.830010   10.099640
  C      3.813620   -3.615390    8.872860
  C      4.710360   -3.932010    7.783390
  C      4.434960   -3.889440    6.445290
  C      5.395200   -4.171790    5.453400
  N      6.165090   -4.404540    4.635320
  C      3.140320   -3.601110    5.967360
  N      2.072240   -3.420630    5.589060
  C      2.511650   -3.168670    9.052020
  C      2.184180   -2.994900   10.389020
  S      3.520160   -3.462010   11.450380
  C      0.917880   -2.611290   10.876930
  C      0.553790   -2.201610   12.123470
  C     -0.875720   -2.326940   12.546850
  O     -1.829190   -2.525360   11.830030
  C     -0.811520   -2.202600   14.000780
  C      0.477020   -1.897190   14.425170
  C      1.327670   -1.744100   13.260070
  C      2.500010   -1.033260   13.233740
  C      3.122500   -0.581110   14.413570
  N      3.648940   -0.227760   15.370220
  C      3.114100   -0.602600   12.041480
  N      3.592020   -0.190610   11.082170
  C      0.573080   -1.758450   15.821610
  C     -0.636350   -1.973540   16.414890
  S     -1.908860   -2.325730   15.305870
  H     -1.538010    0.789150    5.303510
  H     -0.645910    0.495550    7.737400
  H      1.847870   -0.643970    0.862990
  H      3.459610   -1.438470   -0.774710
  H      8.862530   -4.484390   -1.474750
  H     10.830630   -5.563890   -0.097760
  H     12.737540   -6.672050    1.423960
  H     13.247930   -7.158300    3.901830
  H     12.964260   -7.129880    6.717660
  H     11.875840   -6.820550    9.033520
  H      9.714860   -5.889630   10.138040
  H      7.491410   -4.931090    7.009140
  H      1.819580   -2.950760    8.259120
  H      0.096460   -2.745620   10.179130
  H      1.473470   -1.525020   16.359150
  H     -0.859440   -1.938980   17.463350

 Total Charge           Charge          ....    0
 Multiplicity           Mult            ....    1
 Number of Electrons    NEL             ....  552
 Basis Dimension        Dim             .... 1148

ORBITAL ENERGIES
----------------

  NO   OCC          E(Eh)            E(eV)
   0   2.0000     -88.995624     -2421.6940
   1   2.0000     -88.992610     -2421.6120
   2   2.0000     -88.991287     -2421.5760
   3   2.0000     -88.984621     -2421.3946
   4   2.0000     -88.983933     -2421.3759
   5   2.0000     -88.980157     -2421.2732
   6   2.0000     -88.964267     -2420.8408
   7   2.0000     -88.962796     -2420.8007
   8   2.0000     -19.222580      -523.0730
   9   2.0000     -19.220036      -523.0038
  10   2.0000     -14.439672      -392.9235
  11   2.0000     -14.434088      -392.7715
  12   2.0000     -14.426133      -392.5550
  13   2.0000     -14.424111      -392.5000
  14   2.0000     -14.420699      -392.4072
  15   2.0000     -14.420039      -392.3892
  16   2.0000     -14.414978      -392.2515
  17   2.0000     -14.410794      -392.1376
  18   2.0000     -10.379028      -282.4277
  19   2.0000     -10.377932      -282.3979
  20   2.0000     -10.369777      -282.1760
  21   2.0000     -10.358846      -281.8785
  22   2.0000     -10.358558      -281.8707
  23   2.0000     -10.350832      -281.6605
  24   2.0000     -10.349845      -281.6336
  25   2.0000     -10.349568      -281.6261
  26   2.0000     -10.347671      -281.5744
  27   2.0000     -10.341547      -281.4078
  28   2.0000     -10.341169      -281.3975
  29   2.0000     -10.340961      -281.3919
  30   2.0000     -10.336423      -281.2684
  31   2.0000     -10.336157      -281.2611
  32   2.0000     -10.333063      -281.1769
  33   2.0000     -10.330867      -281.1172
  34   2.0000     -10.329943      -281.0920
  35   2.0000     -10.328440      -281.0512
  36   2.0000     -10.327779      -281.0331
  37   2.0000     -10.326797      -281.0064
  38   2.0000     -10.325992      -280.9845
  39   2.0000     -10.325765      -280.9783
  40   2.0000     -10.325500      -280.9711
  41   2.0000     -10.325336      -280.9667
  42   2.0000     -10.325073      -280.9595
  43   2.0000     -10.324155      -280.9346
  44   2.0000     -10.323040      -280.9042
  45   2.0000     -10.322298      -280.8840
  46   2.0000     -10.321927      -280.8739
  47   2.0000     -10.320128      -280.8250
  48   2.0000     -10.319258      -280.8013
  49   2.0000     -10.318530      -280.7815
  50   2.0000     -10.317502      -280.7535
  51   2.0000     -10.317095      -280.7424
  52   2.0000     -10.315439      -280.6974
  53   2.0000     -10.314941      -280.6838
  54   2.0000     -10.314896      -280.6826
  55   2.0000     -10.313467      -280.6437
  56   2.0000     -10.310439      -280.5613
  57   2.0000     -10.308872      -280.5187
  58   2.0000     -10.307664      -280.4858
  59   2.0000     -10.307083      -280.4700
  60   2.0000     -10.306997      -280.4676
  61   2.0000     -10.306436      -280.4524
  62   2.0000     -10.306203      -280.4460
  63   2.0000     -10.306064      -280.4422
  64   2.0000     -10.305653      -280.4311
  65   2.0000     -10.305025      -280.4140
  66   2.0000     -10.304768      -280.4070
  67   2.0000     -10.303448      -280.3711
  68   2.0000     -10.302792      -280.3532
  69   2.0000     -10.302720      -280.3513
  70   2.0000     -10.302450      -280.3439
  71   2.0000     -10.299079      -280.2522
  72   2.0000     -10.296905      -280.1930
  73   2.0000     -10.294080      -280.1162
  74   2.0000      -8.089823      -220.1353
  75   2.0000      -8.087223      -220.0645
  76   2.0000      -8.086326      -220.0401
  77   2.0000      -8.079228      -219.8470
  78   2.0000      -8.078253      -219.8204
  79   2.0000      -8.072725      -219.6700
  80   2.0000      -8.060251      -219.3306
  81   2.0000      -8.059654      -219.3143
  82   2.0000      -6.059127      -164.8772
  83   2.0000      -6.056531      -164.8066
  84   2.0000      -6.055487      -164.7782
  85   2.0000      -6.054914      -164.7626
  86   2.0000      -6.052438      -164.6952
  87   2.0000      -6.052102      -164.6861
  88   2.0000      -6.051044      -164.6573
  89   2.0000      -6.049379      -164.6120
  90   2.0000      -6.049064      -164.6034
  91   2.0000      -6.048397      -164.5853
  92   2.0000      -6.047414      -164.5585
  93   2.0000      -6.043997      -164.4655
  94   2.0000      -6.043058      -164.4400
  95   2.0000      -6.042136      -164.4149
  96   2.0000      -6.041983      -164.4107
  97   2.0000      -6.040732      -164.3767
  98   2.0000      -6.037405      -164.2861
  99   2.0000      -6.035189      -164.2259
 100   2.0000      -6.029960      -164.0835
 101   2.0000      -6.029347      -164.0669
 102   2.0000      -6.025746      -163.9689
 103   2.0000      -6.024996      -163.9485
 104   2.0000      -6.021376      -163.8500
 105   2.0000      -6.020656      -163.8304
 106   2.0000      -1.139515       -31.0078
 107   2.0000      -1.136777       -30.9333
 108   2.0000      -1.050873       -28.5957
 109   2.0000      -1.040620       -28.3167
 110   2.0000      -1.032128       -28.0856
 111   2.0000      -1.028642       -27.9908
 112   2.0000      -1.023641       -27.8547
 113   2.0000      -1.019108       -27.7313
 114   2.0000      -1.016519       -27.6609
 115   2.0000      -1.014646       -27.6099
 116   2.0000      -1.012842       -27.5608
 117   2.0000      -1.005842       -27.3704
 118   2.0000      -1.004450       -27.3325
 119   2.0000      -1.002703       -27.2849
 120   2.0000      -0.998820       -27.1793
 121   2.0000      -0.996433       -27.1143
 122   2.0000      -0.991236       -26.9729
 123   2.0000      -0.988201       -26.8903
 124   2.0000      -0.970901       -26.4196
 125   2.0000      -0.962582       -26.1932
 126   2.0000      -0.962153       -26.1815
 127   2.0000      -0.953722       -25.9521
 128   2.0000      -0.928497       -25.2657
 129   2.0000      -0.920195       -25.0398
 130   2.0000      -0.909585       -24.7511
 131   2.0000      -0.904427       -24.6107
 132   2.0000      -0.898773       -24.4569
 133   2.0000      -0.888432       -24.1755
 134   2.0000      -0.883303       -24.0359
 135   2.0000      -0.876749       -23.8575
 136   2.0000      -0.870570       -23.6894
 137   2.0000      -0.865575       -23.5535
 138   2.0000      -0.861189       -23.4341
 139   2.0000      -0.859909       -23.3993
 140   2.0000      -0.856461       -23.3055
 141   2.0000      -0.851649       -23.1745
 142   2.0000      -0.850174       -23.1344
 143   2.0000      -0.836528       -22.7631
 144   2.0000      -0.827641       -22.5213
 145   2.0000      -0.805906       -21.9298
 146   2.0000      -0.793303       -21.5869
 147   2.0000      -0.784731       -21.3536
 148   2.0000      -0.777763       -21.1640
 149   2.0000      -0.773177       -21.0392
 150   2.0000      -0.769486       -20.9388
 151   2.0000      -0.763188       -20.7674
 152   2.0000      -0.750933       -20.4339
 153   2.0000      -0.737496       -20.0683
 154   2.0000      -0.717389       -19.5211
 155   2.0000      -0.708985       -19.2925
 156   2.0000      -0.700857       -19.0713
 157   2.0000      -0.698616       -19.0103
 158   2.0000      -0.696674       -18.9575
 159   2.0000      -0.692790       -18.8518
 160   2.0000      -0.687267       -18.7015
 161   2.0000      -0.684330       -18.6216
 162   2.0000      -0.677078       -18.4242
 163   2.0000      -0.670968       -18.2580
 164   2.0000      -0.668998       -18.2044
 165   2.0000      -0.665282       -18.1032
 166   2.0000      -0.655564       -17.8388
 167   2.0000      -0.647648       -17.6234
 168   2.0000      -0.644438       -17.5361
 169   2.0000      -0.639498       -17.4016
 170   2.0000      -0.635834       -17.3019
 171   2.0000      -0.635501       -17.2928
 172   2.0000      -0.625295       -17.0151
 173   2.0000      -0.622819       -16.9478
 174   2.0000      -0.617974       -16.8159
 175   2.0000      -0.613761       -16.7013
 176   2.0000      -0.612622       -16.6703
 177   2.0000      -0.609665       -16.5898
 178   2.0000      -0.607103       -16.5201
 179   2.0000      -0.598765       -16.2932
 180   2.0000      -0.594343       -16.1729
 181   2.0000      -0.582173       -15.8417
 182   2.0000      -0.573315       -15.6007
 183   2.0000      -0.566803       -15.4235
 184   2.0000      -0.563560       -15.3353
 185   2.0000      -0.556410       -15.1407
 186   2.0000      -0.554014       -15.0755
 187   2.0000      -0.549863       -14.9625
 188   2.0000      -0.546780       -14.8786
 189   2.0000      -0.545059       -14.8318
 190   2.0000      -0.542797       -14.7703
 191   2.0000      -0.541686       -14.7400
 192   2.0000      -0.536964       -14.6115
 193   2.0000      -0.533821       -14.5260
 194   2.0000      -0.526543       -14.3280
 195   2.0000      -0.523655       -14.2494
 196   2.0000      -0.522127       -14.2078
 197   2.0000      -0.520015       -14.1503
 198   2.0000      -0.518994       -14.1226
 199   2.0000      -0.515742       -14.0341
 200   2.0000      -0.512855       -13.9555
 201   2.0000      -0.511955       -13.9310
 202   2.0000      -0.508798       -13.8451
 203   2.0000      -0.506423       -13.7805
 204   2.0000      -0.505992       -13.7688
 205   2.0000      -0.502096       -13.6627
 206   2.0000      -0.500172       -13.6104
 207   2.0000      -0.497568       -13.5395
 208   2.0000      -0.496052       -13.4983
 209   2.0000      -0.495637       -13.4870
 210   2.0000      -0.491042       -13.3619
 211   2.0000      -0.489514       -13.3204
 212   2.0000      -0.486799       -13.2465
 213   2.0000      -0.485539       -13.2122
 214   2.0000      -0.482790       -13.1374
 215   2.0000      -0.480827       -13.0840
 216   2.0000      -0.477593       -12.9960
 217   2.0000      -0.477190       -12.9850
 218   2.0000      -0.475129       -12.9289
 219   2.0000      -0.473579       -12.8868
 220   2.0000      -0.470989       -12.8163
 221   2.0000      -0.470068       -12.7912
 222   2.0000      -0.467268       -12.7150
 223   2.0000      -0.464917       -12.6510
 224   2.0000      -0.457710       -12.4549
 225   2.0000      -0.456736       -12.4284
 226   2.0000      -0.454771       -12.3750
 227   2.0000      -0.453891       -12.3510
 228   2.0000      -0.452646       -12.3171
 229   2.0000      -0.450942       -12.2707
 230   2.0000      -0.449039       -12.2190
 231   2.0000      -0.447697       -12.1824
 232   2.0000      -0.446852       -12.1595
 233   2.0000      -0.445791       -12.1306
 234   2.0000      -0.444915       -12.1068
 235   2.0000      -0.444210       -12.0876
 236   2.0000      -0.443435       -12.0665
 237   2.0000      -0.442584       -12.0433
 238   2.0000      -0.438158       -11.9229
 239   2.0000      -0.435522       -11.8512
 240   2.0000      -0.434990       -11.8367
 241   2.0000      -0.434093       -11.8123
 242   2.0000      -0.433708       -11.8018
 243   2.0000      -0.432375       -11.7655
 244   2.0000      -0.429183       -11.6787
 245   2.0000      -0.427743       -11.6395
 246   2.0000      -0.425583       -11.5807
 247   2.0000      -0.424350       -11.5472
 248   2.0000      -0.422491       -11.4966
 249   2.0000      -0.416885       -11.3440
 250   2.0000      -0.415448       -11.3049
 251   2.0000      -0.413007       -11.2385
 252   2.0000      -0.408731       -11.1221
 253   2.0000      -0.405841       -11.0435
 254   2.0000      -0.402612       -10.9556
 255   2.0000      -0.394272       -10.7287
 256   2.0000      -0.390606       -10.6289
 257   2.0000      -0.383548       -10.4369
 258   2.0000      -0.368427       -10.0254
 259   2.0000      -0.359617        -9.7857
 260   2.0000      -0.353914        -9.6305
 261   2.0000      -0.350705        -9.5432
 262   2.0000      -0.347896        -9.4667
 263   2.0000      -0.345401        -9.3988
 264   2.0000      -0.341487        -9.2923
 265   2.0000      -0.339905        -9.2493
 266   2.0000      -0.335644        -9.1333
 267   2.0000      -0.334157        -9.0929
 268   2.0000      -0.328288        -8.9332
 269   2.0000      -0.318946        -8.6790
 270   2.0000      -0.315493        -8.5850
 271   2.0000      -0.311158        -8.4671
 272   2.0000      -0.308394        -8.3918
 273   2.0000      -0.285706        -7.7744
 274   2.0000      -0.261598        -7.1185
 275   2.0000      -0.221294        -6.0217
 276   0.0000      -0.124785        -3.3956
 277   0.0000      -0.106981        -2.9111
 278   0.0000      -0.089406        -2.4329
 279   0.0000      -0.084083        -2.2880
 280   0.0000      -0.076220        -2.0741

MULLIKEN ATOMIC CHARGES
-----------------------
   0 C :    0.167584
   1 O :   -0.206150
   2 C :   -0.148303
   3 C :    0.003021
   4 C :    0.027067
   5 C :   -0.058341
   6 S :    0.205440
   7 C :    0.311864
   8 C :   -0.340817
   9 C :   -0.190602
  10 N :    0.157318
  11 C :   -0.184289
  12 N :    0.152301
  13 C :   -0.099660
  14 C :   -0.026774
  15 C :   -0.057449
  16 C :   -0.059250
  17 C :    0.044136
  18 C :   -0.052212
  19 S :    0.232907
  20 C :   -0.086553
  21 C :    0.049473
  22 C :    0.296357
  23 C :   -0.298662
  24 C :   -0.194441
  25 N :    0.183305
  26 C :   -0.188694
  27 N :    0.166635
  28 C :   -0.051869
  29 C :   -0.061428
  30 S :    0.182911
  31 C :    0.027995
  32 C :   -0.034111
  33 C :    0.042503
  34 C :    0.033010
  35 C :   -0.004799
  36 S :    0.033597
  37 C :   -0.024950
  38 C :    0.039879
  39 C :    0.030509
  40 C :   -0.022197
  41 S :    0.038428
  42 C :    0.035800
  43 C :   -0.084017
  44 C :   -0.055216
  45 C :    0.011873
  46 C :   -0.106600
  47 S :    0.188892
  48 C :   -0.073772
  49 C :    0.007956
  50 C :    0.316976
  51 C :   -0.306321
  52 C :   -0.157865
  53 N :    0.149464
  54 C :   -0.165576
  55 N :    0.153753
  56 C :    0.005682
  57 C :   -0.083986
  58 S :    0.195764
  59 C :    0.029097
  60 C :   -0.154602
  61 C :    0.122973
  62 O :   -0.142745
  63 C :   -0.159312
  64 C :   -0.009951
  65 C :    0.245493
  66 C :   -0.315547
  67 C :   -0.176903
  68 N :    0.154205
  69 C :   -0.207780
  70 N :    0.171832
  71 C :    0.030568
  72 C :   -0.063128
  73 S :    0.212619
  74 H :    0.016971
  75 H :    0.044726
  76 H :    0.013297
  77 H :    0.024655
  78 H :    0.006058
  79 H :   -0.000074
  80 H :   -0.003174
  81 H :   -0.008658
  82 H :   -0.006986
  83 H :   -0.007118
  84 H :   -0.013115
  85 H :    0.030295
  86 H :    0.008618
  87 H :    0.028495
  88 H :    0.016600
  89 H :    0.045094
Sum of atomic charges:   -0.0000000

LOEWDIN ATOMIC CHARGES
----------------------
   0 C :    0.074654
   1 O :   -0.181962
   2 C :   -0.202619
   3 C :   -0.033631
   4 C :   -0.042583
   5 C :   -0.148651
   6 S :    0.509931
   7 C :    0.078940
   8 C :   -0.136393
   9 C :   -0.016568
  10 N :   -0.052489
  11 C :   -0.023506
  12 N :   -0.044932
  13 C :   -0.105498
  14 C :    0.047926
  15 C :   -0.186819
  16 C :    0.010288
  17 C :   -0.079668
  18 C :   -0.161921
  19 S :    0.551133
  20 C :   -0.194450
  21 C :   -0.056623
  22 C :    0.080964
  23 C :   -0.106318
  24 C :   -0.020494
  25 N :   -0.027942
  26 C :   -0.015671
  27 N :   -0.038075
  28 C :   -0.023452
  29 C :   -0.162881
  30 S :    0.507975
  31 C :   -0.053220
  32 C :   -0.160268
  33 C :   -0.019492
  34 C :   -0.039337
  35 C :   -0.166612
  36 S :    0.389273
  37 C :   -0.178729
  38 C :   -0.028240
  39 C :   -0.032369
  40 C :   -0.138412
  41 S :    0.408158
  42 C :   -0.084843
  43 C :   -0.145982
  44 C :   -0.047521
  45 C :   -0.044604
  46 C :   -0.202492
  47 S :    0.469886
  48 C :   -0.142152
  49 C :   -0.082288
  50 C :    0.084133
  51 C :   -0.097833
  52 C :   -0.002646
  53 N :   -0.054910
  54 C :   -0.008092
  55 N :   -0.044234
  56 C :    0.011575
  57 C :   -0.184740
  58 S :    0.502292
  59 C :    0.040844
  60 C :   -0.105648
  61 C :    0.066594
  62 O :   -0.143761
  63 C :   -0.211404
  64 C :   -0.037769
  65 C :    0.061077
  66 C :   -0.147779
  67 C :   -0.020357
  68 N :   -0.051378
  69 C :   -0.039759
  70 N :   -0.048813
  71 C :   -0.046428
  72 C :   -0.149518
  73 S :    0.503737
  74 H :    0.043766
  75 H :    0.031762
  76 H :    0.053098
  77 H :    0.046828
  78 H :    0.040877
  79 H :    0.045373
  80 H :    0.037057
  81 H :    0.035098
  82 H :    0.036024
  83 H :    0.035146
  84 H :    0.035197
  85 H :    0.022071
  86 H :    0.035084
  87 H :    0.053127
  88 H :    0.043380
  89 H :    0.031506

  Mayer bond orders larger than 0.100000
B(  0-C ,  1-O ) :   2.0404 B(  0-C ,  2-C ) :   1.0885 B(  0-C , 13-C ) :   0.9838
B(  2-C ,  3-C ) :   1.4659 B(  2-C ,  6-S ) :   1.1207 B(  3-C ,  4-C ) :   1.2703
B(  3-C ,  7-C ) :   0.9982 B(  4-C ,  5-C ) :   1.5403 B(  4-C , 74-H ) :   0.9951
B(  5-C ,  6-S ) :   1.1866 B(  5-C , 75-H ) :   0.9623 B(  7-C ,  8-C ) :   1.6442
B(  7-C , 13-C ) :   1.0765 B(  8-C ,  9-C ) :   1.1489 B(  8-C , 11-C ) :   1.1330
B(  9-C , 10-N ) :   2.9883 B( 11-C , 12-N ) :   2.9647 B( 13-C , 14-C ) :   1.5289
B( 14-C , 15-C ) :   1.2558 B( 14-C , 76-H ) :   0.9407 B( 15-C , 16-C ) :   1.3372
B( 15-C , 19-S ) :   1.0657 B( 16-C , 17-C ) :   1.3250 B( 16-C , 77-H ) :   1.0094
B( 17-C , 18-C ) :   1.3368 B( 17-C , 22-C ) :   0.9932 B( 18-C , 19-S ) :   1.1373
B( 18-C , 20-C ) :   1.2267 B( 20-C , 21-C ) :   1.3628 B( 20-C , 30-S ) :   1.1502
B( 21-C , 22-C ) :   0.9794 B( 21-C , 28-C ) :   1.3479 B( 22-C , 23-C ) :   1.7143
B( 23-C , 24-C ) :   1.1335 B( 23-C , 26-C ) :   1.1341 B( 24-C , 25-N ) :   3.0004
B( 26-C , 27-N ) :   2.9931 B( 28-C , 29-C ) :   1.3411 B( 28-C , 78-H ) :   1.0064
B( 29-C , 30-S ) :   1.0869 B( 29-C , 31-C ) :   1.2247 B( 31-C , 32-C ) :   1.5130
B( 31-C , 79-H ) :   0.9760 B( 32-C , 33-C ) :   1.1676 B( 32-C , 36-S ) :   1.0408
B( 33-C , 34-C ) :   1.5649 B( 33-C , 80-H ) :   0.9982 B( 34-C , 35-C ) :   1.2118
B( 34-C , 81-H ) :   0.9951 B( 35-C , 36-S ) :   1.0558 B( 35-C , 37-C ) :   1.4523
B( 37-C , 38-C ) :   1.2217 B( 37-C , 41-S ) :   1.0467 B( 38-C , 39-C ) :   1.5559
B( 38-C , 82-H ) :   0.9955 B( 39-C , 40-C ) :   1.1733 B( 39-C , 83-H ) :   0.9985
B( 40-C , 41-S ) :   1.0607 B( 40-C , 42-C ) :   1.5399 B( 42-C , 43-C ) :   1.2142
B( 42-C , 84-H ) :   0.9537 B( 43-C , 44-C ) :   1.3559 B( 43-C , 47-S ) :   1.1055
B( 44-C , 45-C ) :   1.3807 B( 44-C , 85-H ) :   0.9647 B( 45-C , 46-C ) :   1.3951
B( 45-C , 50-C ) :   0.9897 B( 46-C , 47-S ) :   1.0927 B( 46-C , 48-C ) :   1.2554
B( 48-C , 49-C ) :   1.3643 B( 48-C , 58-S ) :   1.1557 B( 49-C , 50-C ) :   1.0086
B( 49-C , 56-C ) :   1.3108 B( 50-C , 51-C ) :   1.6962 B( 51-C , 52-C ) :   1.1529
B( 51-C , 54-C ) :   1.1517 B( 52-C , 53-N ) :   2.9527 B( 54-C , 55-N ) :   2.9196
B( 56-C , 57-C ) :   1.3892 B( 56-C , 86-H ) :   0.9957 B( 57-C , 58-S ) :   1.0663
B( 57-C , 59-C ) :   1.1639 B( 59-C , 60-C ) :   1.6367 B( 59-C , 87-H ) :   0.9479
B( 60-C , 61-C ) :   0.9459 B( 60-C , 65-C ) :   1.0338 B( 61-C , 62-O ) :   2.2413
B( 61-C , 63-C ) :   1.0252 B( 63-C , 64-C ) :   1.4568 B( 63-C , 73-S ) :   1.1320
B( 64-C , 65-C ) :   1.0240 B( 64-C , 71-C ) :   1.2769 B( 65-C , 66-C ) :   1.6547
B( 66-C , 67-C ) :   1.1345 B( 66-C , 69-C ) :   1.1452 B( 67-C , 68-N ) :   3.0014
B( 69-C , 70-N ) :   3.0278 B( 71-C , 72-C ) :   1.5372 B( 71-C , 88-H ) :   0.9962
B( 72-C , 73-S ) :   1.1911 B( 72-C , 89-H ) :   0.9626

-----------------------------------------------------------------------------
         ABSORPTION SPECTRUM VIA TRANSITION ELECTRIC DIPOLE MOMENTS
-----------------------------------------------------------------------------
State   Energy  Wavelength   fosc         T2         TX        TY        TZ
        (cm-1)    (nm)                  (au**2)     (au)      (au)      (au)
-----------------------------------------------------------------------------
   0    6351.2   1574.5   0.201449802  10.44204   1.07159   0.06208  -3.04793
   1   10034.4    996.6   0.244792376   8.03120  -1.67295   1.22193  -1.93373
   2   13966.5    716.0   0.315919557   7.44669   0.74561  -0.05702  -2.62441
   3   14880.1    672.0   0.182521473   4.03815  -1.71900   0.88522   0.54735
   4   17289.2    578.4   0.290376987   5.52919  -1.85221   1.35349   0.51633
   5   18201.7    549.4   0.255945747   4.62925   1.73324  -1.04418  -0.73132
   6   19163.4    521.8   0.216086320   3.71219  -1.64423   0.79146   0.61830
   7   20480.4    488.3   0.284103859   4.56682   1.73151  -0.54050  -1.12985
   8   20882.4    478.9   0.719279932  11.33948   2.79346  -1.27447  -1.38267
   9   22355.7    447.3   0.285669522   4.20680  -1.50420   0.88899   1.07418
  10   22553.5    443.4   0.341034229   4.97805   1.99547  -0.99665  -0.05332
  11   24672.7    405.3   0.066229689   0.88371   0.84121   0.03199   0.41840
  12   25036.1    399.4   0.053483064   0.70327   0.65703  -0.18439  -0.48743
  13   25556.1    391.3   0.014186249   0.18275   0.16085  -0.08811  -0.38615
  14   26101.8    383.1   0.033928926   0.42793  -0.45778   0.43079  -0.18107
  15   26926.4    371.4   0.018968037   0.23191  -0.22668   0.20212  -0.37373
  16   27310.2    366.2   0.121908117   1.46954   1.09888  -0.39546  -0.32498
  17   27638.1    361.8   0.030746061   0.36623  -0.42489   0.00985   0.43082
  18   27981.2    357.4   0.260126714   3.06051   0.62816   0.18560   1.62218
  19   28413.3    351.9   0.311213955   3.60589  -1.32760   0.65529  -1.18910
  20   28646.5    349.1   0.161371381   1.85452  -0.59458   0.11048   1.22016
  21   29087.9    343.8   0.005202131   0.05888   0.12883  -0.20561  -0.00197
  22   29320.3    341.1   0.101742883   1.14238   0.59888  -0.34007  -0.81736
  23   29526.9    338.7   0.270939368   3.02085   0.31269  -0.12967  -1.70478
  24   29821.7    335.3   0.269322673   2.97314   0.22581  -0.03547   1.70906
  25   30389.2    329.1   0.015569091   0.16866  -0.18143   0.04031   0.36622
  26   30408.8    328.9   0.034693498   0.37560   0.03336  -0.01225  -0.61183
  27   30738.0    325.3   0.045367459   0.48590   0.50302  -0.35867   0.32283
  28   31043.2    322.1   0.004728860   0.05015   0.16171   0.08292   0.13085
  29   31296.4    319.5   0.119786455   1.26005  -0.19657  -0.23344  -1.08024
  30   31387.1    318.6   0.152366249   1.59814  -0.53064   0.07993   1.14463
  31   31668.5    315.8   0.287195709   2.98557   1.60793  -0.56932   0.27571
  32   31703.3    315.4   0.271745133   2.82184  -0.65898   0.34908  -1.50523
  33   31874.7    313.7   0.119780341   1.23713  -0.25864   0.45013   0.98368
  34   32013.7    312.4   0.234519473   2.41167  -0.71521   0.22079   1.36066
  35   32138.7    311.2   0.003138070   0.03214   0.16449  -0.01563   0.06960
  36   32359.5    309.0   0.051806401   0.52706  -0.10265   0.16361  -0.69982
  37   32396.7    308.7   0.002595302   0.02637   0.01763   0.08917   0.13457
  38   33204.3    301.2   0.201566081   1.99847   0.26337   0.16171  -1.37948
  39   33286.8    300.4   0.159219293   1.57471   1.21014  -0.14748   0.29752
  40   33574.4    297.8   0.080951938   0.79377  -0.70785   0.53873   0.04988
  41   33789.2    296.0   0.028631342   0.27896   0.02132  -0.45408   0.26891
  42   34102.8    293.2   0.059616715   0.57551   0.35231   0.26332  -0.61810
  43   34180.2    292.6   0.110397183   1.06331  -0.02009  -0.21947  -1.00734
  44   34567.9    289.3   0.055984982   0.53318  -0.63414   0.34799  -0.09976
  45   34631.7    288.8   0.093751156   0.89121  -0.26172   0.17867  -0.88926
  46   34751.2    287.8   0.025320702   0.23987   0.43743  -0.10447   0.19396
  47   34896.6    286.6   0.120923697   1.14079  -0.84430   0.07549   0.64980
  48   35026.8    285.5   0.161887395   1.52156   0.81141  -0.28101   0.88556
  49   35119.9    284.7   0.354849176   3.32634  -0.01362  -0.44067   1.76974
  50   35306.6    283.2   0.019727225   0.18394  -0.28358   0.27517  -0.16674
  51   35426.2    282.3   0.267953211   2.49006  -1.04567  -0.15641  -1.17139
  52   35686.6    280.2   0.205417173   1.89499   1.33144  -0.34668  -0.04570
  53   36303.3    275.5   0.019617298   0.17790   0.33400   0.23905  -0.09590
  54   36450.3    274.3   0.082937608   0.74908   0.79040   0.33516  -0.10960
  55   36555.0    273.6   0.059365190   0.53464   0.64461   0.21175  -0.27254
  56   36750.6    272.1   0.003872728   0.03469  -0.15050   0.04170   0.10150
  57   36877.7    271.2   0.027328873   0.24397  -0.34713  -0.18080   0.30129
  58   37035.8    270.0   0.170752637   1.51782  -0.66982  -0.47157  -0.92021
  59   37164.6    269.1   0.148226572   1.31302  -1.11247  -0.18883   0.19943
  60   37563.1    266.2   0.022248614   0.19499   0.34573   0.24783  -0.11849
  61   37769.3    264.8   0.016512243   0.14393  -0.06848   0.05548   0.36900
  62   37883.8    264.0   0.029257037   0.25425  -0.47092  -0.13377  -0.12077
  63   37965.3    263.4   0.028611487   0.24810   0.09381   0.38796   0.29797
  64   38160.5    262.1   0.127286584   1.09811   1.00018  -0.00676  -0.31256
  65   38414.6    260.3   0.054632493   0.46820  -0.65836   0.05207   0.17901
  66   38622.4    258.9   0.004170681   0.03555  -0.02390  -0.17765   0.05849
  67   38710.0    258.3   0.004132836   0.03515   0.03230  -0.15537   0.09982
  68   38861.0    257.3   0.014495347   0.12280  -0.29420   0.12860   0.14037
  69   38992.6    256.5   0.003427447   0.02894   0.14153  -0.03770  -0.08652
  70   39129.5    255.6   0.012742060   0.10720   0.19978  -0.23176  -0.11652
  71   39224.8    254.9   0.021974629   0.18443   0.35918   0.05559   0.22876
  72   39368.8    254.0   0.062459873   0.52231   0.18666  -0.12419  -0.68705
  73   39629.6    252.3   0.038916635   0.32329   0.20561  -0.10550   0.51950
  74   39783.6    251.4   0.008634024   0.07145  -0.03766   0.04299   0.26111
  75   39811.4    251.2   0.100482226   0.83092  -0.46195   0.11923   0.77672
  76   40010.6    249.9   0.068050405   0.55993  -0.29876   0.10990   0.67719
  77   40081.9    249.5   0.004390919   0.03606   0.07718  -0.08481  -0.15138
  78   40189.5    248.8   0.055785330   0.45697  -0.65446   0.16517  -0.03690

FINAL SINGLE POINT ENERGY     -5912.849605127753

DIPOLE MOMENT
-------------
                                X             Y             Z
Electronic contribution:    -14.70169       7.77658       1.49482
Nuclear contribution   :     18.62505     -11.08375       2.91769
                        -----------------------------------------
Total Dipole Moment    :      3.92336      -3.30717       4.41251
                        -----------------------------------------
Magnitude (a.u.)       :      6.76760
Magnitude (Debye)      :     17.20188

Rotational constants in cm-1:     0.000976     0.000488     0.000335
Rotational constants in MHz :    29.245358    14.629928    10.041328

                             ****ORCA TERMINATED NORMALLY****
TOTAL RUN TIME: 0 days 0 hours 23 minutes 10 seconds 812 msec
