                         Program Version 4.2.0 -  RELEASE  -
|  1> # ORCA input file
|  2> # SCF done       -206.033909429311          0.000669773705
|  3> ! CAM-B3LYP def2-SVP def2/J RIJCOSX Grid4 TightSCF
|  4> %maxcore 5000
|  5> %tddft
|  6>     Mode sTDDFT
|  7>     Ethresh 5.0
|  8>     maxcore 5000
|  9> end
| 10>
| 11> %pal
| 12>   nprocs 6
| 13>   end
| 14> * xyz 0 1
| 15>    C       -0.29480        -6.70561        -8.58163
| 16>    C       -0.30848        -8.17047        -8.66896
| 17>    O       -0.72537        -8.95769        -7.83868
| 18>    C        0.29198        -8.50957        -9.97177
| 19>    C        0.63578        -7.32509       -10.64746
| 20>    C        0.26862        -6.18135        -9.81505
| 21>    C        0.42590        -4.86690       -10.16582
| 22>    C        0.98358        -4.43721       -11.38981
| 23>    N        1.42591        -4.01907       -12.36268
| 24>    C        0.05539        -3.75223        -9.38307
| 25>    N       -0.21820        -2.79377        -8.81296
| 26>    C        1.22548        -7.40722       -11.90108
| 27>    C        1.45789        -8.65853       -12.45123
| 28>    C        1.10877        -9.81855       -11.76722
| 29>    C        0.51729        -9.75937       -10.51021
| 30>   Cl        1.41580       -11.35057       -12.48913
| 31>    C       -0.71301        -5.96819        -7.50419
| 32>    C       -1.25023        -6.38066        -6.27371
| 33>    C       -1.58027        -5.45806        -5.27115
| 34>    C       -2.07958        -6.06645        -4.13674
| 35>    C       -2.14474        -7.47612        -4.27012
| 36>    S       -1.58596        -8.03897        -5.77613
| 37>    C       -2.65370        -8.01195        -3.06468
| 38>    C       -2.90722        -6.94908        -2.16805
| 39>    C       -2.56020        -5.69421        -2.81531
| 40>    C       -2.66392        -4.44055        -2.28896
| 41>    C       -3.15199        -4.21929        -0.98366
| 42>    N       -3.55074        -4.04413         0.07705
| 43>    C       -2.29195        -3.28551        -3.00959
| 44>    N       -1.98921        -2.34264        -3.58679
| 45>    C       -3.39491        -7.38398        -0.94351
| 46>    C       -3.51555        -8.76887        -0.90797
| 47>    S       -3.02547        -9.54441        -2.40743
| 48>    C       -3.95480        -9.57761         0.15297
| 49>    C       -4.06107       -10.97260         0.09966
| 50>    C       -4.52723       -11.56016         1.32260
| 51>    N       -4.74512       -12.87475         1.40299
| 52>    C       -4.48063       -13.59241         0.33353
| 53>    C       -4.79612       -15.04395         0.40530
| 54>    O       -5.41529       -15.53012         1.32502
| 55>    C       -4.32752       -15.83636        -0.74615
| 56>    C       -3.78599       -15.29819        -1.84368
| 57>    C       -3.58264       -13.85072        -2.03061
| 58>    O       -3.14409       -13.38063        -3.05828
| 59>    C       -3.94723       -13.01193        -0.86031
| 60>    N       -3.75918       -11.71408        -0.96519
| 61>    C       -4.75405       -10.60681         2.32747
| 62>    S       -4.42723        -9.00826         1.72171
| 63>    C       -5.17249       -10.87436         3.64347
| 64>    C       -5.27246       -12.13832         4.21828
| 65>    C       -5.70476       -12.06807         5.53372
| 66>    C       -5.95866       -10.74821         5.96834
| 67>    S       -5.62591        -9.59118         4.75700
| 68>    C       -6.42471       -10.79214         7.30153
| 69>    C       -6.46949       -12.14272         7.71210
| 70>    C       -5.97700       -12.98066         6.63392
| 71>    C       -5.72431       -14.31856         6.69564
| 72>    C       -6.01263       -15.05766         7.86359
| 73>    N       -6.26065       -15.63973         8.81997
| 74>    C       -5.10952       -15.03602         5.64579
| 75>    N       -4.57501       -15.62842         4.82353
| 76>    C       -6.89221       -12.29502         9.02406
| 77>    C       -7.16450       -11.07837         9.63422
| 78>    S       -6.92340        -9.72685         8.53322
| 79>    C       -7.62358       -10.83864        10.94780
| 80>    C       -7.57735       -11.67204        12.02384
| 81>    C       -8.48769       -11.40678        13.17521
| 82>    O       -9.11489       -10.39550        13.38023
| 83>    C       -8.49073       -12.66148        13.95751
| 84>    C       -7.55338       -13.55709        13.40987
| 85>    C       -6.86182       -12.90191        12.30257
| 86>    C       -5.63084       -13.26745        11.82539
| 87>    C       -4.92923       -14.41404        12.25713
| 88>    N       -4.31205       -15.32630        12.57748
| 89>    C       -4.87248       -12.49818        10.92104
| 90>    N       -4.20610       -11.89557        10.20602
| 91>    C       -7.41281       -14.82436        13.95539
| 92>    C       -8.19736       -15.17119        15.04418
| 93>    C       -9.10519       -14.26723        15.58751
| 94>    C       -9.26806       -12.99602        15.04727
| 95>   Cl      -10.04847       -14.73537        16.94922
| 96>    H        1.50734        -6.52623       -12.45357
| 97>    H        1.91663        -8.73727       -13.42431
| 98>    H        0.24228       -10.65073        -9.96896
| 99>    H       -0.61492        -4.89188        -7.57964
|100>    H       -1.44324        -4.39880        -5.40031
|101>    H       -3.65386        -6.75660        -0.10935
|102>    H       -4.47611       -16.90390        -0.65639
|103>    H       -3.47566       -15.91340        -2.67750
|104>    H       -5.04306       -13.03378         3.66885
|105>    H       -7.04405       -13.24033         9.51180
|106>    H       -8.13880        -9.89818        11.11724
|107>    H       -6.72265       -15.54202        13.54225
|108>    H       -8.10586       -16.15406        15.47901
|109>    H       -9.97388       -12.29214        15.45885
|110> *
|111>
|112>                          ****END OF INPUT****

CARTESIAN COORDINATES (ANGSTROEM)
---------------------------------
  C     -0.294800   -6.705610   -8.581630
  C     -0.308480   -8.170470   -8.668960
  O     -0.725370   -8.957690   -7.838680
  C      0.291980   -8.509570   -9.971770
  C      0.635780   -7.325090  -10.647460
  C      0.268620   -6.181350   -9.815050
  C      0.425900   -4.866900  -10.165820
  C      0.983580   -4.437210  -11.389810
  N      1.425910   -4.019070  -12.362680
  C      0.055390   -3.752230   -9.383070
  N     -0.218200   -2.793770   -8.812960
  C      1.225480   -7.407220  -11.901080
  C      1.457890   -8.658530  -12.451230
  C      1.108770   -9.818550  -11.767220
  C      0.517290   -9.759370  -10.510210
  Cl     1.415800  -11.350570  -12.489130
  C     -0.713010   -5.968190   -7.504190
  C     -1.250230   -6.380660   -6.273710
  C     -1.580270   -5.458060   -5.271150
  C     -2.079580   -6.066450   -4.136740
  C     -2.144740   -7.476120   -4.270120
  S     -1.585960   -8.038970   -5.776130
  C     -2.653700   -8.011950   -3.064680
  C     -2.907220   -6.949080   -2.168050
  C     -2.560200   -5.694210   -2.815310
  C     -2.663920   -4.440550   -2.288960
  C     -3.151990   -4.219290   -0.983660
  N     -3.550740   -4.044130    0.077050
  C     -2.291950   -3.285510   -3.009590
  N     -1.989210   -2.342640   -3.586790
  C     -3.394910   -7.383980   -0.943510
  C     -3.515550   -8.768870   -0.907970
  S     -3.025470   -9.544410   -2.407430
  C     -3.954800   -9.577610    0.152970
  C     -4.061070  -10.972600    0.099660
  C     -4.527230  -11.560160    1.322600
  N     -4.745120  -12.874750    1.402990
  C     -4.480630  -13.592410    0.333530
  C     -4.796120  -15.043950    0.405300
  O     -5.415290  -15.530120    1.325020
  C     -4.327520  -15.836360   -0.746150
  C     -3.785990  -15.298190   -1.843680
  C     -3.582640  -13.850720   -2.030610
  O     -3.144090  -13.380630   -3.058280
  C     -3.947230  -13.011930   -0.860310
  N     -3.759180  -11.714080   -0.965190
  C     -4.754050  -10.606810    2.327470
  S     -4.427230   -9.008260    1.721710
  C     -5.172490  -10.874360    3.643470
  C     -5.272460  -12.138320    4.218280
  C     -5.704760  -12.068070    5.533720
  C     -5.958660  -10.748210    5.968340
  S     -5.625910   -9.591180    4.757000
  C     -6.424710  -10.792140    7.301530
  C     -6.469490  -12.142720    7.712100
  C     -5.977000  -12.980660    6.633920
  C     -5.724310  -14.318560    6.695640
  C     -6.012630  -15.057660    7.863590
  N     -6.260650  -15.639730    8.819970
  C     -5.109520  -15.036020    5.645790
  N     -4.575010  -15.628420    4.823530
  C     -6.892210  -12.295020    9.024060
  C     -7.164500  -11.078370    9.634220
  S     -6.923400   -9.726850    8.533220
  C     -7.623580  -10.838640   10.947800
  C     -7.577350  -11.672040   12.023840
  C     -8.487690  -11.406780   13.175210
  O     -9.114890  -10.395500   13.380230
  C     -8.490730  -12.661480   13.957510
  C     -7.553380  -13.557090   13.409870
  C     -6.861820  -12.901910   12.302570
  C     -5.630840  -13.267450   11.825390
  C     -4.929230  -14.414040   12.257130
  N     -4.312050  -15.326300   12.577480
  C     -4.872480  -12.498180   10.921040
  N     -4.206100  -11.895570   10.206020
  C     -7.412810  -14.824360   13.955390
  C     -8.197360  -15.171190   15.044180
  C     -9.105190  -14.267230   15.587510
  C     -9.268060  -12.996020   15.047270
  Cl   -10.048470  -14.735370   16.949220
  H      1.507340   -6.526230  -12.453570
  H      1.916630   -8.737270  -13.424310
  H      0.242280  -10.650730   -9.968960
  H     -0.614920   -4.891880   -7.579640
  H     -1.443240   -4.398800   -5.400310
  H     -3.653860   -6.756600   -0.109350
  H     -4.476110  -16.903900   -0.656390
  H     -3.475660  -15.913400   -2.677500
  H     -5.043060  -13.033780    3.668850
  H     -7.044050  -13.240330    9.511800
  H     -8.138800   -9.898180   11.117240
  H     -6.722650  -15.542020   13.542250
  H     -8.105860  -16.154060   15.479010
  H     -9.973880  -12.292140   15.458850

 Total Charge           Charge          ....    0
 Multiplicity           Mult            ....    1
 Number of Electrons    NEL             ....  590
 Basis Dimension        Dim             .... 1232

ORBITAL ENERGIES
----------------

  NO   OCC          E(Eh)            E(eV)
   0   2.0000    -101.600621     -2764.6935
   1   2.0000    -101.598841     -2764.6450
   2   2.0000     -89.016077     -2422.2506
   3   2.0000     -89.005334     -2421.9583
   4   2.0000     -89.002525     -2421.8818
   5   2.0000     -88.996517     -2421.7183
   6   2.0000     -88.994843     -2421.6728
   7   2.0000     -19.239308      -523.5282
   8   2.0000     -19.237064      -523.4671
   9   2.0000     -19.234107      -523.3867
  10   2.0000     -19.225431      -523.1506
  11   2.0000     -14.467111      -393.6701
  12   2.0000     -14.463882      -393.5822
  13   2.0000     -14.438972      -392.9044
  14   2.0000     -14.437515      -392.8648
  15   2.0000     -14.434772      -392.7901
  16   2.0000     -14.433606      -392.7584
  17   2.0000     -14.424259      -392.5040
  18   2.0000     -14.423258      -392.4768
  19   2.0000     -14.419831      -392.3835
  20   2.0000     -14.418710      -392.3531
  21   2.0000     -10.388922      -282.6970
  22   2.0000     -10.385710      -282.6095
  23   2.0000     -10.381497      -282.4949
  24   2.0000     -10.376309      -282.3537
  25   2.0000     -10.374103      -282.2937
  26   2.0000     -10.371264      -282.2165
  27   2.0000     -10.359918      -281.9077
  28   2.0000     -10.359634      -281.9000
  29   2.0000     -10.357853      -281.8515
  30   2.0000     -10.355339      -281.7831
  31   2.0000     -10.354164      -281.7511
  32   2.0000     -10.353028      -281.7202
  33   2.0000     -10.352648      -281.7099
  34   2.0000     -10.351346      -281.6744
  35   2.0000     -10.350467      -281.6505
  36   2.0000     -10.350339      -281.6470
  37   2.0000     -10.350153      -281.6420
  38   2.0000     -10.350088      -281.6402
  39   2.0000     -10.349956      -281.6366
  40   2.0000     -10.349022      -281.6112
  41   2.0000     -10.348625      -281.6004
  42   2.0000     -10.346373      -281.5391
  43   2.0000     -10.345923      -281.5269
  44   2.0000     -10.344561      -281.4898
  45   2.0000     -10.339269      -281.3458
  46   2.0000     -10.338865      -281.3348
  47   2.0000     -10.337987      -281.3109
  48   2.0000     -10.335704      -281.2488
  49   2.0000     -10.334746      -281.2227
  50   2.0000     -10.334517      -281.2165
  51   2.0000     -10.333358      -281.1850
  52   2.0000     -10.332542      -281.1628
  53   2.0000     -10.332436      -281.1599
  54   2.0000     -10.331864      -281.1443
  55   2.0000     -10.325456      -280.9699
  56   2.0000     -10.325433      -280.9693
  57   2.0000     -10.322605      -280.8924
  58   2.0000     -10.320815      -280.8437
  59   2.0000     -10.319126      -280.7977
  60   2.0000     -10.318820      -280.7894
  61   2.0000     -10.318374      -280.7772
  62   2.0000     -10.318291      -280.7750
  63   2.0000     -10.317958      -280.7659
  64   2.0000     -10.316821      -280.7350
  65   2.0000     -10.316144      -280.7166
  66   2.0000     -10.315501      -280.6990
  67   2.0000     -10.315083      -280.6877
  68   2.0000     -10.314877      -280.6821
  69   2.0000     -10.311453      -280.5889
  70   2.0000     -10.310617      -280.5661
  71   2.0000     -10.309216      -280.5280
  72   2.0000     -10.308015      -280.4954
  73   2.0000     -10.307709      -280.4870
  74   2.0000     -10.307708      -280.4870
  75   2.0000     -10.307297      -280.4758
  76   2.0000     -10.306784      -280.4619
  77   2.0000     -10.306373      -280.4507
  78   2.0000     -10.306137      -280.4443
  79   2.0000     -10.305434      -280.4251
  80   2.0000     -10.304690      -280.4049
  81   2.0000      -9.555735      -260.0248
  82   2.0000      -9.553963      -259.9765
  83   2.0000      -8.110276      -220.6918
  84   2.0000      -8.100121      -220.4155
  85   2.0000      -8.097283      -220.3383
  86   2.0000      -8.089698      -220.1319
  87   2.0000      -8.087124      -220.0618
  88   2.0000      -7.325933      -199.3488
  89   2.0000      -7.324178      -199.3010
  90   2.0000      -7.316000      -199.0785
  91   2.0000      -7.315477      -199.0642
  92   2.0000      -7.314217      -199.0300
  93   2.0000      -7.313693      -199.0157
  94   2.0000      -6.079377      -165.4283
  95   2.0000      -6.075250      -165.3159
  96   2.0000      -6.072969      -165.2539
  97   2.0000      -6.069414      -165.1571
  98   2.0000      -6.066475      -165.0772
  99   2.0000      -6.065263      -165.0442
 100   2.0000      -6.062326      -164.9643
 101   2.0000      -6.062297      -164.9635
 102   2.0000      -6.059698      -164.8928
 103   2.0000      -6.059089      -164.8762
 104   2.0000      -6.056531      -164.8066
 105   2.0000      -6.054580      -164.7535
 106   2.0000      -6.052047      -164.6846
 107   2.0000      -6.051757      -164.6767
 108   2.0000      -6.049733      -164.6216
 109   2.0000      -1.156437       -31.4682
 110   2.0000      -1.151019       -31.3208
 111   2.0000      -1.150123       -31.2964
 112   2.0000      -1.141193       -31.0535
 113   2.0000      -1.117094       -30.3977
 114   2.0000      -1.057642       -28.7799
 115   2.0000      -1.053233       -28.6599
 116   2.0000      -1.044415       -28.4200
 117   2.0000      -1.030772       -28.0487
 118   2.0000      -1.028780       -27.9945
 119   2.0000      -1.027842       -27.9690
 120   2.0000      -1.027235       -27.9525
 121   2.0000      -1.024924       -27.8896
 122   2.0000      -1.013790       -27.5866
 123   2.0000      -1.013181       -27.5701
 124   2.0000      -1.012699       -27.5569
 125   2.0000      -1.011697       -27.5297
 126   2.0000      -1.009087       -27.4586
 127   2.0000      -1.001101       -27.2413
 128   2.0000      -0.999887       -27.2083
 129   2.0000      -0.998633       -27.1742
 130   2.0000      -0.988960       -26.9110
 131   2.0000      -0.987856       -26.8809
 132   2.0000      -0.970563       -26.4104
 133   2.0000      -0.965709       -26.2783
 134   2.0000      -0.950845       -25.8738
 135   2.0000      -0.940416       -25.5900
 136   2.0000      -0.939995       -25.5786
 137   2.0000      -0.930255       -25.3135
 138   2.0000      -0.924415       -25.1546
 139   2.0000      -0.910842       -24.7853
 140   2.0000      -0.907244       -24.6874
 141   2.0000      -0.894404       -24.3380
 142   2.0000      -0.891229       -24.2516
 143   2.0000      -0.887058       -24.1381
 144   2.0000      -0.884136       -24.0586
 145   2.0000      -0.875858       -23.8333
 146   2.0000      -0.869425       -23.6583
 147   2.0000      -0.868227       -23.6257
 148   2.0000      -0.864604       -23.5271
 149   2.0000      -0.864366       -23.5206
 150   2.0000      -0.859108       -23.3775
 151   2.0000      -0.826686       -22.4953
 152   2.0000      -0.817806       -22.2536
 153   2.0000      -0.807605       -21.9760
 154   2.0000      -0.804374       -21.8881
 155   2.0000      -0.797532       -21.7020
 156   2.0000      -0.786388       -21.3987
 157   2.0000      -0.783255       -21.3135
 158   2.0000      -0.777282       -21.1509
 159   2.0000      -0.774688       -21.0803
 160   2.0000      -0.772038       -21.0082
 161   2.0000      -0.753006       -20.4903
 162   2.0000      -0.746842       -20.3226
 163   2.0000      -0.721775       -19.6405
 164   2.0000      -0.717323       -19.5194
 165   2.0000      -0.708403       -19.2766
 166   2.0000      -0.706417       -19.2226
 167   2.0000      -0.704391       -19.1675
 168   2.0000      -0.700842       -19.0709
 169   2.0000      -0.696639       -18.9565
 170   2.0000      -0.694095       -18.8873
 171   2.0000      -0.691833       -18.8257
 172   2.0000      -0.688172       -18.7261
 173   2.0000      -0.686639       -18.6844
 174   2.0000      -0.680715       -18.5232
 175   2.0000      -0.675671       -18.3859
 176   2.0000      -0.661753       -18.0072
 177   2.0000      -0.657837       -17.9007
 178   2.0000      -0.645515       -17.5654
 179   2.0000      -0.643836       -17.5197
 180   2.0000      -0.636791       -17.3280
 181   2.0000      -0.632356       -17.2073
 182   2.0000      -0.630789       -17.1646
 183   2.0000      -0.627254       -17.0685
 184   2.0000      -0.622591       -16.9416
 185   2.0000      -0.621375       -16.9085
 186   2.0000      -0.621055       -16.8998
 187   2.0000      -0.613507       -16.6944
 188   2.0000      -0.610904       -16.6235
 189   2.0000      -0.596159       -16.2223
 190   2.0000      -0.593029       -16.1371
 191   2.0000      -0.591186       -16.0870
 192   2.0000      -0.585236       -15.9251
 193   2.0000      -0.583211       -15.8700
 194   2.0000      -0.574648       -15.6370
 195   2.0000      -0.570873       -15.5343
 196   2.0000      -0.567987       -15.4557
 197   2.0000      -0.566977       -15.4282
 198   2.0000      -0.561066       -15.2674
 199   2.0000      -0.558288       -15.1918
 200   2.0000      -0.556553       -15.1446
 201   2.0000      -0.552533       -15.0352
 202   2.0000      -0.549500       -14.9527
 203   2.0000      -0.548875       -14.9356
 204   2.0000      -0.548311       -14.9203
 205   2.0000      -0.544629       -14.8201
 206   2.0000      -0.543598       -14.7921
 207   2.0000      -0.539602       -14.6833
 208   2.0000      -0.538866       -14.6633
 209   2.0000      -0.536522       -14.5995
 210   2.0000      -0.535289       -14.5660
 211   2.0000      -0.530389       -14.4326
 212   2.0000      -0.526263       -14.3204
 213   2.0000      -0.521156       -14.1814
 214   2.0000      -0.520283       -14.1576
 215   2.0000      -0.516851       -14.0642
 216   2.0000      -0.514672       -14.0049
 217   2.0000      -0.513078       -13.9616
 218   2.0000      -0.512523       -13.9465
 219   2.0000      -0.511033       -13.9059
 220   2.0000      -0.509842       -13.8735
 221   2.0000      -0.506484       -13.7821
 222   2.0000      -0.505385       -13.7522
 223   2.0000      -0.503236       -13.6938
 224   2.0000      -0.501189       -13.6381
 225   2.0000      -0.499533       -13.5930
 226   2.0000      -0.498210       -13.5570
 227   2.0000      -0.497849       -13.5472
 228   2.0000      -0.493581       -13.4310
 229   2.0000      -0.489253       -13.3133
 230   2.0000      -0.489082       -13.3086
 231   2.0000      -0.488005       -13.2793
 232   2.0000      -0.483064       -13.1448
 233   2.0000      -0.477748       -13.0002
 234   2.0000      -0.476946       -12.9784
 235   2.0000      -0.472875       -12.8676
 236   2.0000      -0.469392       -12.7728
 237   2.0000      -0.467750       -12.7281
 238   2.0000      -0.467650       -12.7254
 239   2.0000      -0.466995       -12.7076
 240   2.0000      -0.464318       -12.6347
 241   2.0000      -0.464063       -12.6278
 242   2.0000      -0.463223       -12.6049
 243   2.0000      -0.459492       -12.5034
 244   2.0000      -0.459193       -12.4953
 245   2.0000      -0.456615       -12.4251
 246   2.0000      -0.456243       -12.4150
 247   2.0000      -0.454377       -12.3642
 248   2.0000      -0.451088       -12.2747
 249   2.0000      -0.448548       -12.2056
 250   2.0000      -0.447020       -12.1640
 251   2.0000      -0.446315       -12.1449
 252   2.0000      -0.445359       -12.1188
 253   2.0000      -0.445013       -12.1094
 254   2.0000      -0.444437       -12.0937
 255   2.0000      -0.441973       -12.0267
 256   2.0000      -0.441707       -12.0195
 257   2.0000      -0.438363       -11.9285
 258   2.0000      -0.436424       -11.8757
 259   2.0000      -0.433689       -11.8013
 260   2.0000      -0.433580       -11.7983
 261   2.0000      -0.431984       -11.7549
 262   2.0000      -0.431702       -11.7472
 263   2.0000      -0.428692       -11.6653
 264   2.0000      -0.425714       -11.5843
 265   2.0000      -0.424736       -11.5576
 266   2.0000      -0.416255       -11.3269
 267   2.0000      -0.413968       -11.2646
 268   2.0000      -0.412371       -11.2212
 269   2.0000      -0.409867       -11.1531
 270   2.0000      -0.407723       -11.0947
 271   2.0000      -0.397727       -10.8227
 272   2.0000      -0.396476       -10.7887
 273   2.0000      -0.395426       -10.7601
 274   2.0000      -0.384328       -10.4581
 275   2.0000      -0.383292       -10.4299
 276   2.0000      -0.376610       -10.2481
 277   2.0000      -0.368625       -10.0308
 278   2.0000      -0.365456        -9.9446
 279   2.0000      -0.360239        -9.8026
 280   2.0000      -0.358851        -9.7648
 281   2.0000      -0.357801        -9.7363
 282   2.0000      -0.355452        -9.6723
 283   2.0000      -0.353845        -9.6286
 284   2.0000      -0.350333        -9.5330
 285   2.0000      -0.350014        -9.5244
 286   2.0000      -0.347843        -9.4653
 287   2.0000      -0.343997        -9.3606
 288   2.0000      -0.331787        -9.0284
 289   2.0000      -0.328971        -8.9518
 290   2.0000      -0.319299        -8.6886
 291   2.0000      -0.315285        -8.5793
 292   2.0000      -0.308901        -8.4056
 293   2.0000      -0.283339        -7.7101
 294   2.0000      -0.248188        -6.7535
 295   0.0000      -0.132127        -3.5954
 296   0.0000      -0.115205        -3.1349
 297   0.0000      -0.101745        -2.7686
 298   0.0000      -0.097542        -2.6543
 299   0.0000      -0.091305        -2.4845

MULLIKEN ATOMIC CHARGES
-----------------------
   0 C :   -0.092581
   1 C :    0.169977
   2 O :   -0.181524
   3 C :   -0.031958
   4 C :    0.034659
   5 C :    0.324161
   6 C :   -0.350091
   7 C :   -0.189811
   8 N :    0.160023
   9 C :   -0.190611
  10 N :    0.155416
  11 C :   -0.031749
  12 C :    0.053029
  13 C :    0.072069
  14 C :   -0.010838
  15 Cl:   -0.066540
  16 C :   -0.032221
  17 C :   -0.052260
  18 C :   -0.065427
  19 C :    0.051662
  20 C :   -0.068456
  21 S :    0.249825
  22 C :   -0.090186
  23 C :    0.033868
  24 C :    0.302074
  25 C :   -0.296311
  26 C :   -0.189484
  27 N :    0.172193
  28 C :   -0.194499
  29 N :    0.186002
  30 C :   -0.082089
  31 C :   -0.071253
  32 S :    0.250268
  33 C :   -0.116800
  34 C :    0.023005
  35 C :    0.033085
  36 N :    0.063782
  37 C :   -0.112104
  38 C :    0.143652
  39 O :   -0.092862
  40 C :   -0.014704
  41 C :   -0.018413
  42 C :    0.141735
  43 O :   -0.104219
  44 C :   -0.113060
  45 N :    0.029728
  46 C :   -0.122496
  47 S :    0.229658
  48 C :   -0.089467
  49 C :   -0.057615
  50 C :    0.034103
  51 C :   -0.098907
  52 S :    0.196159
  53 C :   -0.070916
  54 C :   -0.003813
  55 C :    0.308703
  56 C :   -0.285353
  57 C :   -0.182864
  58 N :    0.168060
  59 C :   -0.190369
  60 N :    0.199319
  61 C :   -0.006483
  62 C :   -0.112892
  63 S :    0.218434
  64 C :    0.082502
  65 C :   -0.134771
  66 C :    0.135681
  67 O :   -0.136169
  68 C :   -0.007254
  69 C :    0.010963
  70 C :    0.265482
  71 C :   -0.331497
  72 C :   -0.173564
  73 N :    0.167126
  74 C :   -0.197531
  75 N :    0.170980
  76 C :   -0.022486
  77 C :    0.049972
  78 C :    0.069138
  79 C :   -0.013802
  80 Cl:   -0.066367
  81 H :    0.008990
  82 H :   -0.000161
  83 H :   -0.002209
  84 H :    0.015599
  85 H :    0.029804
  86 H :    0.009893
  87 H :    0.026354
  88 H :    0.022118
  89 H :    0.031137
  90 H :    0.026903
  91 H :    0.022340
  92 H :    0.016891
  93 H :    0.001701
  94 H :   -0.001179
Sum of atomic charges:   -0.0000000

LOEWDIN ATOMIC CHARGES
----------------------
   0 C :   -0.112703
   1 C :    0.086589
   2 O :   -0.166434
   3 C :   -0.038241
   4 C :   -0.017240
   5 C :    0.075254
   6 C :   -0.136334
   7 C :   -0.019058
   8 N :   -0.048170
   9 C :   -0.022848
  10 N :   -0.043996
  11 C :    0.009626
  12 C :   -0.017013
  13 C :   -0.106310
  14 C :   -0.005019
  15 Cl:    0.145625
  16 C :    0.056166
  17 C :   -0.183912
  18 C :    0.012348
  19 C :   -0.076646
  20 C :   -0.164989
  21 S :    0.552455
  22 C :   -0.188189
  23 C :   -0.056484
  24 C :    0.078027
  25 C :   -0.101725
  26 C :   -0.015456
  27 N :   -0.034771
  28 C :   -0.020828
  29 N :   -0.022929
  30 C :   -0.031624
  31 C :   -0.172818
  32 S :    0.537942
  33 C :   -0.193288
  34 C :   -0.051724
  35 C :   -0.040884
  36 N :    0.011689
  37 C :   -0.036334
  38 C :    0.055612
  39 O :   -0.086901
  40 C :   -0.007374
  41 C :   -0.014306
  42 C :    0.056202
  43 O :   -0.100163
  44 C :   -0.034208
  45 N :   -0.012036
  46 C :   -0.188888
  47 S :    0.512067
  48 C :   -0.180131
  49 C :   -0.005951
  50 C :   -0.054176
  51 C :   -0.180075
  52 S :    0.471572
  53 C :   -0.160441
  54 C :   -0.062482
  55 C :    0.077733
  56 C :   -0.088146
  57 C :   -0.010317
  58 N :   -0.031250
  59 C :   -0.022401
  60 N :   -0.012091
  61 C :    0.007454
  62 C :   -0.180725
  63 S :    0.499216
  64 C :    0.042576
  65 C :   -0.090203
  66 C :    0.084709
  67 O :   -0.135233
  68 C :   -0.040391
  69 C :   -0.015273
  70 C :    0.063868
  71 C :   -0.132240
  72 C :   -0.019944
  73 N :   -0.040883
  74 C :   -0.015203
  75 N :   -0.044718
  76 C :    0.009926
  77 C :   -0.015362
  78 C :   -0.106616
  79 C :   -0.004600
  80 Cl:    0.145364
  81 H :    0.043471
  82 H :    0.040130
  83 H :    0.043629
  84 H :    0.053740
  85 H :    0.048442
  86 H :    0.037724
  87 H :    0.048688
  88 H :    0.047265
  89 H :    0.044624
  90 H :    0.042642
  91 H :    0.046703
  92 H :    0.045164
  93 H :    0.040489
  94 H :    0.043967

  Mayer bond orders larger than 0.100000
B(  0-C ,  1-C ) :   0.9852 B(  0-C ,  5-C ) :   1.0758 B(  0-C , 16-C ) :   1.4915
B(  1-C ,  2-O ) :   2.1177 B(  1-C ,  3-C ) :   0.9585 B(  3-C ,  4-C ) :   1.3335
B(  3-C , 14-C ) :   1.3664 B(  4-C ,  5-C ) :   0.9904 B(  4-C , 11-C ) :   1.3615
B(  5-C ,  6-C ) :   1.6324 B(  6-C ,  7-C ) :   1.1440 B(  6-C ,  9-C ) :   1.1434
B(  7-C ,  8-N ) :   2.9754 B(  9-C , 10-N ) :   2.9603 B( 11-C , 12-C ) :   1.3722
B( 11-C , 81-H ) :   0.9828 B( 12-C , 13-C ) :   1.3848 B( 12-C , 82-H ) :   0.9865
B( 13-C , 14-C ) :   1.3276 B( 13-C , 15-Cl) :   0.9889 B( 14-C , 83-H ) :   1.0117
B( 16-C , 17-C ) :   1.2699 B( 16-C , 84-H ) :   0.9406 B( 17-C , 18-C ) :   1.3220
B( 17-C , 21-S ) :   1.0696 B( 18-C , 19-C ) :   1.3348 B( 18-C , 85-H ) :   1.0098
B( 19-C , 20-C ) :   1.3460 B( 19-C , 24-C ) :   0.9842 B( 20-C , 21-S ) :   1.1297
B( 20-C , 22-C ) :   1.2136 B( 22-C , 23-C ) :   1.3978 B( 22-C , 32-S ) :   1.0933
B( 23-C , 24-C ) :   0.9936 B( 23-C , 30-C ) :   1.3287 B( 24-C , 25-C ) :   1.7182
B( 25-C , 26-C ) :   1.1338 B( 25-C , 28-C ) :   1.1340 B( 26-C , 27-N ) :   2.9916
B( 28-C , 29-N ) :   2.9958 B( 30-C , 31-C ) :   1.3813 B( 30-C , 86-H ) :   0.9942
B( 31-C , 32-S ) :   1.1248 B( 31-C , 33-C ) :   1.2409 B( 33-C , 34-C ) :   1.3174
B( 33-C , 46-C ) :   0.1334 B( 33-C , 47-S ) :   1.1559 B( 34-C , 35-C ) :   1.1914
B( 34-C , 45-N ) :   1.4118 B( 35-C , 36-N ) :   1.4380 B( 35-C , 46-C ) :   1.3614
B( 36-N , 37-C ) :   1.7150 B( 37-C , 38-C ) :   0.8900 B( 37-C , 44-C ) :   1.0997
B( 38-C , 39-O ) :   2.2436 B( 38-C , 40-C ) :   1.0191 B( 40-C , 41-C ) :   1.6858
B( 40-C , 87-H ) :   0.9964 B( 41-C , 42-C ) :   1.0249 B( 41-C , 88-H ) :   0.9963
B( 42-C , 43-O ) :   2.2497 B( 42-C , 44-C ) :   0.8907 B( 44-C , 45-N ) :   1.7025
B( 46-C , 47-S ) :   1.1553 B( 46-C , 48-C ) :   1.1947 B( 48-C , 49-C ) :   1.4424
B( 48-C , 52-S ) :   1.0895 B( 49-C , 50-C ) :   1.2838 B( 49-C , 89-H ) :   0.9850
B( 50-C , 51-C ) :   1.4158 B( 50-C , 55-C ) :   0.9860 B( 51-C , 52-S ) :   1.1181
B( 51-C , 53-C ) :   1.2122 B( 53-C , 54-C ) :   1.4043 B( 53-C , 63-S ) :   1.1486
B( 54-C , 55-C ) :   1.0021 B( 54-C , 61-C ) :   1.3572 B( 55-C , 56-C ) :   1.7223
B( 56-C , 57-C ) :   1.1349 B( 56-C , 59-C ) :   1.1344 B( 57-C , 58-N ) :   2.9786
B( 59-C , 60-N ) :   3.0010 B( 61-C , 62-C ) :   1.3943 B( 61-C , 90-H ) :   0.9808
B( 62-C , 63-S ) :   1.0895 B( 62-C , 64-C ) :   1.1352 B( 64-C , 65-C ) :   1.6776
B( 64-C , 91-H ) :   0.9295 B( 65-C , 66-C ) :   0.9458 B( 65-C , 70-C ) :   1.0307
B( 66-C , 67-O ) :   2.2700 B( 66-C , 68-C ) :   0.9167 B( 68-C , 69-C ) :   1.3341
B( 68-C , 79-C ) :   1.3680 B( 69-C , 70-C ) :   1.0066 B( 69-C , 76-C ) :   1.3666
B( 70-C , 71-C ) :   1.6590 B( 71-C , 72-C ) :   1.1245 B( 71-C , 74-C ) :   1.1707
B( 72-C , 73-N ) :   3.0002 B( 74-C , 75-N ) :   2.9987 B( 76-C , 77-C ) :   1.3705
B( 76-C , 92-H ) :   0.9860 B( 77-C , 78-C ) :   1.3832 B( 77-C , 93-H ) :   0.9885
B( 78-C , 79-C ) :   1.3351 B( 78-C , 80-Cl) :   0.9913 B( 79-C , 94-H ) :   1.0118

-----------------------------------------------------------------------------
         ABSORPTION SPECTRUM VIA TRANSITION ELECTRIC DIPOLE MOMENTS
-----------------------------------------------------------------------------
State   Energy  Wavelength   fosc         T2         TX        TY        TZ
        (cm-1)    (nm)                  (au**2)     (au)      (au)      (au)
-----------------------------------------------------------------------------
   0   10209.7    979.5   1.140680380  36.78116   1.86142   1.89698  -5.45140
   1   12951.5    772.1   0.021453077   0.54531   0.28678   0.67765  -0.06213
   2   14689.6    680.8   0.078457626   1.75833  -0.36365  -0.57479   1.13829
   3   17590.2    568.5   0.110757971   2.07291  -0.03630  -1.02332  -1.01213
   4   19359.2    516.5   0.036473296   0.62024  -0.44107  -0.51992   0.39419
   5   19875.3    503.1   0.687016391  11.37963  -0.59004  -0.81749   3.21919
   6   21003.9    476.1   0.474980912   7.44480   1.27118   0.36286  -2.38689
   7   22556.3    443.3   0.101662236   1.48378   0.25476   0.21760  -1.17112
   8   24495.6    408.2   0.002227924   0.02994   0.13950  -0.04777   0.09056
   9   24850.6    402.4   0.032537232   0.43104  -0.24309  -0.08673   0.60368
  10   25290.1    395.4   0.161547327   2.10293   0.47541  -0.30176  -1.33636
  11   25742.3    388.5   0.000504764   0.00646   0.00462   0.04209  -0.06828
  12   25917.7    385.8   0.041650595   0.52906   0.01368   0.36991  -0.62612
  13   26562.6    376.5   0.002347222   0.02909  -0.10213   0.13123  -0.03793
  14   26804.9    373.1   0.023012030   0.28263  -0.26354   0.27755   0.36897
  15   27303.9    366.2   0.260153162   3.13675  -0.94905  -0.37468   1.44764
  16   27519.8    363.4   0.029862168   0.35723   0.07850  -0.39408   0.44246
  17   28111.7    355.7   0.008338228   0.09765  -0.07228  -0.18352  -0.24237
  18   28416.8    351.9   0.080505197   0.93266   0.27146  -0.69542  -0.61266
  19   28630.9    349.3   0.098858545   1.13672  -0.01698  -1.02482   0.29355
  20   29042.6    344.3   0.032206936   0.36508  -0.33728  -0.42526  -0.26547
  21   29114.7    343.5   0.001698986   0.01921   0.07015   0.10298   0.06071
  22   29656.5    337.2   0.288110589   3.19827   0.41786  -1.36836  -1.07296
  23   29902.3    334.4   0.008676773   0.09553  -0.15181  -0.25969   0.07101
  24   30343.1    329.6   0.139803398   1.51682   0.03605   1.19346  -0.30195
  25   30529.8    327.5   0.002417974   0.02607  -0.08380  -0.04661   0.12992
  26   30772.7    325.0   0.477379358   5.10710  -0.53549  -1.66841   1.42716
  27   31402.9    318.4   0.311814521   3.26891  -0.81533   0.27382   1.59034
  28   31778.4    314.7   0.077275560   0.80055  -0.06899  -0.40770  -0.79345
  29   31863.8    313.8   0.010072186   0.10406   0.03800   0.27318  -0.16732
  30   32603.6    306.7   0.222383146   2.24549   0.48380  -1.13979  -0.84398
  31   33004.2    303.0   0.249318974   2.48692  -0.60169   1.29063   0.67761
  32   33085.6    302.2   0.030148360   0.29999  -0.32253  -0.38639   0.21601
  33   33098.4    302.1   0.018147143   0.18050  -0.13270  -0.38391  -0.12452
  34   33224.1    301.0   0.060478197   0.59927   0.37310   0.48338   0.47582
  35   33498.6    298.5   0.000219791   0.00216  -0.01264  -0.04184   0.01581
  36   33549.3    298.1   0.037661508   0.36956  -0.22581   0.23399   0.51363
  37   33884.9    295.1   0.116971202   1.13644  -0.07768   1.06252  -0.03824
  38   34150.8    292.8   0.122101063   1.17705  -0.42001   0.38554   0.92304
  39   34153.7    292.8   0.097797714   0.94268  -0.38802  -0.58114   0.67409
  40   34407.8    290.6   0.018368558   0.17575   0.12957  -0.38754  -0.09367
  41   34479.5    290.0   0.391650209   3.73950  -0.37712   1.79951   0.59919
  42   34524.4    289.6   0.020961818   0.19988   0.22143  -0.35483  -0.15795
  43   34877.4    286.7   0.096189329   0.90794   0.56634   0.58150  -0.49905
  44   35049.1    285.3   0.046988197   0.44135   0.54693  -0.20877  -0.31406
  45   35152.0    284.5   0.333235193   3.12088   1.01438  -0.91589  -1.11940
  46   35188.7    284.2   0.211254448   1.97642   0.25419   1.37613  -0.13442
  47   35255.3    283.6   0.223307588   2.08524   0.28833  -1.16486  -0.80324
  48   35439.6    282.2   0.066454163   0.61732   0.40158  -0.41558  -0.53230
  49   35447.6    282.1   0.016105614   0.14958   0.07774   0.30156   0.22934
  50   35612.1    280.8   0.328730658   3.03891   0.40664   1.68154  -0.21445
  51   36207.4    276.2   0.060858172   0.55335   0.26124  -0.59504  -0.36197
  52   36250.2    275.9   0.096218314   0.87382   0.45416  -0.11683  -0.80865
  53   36311.5    275.4   0.001806990   0.01638   0.01824   0.01100   0.12621
  54   36465.6    274.2   0.010494979   0.09475   0.20338   0.22818  -0.03633
  55   36581.4    273.4   0.407693210   3.66901  -0.14727   1.87649   0.35511
  56   36817.1    271.6   0.043893898   0.39249  -0.19377   0.00609   0.59574
  57   36858.9    271.3   0.004964216   0.04434  -0.19060  -0.07393   0.05044
  58   36914.0    270.9   0.170051216   1.51658   0.81246   0.36341  -0.85113
  59   37052.2    269.9   0.016433255   0.14601   0.26547   0.20219   0.18616
  60   37385.3    267.5   0.029312822   0.25813  -0.30483   0.40636  -0.00909
  61   37681.5    265.4   0.006614502   0.05779  -0.07618   0.02184  -0.22696
  62   37760.4    264.8   0.012386257   0.10799  -0.02852  -0.30348   0.12278
  63   38079.5    262.6   0.076230715   0.65904   0.43123  -0.28330  -0.62676
  64   38222.2    261.6   0.012705896   0.10944  -0.11161   0.27977   0.13677
  65   38420.7    260.3   0.003142408   0.02693  -0.03996  -0.14403  -0.06771
  66   38506.2    259.7   0.002626815   0.02246  -0.02832   0.13753   0.05237
  67   38577.7    259.2   0.001957509   0.01670  -0.07521   0.10080   0.02980
  68   38758.3    258.0   0.014207332   0.12068  -0.09920   0.18414   0.27736
  69   39132.4    255.5   0.008530791   0.07177  -0.09576   0.02576  -0.24887
  70   39406.3    253.8   0.002414931   0.02018  -0.04826   0.12461  -0.04815
  71   39589.8    252.6   0.017966061   0.14940   0.00705  -0.37278  -0.10191
  72   39609.2    252.5   0.011875262   0.09870  -0.00284   0.22163   0.22265
  73   39680.6    252.0   0.020210265   0.16768   0.07441   0.08533  -0.39352
  74   39989.5    250.1   0.026409240   0.21741  -0.06332  -0.44295  -0.13114
  75   40107.0    249.3   0.024549315   0.20151   0.05420   0.43390  -0.10150
  76   40179.9    248.9   0.068405685   0.56048  -0.31177  -0.05405   0.67850
  77   40308.2    248.1   0.000623986   0.00510   0.04845   0.00850   0.05174

FINAL SINGLE POINT ENERGY     -6049.527309207357

DIPOLE MOMENT
-------------
                                X             Y             Z
Electronic contribution:     -2.83808       0.85776       4.63318
Nuclear contribution   :      1.25651      -2.85631      -4.76185
                        -----------------------------------------
Total Dipole Moment    :     -1.58157      -1.99855      -0.12868
                        -----------------------------------------
Magnitude (a.u.)       :      2.55189
Magnitude (Debye)      :      6.48638

Rotational constants in cm-1:     0.001844     0.000166     0.000154
Rotational constants in MHz :    55.277787     4.976085     4.624540

                             ****ORCA TERMINATED NORMALLY****
TOTAL RUN TIME: 0 days 0 hours 10 minutes 6 seconds 186 msec
