                         Program Version 4.2.0 -  RELEASE  -
|  1> # ORCA input file
|  2> # SCF done       -193.807345254349          0.000792027878
|  3> ! CAM-B3LYP def2-SVP def2/J RIJCOSX Grid4 TightSCF
|  4> %maxcore 5000
|  5> %tddft
|  6>     Mode sTDDFT
|  7>     Ethresh 5.0
|  8>     maxcore 5000
|  9> end
| 10>
| 11> %pal
| 12>   nprocs 6
| 13>   end
| 14> * xyz 0 1
| 15>    C        8.33500         4.71537        -5.89745
| 16>    C        8.48560         5.59799        -6.92264
| 17>    S        9.91802         5.25744        -7.82139
| 18>    C       10.32299         3.91693        -6.81697
| 19>    C        9.39349         3.75142        -5.84118
| 20>    C        9.15756         2.84237        -4.71864
| 21>    O        9.85536         1.91061        -4.36057
| 22>    C        7.88961         3.28630        -4.10775
| 23>    C        7.39772         4.45553        -4.82146
| 24>    C        6.28146         5.20861        -4.57046
| 25>    C        5.95499         6.31729        -5.38009
| 26>    N        5.67641         7.21927        -6.03195
| 27>    C        5.35708         5.00511        -3.52720
| 28>    N        4.57043         4.89687        -2.69774
| 29>    C        7.24865         2.66789        -3.06661
| 30>    C        7.59799         1.52273        -2.33115
| 31>    C        6.74719         0.99391        -1.35138
| 32>    C        7.25494        -0.15366        -0.77509
| 33>    C        8.52394        -0.50149        -1.30156
| 34>    S        9.06969         0.56872        -2.50885
| 35>    C        8.94409        -1.70260        -0.68447
| 36>    C        7.94118        -2.12297         0.21882
| 37>    C        6.85893        -1.15215         0.20527
| 38>    C        5.71924        -1.17896         0.95319
| 39>    C        4.73029        -0.17653         0.85843
| 40>    N        3.92262         0.63335         0.78544
| 41>    C        5.45734        -2.21489         1.87493
| 42>    N        5.24813        -3.05567         2.62553
| 43>    C        8.24093        -3.33144         0.83178
| 44>    C        9.46997        -3.82476         0.40820
| 45>    S       10.27312        -2.77392        -0.75008
| 46>    C       10.08655        -5.03749         0.75749
| 47>    C       11.35919        -5.44218         0.33703
| 48>    C       11.70831        -6.75682         0.78875
| 49>    N       12.87839        -7.31081         0.47505
| 50>    C       13.70011        -6.58839        -0.25734
| 51>    C       15.00777        -7.20109        -0.60254
| 52>    O       15.31221        -8.32344        -0.25883
| 53>    C       15.90671        -6.34442        -1.39465
| 54>    C       15.58645        -5.11312        -1.80603
| 55>    C       14.29573        -4.46376        -1.51847
| 56>    O       14.02354        -3.35169        -1.91776
| 57>    C       13.35489        -5.27151        -0.70179
| 58>    N       12.19591        -4.72043        -0.40709
| 59>    C       10.70126        -7.36386         1.54794
| 60>    S        9.34804        -6.28500         1.71863
| 61>    C       10.75243        -8.67782         2.04092
| 62>    C        9.76891        -9.37571         2.73383
| 63>    C       10.15756       -10.68311         2.98830
| 64>    C       11.44817       -10.97516         2.49259
| 65>    S       12.18543        -9.64161         1.71705
| 66>    C       11.73136       -12.33216         2.76583
| 67>    C       10.61975       -12.90638         3.42778
| 68>    C        9.60764       -11.87948         3.60960
| 69>    C        8.40394       -11.99614         4.23825
| 70>    C        7.50836       -10.90875         4.33236
| 71>    N        6.77873       -10.02740         4.40385
| 72>    C        7.96903       -13.18765         4.85955
| 73>    N        7.59804       -14.13175         5.39248
| 74>    C       10.77637       -14.26029         3.68598
| 75>    C       12.00158       -14.73987         3.23675
| 76>    S       12.97622       -13.45663         2.50168
| 77>    C       12.60357       -16.01387         3.28751
| 78>    C       12.07924       -17.24344         3.57661
| 79>    C       10.63980       -17.60730         3.73161
| 80>    O        9.67748       -16.87233         3.72054
| 81>    C       10.62892       -19.07019         3.84546
| 82>    C        9.69646       -20.04632         3.98609
| 83>    S       10.44512       -21.59788         4.04941
| 84>    C       12.02521       -20.92811         3.88497
| 85>    C       11.96830       -19.57096         3.78631
| 86>    C       12.88316       -18.45757         3.64247
| 87>    C       14.24818       -18.58145         3.62343
| 88>    C       14.86408       -19.84876         3.70068
| 89>    N       15.38336       -20.87018         3.76023
| 90>    C       15.18605       -17.53327         3.54812
| 91>    N       16.00694       -16.73109         3.50087
| 92>    H        7.86314         6.41947        -7.21567
| 93>    H       11.20896         3.34548        -7.00866
| 94>    H        6.30358         3.09720        -2.75440
| 95>    H        5.80268         1.44755        -1.10741
| 96>    H        7.62117        -3.84830         1.54253
| 97>    H       16.86566        -6.78517        -1.63155
| 98>    H       16.27648        -4.51760        -2.38846
| 99>    H        8.82925        -8.93220         3.01066
|100>    H       10.04552       -14.88907         4.16068
|101>    H       13.65622       -15.99546         3.02815
|102>    H        8.63127       -19.95581         4.05893
|103>    H       12.87483       -21.58078         3.86930
|104> *
|105>
|106>                          ****END OF INPUT****

CARTESIAN COORDINATES (ANGSTROEM)
---------------------------------
  C      8.335000    4.715370   -5.897450
  C      8.485600    5.597990   -6.922640
  S      9.918020    5.257440   -7.821390
  C     10.322990    3.916930   -6.816970
  C      9.393490    3.751420   -5.841180
  C      9.157560    2.842370   -4.718640
  O      9.855360    1.910610   -4.360570
  C      7.889610    3.286300   -4.107750
  C      7.397720    4.455530   -4.821460
  C      6.281460    5.208610   -4.570460
  C      5.954990    6.317290   -5.380090
  N      5.676410    7.219270   -6.031950
  C      5.357080    5.005110   -3.527200
  N      4.570430    4.896870   -2.697740
  C      7.248650    2.667890   -3.066610
  C      7.597990    1.522730   -2.331150
  C      6.747190    0.993910   -1.351380
  C      7.254940   -0.153660   -0.775090
  C      8.523940   -0.501490   -1.301560
  S      9.069690    0.568720   -2.508850
  C      8.944090   -1.702600   -0.684470
  C      7.941180   -2.122970    0.218820
  C      6.858930   -1.152150    0.205270
  C      5.719240   -1.178960    0.953190
  C      4.730290   -0.176530    0.858430
  N      3.922620    0.633350    0.785440
  C      5.457340   -2.214890    1.874930
  N      5.248130   -3.055670    2.625530
  C      8.240930   -3.331440    0.831780
  C      9.469970   -3.824760    0.408200
  S     10.273120   -2.773920   -0.750080
  C     10.086550   -5.037490    0.757490
  C     11.359190   -5.442180    0.337030
  C     11.708310   -6.756820    0.788750
  N     12.878390   -7.310810    0.475050
  C     13.700110   -6.588390   -0.257340
  C     15.007770   -7.201090   -0.602540
  O     15.312210   -8.323440   -0.258830
  C     15.906710   -6.344420   -1.394650
  C     15.586450   -5.113120   -1.806030
  C     14.295730   -4.463760   -1.518470
  O     14.023540   -3.351690   -1.917760
  C     13.354890   -5.271510   -0.701790
  N     12.195910   -4.720430   -0.407090
  C     10.701260   -7.363860    1.547940
  S      9.348040   -6.285000    1.718630
  C     10.752430   -8.677820    2.040920
  C      9.768910   -9.375710    2.733830
  C     10.157560  -10.683110    2.988300
  C     11.448170  -10.975160    2.492590
  S     12.185430   -9.641610    1.717050
  C     11.731360  -12.332160    2.765830
  C     10.619750  -12.906380    3.427780
  C      9.607640  -11.879480    3.609600
  C      8.403940  -11.996140    4.238250
  C      7.508360  -10.908750    4.332360
  N      6.778730  -10.027400    4.403850
  C      7.969030  -13.187650    4.859550
  N      7.598040  -14.131750    5.392480
  C     10.776370  -14.260290    3.685980
  C     12.001580  -14.739870    3.236750
  S     12.976220  -13.456630    2.501680
  C     12.603570  -16.013870    3.287510
  C     12.079240  -17.243440    3.576610
  C     10.639800  -17.607300    3.731610
  O      9.677480  -16.872330    3.720540
  C     10.628920  -19.070190    3.845460
  C      9.696460  -20.046320    3.986090
  S     10.445120  -21.597880    4.049410
  C     12.025210  -20.928110    3.884970
  C     11.968300  -19.570960    3.786310
  C     12.883160  -18.457570    3.642470
  C     14.248180  -18.581450    3.623430
  C     14.864080  -19.848760    3.700680
  N     15.383360  -20.870180    3.760230
  C     15.186050  -17.533270    3.548120
  N     16.006940  -16.731090    3.500870
  H      7.863140    6.419470   -7.215670
  H     11.208960    3.345480   -7.008660
  H      6.303580    3.097200   -2.754400
  H      5.802680    1.447550   -1.107410
  H      7.621170   -3.848300    1.542530
  H     16.865660   -6.785170   -1.631550
  H     16.276480   -4.517600   -2.388460
  H      8.829250   -8.932200    3.010660
  H     10.045520  -14.889070    4.160680
  H     13.656220  -15.995460    3.028150
  H      8.631270  -19.955810    4.058930
  H     12.874830  -21.580780    3.869300

 Total Charge           Charge          ....    0
 Multiplicity           Mult            ....    1
 Number of Electrons    NEL             ....  562
 Basis Dimension        Dim             .... 1166

ORBITAL ENERGIES
----------------

  NO   OCC          E(Eh)            E(eV)
   0   2.0000     -89.017532     -2422.2902
   1   2.0000     -88.999869     -2421.8095
   2   2.0000     -88.998975     -2421.7852
   3   2.0000     -88.998451     -2421.7710
   4   2.0000     -88.995079     -2421.6792
   5   2.0000     -88.989350     -2421.5233
   6   2.0000     -88.985825     -2421.4274
   7   2.0000     -19.242851      -523.6246
   8   2.0000     -19.242536      -523.6160
   9   2.0000     -19.230547      -523.2898
  10   2.0000     -19.221784      -523.0513
  11   2.0000     -14.470844      -393.7717
  12   2.0000     -14.470684      -393.7673
  13   2.0000     -14.437388      -392.8613
  14   2.0000     -14.436652      -392.8413
  15   2.0000     -14.434569      -392.7846
  16   2.0000     -14.433217      -392.7478
  17   2.0000     -14.421037      -392.4164
  18   2.0000     -14.420526      -392.4025
  19   2.0000     -14.417672      -392.3248
  20   2.0000     -14.416291      -392.2872
  21   2.0000     -10.392367      -282.7907
  22   2.0000     -10.392132      -282.7843
  23   2.0000     -10.382658      -282.5265
  24   2.0000     -10.377556      -282.3876
  25   2.0000     -10.372802      -282.2583
  26   2.0000     -10.371434      -282.2211
  27   2.0000     -10.361428      -281.9488
  28   2.0000     -10.360993      -281.9369
  29   2.0000     -10.359743      -281.9029
  30   2.0000     -10.359675      -281.9011
  31   2.0000     -10.353110      -281.7224
  32   2.0000     -10.352862      -281.7157
  33   2.0000     -10.351450      -281.6773
  34   2.0000     -10.351114      -281.6681
  35   2.0000     -10.350086      -281.6402
  36   2.0000     -10.348608      -281.5999
  37   2.0000     -10.346793      -281.5505
  38   2.0000     -10.346039      -281.5300
  39   2.0000     -10.345664      -281.5198
  40   2.0000     -10.345500      -281.5154
  41   2.0000     -10.343898      -281.4718
  42   2.0000     -10.339269      -281.3458
  43   2.0000     -10.338917      -281.3362
  44   2.0000     -10.338251      -281.3181
  45   2.0000     -10.337351      -281.2936
  46   2.0000     -10.336831      -281.2795
  47   2.0000     -10.334207      -281.2081
  48   2.0000     -10.333280      -281.1828
  49   2.0000     -10.333057      -281.1768
  50   2.0000     -10.332653      -281.1658
  51   2.0000     -10.332298      -281.1561
  52   2.0000     -10.331486      -281.1340
  53   2.0000     -10.329357      -281.0761
  54   2.0000     -10.326922      -281.0098
  55   2.0000     -10.324501      -280.9440
  56   2.0000     -10.323902      -280.9277
  57   2.0000     -10.323777      -280.9243
  58   2.0000     -10.323324      -280.9119
  59   2.0000     -10.323272      -280.9105
  60   2.0000     -10.323075      -280.9051
  61   2.0000     -10.320260      -280.8285
  62   2.0000     -10.319004      -280.7944
  63   2.0000     -10.318524      -280.7813
  64   2.0000     -10.318450      -280.7793
  65   2.0000     -10.317818      -280.7621
  66   2.0000     -10.317700      -280.7589
  67   2.0000     -10.317343      -280.7492
  68   2.0000     -10.313601      -280.6473
  69   2.0000     -10.311808      -280.5985
  70   2.0000     -10.311184      -280.5816
  71   2.0000     -10.308965      -280.5212
  72   2.0000     -10.307707      -280.4870
  73   2.0000     -10.307398      -280.4785
  74   2.0000     -10.305568      -280.4288
  75   2.0000     -10.298101      -280.2256
  76   2.0000     -10.293402      -280.0977
  77   2.0000      -8.111394      -220.7223
  78   2.0000      -8.094614      -220.2656
  79   2.0000      -8.092246      -220.2012
  80   2.0000      -8.091762      -220.1881
  81   2.0000      -8.087404      -220.0695
  82   2.0000      -8.085145      -220.0080
  83   2.0000      -8.081687      -219.9139
  84   2.0000      -6.080512      -165.4591
  85   2.0000      -6.076387      -165.3469
  86   2.0000      -6.074059      -165.2836
  87   2.0000      -6.063705      -165.0018
  88   2.0000      -6.061675      -164.9466
  89   2.0000      -6.061143      -164.9321
  90   2.0000      -6.059559      -164.8890
  91   2.0000      -6.057187      -164.8244
  92   2.0000      -6.057155      -164.8236
  93   2.0000      -6.056825      -164.8146
  94   2.0000      -6.056650      -164.8098
  95   2.0000      -6.054520      -164.7519
  96   2.0000      -6.054368      -164.7477
  97   2.0000      -6.054128      -164.7412
  98   2.0000      -6.052043      -164.6845
  99   2.0000      -6.050912      -164.6537
 100   2.0000      -6.049959      -164.6278
 101   2.0000      -6.049653      -164.6194
 102   2.0000      -6.047895      -164.5716
 103   2.0000      -6.046174      -164.5248
 104   2.0000      -6.044441      -164.4776
 105   2.0000      -1.160599       -31.5815
 106   2.0000      -1.155631       -31.4463
 107   2.0000      -1.147119       -31.2147
 108   2.0000      -1.138424       -30.9781
 109   2.0000      -1.121490       -30.5173
 110   2.0000      -1.056178       -28.7401
 111   2.0000      -1.054219       -28.6867
 112   2.0000      -1.048755       -28.5381
 113   2.0000      -1.030633       -28.0450
 114   2.0000      -1.029496       -28.0140
 115   2.0000      -1.028016       -27.9737
 116   2.0000      -1.026859       -27.9423
 117   2.0000      -1.025635       -27.9089
 118   2.0000      -1.013314       -27.5737
 119   2.0000      -1.012294       -27.5459
 120   2.0000      -1.012005       -27.5381
 121   2.0000      -1.010303       -27.4917
 122   2.0000      -1.008225       -27.4352
 123   2.0000      -1.000788       -27.2328
 124   2.0000      -0.997949       -27.1556
 125   2.0000      -0.996865       -27.1261
 126   2.0000      -0.973095       -26.4793
 127   2.0000      -0.970307       -26.4034
 128   2.0000      -0.964611       -26.2484
 129   2.0000      -0.963015       -26.2050
 130   2.0000      -0.955348       -25.9963
 131   2.0000      -0.931844       -25.3568
 132   2.0000      -0.925271       -25.1779
 133   2.0000      -0.908785       -24.7293
 134   2.0000      -0.904908       -24.6238
 135   2.0000      -0.896635       -24.3987
 136   2.0000      -0.894159       -24.3313
 137   2.0000      -0.887344       -24.1459
 138   2.0000      -0.885080       -24.0842
 139   2.0000      -0.874064       -23.7845
 140   2.0000      -0.868472       -23.6323
 141   2.0000      -0.865076       -23.5399
 142   2.0000      -0.863084       -23.4857
 143   2.0000      -0.847967       -23.0744
 144   2.0000      -0.844264       -22.9736
 145   2.0000      -0.827227       -22.5100
 146   2.0000      -0.821369       -22.3506
 147   2.0000      -0.809582       -22.0299
 148   2.0000      -0.806832       -21.9550
 149   2.0000      -0.798434       -21.7265
 150   2.0000      -0.785205       -21.3665
 151   2.0000      -0.780849       -21.2480
 152   2.0000      -0.775431       -21.1006
 153   2.0000      -0.762843       -20.7580
 154   2.0000      -0.758755       -20.6468
 155   2.0000      -0.749561       -20.3966
 156   2.0000      -0.742885       -20.2149
 157   2.0000      -0.715414       -19.4674
 158   2.0000      -0.712947       -19.4003
 159   2.0000      -0.704231       -19.1631
 160   2.0000      -0.701006       -19.0753
 161   2.0000      -0.695693       -18.9308
 162   2.0000      -0.694381       -18.8951
 163   2.0000      -0.692025       -18.8310
 164   2.0000      -0.685240       -18.6463
 165   2.0000      -0.683537       -18.6000
 166   2.0000      -0.678046       -18.4506
 167   2.0000      -0.676026       -18.3956
 168   2.0000      -0.671870       -18.2825
 169   2.0000      -0.668544       -18.1920
 170   2.0000      -0.651660       -17.7326
 171   2.0000      -0.648409       -17.6441
 172   2.0000      -0.643266       -17.5042
 173   2.0000      -0.642263       -17.4769
 174   2.0000      -0.634584       -17.2679
 175   2.0000      -0.631275       -17.1779
 176   2.0000      -0.628366       -17.0987
 177   2.0000      -0.624883       -17.0039
 178   2.0000      -0.621605       -16.9147
 179   2.0000      -0.616600       -16.7785
 180   2.0000      -0.608384       -16.5550
 181   2.0000      -0.607250       -16.5241
 182   2.0000      -0.603516       -16.4225
 183   2.0000      -0.589039       -16.0286
 184   2.0000      -0.588173       -16.0050
 185   2.0000      -0.584719       -15.9110
 186   2.0000      -0.575675       -15.6649
 187   2.0000      -0.573562       -15.6074
 188   2.0000      -0.564710       -15.3665
 189   2.0000      -0.560017       -15.2388
 190   2.0000      -0.557786       -15.1781
 191   2.0000      -0.556941       -15.1551
 192   2.0000      -0.551819       -15.0158
 193   2.0000      -0.548655       -14.9297
 194   2.0000      -0.547140       -14.8884
 195   2.0000      -0.544111       -14.8060
 196   2.0000      -0.542052       -14.7500
 197   2.0000      -0.539171       -14.6716
 198   2.0000      -0.538305       -14.6480
 199   2.0000      -0.531852       -14.4724
 200   2.0000      -0.531338       -14.4584
 201   2.0000      -0.527452       -14.3527
 202   2.0000      -0.525652       -14.3037
 203   2.0000      -0.522420       -14.2158
 204   2.0000      -0.519514       -14.1367
 205   2.0000      -0.517456       -14.0807
 206   2.0000      -0.511749       -13.9254
 207   2.0000      -0.510859       -13.9012
 208   2.0000      -0.508398       -13.8342
 209   2.0000      -0.507009       -13.7964
 210   2.0000      -0.505611       -13.7584
 211   2.0000      -0.505326       -13.7506
 212   2.0000      -0.503426       -13.6989
 213   2.0000      -0.501609       -13.6495
 214   2.0000      -0.500093       -13.6082
 215   2.0000      -0.498906       -13.5759
 216   2.0000      -0.498026       -13.5520
 217   2.0000      -0.496674       -13.5152
 218   2.0000      -0.495919       -13.4946
 219   2.0000      -0.493035       -13.4162
 220   2.0000      -0.488338       -13.2884
 221   2.0000      -0.483610       -13.1597
 222   2.0000      -0.480407       -13.0725
 223   2.0000      -0.477878       -13.0037
 224   2.0000      -0.475394       -12.9361
 225   2.0000      -0.468814       -12.7571
 226   2.0000      -0.467569       -12.7232
 227   2.0000      -0.466812       -12.7026
 228   2.0000      -0.466225       -12.6866
 229   2.0000      -0.466176       -12.6853
 230   2.0000      -0.462019       -12.5722
 231   2.0000      -0.460634       -12.5345
 232   2.0000      -0.459369       -12.5001
 233   2.0000      -0.455798       -12.4029
 234   2.0000      -0.453002       -12.3268
 235   2.0000      -0.452475       -12.3125
 236   2.0000      -0.452040       -12.3006
 237   2.0000      -0.451298       -12.2804
 238   2.0000      -0.449358       -12.2276
 239   2.0000      -0.445696       -12.1280
 240   2.0000      -0.445600       -12.1254
 241   2.0000      -0.444963       -12.1081
 242   2.0000      -0.444698       -12.1008
 243   2.0000      -0.444119       -12.0851
 244   2.0000      -0.442276       -12.0350
 245   2.0000      -0.441600       -12.0165
 246   2.0000      -0.434901       -11.8342
 247   2.0000      -0.433235       -11.7889
 248   2.0000      -0.432412       -11.7665
 249   2.0000      -0.431335       -11.7372
 250   2.0000      -0.430828       -11.7234
 251   2.0000      -0.430128       -11.7044
 252   2.0000      -0.428921       -11.6715
 253   2.0000      -0.424153       -11.5418
 254   2.0000      -0.417813       -11.3693
 255   2.0000      -0.415846       -11.3157
 256   2.0000      -0.414582       -11.2813
 257   2.0000      -0.413664       -11.2564
 258   2.0000      -0.412218       -11.2170
 259   2.0000      -0.402260       -10.9461
 260   2.0000      -0.394296       -10.7293
 261   2.0000      -0.387920       -10.5558
 262   2.0000      -0.380865       -10.3639
 263   2.0000      -0.373830       -10.1724
 264   2.0000      -0.368006       -10.0139
 265   2.0000      -0.363123        -9.8811
 266   2.0000      -0.358927        -9.7669
 267   2.0000      -0.357437        -9.7263
 268   2.0000      -0.353045        -9.6069
 269   2.0000      -0.352018        -9.5789
 270   2.0000      -0.346989        -9.4421
 271   2.0000      -0.343803        -9.3554
 272   2.0000      -0.343158        -9.3378
 273   2.0000      -0.339178        -9.2295
 274   2.0000      -0.331302        -9.0152
 275   2.0000      -0.328705        -8.9445
 276   2.0000      -0.324638        -8.8339
 277   2.0000      -0.317892        -8.6503
 278   2.0000      -0.305869        -8.3231
 279   2.0000      -0.282183        -7.6786
 280   2.0000      -0.249165        -6.7801
 281   0.0000      -0.133468        -3.6319
 282   0.0000      -0.116799        -3.1783
 283   0.0000      -0.103342        -2.8121
 284   0.0000      -0.101232        -2.7547
 285   0.0000      -0.090661        -2.4670

MULLIKEN ATOMIC CHARGES
-----------------------
   0 C :    0.028699
   1 C :   -0.135483
   2 S :    0.161199
   3 C :   -0.134445
   4 C :    0.029766
   5 C :    0.187290
   6 O :   -0.182898
   7 C :   -0.109920
   8 C :    0.309068
   9 C :   -0.335326
  10 C :   -0.195080
  11 N :    0.152832
  12 C :   -0.186753
  13 N :    0.156015
  14 C :   -0.027813
  15 C :   -0.056161
  16 C :   -0.057022
  17 C :    0.047416
  18 C :   -0.072610
  19 S :    0.250833
  20 C :   -0.092797
  21 C :    0.037303
  22 C :    0.301010
  23 C :   -0.293629
  24 C :   -0.195052
  25 N :    0.189485
  26 C :   -0.190209
  27 N :    0.174448
  28 C :   -0.085003
  29 C :   -0.069479
  30 S :    0.250676
  31 C :   -0.120651
  32 C :    0.019173
  33 C :    0.032093
  34 N :    0.039801
  35 C :   -0.114355
  36 C :    0.139387
  37 O :   -0.101594
  38 C :   -0.017206
  39 C :   -0.016173
  40 C :    0.138201
  41 O :   -0.100582
  42 C :   -0.112530
  43 N :    0.043445
  44 C :   -0.123907
  45 S :    0.243744
  46 C :   -0.072361
  47 C :   -0.080067
  48 C :    0.034859
  49 C :   -0.089273
  50 S :    0.246863
  51 C :   -0.081067
  52 C :   -0.012912
  53 C :    0.307287
  54 C :   -0.295112
  55 C :   -0.191296
  56 N :    0.173853
  57 C :   -0.188643
  58 N :    0.194724
  59 C :    0.008320
  60 C :   -0.114437
  61 S :    0.214552
  62 C :    0.031860
  63 C :   -0.104111
  64 C :    0.170578
  65 O :   -0.144067
  66 C :    0.031114
  67 C :   -0.134684
  68 S :    0.160847
  69 C :   -0.133855
  70 C :    0.030128
  71 C :    0.293372
  72 C :   -0.338751
  73 C :   -0.195784
  74 N :    0.150754
  75 C :   -0.185786
  76 N :    0.154771
  77 H :    0.052733
  78 H :    0.039687
  79 H :    0.016856
  80 H :    0.028684
  81 H :    0.013821
  82 H :    0.022425
  83 H :    0.022631
  84 H :    0.012456
  85 H :    0.037994
  86 H :    0.009865
  87 H :    0.043520
  88 H :    0.052447
Sum of atomic charges:   -0.0000000

LOEWDIN ATOMIC CHARGES
----------------------
   0 C :   -0.062342
   1 C :   -0.148714
   2 S :    0.489403
   3 C :   -0.138726
   4 C :   -0.091848
   5 C :    0.085514
   6 O :   -0.170609
   7 C :   -0.107558
   8 C :    0.076135
   9 C :   -0.141857
  10 C :   -0.015006
  11 N :   -0.054317
  12 C :   -0.025205
  13 N :   -0.046136
  14 C :    0.054837
  15 C :   -0.182460
  16 C :    0.011806
  17 C :   -0.075411
  18 C :   -0.167418
  19 S :    0.552559
  20 C :   -0.185090
  21 C :   -0.056268
  22 C :    0.076741
  23 C :   -0.099759
  24 C :   -0.020728
  25 N :   -0.021861
  26 C :   -0.016750
  27 N :   -0.030688
  28 C :   -0.029219
  29 C :   -0.174840
  30 S :    0.534407
  31 C :   -0.188988
  32 C :   -0.053369
  33 C :   -0.053003
  34 N :   -0.009164
  35 C :   -0.035953
  36 C :    0.055583
  37 O :   -0.098912
  38 C :   -0.010559
  39 C :   -0.010527
  40 C :    0.055453
  41 O :   -0.098380
  42 C :   -0.036880
  43 N :   -0.007609
  44 C :   -0.190415
  45 S :    0.528607
  46 C :   -0.174188
  47 C :   -0.028931
  48 C :   -0.055072
  49 C :   -0.188762
  50 S :    0.533243
  51 C :   -0.159428
  52 C :   -0.072711
  53 C :    0.075055
  54 C :   -0.093636
  55 C :   -0.015739
  56 N :   -0.030115
  57 C :   -0.022130
  58 N :   -0.014858
  59 C :    0.019059
  60 C :   -0.175454
  61 S :    0.501589
  62 C :    0.040343
  63 C :   -0.093310
  64 C :    0.085348
  65 O :   -0.134315
  66 C :   -0.090967
  67 C :   -0.137997
  68 S :    0.489945
  69 C :   -0.149949
  70 C :   -0.064567
  71 C :    0.076778
  72 C :   -0.144645
  73 C :   -0.015039
  74 N :   -0.055556
  75 C :   -0.025736
  76 N :   -0.052443
  77 H :    0.036634
  78 H :    0.036255
  79 H :    0.054212
  80 H :    0.048297
  81 H :    0.038966
  82 H :    0.047885
  83 H :    0.047757
  84 H :    0.038687
  85 H :    0.044329
  86 H :    0.043280
  87 H :    0.037416
  88 H :    0.035991

  Mayer bond orders larger than 0.100000
B(  0-C ,  1-C ) :   1.5349 B(  0-C ,  4-C ) :   1.2260 B(  0-C ,  8-C ) :   0.9942
B(  1-C ,  2-S ) :   1.1785 B(  1-C , 77-H ) :   0.9570 B(  2-S ,  3-C ) :   1.1917
B(  3-C ,  4-C ) :   1.5333 B(  3-C , 78-H ) :   0.9718 B(  4-C ,  5-C ) :   0.9737
B(  5-C ,  6-O ) :   2.1164 B(  5-C ,  7-C ) :   0.9736 B(  7-C ,  8-C ) :   1.0844
B(  7-C , 14-C ) :   1.5117 B(  8-C ,  9-C ) :   1.6404 B(  9-C , 10-C ) :   1.1514
B(  9-C , 12-C ) :   1.1374 B( 10-C , 11-N ) :   2.9899 B( 12-C , 13-N ) :   2.9641
B( 14-C , 15-C ) :   1.2630 B( 14-C , 79-H ) :   0.9414 B( 15-C , 16-C ) :   1.3270
B( 15-C , 19-S ) :   1.0732 B( 16-C , 17-C ) :   1.3346 B( 16-C , 80-H ) :   1.0084
B( 17-C , 18-C ) :   1.3485 B( 17-C , 22-C ) :   0.9873 B( 18-C , 19-S ) :   1.1263
B( 18-C , 20-C ) :   1.2148 B( 20-C , 21-C ) :   1.3964 B( 20-C , 30-S ) :   1.0999
B( 21-C , 22-C ) :   0.9940 B( 21-C , 28-C ) :   1.3280 B( 22-C , 23-C ) :   1.7189
B( 23-C , 24-C ) :   1.1346 B( 23-C , 26-C ) :   1.1332 B( 24-C , 25-N ) :   2.9969
B( 26-C , 27-N ) :   2.9921 B( 28-C , 29-C ) :   1.3827 B( 28-C , 81-H ) :   0.9948
B( 29-C , 30-S ) :   1.1213 B( 29-C , 31-C ) :   1.2369 B( 31-C , 32-C ) :   1.3144
B( 31-C , 44-C ) :   0.1183 B( 31-C , 45-S ) :   1.1596 B( 32-C , 33-C ) :   1.1928
B( 32-C , 43-N ) :   1.4256 B( 33-C , 34-N ) :   1.4174 B( 33-C , 44-C ) :   1.3132
B( 34-N , 35-C ) :   1.7022 B( 35-C , 36-C ) :   0.8929 B( 35-C , 42-C ) :   1.1088
B( 36-C , 37-O ) :   2.2510 B( 36-C , 38-C ) :   1.0227 B( 38-C , 39-C ) :   1.6762
B( 38-C , 82-H ) :   0.9991 B( 39-C , 40-C ) :   1.0231 B( 39-C , 83-H ) :   0.9985
B( 40-C , 41-O ) :   2.2514 B( 40-C , 42-C ) :   0.8952 B( 42-C , 43-N ) :   1.6980
B( 44-C , 45-S ) :   1.1588 B( 44-C , 46-C ) :   1.2412 B( 46-C , 47-C ) :   1.3807
B( 46-C , 50-S ) :   1.1238 B( 47-C , 48-C ) :   1.3316 B( 47-C , 84-H ) :   0.9942
B( 48-C , 49-C ) :   1.4020 B( 48-C , 53-C ) :   0.9902 B( 49-C , 50-S ) :   1.0915
B( 49-C , 51-C ) :   1.2144 B( 51-C , 52-C ) :   1.3711 B( 51-C , 61-S ) :   1.1668
B( 52-C , 53-C ) :   0.9962 B( 52-C , 59-C ) :   1.3277 B( 53-C , 54-C ) :   1.7200
B( 54-C , 55-C ) :   1.1350 B( 54-C , 57-C ) :   1.1338 B( 55-C , 56-N ) :   2.9908
B( 57-C , 58-N ) :   2.9972 B( 59-C , 60-C ) :   1.3962 B( 59-C , 85-H ) :   0.9720
B( 60-C , 61-S ) :   1.0784 B( 60-C , 62-C ) :   1.2093 B( 62-C , 63-C ) :   1.6087
B( 62-C , 86-H ) :   0.9146 B( 63-C , 64-C ) :   0.9307 B( 63-C , 71-C ) :   1.0876
B( 64-C , 65-O ) :   2.1873 B( 64-C , 66-C ) :   0.9608 B( 66-C , 67-C ) :   1.5380
B( 66-C , 70-C ) :   1.2233 B( 67-C , 68-S ) :   1.1899 B( 67-C , 87-H ) :   0.9711
B( 68-S , 69-C ) :   1.1813 B( 69-C , 70-C ) :   1.5308 B( 69-C , 88-H ) :   0.9569
B( 70-C , 71-C ) :   0.9951 B( 71-C , 72-C ) :   1.6371 B( 72-C , 73-C ) :   1.1515
B( 72-C , 75-C ) :   1.1333 B( 73-C , 74-N ) :   2.9902 B( 75-C , 76-N ) :   2.9738

-----------------------------------------------------------------------------
         ABSORPTION SPECTRUM VIA TRANSITION ELECTRIC DIPOLE MOMENTS
-----------------------------------------------------------------------------
State   Energy  Wavelength   fosc         T2         TX        TY        TZ
        (cm-1)    (nm)                  (au**2)     (au)      (au)      (au)
-----------------------------------------------------------------------------
   0   10070.2    993.0   1.172560690  38.33289  -1.31702   5.68812  -2.06000
   1   13120.0    762.2   0.017974761   0.45103  -0.60914   0.04950  -0.27844
   2   14634.6    683.3   0.014582151   0.32803   0.11470  -0.53969   0.15366
   3   16906.1    591.5   0.080193360   1.56161  -1.18534  -0.14323   0.36888
   4   19187.3    521.2   0.017098723   0.29338  -0.41478  -0.14646  -0.31604
   5   20413.1    489.9   1.523561753  24.57125   1.02617  -4.52713   1.73878
   6   21426.7    466.7   0.118167177   1.81559   0.49358  -0.30891  -1.21513
   7   22532.6    443.8   0.254754886   3.72209  -0.50384   1.73368  -0.68014
   8   24550.7    407.3   0.002031847   0.02725  -0.00231   0.06368   0.15227
   9   25019.8    399.7   0.047033038   0.61886   0.64803   0.11459  -0.43103
  10   25574.0    391.0   0.000106203   0.00137   0.02801  -0.02219  -0.00949
  11   25761.6    388.2   0.015315988   0.19573  -0.21321   0.36403  -0.13323
  12   26445.1    378.1   0.002221085   0.02765  -0.04579  -0.15628  -0.03361
  13   26587.4    376.1   0.030302624   0.37522  -0.11629   0.55225  -0.23814
  14   27309.3    366.2   0.028054501   0.33819   0.30146   0.46215  -0.18367
  15   27662.4    361.5   0.049957361   0.59455  -0.56580  -0.26064   0.45441
  16   27973.2    357.5   0.007579442   0.08920   0.21555   0.14796  -0.14438
  17   28104.7    355.8   0.028397468   0.33264  -0.52693  -0.05561   0.22781
  18   28281.6    353.6   0.005809003   0.06762  -0.13040   0.20683  -0.08852
  19   28412.5    352.0   0.004712852   0.05461   0.22298  -0.04060  -0.05691
  20   28608.3    349.5   0.026870743   0.30922   0.36454   0.41770  -0.04301
  21   29333.8    340.9   0.014136589   0.15865  -0.23528  -0.32030   0.02650
  22   29529.9    338.6   0.140735751   1.56898  -1.02728  -0.12247   0.70617
  23   30031.5    333.0   0.101783484   1.11577  -0.65177  -0.53247   0.63831
  24   30537.1    327.5   0.028121881   0.30317   0.03107  -0.51731  -0.18600
  25   30608.1    326.7   0.019522947   0.20998  -0.00538   0.44823   0.09509
  26   30901.0    323.6   0.384421263   4.09553  -0.94915   1.72925  -0.45206
  27   31572.3    316.7   0.457715944   4.77271  -1.23539  -0.76829   1.62980
  28   31617.1    316.3   0.316506809   3.29562   0.66605  -1.68846  -0.03312
  29   32249.7    310.1   0.048161775   0.49165  -0.62452   0.04494   0.31560
  30   32408.2    308.6   0.001847249   0.01876  -0.06923   0.02578  -0.11536
  31   32721.0    305.6   0.128130313   1.28914   1.06315   0.16324  -0.36360
  32   32944.0    303.5   0.396251735   3.95978  -1.69031   0.08494   1.04662
  33   33298.7    300.3   0.058847151   0.58180   0.70842   0.01988  -0.28203
  34   33477.8    298.7   0.017926446   0.17628   0.27096   0.26644  -0.17854
  35   33551.5    298.0   0.069181094   0.67881   0.38520   0.51392  -0.51606
  36   33562.2    298.0   0.102638289   1.00678  -0.68557  -0.65389   0.33046
  37   33667.8    297.0   0.007586670   0.07418  -0.26095   0.04793  -0.06157
  38   33916.4    294.8   0.299048575   2.90274   1.52359   0.69321  -0.31758
  39   34262.5    291.9   0.003035181   0.02916   0.06257   0.14822  -0.05726
  40   34336.7    291.2   0.005475481   0.05250  -0.05388   0.18075  -0.13010
  41   34394.1    290.7   0.009813852   0.09394   0.04998  -0.20382   0.22337
  42   34811.8    287.3   0.008300948   0.07850   0.03549  -0.27734  -0.01798
  43   34823.2    287.2   0.089254842   0.84380   0.80469   0.16224  -0.41226
  44   35104.7    284.9   0.073076945   0.68532  -0.20322  -0.68988   0.40998
  45   35117.0    284.8   0.101576070   0.95225   0.69317   0.24720  -0.64082
  46   35357.5    282.8   0.396575059   3.69249  -1.51190  -0.36906   1.12714
  47   35603.7    280.9   0.016792462   0.15527   0.06535   0.33574  -0.19566
  48   35657.0    280.4   0.153688195   1.41896   1.02759  -0.42398  -0.42808
  49   36001.9    277.8   0.036913071   0.33754  -0.34867   0.43999   0.14962
  50   36233.5    276.0   0.111750747   1.01535   0.71239   0.29046  -0.65075
  51   36421.0    274.6   0.024941669   0.22545   0.38395  -0.20034  -0.19467
  52   36433.2    274.5   0.018466369   0.16686   0.36409  -0.18389   0.02202
  53   36733.4    272.2   0.005982824   0.05362  -0.13719   0.07428  -0.17112
  54   36886.1    271.1   0.010291587   0.09185   0.17333   0.21758  -0.12029
  55   36962.4    270.5   0.080196984   0.71429   0.10962   0.62529  -0.55793
  56   37120.2    269.4   0.103094341   0.91432   0.68248  -0.38979  -0.54463
  57   37335.5    267.8   0.091469415   0.80655  -0.79450   0.26798   0.32171
  58   37513.8    266.6   0.039254316   0.34449   0.53822   0.16488  -0.16618
  59   37639.3    265.7   0.001099597   0.00962   0.03667  -0.04087  -0.08125
  60   37866.4    264.1   0.010610455   0.09225  -0.06909   0.25375   0.15194
  61   38079.1    262.6   0.027338753   0.23636  -0.48195  -0.04003  -0.04976
  62   38195.9    261.8   0.019430926   0.16748  -0.17045  -0.37151  -0.02008
  63   38369.0    260.6   0.296691449   2.54566   1.42379  -0.16182  -0.70163
  64   38569.3    259.3   0.012377219   0.10565  -0.21913  -0.09938   0.21852
  65   38606.9    259.0   0.013300956   0.11342  -0.17553   0.28671   0.02029
  66   38685.9    258.5   0.021237390   0.18073   0.12535   0.29122   0.28321
  67   38794.2    257.8   0.253797268   2.15375   1.32938   0.58038  -0.22284
  68   38975.1    256.6   0.054125391   0.45718  -0.62259  -0.26346  -0.01237
  69   39006.0    256.4   0.041900646   0.35364   0.53502  -0.25581  -0.04421
  70   39336.7    254.2   0.095610275   0.80017   0.86156   0.23670  -0.04306
  71   39550.6    252.8   0.088203612   0.73419   0.77285  -0.08972  -0.35894
  72   39724.6    251.7   0.031284613   0.25927  -0.34040  -0.05759   0.37427
  73   39903.8    250.6   0.024742264   0.20413  -0.44867   0.05228   0.00940
  74   40034.5    249.8   0.063751434   0.52424   0.29396  -0.61407   0.24647
  75   40110.7    249.3   0.019731596   0.16195  -0.35954   0.15230   0.09739
  76   40210.2    248.7   0.066611312   0.54537  -0.73218   0.08065   0.05265

FINAL SINGLE POINT ENERGY     -5772.081608531154

DIPOLE MOMENT
-------------
                                X             Y             Z
Electronic contribution:     -1.17344       1.64738       3.39296
Nuclear contribution   :      3.78182      -2.04778      -5.64157
                        -----------------------------------------
Total Dipole Moment    :      2.60839      -0.40040      -2.24862
                        -----------------------------------------
Magnitude (a.u.)       :      3.46703
Magnitude (Debye)      :      8.81248

Rotational constants in cm-1:     0.001818     0.000188     0.000175
Rotational constants in MHz :    54.488092     5.647018     5.254036

                             ****ORCA TERMINATED NORMALLY****
TOTAL RUN TIME: 0 days 0 hours 9 minutes 22 seconds 92 msec
