                         Program Version 4.2.0 -  RELEASE  -
|  1> # ORCA input file
|  2> # SCF done       -144.127959943700          0.000689156311
|  3> ! CAM-B3LYP def2-SVP def2/J RIJCOSX Grid4 TightSCF
|  4> %maxcore 5000
|  5> %tddft
|  6>     Mode sTDDFT
|  7>     Ethresh 5.0
|  8>     maxcore 5000
|  9> end
| 10>
| 11> %pal
| 12>   nprocs 6
| 13>   end
| 14> * xyz 0 1
| 15>    C       -6.35947        -1.43947         5.14384
| 16>    C       -7.39832        -1.94496         4.42400
| 17>    C       -6.99142        -2.91242         3.49127
| 18>    C       -5.63538        -3.13811         3.50876
| 19>    S       -4.85520        -2.13358         4.70001
| 20>    C       -4.88355        -4.04749         2.71434
| 21>    C       -3.52328        -4.28224         2.76166
| 22>    C       -3.13031        -5.25966         1.84553
| 23>    C       -4.20325        -5.76867         1.09350
| 24>    S       -5.69175        -5.04358         1.51399
| 25>    C       -3.71688        -6.76502         0.21241
| 26>    C       -2.32534        -6.88785         0.41262
| 27>    C       -1.91262        -5.93907         1.43557
| 28>    C       -0.64907        -5.72913         1.90460
| 29>    C       -0.36469        -4.77273         2.90193
| 30>    N       -0.12659        -3.99560         3.71043
| 31>    C        0.45965        -6.45365         1.41899
| 32>    N        1.36292        -7.03962         1.02446
| 33>    C       -1.75091        -7.86555        -0.38934
| 34>    C       -2.69611        -8.48023        -1.20064
| 35>    S       -4.31781        -7.83620        -0.97468
| 36>    C       -2.50590        -9.52171        -2.12355
| 37>    C       -3.50414       -10.07444        -2.93202
| 38>    C       -3.04165       -11.15696        -3.75918
| 39>    N       -3.90175       -11.81593        -4.55443
| 40>    C       -5.14220       -11.41265        -4.54182
| 41>    C       -6.19533       -12.23599        -5.32003
| 42>    O       -6.42534       -13.39399        -5.17654
| 43>    C       -6.87177       -11.06624        -5.86577
| 44>    C       -7.67155       -10.63493        -4.82984
| 45>    C       -7.01263        -9.73623        -3.86597
| 46>    O       -7.46330        -8.90979        -3.12100
| 47>    C       -5.58573       -10.25995        -3.78879
| 48>    N       -4.76387        -9.63895        -2.97709
| 49>    C       -1.68244       -11.42848        -3.58337
| 50>    S       -1.00364       -10.34470        -2.39737
| 51>    C       -0.93138       -12.43998        -4.21400
| 52>    C       -1.37376       -13.28039        -5.22694
| 53>    C       -0.39363       -14.19041        -5.60445
| 54>    C        0.80136       -14.05517        -4.87105
| 55>    S        0.72515       -12.78583        -3.73140
| 56>    C        1.70929       -15.05169        -5.30180
| 57>    C        1.09567       -15.81786        -6.30728
| 58>    C       -0.23704       -15.28942        -6.54715
| 59>    C       -1.13909       -15.70753        -7.47978
| 60>    C       -2.38082       -15.06350        -7.67227
| 61>    N       -3.37921       -14.53244        -7.85967
| 62>    C       -0.87616       -16.79296        -8.34249
| 63>    N       -0.66627       -17.67559        -9.04357
| 64>    C        1.91586       -16.84231        -6.78572
| 65>    C        3.14197       -16.86301        -6.15230
| 66>    S        3.29222       -15.59187        -4.94852
| 67>    C        4.21815       -17.76792        -6.36843
| 68>    C        5.44067       -17.80243        -5.74099
| 69>    C        6.26390       -18.84296        -6.20104
| 70>    C        5.67096       -19.59249        -7.17007
| 71>    S        4.08937       -19.04544        -7.54633
| 72>    H       -6.38546        -0.69542         5.91482
| 73>    H       -8.41936        -1.63625         4.55711
| 74>    H       -7.66079        -3.43122         2.82820
| 75>    H       -2.86799        -3.76300         3.43766
| 76>    H       -0.71071        -8.13804        -0.40230
| 77>    H       -6.24698       -10.33959        -6.37579
| 78>    H       -8.37823       -11.31988        -4.37566
| 79>    H       -2.36698       -13.20958        -5.63063
| 80>    H        1.64696       -17.54761        -7.55133
| 81>    H        5.72521       -17.09995        -4.97767
| 82>    H        7.25499       -19.02905        -5.82864
| 83>    H        6.06900       -20.44053        -7.69068
| 84> *
| 85>
| 86>                          ****END OF INPUT****

CARTESIAN COORDINATES (ANGSTROEM)
---------------------------------
  C     -6.359470   -1.439470    5.143840
  C     -7.398320   -1.944960    4.424000
  C     -6.991420   -2.912420    3.491270
  C     -5.635380   -3.138110    3.508760
  S     -4.855200   -2.133580    4.700010
  C     -4.883550   -4.047490    2.714340
  C     -3.523280   -4.282240    2.761660
  C     -3.130310   -5.259660    1.845530
  C     -4.203250   -5.768670    1.093500
  S     -5.691750   -5.043580    1.513990
  C     -3.716880   -6.765020    0.212410
  C     -2.325340   -6.887850    0.412620
  C     -1.912620   -5.939070    1.435570
  C     -0.649070   -5.729130    1.904600
  C     -0.364690   -4.772730    2.901930
  N     -0.126590   -3.995600    3.710430
  C      0.459650   -6.453650    1.418990
  N      1.362920   -7.039620    1.024460
  C     -1.750910   -7.865550   -0.389340
  C     -2.696110   -8.480230   -1.200640
  S     -4.317810   -7.836200   -0.974680
  C     -2.505900   -9.521710   -2.123550
  C     -3.504140  -10.074440   -2.932020
  C     -3.041650  -11.156960   -3.759180
  N     -3.901750  -11.815930   -4.554430
  C     -5.142200  -11.412650   -4.541820
  C     -6.195330  -12.235990   -5.320030
  O     -6.425340  -13.393990   -5.176540
  C     -6.871770  -11.066240   -5.865770
  C     -7.671550  -10.634930   -4.829840
  C     -7.012630   -9.736230   -3.865970
  O     -7.463300   -8.909790   -3.121000
  C     -5.585730  -10.259950   -3.788790
  N     -4.763870   -9.638950   -2.977090
  C     -1.682440  -11.428480   -3.583370
  S     -1.003640  -10.344700   -2.397370
  C     -0.931380  -12.439980   -4.214000
  C     -1.373760  -13.280390   -5.226940
  C     -0.393630  -14.190410   -5.604450
  C      0.801360  -14.055170   -4.871050
  S      0.725150  -12.785830   -3.731400
  C      1.709290  -15.051690   -5.301800
  C      1.095670  -15.817860   -6.307280
  C     -0.237040  -15.289420   -6.547150
  C     -1.139090  -15.707530   -7.479780
  C     -2.380820  -15.063500   -7.672270
  N     -3.379210  -14.532440   -7.859670
  C     -0.876160  -16.792960   -8.342490
  N     -0.666270  -17.675590   -9.043570
  C      1.915860  -16.842310   -6.785720
  C      3.141970  -16.863010   -6.152300
  S      3.292220  -15.591870   -4.948520
  C      4.218150  -17.767920   -6.368430
  C      5.440670  -17.802430   -5.740990
  C      6.263900  -18.842960   -6.201040
  C      5.670960  -19.592490   -7.170070
  S      4.089370  -19.045440   -7.546330
  H     -6.385460   -0.695420    5.914820
  H     -8.419360   -1.636250    4.557110
  H     -7.660790   -3.431220    2.828200
  H     -2.867990   -3.763000    3.437660
  H     -0.710710   -8.138040   -0.402300
  H     -6.246980  -10.339590   -6.375790
  H     -8.378230  -11.319880   -4.375660
  H     -2.366980  -13.209580   -5.630630
  H      1.646960  -17.547610   -7.551330
  H      5.725210  -17.099950   -4.977670
  H      7.254990  -19.029050   -5.828640
  H      6.069000  -20.440530   -7.690680

 Total Charge           Charge          ....    0
 Multiplicity           Mult            ....    1
 Number of Electrons    NEL             ....  434
 Basis Dimension        Dim             ....  886

ORBITAL ENERGIES
----------------

  NO   OCC          E(Eh)            E(eV)
   0   2.0000     -89.000408     -2421.8242
   1   2.0000     -88.991038     -2421.5693
   2   2.0000     -88.986805     -2421.4541
   3   2.0000     -88.986401     -2421.4431
   4   2.0000     -88.984993     -2421.4048
   5   2.0000     -88.961594     -2420.7680
   6   2.0000     -88.961421     -2420.7633
   7   2.0000     -19.232039      -523.3304
   8   2.0000     -19.227494      -523.2067
   9   2.0000     -14.457757      -393.4156
  10   2.0000     -14.453160      -393.2905
  11   2.0000     -14.429781      -392.6543
  12   2.0000     -14.428182      -392.6108
  13   2.0000     -14.427456      -392.5910
  14   2.0000     -14.425899      -392.5487
  15   2.0000     -10.392775      -282.8018
  16   2.0000     -10.383249      -282.5426
  17   2.0000     -10.362325      -281.9732
  18   2.0000     -10.362201      -281.9698
  19   2.0000     -10.352815      -281.7144
  20   2.0000     -10.350271      -281.6452
  21   2.0000     -10.348544      -281.5982
  22   2.0000     -10.348131      -281.5870
  23   2.0000     -10.338232      -281.3176
  24   2.0000     -10.337760      -281.3048
  25   2.0000     -10.336591      -281.2729
  26   2.0000     -10.335817      -281.2519
  27   2.0000     -10.332099      -281.1507
  28   2.0000     -10.330474      -281.1065
  29   2.0000     -10.328630      -281.0563
  30   2.0000     -10.328460      -281.0517
  31   2.0000     -10.328253      -281.0460
  32   2.0000     -10.327832      -281.0346
  33   2.0000     -10.327635      -281.0292
  34   2.0000     -10.327356      -281.0216
  35   2.0000     -10.327136      -281.0156
  36   2.0000     -10.325759      -280.9782
  37   2.0000     -10.325433      -280.9693
  38   2.0000     -10.324986      -280.9571
  39   2.0000     -10.312702      -280.6229
  40   2.0000     -10.311787      -280.5980
  41   2.0000     -10.311765      -280.5974
  42   2.0000     -10.304780      -280.4073
  43   2.0000     -10.302560      -280.3469
  44   2.0000     -10.301348      -280.3139
  45   2.0000     -10.300709      -280.2965
  46   2.0000     -10.300276      -280.2848
  47   2.0000     -10.300177      -280.2821
  48   2.0000     -10.298180      -280.2277
  49   2.0000     -10.297720      -280.2152
  50   2.0000     -10.296578      -280.1841
  51   2.0000     -10.296140      -280.1722
  52   2.0000     -10.296090      -280.1708
  53   2.0000     -10.280721      -279.7526
  54   2.0000     -10.280519      -279.7472
  55   2.0000     -10.277822      -279.6737
  56   2.0000     -10.277655      -279.6692
  57   2.0000      -8.094874      -220.2727
  58   2.0000      -8.085659      -220.0220
  59   2.0000      -8.081320      -219.9039
  60   2.0000      -8.080976      -219.8945
  61   2.0000      -8.078289      -219.8214
  62   2.0000      -8.057383      -219.2525
  63   2.0000      -8.057121      -219.2454
  64   2.0000      -6.064002      -165.0099
  65   2.0000      -6.059894      -164.8981
  66   2.0000      -6.057426      -164.8309
  67   2.0000      -6.054954      -164.7637
  68   2.0000      -6.050814      -164.6510
  69   2.0000      -6.050621      -164.6458
  70   2.0000      -6.050218      -164.6348
  71   2.0000      -6.047945      -164.5730
  72   2.0000      -6.047698      -164.5662
  73   2.0000      -6.046454      -164.5324
  74   2.0000      -6.046081      -164.5222
  75   2.0000      -6.043617      -164.4552
  76   2.0000      -6.043310      -164.4468
  77   2.0000      -6.043211      -164.4441
  78   2.0000      -6.040581      -164.3726
  79   2.0000      -6.026708      -163.9951
  80   2.0000      -6.026475      -163.9887
  81   2.0000      -6.022381      -163.8773
  82   2.0000      -6.022106      -163.8698
  83   2.0000      -6.019620      -163.8022
  84   2.0000      -6.019375      -163.7955
  85   2.0000      -1.154916       -31.4269
  86   2.0000      -1.145328       -31.1660
  87   2.0000      -1.107465       -30.1357
  88   2.0000      -1.042541       -28.3690
  89   2.0000      -1.042308       -28.3626
  90   2.0000      -1.034965       -28.1628
  91   2.0000      -1.020997       -27.7827
  92   2.0000      -1.019111       -27.7314
  93   2.0000      -1.014323       -27.6011
  94   2.0000      -1.006716       -27.3941
  95   2.0000      -1.004065       -27.3220
  96   2.0000      -1.000367       -27.2214
  97   2.0000      -0.995518       -27.0894
  98   2.0000      -0.982071       -26.7235
  99   2.0000      -0.978401       -26.6236
 100   2.0000      -0.964996       -26.2589
 101   2.0000      -0.955551       -26.0019
 102   2.0000      -0.952196       -25.9106
 103   2.0000      -0.917354       -24.9625
 104   2.0000      -0.908085       -24.7103
 105   2.0000      -0.879426       -23.9304
 106   2.0000      -0.872828       -23.7509
 107   2.0000      -0.868442       -23.6315
 108   2.0000      -0.864389       -23.5212
 109   2.0000      -0.854463       -23.2511
 110   2.0000      -0.852264       -23.1913
 111   2.0000      -0.844882       -22.9904
 112   2.0000      -0.834600       -22.7106
 113   2.0000      -0.832021       -22.6404
 114   2.0000      -0.831539       -22.6273
 115   2.0000      -0.813686       -22.1415
 116   2.0000      -0.798257       -21.7217
 117   2.0000      -0.780602       -21.2413
 118   2.0000      -0.774717       -21.0811
 119   2.0000      -0.772526       -21.0215
 120   2.0000      -0.767544       -20.8859
 121   2.0000      -0.738988       -20.1089
 122   2.0000      -0.737488       -20.0681
 123   2.0000      -0.705512       -19.1980
 124   2.0000      -0.703499       -19.1432
 125   2.0000      -0.690661       -18.7939
 126   2.0000      -0.686679       -18.6855
 127   2.0000      -0.681494       -18.5444
 128   2.0000      -0.676252       -18.4017
 129   2.0000      -0.668887       -18.2013
 130   2.0000      -0.658824       -17.9275
 131   2.0000      -0.657235       -17.8843
 132   2.0000      -0.649618       -17.6770
 133   2.0000      -0.647021       -17.6063
 134   2.0000      -0.636594       -17.3226
 135   2.0000      -0.626248       -17.0411
 136   2.0000      -0.621500       -16.9119
 137   2.0000      -0.619942       -16.8695
 138   2.0000      -0.619883       -16.8679
 139   2.0000      -0.616145       -16.7662
 140   2.0000      -0.613895       -16.7049
 141   2.0000      -0.607308       -16.5257
 142   2.0000      -0.602923       -16.4064
 143   2.0000      -0.590612       -16.0714
 144   2.0000      -0.586151       -15.9500
 145   2.0000      -0.577123       -15.7043
 146   2.0000      -0.564282       -15.3549
 147   2.0000      -0.556143       -15.1334
 148   2.0000      -0.551751       -15.0139
 149   2.0000      -0.549029       -14.9398
 150   2.0000      -0.544803       -14.8248
 151   2.0000      -0.543524       -14.7900
 152   2.0000      -0.542138       -14.7523
 153   2.0000      -0.531703       -14.4684
 154   2.0000      -0.530059       -14.4236
 155   2.0000      -0.522304       -14.2126
 156   2.0000      -0.519464       -14.1353
 157   2.0000      -0.513596       -13.9757
 158   2.0000      -0.508176       -13.8282
 159   2.0000      -0.505228       -13.7479
 160   2.0000      -0.504312       -13.7230
 161   2.0000      -0.501946       -13.6586
 162   2.0000      -0.498673       -13.5696
 163   2.0000      -0.497492       -13.5375
 164   2.0000      -0.495996       -13.4967
 165   2.0000      -0.491600       -13.3771
 166   2.0000      -0.487703       -13.2711
 167   2.0000      -0.486629       -13.2418
 168   2.0000      -0.484765       -13.1911
 169   2.0000      -0.482974       -13.1424
 170   2.0000      -0.478053       -13.0085
 171   2.0000      -0.476358       -12.9624
 172   2.0000      -0.472562       -12.8591
 173   2.0000      -0.472477       -12.8568
 174   2.0000      -0.470149       -12.7934
 175   2.0000      -0.466048       -12.6818
 176   2.0000      -0.462583       -12.5875
 177   2.0000      -0.460835       -12.5400
 178   2.0000      -0.459948       -12.5158
 179   2.0000      -0.457672       -12.4539
 180   2.0000      -0.456297       -12.4165
 181   2.0000      -0.452286       -12.3073
 182   2.0000      -0.451023       -12.2730
 183   2.0000      -0.449003       -12.2180
 184   2.0000      -0.444672       -12.1001
 185   2.0000      -0.442842       -12.0504
 186   2.0000      -0.440978       -11.9996
 187   2.0000      -0.439341       -11.9551
 188   2.0000      -0.438096       -11.9212
 189   2.0000      -0.436508       -11.8780
 190   2.0000      -0.436262       -11.8713
 191   2.0000      -0.435438       -11.8489
 192   2.0000      -0.427156       -11.6235
 193   2.0000      -0.424203       -11.5431
 194   2.0000      -0.419096       -11.4042
 195   2.0000      -0.418447       -11.3865
 196   2.0000      -0.414119       -11.2688
 197   2.0000      -0.407732       -11.0950
 198   2.0000      -0.406418       -11.0592
 199   2.0000      -0.389586       -10.6012
 200   2.0000      -0.379164       -10.3176
 201   2.0000      -0.373494       -10.1633
 202   2.0000      -0.363434        -9.8895
 203   2.0000      -0.354773        -9.6539
 204   2.0000      -0.351610        -9.5678
 205   2.0000      -0.347320        -9.4511
 206   2.0000      -0.345006        -9.3881
 207   2.0000      -0.329280        -8.9602
 208   2.0000      -0.328321        -8.9341
 209   2.0000      -0.325266        -8.8509
 210   2.0000      -0.324606        -8.8330
 211   2.0000      -0.320130        -8.7112
 212   2.0000      -0.318563        -8.6685
 213   2.0000      -0.317582        -8.6419
 214   2.0000      -0.289571        -7.8796
 215   2.0000      -0.260557        -7.0901
 216   2.0000      -0.229389        -6.2420
 217   0.0000      -0.117845        -3.2067
 218   0.0000      -0.100591        -2.7372
 219   0.0000      -0.097093        -2.6420
 220   0.0000      -0.055155        -1.5009
 221   0.0000      -0.042823        -1.1653

MULLIKEN ATOMIC CHARGES
-----------------------
   0 C :   -0.065451
   1 C :    0.051644
   2 C :   -0.015471
   3 C :   -0.100780
   4 S :    0.131299
   5 C :   -0.015150
   6 C :   -0.069009
   7 C :    0.013288
   8 C :   -0.107770
   9 S :    0.192646
  10 C :   -0.083138
  11 C :    0.024084
  12 C :    0.300802
  13 C :   -0.297701
  14 C :   -0.189654
  15 N :    0.172530
  16 C :   -0.191882
  17 N :    0.171744
  18 C :   -0.080356
  19 C :   -0.077484
  20 S :    0.237848
  21 C :   -0.106532
  22 C :    0.005338
  23 C :    0.049029
  24 N :    0.041365
  25 C :   -0.149432
  26 C :    0.163232
  27 O :   -0.116214
  28 C :    0.007229
  29 C :   -0.088652
  30 C :    0.155728
  31 O :   -0.107583
  32 C :   -0.139032
  33 N :    0.021097
  34 C :   -0.130102
  35 S :    0.211370
  36 C :   -0.090188
  37 C :   -0.060337
  38 C :    0.023315
  39 C :   -0.092368
  40 S :    0.179359
  41 C :   -0.106060
  42 C :    0.014300
  43 C :    0.301514
  44 C :   -0.294406
  45 C :   -0.186671
  46 N :    0.180795
  47 C :   -0.192124
  48 N :    0.173096
  49 C :   -0.067832
  50 C :   -0.014305
  51 S :    0.181785
  52 C :   -0.102225
  53 C :   -0.014813
  54 C :    0.050577
  55 C :   -0.063881
  56 S :    0.132148
  57 H :    0.034062
  58 H :   -0.006357
  59 H :   -0.006751
  60 H :    0.012748
  61 H :    0.006693
  62 H :    0.068535
  63 H :    0.074196
  64 H :    0.017156
  65 H :    0.012256
  66 H :   -0.009399
  67 H :   -0.006695
  68 H :    0.032999
Sum of atomic charges:    0.0000000

LOEWDIN ATOMIC CHARGES
----------------------
   0 C :   -0.178397
   1 C :   -0.060343
   2 C :   -0.063959
   3 C :   -0.194117
   4 S :    0.446247
   5 C :   -0.167304
   6 C :   -0.041072
   7 C :   -0.065198
   8 C :   -0.185343
   9 S :    0.482305
  10 C :   -0.175199
  11 C :   -0.074958
  12 C :    0.083668
  13 C :   -0.105258
  14 C :   -0.017383
  15 N :   -0.033143
  16 C :   -0.015730
  17 N :   -0.037627
  18 C :   -0.027059
  19 C :   -0.187359
  20 S :    0.526266
  21 C :   -0.187966
  22 C :   -0.055490
  23 C :   -0.039888
  24 N :   -0.011111
  25 C :   -0.022873
  26 C :    0.084899
  27 O :   -0.088616
  28 C :   -0.017140
  29 C :   -0.045275
  30 C :    0.058338
  31 O :   -0.100326
  32 C :   -0.045521
  33 N :   -0.009900
  34 C :   -0.197104
  35 S :    0.498990
  36 C :   -0.188541
  37 C :   -0.012698
  38 C :   -0.070094
  39 C :   -0.176037
  40 S :    0.460519
  41 C :   -0.185756
  42 C :   -0.066030
  43 C :    0.081266
  44 C :   -0.097561
  45 C :   -0.017861
  46 N :   -0.026756
  47 C :   -0.016225
  48 N :   -0.031766
  49 C :   -0.040216
  50 C :   -0.168475
  51 S :    0.473787
  52 C :   -0.193742
  53 C :   -0.065608
  54 C :   -0.060686
  55 C :   -0.178719
  56 S :    0.446603
  57 H :    0.026138
  58 H :    0.032509
  59 H :    0.025882
  60 H :    0.036608
  61 H :    0.036522
  62 H :    0.036418
  63 H :    0.050355
  64 H :    0.040002
  65 H :    0.036801
  66 H :    0.025007
  67 H :    0.032319
  68 H :    0.025981

  Mayer bond orders larger than 0.100000
B(  0-C ,  1-C ) :   1.5718 B(  0-C ,  4-S ) :   1.1623 B(  0-C , 57-H ) :   0.9732
B(  1-C ,  2-C ) :   1.2639 B(  1-C , 58-H ) :   0.9942 B(  2-C ,  3-C ) :   1.5188
B(  2-C , 59-H ) :   0.9914 B(  3-C ,  4-S ) :   1.1457 B(  3-C ,  5-C ) :   1.1515
B(  5-C ,  6-C ) :   1.4694 B(  5-C ,  9-S ) :   1.1120 B(  6-C ,  7-C ) :   1.2920
B(  6-C , 60-H ) :   0.9910 B(  7-C ,  8-C ) :   1.4417 B(  7-C , 12-C ) :   0.9970
B(  8-C ,  9-S ) :   1.1171 B(  8-C , 10-C ) :   1.1990 B( 10-C , 11-C ) :   1.4055
B( 10-C , 20-S ) :   1.1072 B( 11-C , 12-C ) :   0.9930 B( 11-C , 18-C ) :   1.3248
B( 12-C , 13-C ) :   1.7116 B( 13-C , 14-C ) :   1.1310 B( 13-C , 16-C ) :   1.1351
B( 14-C , 15-N ) :   2.9952 B( 16-C , 17-N ) :   2.9940 B( 18-C , 19-C ) :   1.3899
B( 18-C , 61-H ) :   0.9942 B( 19-C , 20-S ) :   1.1049 B( 19-C , 21-C ) :   1.2411
B( 21-C , 22-C ) :   1.3203 B( 21-C , 34-C ) :   0.1323 B( 21-C , 35-S ) :   1.1602
B( 22-C , 23-C ) :   1.1722 B( 22-C , 33-N ) :   1.4229 B( 23-C , 24-N ) :   1.4094
B( 23-C , 34-C ) :   1.3996 B( 24-N , 25-C ) :   1.7192 B( 25-C , 26-C ) :   0.8098
B( 25-C , 32-C ) :   1.0968 B( 26-C , 27-O ) :   2.2495 B( 26-C , 28-C ) :   0.9558
B( 26-C , 29-C ) :   0.1350 B( 28-C , 29-C ) :   1.7123 B( 28-C , 62-H ) :   0.9509
B( 29-C , 30-C ) :   1.0097 B( 29-C , 63-H ) :   0.9426 B( 30-C , 31-O ) :   2.2550
B( 30-C , 32-C ) :   0.8697 B( 32-C , 33-N ) :   1.6711 B( 34-C , 35-S ) :   1.1363
B( 34-C , 36-C ) :   1.1853 B( 36-C , 37-C ) :   1.4588 B( 36-C , 40-S ) :   1.0793
B( 37-C , 38-C ) :   1.2726 B( 37-C , 64-H ) :   0.9866 B( 38-C , 39-C ) :   1.4298
B( 38-C , 43-C ) :   0.9888 B( 39-C , 40-S ) :   1.1233 B( 39-C , 41-C ) :   1.1983
B( 41-C , 42-C ) :   1.4467 B( 41-C , 51-S ) :   1.1123 B( 42-C , 43-C ) :   0.9956
B( 42-C , 49-C ) :   1.2885 B( 43-C , 44-C ) :   1.7176 B( 44-C , 45-C ) :   1.1327
B( 44-C , 47-C ) :   1.1326 B( 45-C , 46-N ) :   2.9937 B( 47-C , 48-N ) :   2.9945
B( 49-C , 50-C ) :   1.4715 B( 49-C , 65-H ) :   0.9919 B( 50-C , 51-S ) :   1.1088
B( 50-C , 52-C ) :   1.1517 B( 52-C , 53-C ) :   1.5187 B( 52-C , 56-S ) :   1.1470
B( 53-C , 54-C ) :   1.2630 B( 53-C , 66-H ) :   0.9916 B( 54-C , 55-C ) :   1.5737
B( 54-C , 67-H ) :   0.9938 B( 55-C , 56-S ) :   1.1612 B( 55-C , 68-H ) :   0.9731

-----------------------------------------------------------------------------
         ABSORPTION SPECTRUM VIA TRANSITION ELECTRIC DIPOLE MOMENTS
-----------------------------------------------------------------------------
State   Energy  Wavelength   fosc         T2         TX        TY        TZ
        (cm-1)    (nm)                  (au**2)     (au)      (au)      (au)
-----------------------------------------------------------------------------
   0    8650.5   1156.0   0.506885473  19.29044  -1.50833   3.28023   2.50109
   1   11093.9    901.4   0.017784346   0.52775   0.64381  -0.31656   0.11425
   2   11666.3    857.2   0.006240588   0.17610   0.40512  -0.05360   0.09543
   3   17691.5    565.2   0.054817306   1.02007   0.67653   0.29658   0.68878
   4   20428.3    489.5   0.005601519   0.09027   0.15837   0.06488  -0.24694
   5   20612.1    485.2   0.080255098   1.28182   0.45914  -0.84952  -0.59104
   6   21795.9    458.8   0.100923418   1.52438   1.12978  -0.49770   0.01602
   7   22369.0    447.0   1.111236803  16.35444  -1.78949   2.98547   2.05892
   8   24327.8    411.1   0.076556581   1.03599  -0.56311   0.69761   0.48190
   9   24864.6    402.2   0.021481156   0.28441   0.42101  -0.31662  -0.08319
  10   25483.1    392.4   0.167833985   2.16822  -0.87112  -0.61830  -1.01344
  11   27983.4    357.4   0.004877430   0.05738   0.08877   0.17012   0.14339
  12   28097.6    355.9   0.006936651   0.08127   0.15036   0.15728   0.18420
  13   28823.1    346.9   0.000264682   0.00302   0.00788  -0.05417  -0.00512
  14   29062.3    344.1   0.737494003   8.35419   1.82206  -1.92911  -1.14580
  15   29281.8    341.5   0.012348837   0.13884   0.08509   0.34981   0.09608
  16   29808.0    335.5   0.271463480   2.99816   0.61930   1.04306   1.23558
  17   30819.8    324.5   0.098497824   1.05214  -0.56791  -0.01475  -0.85405
  18   31218.2    320.3   0.068281128   0.72006   0.83676  -0.01380  -0.14034
  19   31630.0    316.2   0.394487547   4.10591   1.78106  -0.93615  -0.23949
  20   31779.9    314.7   0.024550847   0.25433   0.36254   0.23610   0.25912
  21   32248.5    310.1   0.353746980   3.61126  -1.69980   0.01314  -0.84957
  22   32353.4    309.1   0.210973674   2.14676  -1.11530  -0.48517  -0.81700
  23   32473.2    307.9   0.348018134   3.52820   1.70251   0.23154   0.75897
  24   32688.4    305.9   0.079818548   0.80387   0.85736   0.04034   0.25920
  25   32896.8    304.0   0.007064367   0.07070   0.19197  -0.10968  -0.14769
  26   33214.0    301.1   0.202242584   2.00460  -1.37502   0.14133  -0.30648
  27   33429.3    299.1   0.046893738   0.46181   0.53237   0.00675   0.42231
  28   33638.7    297.3   0.015616385   0.15283  -0.21033   0.18006   0.27599
  29   33821.1    295.7   0.102866224   1.00129  -0.37697  -0.61156  -0.69655
  30   34206.0    292.3   0.094081905   0.90548   0.47670   0.48522   0.66544
  31   34348.3    291.1   0.060200236   0.57699  -0.44191   0.50920   0.34989
  32   34521.6    289.7   0.064554822   0.61562  -0.32494   0.58435   0.41057
  33   34740.8    287.8   0.067240748   0.63719   0.75178   0.04343   0.26481
  34   35224.6    283.9   0.167648161   1.56685  -1.09393  -0.22538  -0.56512
  35   35373.7    282.7   0.018731055   0.17432  -0.31181   0.25176   0.11710
  36   35621.5    280.7   0.071511184   0.66090   0.47045  -0.52883  -0.39991
  37   35663.6    280.4   0.159595891   1.47323   0.49982   0.75764   0.80585
  38   36161.8    276.5   0.205289563   1.86893  -1.11152   0.67791   0.41700
  39   36797.5    271.8   0.049013298   0.43850   0.50626  -0.41837  -0.08468
  40   37147.2    269.2   0.073732175   0.65344   0.74213  -0.25880   0.18895
  41   37350.4    267.7   0.021750848   0.19172  -0.32221  -0.15655  -0.25177
  42   37924.4    263.7   0.024606869   0.21361   0.03282   0.39317   0.24071
  43   38021.4    263.0   0.071828084   0.62193   0.15640  -0.62358  -0.45674
  44   38284.2    261.2   0.033020416   0.28395   0.36463  -0.35509  -0.15781
  45   38404.6    260.4   0.004324796   0.03707  -0.16976   0.08824  -0.02165
  46   38611.4    259.0   0.004922403   0.04197  -0.17496   0.01476  -0.10555
  47   38657.7    258.7   0.004669656   0.03977   0.17154   0.07395   0.06981
  48   38887.8    257.2   0.009366051   0.07929  -0.19482   0.10524   0.17396
  49   39733.7    251.7   0.024812989   0.20559   0.39579  -0.21252  -0.06144
  50   40046.3    249.7   0.001481504   0.01218   0.03176  -0.10490  -0.01288

FINAL SINGLE POINT ENERGY     -4870.250406703814

DIPOLE MOMENT
-------------
                                X             Y             Z
Electronic contribution:      0.44038       0.34659      -3.01465
Nuclear contribution   :      0.16372       0.19246       3.85582
                        -----------------------------------------
Total Dipole Moment    :      0.60410       0.53905       0.84117
                        -----------------------------------------
Magnitude (a.u.)       :      1.16751
Magnitude (Debye)      :      2.96758

Rotational constants in cm-1:     0.002428     0.000423     0.000362
Rotational constants in MHz :    72.775324    12.670225    10.848875

                             ****ORCA TERMINATED NORMALLY****
TOTAL RUN TIME: 0 days 0 hours 5 minutes 30 seconds 279 msec
