                         Program Version 4.2.0 -  RELEASE  -
|  1> # ORCA input file
|  2> # SCF done       -194.649933288207          0.000946618470
|  3> ! CAM-B3LYP def2-SVP def2/J RIJCOSX Grid4 TightSCF
|  4> %maxcore 5000
|  5> %tddft
|  6>     Mode sTDDFT
|  7>     Ethresh 5.0
|  8>     maxcore 5000
|  9> end
| 10>
| 11> %pal
| 12>   nprocs 6
| 13>   end
| 14> * xyz 0 1
| 15>    C       -2.93445         1.19684         3.31250
| 16>    N       -3.84220         0.67606         2.53378
| 17>    N       -3.56376        -0.25332         1.65647
| 18>    C       -2.34838        -0.73979         1.48467
| 19>    C       -1.27372        -0.24545         2.27746
| 20>    C       -1.59069         0.77192         3.23601
| 21>    N       -0.51639         1.16203         3.92255
| 22>    S        0.75342         0.32902         3.40647
| 23>    N        0.01718        -0.56622         2.29262
| 24>    C       -2.17978        -1.75956         0.49621
| 25>    C       -1.02262        -2.42902         0.15323
| 26>    C       -1.26049        -3.36860        -0.84907
| 27>    C       -2.60930        -3.39779        -1.26043
| 28>    S       -3.57886        -2.27632        -0.41727
| 29>    C       -2.75651        -4.38817        -2.26850
| 30>    C       -1.49279        -4.98079        -2.48340
| 31>    C       -0.51302        -4.35248        -1.60874
| 32>    C        0.82106        -4.62553        -1.53180
| 33>    C        1.43026        -5.60081        -2.34985
| 34>    N        1.92255        -6.38925        -3.02045
| 35>    C        1.68003        -3.94710        -0.64139
| 36>    N        2.38590        -3.40157         0.07878
| 37>    C       -1.53695        -5.97967        -3.43772
| 38>    C       -2.81752        -6.15355        -3.96827
| 39>    S       -3.98133        -5.03662        -3.25907
| 40>    C       -3.11331        -7.13699        -4.93867
| 41>    C       -4.26939        -7.44254        -5.65839
| 42>    C       -5.51287        -6.72692        -5.51436
| 43>    O       -5.69547        -5.81185        -4.72089
| 44>    C       -6.58805        -7.19087        -6.40798
| 45>    C       -6.41978        -8.27753        -7.30555
| 46>    C       -7.56504        -8.52866        -8.02527
| 47>    S       -8.84894        -7.45942        -7.62904
| 48>    C       -7.85417        -6.65783        -6.48164
| 49>    C       -8.41230        -5.50666        -5.70275
| 50>    F       -8.44450        -5.73800        -4.38778
| 51>    F       -7.73603        -4.37228        -5.90168
| 52>    F       -9.68204        -5.25886        -6.07303
| 53>    C       -7.78392        -9.58672        -9.06260
| 54>    F       -7.62857       -10.82280        -8.58126
| 55>    F       -9.03958        -9.52375        -9.54213
| 56>    F       -6.97387        -9.45350       -10.11621
| 57>    C       -5.15216        -9.01825        -7.42544
| 58>    O       -5.03191        -9.94987        -8.21162
| 59>    C       -4.10069        -8.54239        -6.56137
| 60>    C       -2.82078        -9.09813        -6.52126
| 61>    S       -1.82391        -8.22869        -5.38083
| 62>    C       -2.22586       -10.18958        -7.19271
| 63>    C       -0.91604       -10.60536        -6.94058
| 64>    C       -0.55361       -11.69923        -7.70362
| 65>    C       -1.59386       -12.12480        -8.55872
| 66>    S       -3.01040       -11.18996        -8.41312
| 67>    C       -1.12409       -13.24587        -9.29434
| 68>    C        0.20226       -13.52101        -8.90124
| 69>    C        0.60300       -12.56427        -7.88742
| 70>    C        1.79813       -12.49524        -7.23390
| 71>    C        2.85334       -13.39538        -7.49315
| 72>    N        3.71637       -14.12227        -7.69638
| 73>    C        2.05152       -11.52013        -6.24573
| 74>    N        2.25223       -10.73220        -5.43781
| 75>    C        0.74778       -14.61455        -9.57252
| 76>    C       -0.15705       -15.15775       -10.46195
| 77>    S       -1.69569       -14.32642       -10.48356
| 78>    C        0.02295       -16.28233       -11.32699
| 79>    N       -0.99280       -16.62638       -12.09725
| 80>    N       -0.94825       -17.63666       -12.92679
| 81>    C        0.11020       -18.38790       -13.05733
| 82>    C        1.27079       -18.13491       -12.29509
| 83>    C        1.23378       -17.02957       -11.38334
| 84>    N        2.37817       -16.88548       -10.72069
| 85>    S        3.39610       -18.03244       -11.20307
| 86>    N        2.44592       -18.76424       -12.26789
| 87>    H       -3.25673         1.95659         4.00705
| 88>    H       -0.07631        -2.22769         0.62203
| 89>    H       -0.69309        -6.56783        -3.75338
| 90>    H       -0.27972       -10.11655        -6.22375
| 91>    H        1.73842       -15.01058        -9.43960
| 92>    H        0.05521       -19.19946       -13.76573
| 93> *
| 94>
| 95>                          ****END OF INPUT****

CARTESIAN COORDINATES (ANGSTROEM)
---------------------------------
  C     -2.934450    1.196840    3.312500
  N     -3.842200    0.676060    2.533780
  N     -3.563760   -0.253320    1.656470
  C     -2.348380   -0.739790    1.484670
  C     -1.273720   -0.245450    2.277460
  C     -1.590690    0.771920    3.236010
  N     -0.516390    1.162030    3.922550
  S      0.753420    0.329020    3.406470
  N      0.017180   -0.566220    2.292620
  C     -2.179780   -1.759560    0.496210
  C     -1.022620   -2.429020    0.153230
  C     -1.260490   -3.368600   -0.849070
  C     -2.609300   -3.397790   -1.260430
  S     -3.578860   -2.276320   -0.417270
  C     -2.756510   -4.388170   -2.268500
  C     -1.492790   -4.980790   -2.483400
  C     -0.513020   -4.352480   -1.608740
  C      0.821060   -4.625530   -1.531800
  C      1.430260   -5.600810   -2.349850
  N      1.922550   -6.389250   -3.020450
  C      1.680030   -3.947100   -0.641390
  N      2.385900   -3.401570    0.078780
  C     -1.536950   -5.979670   -3.437720
  C     -2.817520   -6.153550   -3.968270
  S     -3.981330   -5.036620   -3.259070
  C     -3.113310   -7.136990   -4.938670
  C     -4.269390   -7.442540   -5.658390
  C     -5.512870   -6.726920   -5.514360
  O     -5.695470   -5.811850   -4.720890
  C     -6.588050   -7.190870   -6.407980
  C     -6.419780   -8.277530   -7.305550
  C     -7.565040   -8.528660   -8.025270
  S     -8.848940   -7.459420   -7.629040
  C     -7.854170   -6.657830   -6.481640
  C     -8.412300   -5.506660   -5.702750
  F     -8.444500   -5.738000   -4.387780
  F     -7.736030   -4.372280   -5.901680
  F     -9.682040   -5.258860   -6.073030
  C     -7.783920   -9.586720   -9.062600
  F     -7.628570  -10.822800   -8.581260
  F     -9.039580   -9.523750   -9.542130
  F     -6.973870   -9.453500  -10.116210
  C     -5.152160   -9.018250   -7.425440
  O     -5.031910   -9.949870   -8.211620
  C     -4.100690   -8.542390   -6.561370
  C     -2.820780   -9.098130   -6.521260
  S     -1.823910   -8.228690   -5.380830
  C     -2.225860  -10.189580   -7.192710
  C     -0.916040  -10.605360   -6.940580
  C     -0.553610  -11.699230   -7.703620
  C     -1.593860  -12.124800   -8.558720
  S     -3.010400  -11.189960   -8.413120
  C     -1.124090  -13.245870   -9.294340
  C      0.202260  -13.521010   -8.901240
  C      0.603000  -12.564270   -7.887420
  C      1.798130  -12.495240   -7.233900
  C      2.853340  -13.395380   -7.493150
  N      3.716370  -14.122270   -7.696380
  C      2.051520  -11.520130   -6.245730
  N      2.252230  -10.732200   -5.437810
  C      0.747780  -14.614550   -9.572520
  C     -0.157050  -15.157750  -10.461950
  S     -1.695690  -14.326420  -10.483560
  C      0.022950  -16.282330  -11.326990
  N     -0.992800  -16.626380  -12.097250
  N     -0.948250  -17.636660  -12.926790
  C      0.110200  -18.387900  -13.057330
  C      1.270790  -18.134910  -12.295090
  C      1.233780  -17.029570  -11.383340
  N      2.378170  -16.885480  -10.720690
  S      3.396100  -18.032440  -11.203070
  N      2.445920  -18.764240  -12.267890
  H     -3.256730    1.956590    4.007050
  H     -0.076310   -2.227690    0.622030
  H     -0.693090   -6.567830   -3.753380
  H     -0.279720  -10.116550   -6.223750
  H      1.738420  -15.010580   -9.439600
  H      0.055210  -19.199460  -13.765730

 Total Charge           Charge          ....    0
 Multiplicity           Mult            ....    1
 Number of Electrons    NEL             ....  552
 Basis Dimension        Dim             .... 1070

ORBITAL ENERGIES
----------------

  NO   OCC          E(Eh)            E(eV)
   0   2.0000     -89.050123     -2423.1770
   1   2.0000     -89.050051     -2423.1751
   2   2.0000     -89.018363     -2422.3128
   3   2.0000     -88.992727     -2421.6152
   4   2.0000     -88.992638     -2421.6128
   5   2.0000     -88.992600     -2421.6118
   6   2.0000     -88.988599     -2421.5029
   7   2.0000     -88.988445     -2421.4987
   8   2.0000     -24.813569      -675.2115
   9   2.0000     -24.813446      -675.2082
  10   2.0000     -24.805888      -675.0025
  11   2.0000     -24.805686      -674.9970
  12   2.0000     -24.805488      -674.9916
  13   2.0000     -24.805438      -674.9903
  14   2.0000     -19.234408      -523.3948
  15   2.0000     -19.234354      -523.3934
  16   2.0000     -14.464977      -393.6120
  17   2.0000     -14.464951      -393.6113
  18   2.0000     -14.462654      -393.5488
  19   2.0000     -14.462636      -393.5483
  20   2.0000     -14.447831      -393.1455
  21   2.0000     -14.447758      -393.1435
  22   2.0000     -14.447075      -393.1249
  23   2.0000     -14.446997      -393.1228
  24   2.0000     -14.429042      -392.6342
  25   2.0000     -14.428987      -392.6327
  26   2.0000     -14.428952      -392.6317
  27   2.0000     -14.428909      -392.6306
  28   2.0000     -10.538799      -286.7753
  29   2.0000     -10.538774      -286.7746
  30   2.0000     -10.392340      -282.7900
  31   2.0000     -10.392220      -282.7867
  32   2.0000     -10.363609      -282.0081
  33   2.0000     -10.363552      -282.0066
  34   2.0000     -10.356436      -281.8130
  35   2.0000     -10.356203      -281.8066
  36   2.0000     -10.353932      -281.7448
  37   2.0000     -10.353815      -281.7416
  38   2.0000     -10.351932      -281.6904
  39   2.0000     -10.351916      -281.6899
  40   2.0000     -10.349660      -281.6286
  41   2.0000     -10.349625      -281.6276
  42   2.0000     -10.347872      -281.5799
  43   2.0000     -10.347832      -281.5788
  44   2.0000     -10.344776      -281.4957
  45   2.0000     -10.344773      -281.4956
  46   2.0000     -10.335328      -281.2386
  47   2.0000     -10.335202      -281.2351
  48   2.0000     -10.333956      -281.2012
  49   2.0000     -10.333936      -281.2007
  50   2.0000     -10.329293      -281.0744
  51   2.0000     -10.329265      -281.0736
  52   2.0000     -10.329226      -281.0725
  53   2.0000     -10.329194      -281.0717
  54   2.0000     -10.327790      -281.0334
  55   2.0000     -10.327756      -281.0325
  56   2.0000     -10.327741      -281.0321
  57   2.0000     -10.327623      -281.0289
  58   2.0000     -10.327600      -281.0283
  59   2.0000     -10.327350      -281.0215
  60   2.0000     -10.321477      -280.8617
  61   2.0000     -10.321457      -280.8611
  62   2.0000     -10.313351      -280.6405
  63   2.0000     -10.313133      -280.6346
  64   2.0000     -10.311074      -280.5786
  65   2.0000     -10.311026      -280.5773
  66   2.0000     -10.306122      -280.4438
  67   2.0000     -10.306060      -280.4422
  68   2.0000     -10.303631      -280.3760
  69   2.0000     -10.303598      -280.3752
  70   2.0000     -10.302304      -280.3399
  71   2.0000     -10.302256      -280.3386
  72   2.0000      -8.141763      -221.5486
  73   2.0000      -8.141742      -221.5481
  74   2.0000      -8.113297      -220.7740
  75   2.0000      -8.087914      -220.0833
  76   2.0000      -8.084537      -219.9914
  77   2.0000      -8.084438      -219.9887
  78   2.0000      -8.082425      -219.9340
  79   2.0000      -8.082351      -219.9319
  80   2.0000      -6.112812      -166.3381
  81   2.0000      -6.112809      -166.3380
  82   2.0000      -6.104966      -166.1246
  83   2.0000      -6.104914      -166.1232
  84   2.0000      -6.104536      -166.1129
  85   2.0000      -6.104502      -166.1119
  86   2.0000      -6.082398      -165.5105
  87   2.0000      -6.077890      -165.3878
  88   2.0000      -6.076054      -165.3378
  89   2.0000      -6.057423      -164.8309
  90   2.0000      -6.053993      -164.7375
  91   2.0000      -6.053873      -164.7343
  92   2.0000      -6.053070      -164.7124
  93   2.0000      -6.051629      -164.6732
  94   2.0000      -6.051549      -164.6710
  95   2.0000      -6.049644      -164.6192
  96   2.0000      -6.049278      -164.6092
  97   2.0000      -6.049191      -164.6069
  98   2.0000      -6.047296      -164.5553
  99   2.0000      -6.047211      -164.5530
 100   2.0000      -6.047053      -164.5487
 101   2.0000      -6.046948      -164.5458
 102   2.0000      -6.045068      -164.4947
 103   2.0000      -6.044974      -164.4921
 104   2.0000      -1.401154       -38.1273
 105   2.0000      -1.401113       -38.1262
 106   2.0000      -1.303269       -35.4638
 107   2.0000      -1.303241       -35.4630
 108   2.0000      -1.300701       -35.3939
 109   2.0000      -1.300632       -35.3920
 110   2.0000      -1.155469       -31.4419
 111   2.0000      -1.152759       -31.3682
 112   2.0000      -1.152686       -31.3662
 113   2.0000      -1.152662       -31.3655
 114   2.0000      -1.123669       -30.5766
 115   2.0000      -1.123549       -30.5733
 116   2.0000      -1.046194       -28.4684
 117   2.0000      -1.045064       -28.4376
 118   2.0000      -1.041482       -28.3402
 119   2.0000      -1.027822       -27.9685
 120   2.0000      -1.021169       -27.7874
 121   2.0000      -1.020339       -27.7648
 122   2.0000      -1.008165       -27.4336
 123   2.0000      -1.006888       -27.3988
 124   2.0000      -1.006281       -27.3823
 125   2.0000      -1.005500       -27.3610
 126   2.0000      -0.996944       -27.1282
 127   2.0000      -0.992110       -26.9967
 128   2.0000      -0.964505       -26.2455
 129   2.0000      -0.960824       -26.1454
 130   2.0000      -0.938574       -25.5399
 131   2.0000      -0.938563       -25.5396
 132   2.0000      -0.932704       -25.3802
 133   2.0000      -0.921833       -25.0844
 134   2.0000      -0.921424       -25.0732
 135   2.0000      -0.917289       -24.9607
 136   2.0000      -0.911491       -24.8029
 137   2.0000      -0.901632       -24.5347
 138   2.0000      -0.883913       -24.0525
 139   2.0000      -0.879538       -23.9335
 140   2.0000      -0.864999       -23.5378
 141   2.0000      -0.864530       -23.5250
 142   2.0000      -0.856879       -23.3169
 143   2.0000      -0.854835       -23.2612
 144   2.0000      -0.827199       -22.5092
 145   2.0000      -0.823261       -22.4021
 146   2.0000      -0.821139       -22.3443
 147   2.0000      -0.805206       -21.9108
 148   2.0000      -0.795536       -21.6476
 149   2.0000      -0.780919       -21.2499
 150   2.0000      -0.778052       -21.1719
 151   2.0000      -0.777934       -21.1687
 152   2.0000      -0.761621       -20.7248
 153   2.0000      -0.759780       -20.6747
 154   2.0000      -0.753992       -20.5172
 155   2.0000      -0.745685       -20.2911
 156   2.0000      -0.741907       -20.1883
 157   2.0000      -0.735176       -20.0052
 158   2.0000      -0.725896       -19.7526
 159   2.0000      -0.713454       -19.4141
 160   2.0000      -0.712626       -19.3915
 161   2.0000      -0.697370       -18.9764
 162   2.0000      -0.694778       -18.9059
 163   2.0000      -0.686084       -18.6693
 164   2.0000      -0.683907       -18.6101
 165   2.0000      -0.683169       -18.5900
 166   2.0000      -0.682939       -18.5837
 167   2.0000      -0.682451       -18.5704
 168   2.0000      -0.680963       -18.5299
 169   2.0000      -0.668847       -18.2003
 170   2.0000      -0.661461       -17.9993
 171   2.0000      -0.652479       -17.7549
 172   2.0000      -0.648989       -17.6599
 173   2.0000      -0.648708       -17.6522
 174   2.0000      -0.643998       -17.5241
 175   2.0000      -0.632094       -17.2001
 176   2.0000      -0.629725       -17.1357
 177   2.0000      -0.621740       -16.9184
 178   2.0000      -0.620267       -16.8783
 179   2.0000      -0.617411       -16.8006
 180   2.0000      -0.614656       -16.7256
 181   2.0000      -0.614339       -16.7170
 182   2.0000      -0.613678       -16.6990
 183   2.0000      -0.596115       -16.2211
 184   2.0000      -0.594796       -16.1852
 185   2.0000      -0.577798       -15.7227
 186   2.0000      -0.577505       -15.7147
 187   2.0000      -0.577469       -15.7137
 188   2.0000      -0.571647       -15.5553
 189   2.0000      -0.568315       -15.4646
 190   2.0000      -0.564572       -15.3628
 191   2.0000      -0.564299       -15.3553
 192   2.0000      -0.560608       -15.2549
 193   2.0000      -0.559398       -15.2220
 194   2.0000      -0.557835       -15.1795
 195   2.0000      -0.556261       -15.1366
 196   2.0000      -0.553671       -15.0661
 197   2.0000      -0.553049       -15.0492
 198   2.0000      -0.548039       -14.9129
 199   2.0000      -0.547201       -14.8901
 200   2.0000      -0.545198       -14.8356
 201   2.0000      -0.531438       -14.4612
 202   2.0000      -0.528273       -14.3751
 203   2.0000      -0.525773       -14.3070
 204   2.0000      -0.523653       -14.2493
 205   2.0000      -0.522002       -14.2044
 206   2.0000      -0.517260       -14.0754
 207   2.0000      -0.517022       -14.0689
 208   2.0000      -0.514589       -14.0027
 209   2.0000      -0.514244       -13.9933
 210   2.0000      -0.511061       -13.9067
 211   2.0000      -0.510716       -13.8973
 212   2.0000      -0.506815       -13.7911
 213   2.0000      -0.501443       -13.6450
 214   2.0000      -0.500861       -13.6291
 215   2.0000      -0.500632       -13.6229
 216   2.0000      -0.498811       -13.5733
 217   2.0000      -0.498194       -13.5565
 218   2.0000      -0.495402       -13.4806
 219   2.0000      -0.495323       -13.4784
 220   2.0000      -0.493158       -13.4195
 221   2.0000      -0.492139       -13.3918
 222   2.0000      -0.491228       -13.3670
 223   2.0000      -0.490175       -13.3383
 224   2.0000      -0.488647       -13.2968
 225   2.0000      -0.483522       -13.1573
 226   2.0000      -0.481832       -13.1113
 227   2.0000      -0.479702       -13.0533
 228   2.0000      -0.477775       -13.0009
 229   2.0000      -0.473575       -12.8866
 230   2.0000      -0.468666       -12.7531
 231   2.0000      -0.460109       -12.5202
 232   2.0000      -0.459855       -12.5133
 233   2.0000      -0.459150       -12.4941
 234   2.0000      -0.456372       -12.4185
 235   2.0000      -0.456027       -12.4091
 236   2.0000      -0.447908       -12.1882
 237   2.0000      -0.446293       -12.1443
 238   2.0000      -0.445695       -12.1280
 239   2.0000      -0.440756       -11.9936
 240   2.0000      -0.440423       -11.9845
 241   2.0000      -0.439426       -11.9574
 242   2.0000      -0.438803       -11.9404
 243   2.0000      -0.438590       -11.9346
 244   2.0000      -0.436713       -11.8836
 245   2.0000      -0.436378       -11.8745
 246   2.0000      -0.430587       -11.7169
 247   2.0000      -0.429965       -11.6999
 248   2.0000      -0.423600       -11.5268
 249   2.0000      -0.421778       -11.4772
 250   2.0000      -0.418219       -11.3803
 251   2.0000      -0.410095       -11.1593
 252   2.0000      -0.396901       -10.8002
 253   2.0000      -0.395288       -10.7563
 254   2.0000      -0.395255       -10.7554
 255   2.0000      -0.391568       -10.6551
 256   2.0000      -0.391485       -10.6528
 257   2.0000      -0.383570       -10.4375
 258   2.0000      -0.377028       -10.2594
 259   2.0000      -0.375362       -10.2141
 260   2.0000      -0.373888       -10.1740
 261   2.0000      -0.367252        -9.9934
 262   2.0000      -0.359535        -9.7835
 263   2.0000      -0.357990        -9.7414
 264   2.0000      -0.357319        -9.7231
 265   2.0000      -0.357033        -9.7154
 266   2.0000      -0.347351        -9.4519
 267   2.0000      -0.347193        -9.4476
 268   2.0000      -0.343173        -9.3382
 269   2.0000      -0.326130        -8.8745
 270   2.0000      -0.320552        -8.7227
 271   2.0000      -0.314549        -8.5593
 272   2.0000      -0.310845        -8.4585
 273   2.0000      -0.310804        -8.4574
 274   2.0000      -0.278298        -7.5729
 275   2.0000      -0.254036        -6.9127
 276   0.0000      -0.110376        -3.0035
 277   0.0000      -0.106336        -2.8935
 278   0.0000      -0.090042        -2.4502
 279   0.0000      -0.089585        -2.4377
 280   0.0000      -0.080887        -2.2011

MULLIKEN ATOMIC CHARGES
-----------------------
   0 C :   -0.017748
   1 N :   -0.034964
   2 N :   -0.074399
   3 C :    0.023420
   4 C :    0.006823
   5 C :    0.049924
   6 N :   -0.254366
   7 S :    0.550939
   8 N :   -0.253913
   9 C :   -0.126776
  10 C :   -0.044328
  11 C :    0.006528
  12 C :   -0.090722
  13 S :    0.256507
  14 C :   -0.082837
  15 C :    0.043236
  16 C :    0.306511
  17 C :   -0.298688
  18 C :   -0.195916
  19 N :    0.177529
  20 C :   -0.187551
  21 N :    0.175831
  22 C :   -0.086884
  23 C :   -0.073742
  24 S :    0.260138
  25 C :   -0.078245
  26 C :   -0.000175
  27 C :    0.136754
  28 O :   -0.202229
  29 C :    0.068199
  30 C :    0.063872
  31 C :   -0.341867
  32 S :    0.289400
  33 C :   -0.341557
  34 C :    0.569032
  35 F :   -0.144094
  36 F :   -0.144739
  37 F :   -0.165011
  38 C :    0.569902
  39 F :   -0.144567
  40 F :   -0.164889
  41 F :   -0.144441
  42 C :    0.136437
  43 O :   -0.201834
  44 C :    0.003826
  45 C :   -0.077989
  46 S :    0.139593
  47 C :   -0.072132
  48 C :   -0.092190
  49 C :    0.041559
  50 C :   -0.082899
  51 S :    0.259824
  52 C :   -0.089393
  53 C :    0.008669
  54 C :    0.308702
  55 C :   -0.298155
  56 C :   -0.190209
  57 N :    0.175436
  58 C :   -0.193639
  59 N :    0.177542
  60 C :   -0.046756
  61 C :   -0.126627
  62 S :    0.256624
  63 C :    0.025304
  64 N :   -0.075783
  65 N :   -0.035282
  66 C :   -0.020394
  67 C :    0.052116
  68 C :    0.009319
  69 N :   -0.258561
  70 S :    0.551143
  71 N :   -0.253791
  72 H :    0.007228
  73 H :    0.018478
  74 H :    0.027357
  75 H :    0.028856
  76 H :    0.019673
  77 H :    0.008053
Sum of atomic charges:   -0.0000000

LOEWDIN ATOMIC CHARGES
----------------------
   0 C :    0.004019
   1 N :   -0.032968
   2 N :   -0.075387
   3 C :   -0.016361
   4 C :   -0.059656
   5 C :   -0.067647
   6 N :   -0.268876
   7 S :    0.684672
   8 N :   -0.268050
   9 C :   -0.181716
  10 C :   -0.008799
  11 C :   -0.072500
  12 C :   -0.170990
  13 S :    0.528331
  14 C :   -0.184926
  15 C :   -0.066967
  16 C :    0.079174
  17 C :   -0.103790
  18 C :   -0.019362
  19 N :   -0.029117
  20 C :   -0.017499
  21 N :   -0.031960
  22 C :   -0.022730
  23 C :   -0.199762
  24 S :    0.557875
  25 C :   -0.113513
  26 C :   -0.108440
  27 C :    0.078812
  28 O :   -0.171953
  29 C :   -0.062924
  30 C :   -0.062953
  31 C :   -0.206402
  32 S :    0.567351
  33 C :   -0.206438
  34 C :    0.144391
  35 F :   -0.043939
  36 F :   -0.044169
  37 F :   -0.066364
  38 C :    0.144334
  39 F :   -0.044069
  40 F :   -0.066226
  41 F :   -0.044146
  42 C :    0.078680
  43 O :   -0.172038
  44 C :   -0.108421
  45 C :   -0.113331
  46 S :    0.491093
  47 C :   -0.199676
  48 C :   -0.023161
  49 C :   -0.066703
  50 C :   -0.185203
  51 S :    0.558005
  52 C :   -0.170853
  53 C :   -0.072590
  54 C :    0.079251
  55 C :   -0.103819
  56 C :   -0.017567
  57 N :   -0.031874
  58 C :   -0.019252
  59 N :   -0.029395
  60 C :   -0.008843
  61 C :   -0.181750
  62 S :    0.528339
  63 C :   -0.016184
  64 N :   -0.075611
  65 N :   -0.032894
  66 C :    0.003933
  67 C :   -0.067564
  68 C :   -0.059458
  69 N :   -0.268515
  70 S :    0.684745
  71 N :   -0.268861
  72 H :    0.036056
  73 H :    0.041220
  74 H :    0.033192
  75 H :    0.033194
  76 H :    0.041392
  77 H :    0.036099

  Mayer bond orders larger than 0.100000
B(  0-C ,  1-N ) :   1.7371 B(  0-C ,  3-C ) :   0.1038 B(  0-C ,  5-C ) :   1.1255
B(  0-C , 72-H ) :   1.0153 B(  1-N ,  2-N ) :   1.2002 B(  2-N ,  3-C ) :   1.7478
B(  3-C ,  4-C ) :   1.1163 B(  3-C ,  9-C ) :   1.1437 B(  4-C ,  5-C ) :   1.2013
B(  4-C ,  8-N ) :   1.5496 B(  5-C ,  6-N ) :   1.4984 B(  6-N ,  7-S ) :   1.3006
B(  6-N ,  8-N ) :   0.1463 B(  7-S ,  8-N ) :   1.2721 B(  9-C , 10-C ) :   1.4908
B(  9-C , 13-S ) :   1.0898 B( 10-C , 11-C ) :   1.2618 B( 10-C , 73-H ) :   0.9822
B( 11-C , 12-C ) :   1.4250 B( 11-C , 16-C ) :   1.0031 B( 12-C , 13-S ) :   1.1324
B( 12-C , 14-C ) :   1.1859 B( 14-C , 15-C ) :   1.3911 B( 14-C , 24-S ) :   1.1116
B( 15-C , 16-C ) :   0.9835 B( 15-C , 22-C ) :   1.3626 B( 16-C , 17-C ) :   1.7098
B( 17-C , 18-C ) :   1.1343 B( 17-C , 20-C ) :   1.1368 B( 18-C , 19-N ) :   2.9878
B( 20-C , 21-N ) :   2.9912 B( 22-C , 23-C ) :   1.3677 B( 22-C , 74-H ) :   0.9770
B( 23-C , 24-S ) :   1.1045 B( 23-C , 25-C ) :   1.2304 B( 25-C , 26-C ) :   1.4617
B( 25-C , 46-S ) :   1.1301 B( 26-C , 27-C ) :   1.0394 B( 26-C , 44-C ) :   1.1323
B( 27-C , 28-O ) :   2.0454 B( 27-C , 29-C ) :   0.9665 B( 29-C , 30-C ) :   1.2285
B( 29-C , 33-C ) :   1.5682 B( 30-C , 31-C ) :   1.5712 B( 30-C , 42-C ) :   0.9663
B( 31-C , 32-S ) :   1.1923 B( 31-C , 38-C ) :   0.9285 B( 32-S , 33-C ) :   1.1934
B( 33-C , 34-C ) :   0.9288 B( 34-C , 35-F ) :   1.1872 B( 34-C , 36-F ) :   1.1869
B( 34-C , 37-F ) :   1.1516 B( 38-C , 39-F ) :   1.1868 B( 38-C , 40-F ) :   1.1511
B( 38-C , 41-F ) :   1.1866 B( 42-C , 43-O ) :   2.0449 B( 42-C , 44-C ) :   1.0408
B( 44-C , 45-C ) :   1.4574 B( 45-C , 46-S ) :   1.1316 B( 45-C , 47-C ) :   1.2331
B( 47-C , 48-C ) :   1.3655 B( 47-C , 51-S ) :   1.1048 B( 48-C , 49-C ) :   1.3629
B( 48-C , 75-H ) :   0.9773 B( 49-C , 50-C ) :   1.3937 B( 49-C , 54-C ) :   0.9818
B( 50-C , 51-S ) :   1.1102 B( 50-C , 52-C ) :   1.1851 B( 52-C , 53-C ) :   1.4243
B( 52-C , 62-S ) :   1.1323 B( 53-C , 54-C ) :   1.0017 B( 53-C , 60-C ) :   1.2609
B( 54-C , 55-C ) :   1.7109 B( 55-C , 56-C ) :   1.1382 B( 55-C , 58-C ) :   1.1318
B( 56-C , 57-N ) :   2.9904 B( 58-C , 59-N ) :   2.9883 B( 60-C , 61-C ) :   1.4914
B( 60-C , 76-H ) :   0.9818 B( 61-C , 62-S ) :   1.0897 B( 61-C , 63-C ) :   1.1438
B( 63-C , 64-N ) :   1.7468 B( 63-C , 66-C ) :   0.1041 B( 63-C , 68-C ) :   1.1161
B( 64-N , 65-N ) :   1.2016 B( 65-N , 66-C ) :   1.7372 B( 66-C , 67-C ) :   1.1252
B( 66-C , 77-H ) :   1.0154 B( 67-C , 68-C ) :   1.2024 B( 67-C , 71-N ) :   1.4981
B( 68-C , 69-N ) :   1.5459 B( 69-N , 70-S ) :   1.2720 B( 69-N , 71-N ) :   0.1461
B( 70-S , 71-N ) :   1.3007

-----------------------------------------------------------------------------
         ABSORPTION SPECTRUM VIA TRANSITION ELECTRIC DIPOLE MOMENTS
-----------------------------------------------------------------------------
State   Energy  Wavelength   fosc         T2         TX        TY        TZ
        (cm-1)    (nm)                  (au**2)     (au)      (au)      (au)
-----------------------------------------------------------------------------
   0   14508.6    689.2   0.529451919  12.01369   0.40237  -2.67516  -2.16687
   1   15057.5    664.1   0.035184658   0.76926   0.81050  -0.13246   0.30791
   2   19616.5    509.8   1.335807672  22.41811  -0.55963   3.65510   2.95722
   3   20340.6    491.6   0.345200611   5.58706   2.19923  -0.28911   0.81662
   4   20930.5    477.8   0.000006086   0.00010   0.00374   0.00531  -0.00732
   5   20937.6    477.6   0.000007060   0.00011  -0.00112  -0.00653   0.00819
   6   23230.0    430.5   0.009028917   0.12796  -0.35085  -0.06301  -0.02988
   7   23380.6    427.7   0.033558129   0.47252   0.65416  -0.05902   0.20274
   8   23479.1    425.9   0.135216261   1.89593  -0.18233   1.01014   0.91777
   9   23830.6    419.6   0.079093087   1.09265  -0.12723   0.78743   0.67559
  10   27217.4    367.4   0.154704642   1.87125  -0.15373   1.07008   0.83818
  11   28267.1    353.8   0.042106834   0.49040  -0.65023   0.09773  -0.24094
  12   28872.5    346.3   0.257376954   2.93468  -0.17876   1.35929   1.02716
  13   29282.2    341.5   0.000175130   0.00197  -0.01809  -0.02440   0.03234
  14   29294.0    341.4   0.000413802   0.00465   0.02579  -0.06180   0.01291
  15   30334.1    329.7   0.041903688   0.45478  -0.59346   0.29948   0.11356
  16   30421.9    328.7   0.085066627   0.92055   0.89029   0.04998   0.35418
  17   30470.8    328.2   0.074845851   0.80865   0.56585   0.21768   0.66414
  18   30566.3    327.2   0.176075927   1.89641   1.35095  -0.20991   0.16520
  19   31076.8    321.8   0.000129109   0.00137   0.00922   0.01338   0.03322
  20   31562.5    316.8   0.064266084   0.67033   0.79453  -0.03005   0.19532
  21   31655.5    315.9   0.065120976   0.67725   0.77153   0.01291   0.28606
  22   31740.5    315.1   0.319974443   3.31877  -0.28779   1.33483   1.20590
  23   33091.3    302.2   0.220067844   2.18937   0.11842  -1.18641  -0.87623
  24   33235.3    300.9   0.113212945   1.12143  -0.99381   0.12418  -0.34403
  25   33944.2    294.6   0.101588005   0.98526   0.15310  -0.61448  -0.76436
  26   34104.3    293.2   0.947865266   9.14984  -2.89493   0.24928  -0.84089
  27   35356.1    282.8   0.000404993   0.00377  -0.03933  -0.04131   0.02275
  28   35439.6    282.2   0.011443594   0.10630   0.30676  -0.06943   0.08593
  29   35463.4    282.0   0.016431026   0.15253  -0.06037   0.29109   0.25329
  30   35617.0    280.8   0.148065220   1.36858  -0.15955   0.86985   0.76582
  31   36163.9    276.5   0.029025094   0.26423   0.45896  -0.09053   0.21303
  32   36723.3    272.3   0.004894011   0.04387   0.10515  -0.00400  -0.18111
  33   36775.3    271.9   0.001006055   0.00901  -0.05620   0.00690   0.07616
  34   36836.0    271.5   0.011142851   0.09959   0.02370   0.27729   0.14878
  35   37145.2    269.2   0.000529766   0.00470   0.03608   0.04226  -0.04009
  36   37152.2    269.2   0.000468716   0.00415   0.00164   0.04001  -0.05049
  37   37267.6    268.3   0.056209007   0.49654   0.64561  -0.14419   0.24277
  38   37396.9    267.4   0.012741948   0.11217   0.01038   0.25573   0.21602
  39   37760.4    264.8   0.000654360   0.00570   0.07552  -0.00090   0.00057
  40   37829.1    264.3   0.000277006   0.00241  -0.01270  -0.02802   0.03827
  41   37842.5    264.3   0.000364687   0.00317   0.02122   0.02165  -0.04747
  42   37960.7    263.4   0.000297458   0.00258  -0.01590  -0.03456   0.03365
  43   38280.3    261.2   0.146023348   1.25581   0.12857  -0.83870  -0.73203
  44   38731.1    258.2   0.003398289   0.02889  -0.09116  -0.09160  -0.11039
  45   38861.3    257.3   0.330213004   2.79739  -0.21156   1.27158   1.06570
  46   39020.0    256.3   0.097227354   0.82031  -0.18704   0.67462   0.57464
  47   39084.8    255.9   0.082648231   0.69615  -0.77196   0.00310  -0.31656
  48   39309.5    254.4   0.003590816   0.03007  -0.14655   0.09222   0.00956
  49   39364.4    254.0   0.001686291   0.01410   0.03048  -0.10851  -0.03740
  50   39455.7    253.4   0.000384707   0.00321  -0.05333   0.01566  -0.01098
  51   39563.7    252.8   0.010996525   0.09150   0.03254  -0.23481  -0.18790
  52   39813.5    251.2   0.080339487   0.66431  -0.77119   0.08954  -0.24811
  53   40059.3    249.6   0.037045678   0.30445   0.51378  -0.07523   0.18658
  54   40260.1    248.4   0.001779183   0.01455   0.02059  -0.10797  -0.04967

FINAL SINGLE POINT ENERGY     -6267.498758410336

DIPOLE MOMENT
-------------
                                X             Y             Z
Electronic contribution:    -43.86932       5.54261     -14.92349
Nuclear contribution   :     43.76520      -5.58279      14.94479
                        -----------------------------------------
Total Dipole Moment    :     -0.10412      -0.04018       0.02130
                        -----------------------------------------
Magnitude (a.u.)       :      0.11362
Magnitude (Debye)      :      0.28880

Rotational constants in cm-1:     0.001119     0.000307     0.000242
Rotational constants in MHz :    33.551897     9.213850     7.257181

                             ****ORCA TERMINATED NORMALLY****
TOTAL RUN TIME: 0 days 0 hours 7 minutes 37 seconds 413 msec
