                         Program Version 4.2.0 -  RELEASE  -
|  1> # ORCA input file
|  2> # SCF done       -177.766237489895          0.000476567989
|  3> ! CAM-B3LYP def2-SVP def2/J RIJCOSX Grid4 TightSCF
|  4> %maxcore 5000
|  5> %tddft
|  6>     Mode sTDDFT
|  7>     Ethresh 5.0
|  8>     maxcore 5000
|  9> end
| 10>
| 11> %pal
| 12>   nprocs 6
| 13>   end
| 14> * xyz 0 1
| 15>    C       -0.62500        -0.41674         1.27057
| 16>    C       -0.07751        -1.67031         1.90778
| 17>    C        1.00857        -1.14783         2.90361
| 18>    C        0.99268         0.36773         3.16486
| 19>    C        0.67739         0.81336         4.37797
| 20>    O        1.44662         1.33105         2.27694
| 21>    C        0.96621         1.47126         0.92111
| 22>    C        0.62535         0.06008         0.49917
| 23>    C        0.50186        -0.63254        -0.81907
| 24>    C        0.38152        -1.94532        -0.64090
| 25>    C        0.44131        -2.58540         0.74088
| 26>    C       -0.32705        -3.90779         0.72431
| 27>    C        2.08148         2.10841         0.09785
| 28>    C        2.40862         3.52067         0.57313
| 29>    C        3.47164         4.19050        -0.30919
| 30>    C        4.80656         3.51924        -0.20917
| 31>    C        5.74449         3.77479         0.73393
| 32>    O        6.97654         3.12293         0.76495
| 33>    C        7.15264         2.18251        -0.20100
| 34>    C        6.15458         1.90752        -1.18245
| 35>    C        6.52046         0.93470        -2.05219
| 36>    S        8.09747         0.33647        -1.69171
| 37>    C        8.25761         1.41285        -0.35072
| 38>    O        4.97071         2.58466        -1.20836
| 39>    C        5.58633         4.74806         1.77262
| 40>    C        6.55807         5.05427         2.66018
| 41>    C        6.43215         6.04815         3.66363
| 42>    S        4.96514         6.95318         3.90933
| 43>    C        5.68522         7.92304         5.17680
| 44>    C        6.99332         7.52157         5.39711
| 45>    C        7.41073         6.48368         4.53873
| 46>    S        9.03128         5.77438         4.54904
| 47>    C        9.97716         7.20613         3.88746
| 48>    C       11.45999         6.90382         3.94342
| 49>    S        8.04706         8.20007         6.64475
| 50>    C        8.15109         6.75441         7.77478
| 51>    C        9.25439         6.98268         8.78642
| 52>    C        4.86602         8.90532         5.78740
| 53>    C        5.28030         9.92976         6.57937
| 54>    C        4.43313        10.88391         7.20002
| 55>    C        3.07381        10.84598         7.25538
| 56>    C        2.26592        11.82176         7.87521
| 57>    S        2.94904        13.27012         8.61257
| 58>    C        1.38438        13.81379         9.05545
| 59>    C        0.38571        12.91305         8.65449
| 60>    C        0.87848        11.80037         7.99278
| 61>    C       -0.90456        13.47457         9.08696
| 62>    O       -2.01716        13.02394         8.94599
| 63>    C       -0.54240        14.77826         9.76387
| 64>    C        0.83504        14.93046         9.71642
| 65>    C       -1.53447        15.59918        10.30533
| 66>    C       -1.32761        16.81769        10.91195
| 67>    C       -2.35244        17.59515        11.44083
| 68>    C       -2.17386        18.83024        12.03197
| 69>    C       -3.17244        19.65624        12.59187
| 70>    C       -2.70933        20.83305        13.10212
| 71>    C       -1.31314        21.00303        12.96908
| 72>    S       -0.60825        19.60793        12.17858
| 73>    C       -0.54838        22.07942        13.36778
| 74>    C       -0.99545        23.26103        14.01709
| 75>    C       -0.01626        24.15641        14.28274
| 76>    C        1.29044        23.74713        13.85845
| 77>    S        1.18150        22.14723        13.10712
| 78>    C        2.44370        24.42065        13.97936
| 79>    H       -0.96522         0.29768         2.02010
| 80>    H       -1.45389        -0.61091         0.58871
| 81>    H       -0.83812        -2.21778         2.46890
| 82>    H        2.01292        -1.43522         2.58101
| 83>    H        0.85152        -1.61878         3.87424
| 84>    H        0.43070         0.14763         5.18378
| 85>    H        0.69116         1.86618         4.59730
| 86>    H        0.08844         2.13587         0.93351
| 87>    H        1.49916        -0.45581         0.90736
| 88>    H        0.47357        -0.13652        -1.77443
| 89>    H        0.25205        -2.62585        -1.46862
| 90>    H        1.49703        -2.82378         0.93196
| 91>    H       -1.38221        -3.72942         0.52775
| 92>    H       -0.23376        -4.41642         1.68136
| 93>    H        0.06021        -4.56627        -0.05024
| 94>    H        2.96905         1.47799         0.16673
| 95>    H        1.76137         2.13298        -0.94576
| 96>    H        2.75234         3.47762         1.60684
| 97>    H        1.50160         4.12797         0.54227
| 98>    H        3.56109         5.24272        -0.04137
| 99>    H        3.15548         4.12556        -1.35241
|100>    H        5.96277         0.54105        -2.87580
|101>    H        9.14829         1.41382         0.24145
|102>    H        4.63700         5.25707         1.82745
|103>    H        7.50935         4.54304         2.61923
|104>    H        9.72410         8.07283         4.49689
|105>    H        9.63825         7.36168         2.86235
|106>    H       11.77499         6.73799         4.97117
|107>    H       12.02128         7.74230         3.53640
|108>    H       11.69145         6.01276         3.36365
|109>    H        8.34664         5.87429         7.16414
|110>    H        7.17705         6.66392         8.25722
|111>    H       10.21556         7.07029         8.28517
|112>    H        9.29612         6.14512         9.47944
|113>    H        9.07426         7.89538         9.35065
|114>    H        3.81553         8.81569         5.54369
|115>    H        6.33937        10.05818         6.74535
|116>    H        4.93068        11.71357         7.68744
|117>    H        2.53483        10.01805         6.81519
|118>    H        0.27600        10.99784         7.60675
|119>    H        1.40025        15.75300        10.11373
|120>    H       -2.54726        15.22342        10.22192
|121>    H       -0.31983        17.20565        10.98468
|122>    H       -3.36590        17.21773        11.39053
|123>    H       -4.20571        19.35604        12.60136
|124>    H       -3.33223        21.57780        13.56401
|125>    H       -2.03190        23.40556        14.26588
|126>    H       -0.16410        25.10488        14.76775
|127>    H        2.46566        25.39164        14.44171
|128>    H        3.37394        24.01881        13.62201
|129> *
|130>
|131>                          ****END OF INPUT****

CARTESIAN COORDINATES (ANGSTROEM)
---------------------------------
  C     -0.625000   -0.416740    1.270570
  C     -0.077510   -1.670310    1.907780
  C      1.008570   -1.147830    2.903610
  C      0.992680    0.367730    3.164860
  C      0.677390    0.813360    4.377970
  O      1.446620    1.331050    2.276940
  C      0.966210    1.471260    0.921110
  C      0.625350    0.060080    0.499170
  C      0.501860   -0.632540   -0.819070
  C      0.381520   -1.945320   -0.640900
  C      0.441310   -2.585400    0.740880
  C     -0.327050   -3.907790    0.724310
  C      2.081480    2.108410    0.097850
  C      2.408620    3.520670    0.573130
  C      3.471640    4.190500   -0.309190
  C      4.806560    3.519240   -0.209170
  C      5.744490    3.774790    0.733930
  O      6.976540    3.122930    0.764950
  C      7.152640    2.182510   -0.201000
  C      6.154580    1.907520   -1.182450
  C      6.520460    0.934700   -2.052190
  S      8.097470    0.336470   -1.691710
  C      8.257610    1.412850   -0.350720
  O      4.970710    2.584660   -1.208360
  C      5.586330    4.748060    1.772620
  C      6.558070    5.054270    2.660180
  C      6.432150    6.048150    3.663630
  S      4.965140    6.953180    3.909330
  C      5.685220    7.923040    5.176800
  C      6.993320    7.521570    5.397110
  C      7.410730    6.483680    4.538730
  S      9.031280    5.774380    4.549040
  C      9.977160    7.206130    3.887460
  C     11.459990    6.903820    3.943420
  S      8.047060    8.200070    6.644750
  C      8.151090    6.754410    7.774780
  C      9.254390    6.982680    8.786420
  C      4.866020    8.905320    5.787400
  C      5.280300    9.929760    6.579370
  C      4.433130   10.883910    7.200020
  C      3.073810   10.845980    7.255380
  C      2.265920   11.821760    7.875210
  S      2.949040   13.270120    8.612570
  C      1.384380   13.813790    9.055450
  C      0.385710   12.913050    8.654490
  C      0.878480   11.800370    7.992780
  C     -0.904560   13.474570    9.086960
  O     -2.017160   13.023940    8.945990
  C     -0.542400   14.778260    9.763870
  C      0.835040   14.930460    9.716420
  C     -1.534470   15.599180   10.305330
  C     -1.327610   16.817690   10.911950
  C     -2.352440   17.595150   11.440830
  C     -2.173860   18.830240   12.031970
  C     -3.172440   19.656240   12.591870
  C     -2.709330   20.833050   13.102120
  C     -1.313140   21.003030   12.969080
  S     -0.608250   19.607930   12.178580
  C     -0.548380   22.079420   13.367780
  C     -0.995450   23.261030   14.017090
  C     -0.016260   24.156410   14.282740
  C      1.290440   23.747130   13.858450
  S      1.181500   22.147230   13.107120
  C      2.443700   24.420650   13.979360
  H     -0.965220    0.297680    2.020100
  H     -1.453890   -0.610910    0.588710
  H     -0.838120   -2.217780    2.468900
  H      2.012920   -1.435220    2.581010
  H      0.851520   -1.618780    3.874240
  H      0.430700    0.147630    5.183780
  H      0.691160    1.866180    4.597300
  H      0.088440    2.135870    0.933510
  H      1.499160   -0.455810    0.907360
  H      0.473570   -0.136520   -1.774430
  H      0.252050   -2.625850   -1.468620
  H      1.497030   -2.823780    0.931960
  H     -1.382210   -3.729420    0.527750
  H     -0.233760   -4.416420    1.681360
  H      0.060210   -4.566270   -0.050240
  H      2.969050    1.477990    0.166730
  H      1.761370    2.132980   -0.945760
  H      2.752340    3.477620    1.606840
  H      1.501600    4.127970    0.542270
  H      3.561090    5.242720   -0.041370
  H      3.155480    4.125560   -1.352410
  H      5.962770    0.541050   -2.875800
  H      9.148290    1.413820    0.241450
  H      4.637000    5.257070    1.827450
  H      7.509350    4.543040    2.619230
  H      9.724100    8.072830    4.496890
  H      9.638250    7.361680    2.862350
  H     11.774990    6.737990    4.971170
  H     12.021280    7.742300    3.536400
  H     11.691450    6.012760    3.363650
  H      8.346640    5.874290    7.164140
  H      7.177050    6.663920    8.257220
  H     10.215560    7.070290    8.285170
  H      9.296120    6.145120    9.479440
  H      9.074260    7.895380    9.350650
  H      3.815530    8.815690    5.543690
  H      6.339370   10.058180    6.745350
  H      4.930680   11.713570    7.687440
  H      2.534830   10.018050    6.815190
  H      0.276000   10.997840    7.606750
  H      1.400250   15.753000   10.113730
  H     -2.547260   15.223420   10.221920
  H     -0.319830   17.205650   10.984680
  H     -3.365900   17.217730   11.390530
  H     -4.205710   19.356040   12.601360
  H     -3.332230   21.577800   13.564010
  H     -2.031900   23.405560   14.265880
  H     -0.164100   25.104880   14.767750
  H      2.465660   25.391640   14.441710
  H      3.373940   24.018810   13.622010

 Total Charge           Charge          ....    0
 Multiplicity           Mult            ....    1
 Number of Electrons    NEL             ....  512
 Basis Dimension        Dim             .... 1174

ORBITAL ENERGIES
----------------

  NO   OCC          E(Eh)            E(eV)
   0   2.0000     -88.961714     -2420.7713
   1   2.0000     -88.947110     -2420.3739
   2   2.0000     -88.944099     -2420.2920
   3   2.0000     -88.941781     -2420.2289
   4   2.0000     -88.938470     -2420.1388
   5   2.0000     -88.909161     -2419.3413
   6   2.0000     -88.907816     -2419.3047
   7   2.0000     -19.264561      -524.2154
   8   2.0000     -19.255742      -523.9754
   9   2.0000     -19.215269      -522.8741
  10   2.0000     -19.213723      -522.8320
  11   2.0000     -10.356451      -281.8134
  12   2.0000     -10.329174      -281.0711
  13   2.0000     -10.328690      -281.0580
  14   2.0000     -10.328433      -281.0510
  15   2.0000     -10.323428      -280.9148
  16   2.0000     -10.312865      -280.6273
  17   2.0000     -10.311064      -280.5783
  18   2.0000     -10.310164      -280.5538
  19   2.0000     -10.307797      -280.4894
  20   2.0000     -10.306186      -280.4456
  21   2.0000     -10.304693      -280.4050
  22   2.0000     -10.302111      -280.3347
  23   2.0000     -10.297729      -280.2154
  24   2.0000     -10.297026      -280.1963
  25   2.0000     -10.292989      -280.0865
  26   2.0000     -10.289133      -279.9816
  27   2.0000     -10.286975      -279.9228
  28   2.0000     -10.286500      -279.9099
  29   2.0000     -10.286374      -279.9065
  30   2.0000     -10.285892      -279.8934
  31   2.0000     -10.284524      -279.8561
  32   2.0000     -10.284361      -279.8517
  33   2.0000     -10.282016      -279.7879
  34   2.0000     -10.281852      -279.7834
  35   2.0000     -10.278770      -279.6995
  36   2.0000     -10.277754      -279.6719
  37   2.0000     -10.276835      -279.6469
  38   2.0000     -10.275612      -279.6136
  39   2.0000     -10.275042      -279.5981
  40   2.0000     -10.274804      -279.5916
  41   2.0000     -10.274446      -279.5819
  42   2.0000     -10.270391      -279.4716
  43   2.0000     -10.270355      -279.4706
  44   2.0000     -10.269778      -279.4549
  45   2.0000     -10.269643      -279.4512
  46   2.0000     -10.269388      -279.4442
  47   2.0000     -10.265641      -279.3423
  48   2.0000     -10.265151      -279.3290
  49   2.0000     -10.265143      -279.3287
  50   2.0000     -10.262957      -279.2693
  51   2.0000     -10.262672      -279.2615
  52   2.0000     -10.262199      -279.2486
  53   2.0000     -10.261691      -279.2348
  54   2.0000     -10.257635      -279.1244
  55   2.0000     -10.256578      -279.0957
  56   2.0000     -10.254914      -279.0504
  57   2.0000     -10.254837      -279.0483
  58   2.0000     -10.254489      -279.0388
  59   2.0000     -10.253126      -279.0017
  60   2.0000     -10.250474      -278.9296
  61   2.0000     -10.249587      -278.9055
  62   2.0000     -10.245874      -278.8044
  63   2.0000     -10.231377      -278.4099
  64   2.0000      -8.056515      -219.2289
  65   2.0000      -8.042803      -218.8558
  66   2.0000      -8.039922      -218.7774
  67   2.0000      -8.038110      -218.7281
  68   2.0000      -8.035255      -218.6504
  69   2.0000      -8.003695      -217.7916
  70   2.0000      -8.002395      -217.7563
  71   2.0000      -6.025639      -163.9660
  72   2.0000      -6.021672      -163.8580
  73   2.0000      -6.018960      -163.7842
  74   2.0000      -6.012332      -163.6039
  75   2.0000      -6.009037      -163.5142
  76   2.0000      -6.008185      -163.4910
  77   2.0000      -6.007822      -163.4811
  78   2.0000      -6.005363      -163.4142
  79   2.0000      -6.005063      -163.4061
  80   2.0000      -6.004476      -163.3901
  81   2.0000      -6.003885      -163.3740
  82   2.0000      -6.001862      -163.3190
  83   2.0000      -6.001141      -163.2993
  84   2.0000      -5.998973      -163.2404
  85   2.0000      -5.995802      -163.1541
  86   2.0000      -5.974228      -162.5670
  87   2.0000      -5.972905      -162.5310
  88   2.0000      -5.970281      -162.4596
  89   2.0000      -5.969044      -162.4259
  90   2.0000      -5.963232      -162.2678
  91   2.0000      -5.961898      -162.2315
  92   2.0000      -1.186001       -32.2727
  93   2.0000      -1.147831       -31.2341
  94   2.0000      -1.124326       -30.5945
  95   2.0000      -1.112175       -30.2638
  96   2.0000      -0.993797       -27.0426
  97   2.0000      -0.991636       -26.9838
  98   2.0000      -0.982187       -26.7267
  99   2.0000      -0.974266       -26.5111
 100   2.0000      -0.968856       -26.3639
 101   2.0000      -0.943497       -25.6739
 102   2.0000      -0.934053       -25.4169
 103   2.0000      -0.912814       -24.8389
 104   2.0000      -0.905488       -24.6396
 105   2.0000      -0.899244       -24.4697
 106   2.0000      -0.896377       -24.3917
 107   2.0000      -0.888499       -24.1773
 108   2.0000      -0.882312       -24.0089
 109   2.0000      -0.872492       -23.7417
 110   2.0000      -0.870555       -23.6890
 111   2.0000      -0.855261       -23.2728
 112   2.0000      -0.849728       -23.1223
 113   2.0000      -0.843766       -22.9600
 114   2.0000      -0.841779       -22.9060
 115   2.0000      -0.838388       -22.8137
 116   2.0000      -0.835200       -22.7269
 117   2.0000      -0.831350       -22.6222
 118   2.0000      -0.823088       -22.3974
 119   2.0000      -0.820171       -22.3180
 120   2.0000      -0.815805       -22.1992
 121   2.0000      -0.805615       -21.9219
 122   2.0000      -0.800949       -21.7949
 123   2.0000      -0.790319       -21.5057
 124   2.0000      -0.784921       -21.3588
 125   2.0000      -0.771623       -20.9969
 126   2.0000      -0.760024       -20.6813
 127   2.0000      -0.751706       -20.4550
 128   2.0000      -0.750772       -20.4295
 129   2.0000      -0.746128       -20.3032
 130   2.0000      -0.740555       -20.1515
 131   2.0000      -0.728724       -19.8296
 132   2.0000      -0.712688       -19.3932
 133   2.0000      -0.705392       -19.1947
 134   2.0000      -0.696414       -18.9504
 135   2.0000      -0.684680       -18.6311
 136   2.0000      -0.682589       -18.5742
 137   2.0000      -0.678371       -18.4594
 138   2.0000      -0.671923       -18.2839
 139   2.0000      -0.670365       -18.2416
 140   2.0000      -0.662841       -18.0368
 141   2.0000      -0.662467       -18.0266
 142   2.0000      -0.661009       -17.9870
 143   2.0000      -0.657391       -17.8885
 144   2.0000      -0.651866       -17.7382
 145   2.0000      -0.642163       -17.4741
 146   2.0000      -0.633922       -17.2499
 147   2.0000      -0.623744       -16.9729
 148   2.0000      -0.620976       -16.8976
 149   2.0000      -0.615798       -16.7567
 150   2.0000      -0.609620       -16.5886
 151   2.0000      -0.606495       -16.5036
 152   2.0000      -0.603770       -16.4294
 153   2.0000      -0.596940       -16.2436
 154   2.0000      -0.594815       -16.1857
 155   2.0000      -0.594048       -16.1649
 156   2.0000      -0.585086       -15.9210
 157   2.0000      -0.570471       -15.5233
 158   2.0000      -0.565333       -15.3835
 159   2.0000      -0.563363       -15.3299
 160   2.0000      -0.558283       -15.1917
 161   2.0000      -0.557394       -15.1675
 162   2.0000      -0.556003       -15.1296
 163   2.0000      -0.553563       -15.0632
 164   2.0000      -0.552370       -15.0308
 165   2.0000      -0.547440       -14.8966
 166   2.0000      -0.545157       -14.8345
 167   2.0000      -0.531361       -14.4591
 168   2.0000      -0.529470       -14.4076
 169   2.0000      -0.528985       -14.3944
 170   2.0000      -0.527649       -14.3581
 171   2.0000      -0.525258       -14.2930
 172   2.0000      -0.524143       -14.2626
 173   2.0000      -0.520226       -14.1561
 174   2.0000      -0.518425       -14.1071
 175   2.0000      -0.514408       -13.9977
 176   2.0000      -0.513411       -13.9706
 177   2.0000      -0.511394       -13.9157
 178   2.0000      -0.508133       -13.8270
 179   2.0000      -0.498753       -13.5718
 180   2.0000      -0.498374       -13.5614
 181   2.0000      -0.497331       -13.5331
 182   2.0000      -0.493884       -13.4393
 183   2.0000      -0.493465       -13.4279
 184   2.0000      -0.492911       -13.4128
 185   2.0000      -0.491595       -13.3770
 186   2.0000      -0.489670       -13.3246
 187   2.0000      -0.487307       -13.2603
 188   2.0000      -0.485560       -13.2127
 189   2.0000      -0.483920       -13.1681
 190   2.0000      -0.480102       -13.0643
 191   2.0000      -0.477324       -12.9886
 192   2.0000      -0.474926       -12.9234
 193   2.0000      -0.470333       -12.7984
 194   2.0000      -0.467709       -12.7270
 195   2.0000      -0.465376       -12.6635
 196   2.0000      -0.462398       -12.5825
 197   2.0000      -0.461136       -12.5482
 198   2.0000      -0.459623       -12.5070
 199   2.0000      -0.458698       -12.4818
 200   2.0000      -0.454639       -12.3713
 201   2.0000      -0.453885       -12.3508
 202   2.0000      -0.452636       -12.3169
 203   2.0000      -0.451380       -12.2827
 204   2.0000      -0.449576       -12.2336
 205   2.0000      -0.446811       -12.1583
 206   2.0000      -0.445886       -12.1332
 207   2.0000      -0.442526       -12.0417
 208   2.0000      -0.440361       -11.9828
 209   2.0000      -0.437748       -11.9117
 210   2.0000      -0.434546       -11.8246
 211   2.0000      -0.432959       -11.7814
 212   2.0000      -0.427937       -11.6448
 213   2.0000      -0.427191       -11.6244
 214   2.0000      -0.427089       -11.6217
 215   2.0000      -0.424351       -11.5472
 216   2.0000      -0.422799       -11.5049
 217   2.0000      -0.421505       -11.4697
 218   2.0000      -0.418966       -11.4006
 219   2.0000      -0.417641       -11.3646
 220   2.0000      -0.413687       -11.2570
 221   2.0000      -0.413101       -11.2410
 222   2.0000      -0.412391       -11.2217
 223   2.0000      -0.410425       -11.1682
 224   2.0000      -0.406224       -11.0539
 225   2.0000      -0.404059       -10.9950
 226   2.0000      -0.402012       -10.9393
 227   2.0000      -0.400047       -10.8858
 228   2.0000      -0.395533       -10.7630
 229   2.0000      -0.393943       -10.7197
 230   2.0000      -0.390813       -10.6345
 231   2.0000      -0.383813       -10.4441
 232   2.0000      -0.377757       -10.2793
 233   2.0000      -0.376573       -10.2471
 234   2.0000      -0.373416       -10.1612
 235   2.0000      -0.371890       -10.1196
 236   2.0000      -0.359169        -9.7735
 237   2.0000      -0.352055        -9.5799
 238   2.0000      -0.342339        -9.3155
 239   2.0000      -0.339119        -9.2279
 240   2.0000      -0.336180        -9.1479
 241   2.0000      -0.327638        -8.9155
 242   2.0000      -0.327010        -8.8984
 243   2.0000      -0.324297        -8.8246
 244   2.0000      -0.315929        -8.5969
 245   2.0000      -0.313973        -8.5436
 246   2.0000      -0.301477        -8.2036
 247   2.0000      -0.298300        -8.1172
 248   2.0000      -0.291304        -7.9268
 249   2.0000      -0.286669        -7.8007
 250   2.0000      -0.284902        -7.7526
 251   2.0000      -0.275020        -7.4837
 252   2.0000      -0.269311        -7.3283
 253   2.0000      -0.246676        -6.7124
 254   2.0000      -0.223598        -6.0844
 255   2.0000      -0.198643        -5.4054
 256   0.0000      -0.091732        -2.4962
 257   0.0000      -0.048041        -1.3073
 258   0.0000      -0.040428        -1.1001
 259   0.0000      -0.003628        -0.0987
 260   0.0000       0.009066         0.2467

MULLIKEN ATOMIC CHARGES
-----------------------
   0 C :    0.133987
   1 C :   -0.140073
   2 C :    0.190749
   3 C :    0.021038
   4 C :   -0.055187
   5 O :   -0.355845
   6 C :    0.241470
   7 C :   -0.153959
   8 C :    0.013697
   9 C :   -0.044523
  10 C :    0.012299
  11 C :    0.047487
  12 C :    0.042429
  13 C :    0.014042
  14 C :    0.151287
  15 C :   -0.032671
  16 C :    0.201361
  17 O :   -0.267910
  18 C :    0.229545
  19 C :    0.212865
  20 C :   -0.174694
  21 S :    0.098764
  22 C :   -0.180496
  23 O :   -0.251284
  24 C :   -0.080353
  25 C :    0.018003
  26 C :   -0.064869
  27 S :    0.098432
  28 C :   -0.082228
  29 C :   -0.048605
  30 C :   -0.046371
  31 S :   -0.039282
  32 C :   -0.096471
  33 C :    0.017893
  34 S :   -0.037875
  35 C :   -0.090361
  36 C :    0.014507
  37 C :    0.035936
  38 C :    0.017100
  39 C :   -0.016487
  40 C :    0.032156
  41 C :   -0.063282
  42 S :    0.146952
  43 C :   -0.041966
  44 C :    0.009623
  45 C :   -0.026257
  46 C :    0.156682
  47 O :   -0.122607
  48 C :   -0.031073
  49 C :   -0.038008
  50 C :   -0.010180
  51 C :    0.021384
  52 C :   -0.012469
  53 C :   -0.015671
  54 C :    0.032133
  55 C :    0.025127
  56 C :   -0.044869
  57 S :    0.072396
  58 C :   -0.067368
  59 C :    0.028489
  60 C :    0.055663
  61 C :   -0.068437
  62 S :    0.081968
  63 C :   -0.024330
  64 H :    0.018275
  65 H :    0.002062
  66 H :   -0.014016
  67 H :    0.006390
  68 H :   -0.005891
  69 H :    0.000044
  70 H :    0.009518
  71 H :   -0.013387
  72 H :    0.035549
  73 H :   -0.025623
  74 H :   -0.021245
  75 H :    0.009395
  76 H :    0.011190
  77 H :    0.008402
  78 H :    0.009325
  79 H :    0.008962
  80 H :   -0.007255
  81 H :    0.020147
  82 H :   -0.004182
  83 H :    0.015662
  84 H :    0.005663
  85 H :    0.020525
  86 H :    0.022446
  87 H :   -0.003196
  88 H :    0.005431
  89 H :    0.051910
  90 H :    0.045308
  91 H :    0.023155
  92 H :    0.025253
  93 H :    0.022609
  94 H :    0.054069
  95 H :    0.047001
  96 H :    0.024869
  97 H :    0.026784
  98 H :    0.021809
  99 H :   -0.024463
 100 H :   -0.004447
 101 H :   -0.013255
 102 H :   -0.010997
 103 H :   -0.009692
 104 H :   -0.012140
 105 H :   -0.006546
 106 H :   -0.004424
 107 H :   -0.013105
 108 H :   -0.011871
 109 H :   -0.013795
 110 H :   -0.011871
 111 H :   -0.011910
 112 H :    0.019973
 113 H :    0.022179
Sum of atomic charges:   -0.0000000

LOEWDIN ATOMIC CHARGES
----------------------
   0 C :   -0.015636
   1 C :   -0.018651
   2 C :   -0.032457
   3 C :    0.054370
   4 C :   -0.105594
   5 O :   -0.139219
   6 C :    0.094648
   7 C :   -0.056138
   8 C :   -0.021641
   9 C :   -0.031272
  10 C :   -0.031118
  11 C :   -0.046462
  12 C :   -0.035663
  13 C :   -0.024475
  14 C :   -0.029279
  15 C :    0.023879
  16 C :    0.009134
  17 O :   -0.064903
  18 C :   -0.003565
  19 C :   -0.009235
  20 C :   -0.213086
  21 S :    0.425920
  22 C :   -0.214617
  23 O :   -0.054257
  24 C :   -0.041332
  25 C :   -0.040323
  26 C :   -0.176340
  27 S :    0.422217
  28 C :   -0.166774
  29 C :   -0.216716
  30 C :   -0.209600
  31 S :    0.269154
  32 C :   -0.122423
  33 C :   -0.070905
  34 S :    0.284615
  35 C :   -0.121239
  36 C :   -0.070840
  37 C :   -0.051897
  38 C :   -0.022739
  39 C :   -0.047084
  40 C :   -0.030442
  41 C :   -0.168141
  42 S :    0.450803
  43 C :   -0.162059
  44 C :   -0.114275
  45 C :   -0.019780
  46 C :    0.100006
  47 O :   -0.111452
  48 C :   -0.059383
  49 C :   -0.015792
  50 C :   -0.022238
  51 C :   -0.015586
  52 C :   -0.055930
  53 C :   -0.142658
  54 C :   -0.036040
  55 C :   -0.030989
  56 C :   -0.181214
  57 S :    0.369623
  58 C :   -0.175707
  59 C :   -0.027107
  60 C :   -0.030994
  61 C :   -0.139852
  62 S :    0.354475
  63 C :   -0.073827
  64 H :    0.020232
  65 H :    0.018968
  66 H :    0.015135
  67 H :    0.026408
  68 H :    0.032516
  69 H :    0.017988
  70 H :    0.020898
  71 H :    0.008955
  72 H :    0.040808
  73 H :    0.019177
  74 H :    0.017980
  75 H :    0.029293
  76 H :    0.022512
  77 H :    0.021972
  78 H :    0.021376
  79 H :    0.026820
  80 H :    0.023991
  81 H :    0.026005
  82 H :    0.020261
  83 H :    0.033381
  84 H :    0.034370
  85 H :    0.027296
  86 H :    0.027914
  87 H :    0.022933
  88 H :    0.029350
  89 H :    0.009611
  90 H :    0.019297
  91 H :    0.025002
  92 H :    0.031225
  93 H :    0.024475
  94 H :    0.011836
  95 H :    0.019842
  96 H :    0.025508
  97 H :    0.031647
  98 H :    0.024037
  99 H :    0.021927
 100 H :    0.015747
 101 H :    0.020126
 102 H :    0.033064
 103 H :    0.037090
 104 H :    0.028588
 105 H :    0.033229
 106 H :    0.020324
 107 H :    0.034504
 108 H :    0.033919
 109 H :    0.031302
 110 H :    0.032417
 111 H :    0.033427
 112 H :    0.028928
 113 H :    0.026492

  Mayer bond orders larger than 0.100000
B(  0-C ,  1-C ) :   1.1207 B(  0-C ,  7-C ) :   1.0056 B(  0-C , 64-H ) :   0.9030
B(  0-C , 65-H ) :   0.9254 B(  1-C ,  2-C ) :   0.9996 B(  1-C , 10-C ) :   0.9633
B(  1-C , 66-H ) :   0.9267 B(  2-C ,  3-C ) :   1.0130 B(  2-C , 67-H ) :   0.8926
B(  2-C , 68-H ) :   0.9118 B(  3-C ,  4-C ) :   1.9655 B(  3-C ,  5-O ) :   1.0648
B(  4-C , 69-H ) :   0.9465 B(  4-C , 70-H ) :   0.9419 B(  5-O ,  6-C ) :   0.9392
B(  6-C ,  7-C ) :   1.0007 B(  6-C , 12-C ) :   1.0630 B(  6-C , 71-H ) :   0.9182
B(  7-C ,  8-C ) :   0.9681 B(  7-C , 72-H ) :   0.9096 B(  8-C ,  9-C ) :   1.8707
B(  8-C , 73-H ) :   0.9963 B(  9-C , 10-C ) :   1.0274 B(  9-C , 74-H ) :   0.9760
B( 10-C , 11-C ) :   1.0741 B( 10-C , 75-H ) :   0.9039 B( 11-C , 76-H ) :   0.9696
B( 11-C , 77-H ) :   0.9649 B( 11-C , 78-H ) :   0.9638 B( 12-C , 13-C ) :   1.0907
B( 12-C , 79-H ) :   0.9180 B( 12-C , 80-H ) :   0.9303 B( 13-C , 14-C ) :   1.0874
B( 13-C , 81-H ) :   0.9405 B( 13-C , 82-H ) :   0.9363 B( 14-C , 15-C ) :   1.0753
B( 14-C , 83-H ) :   0.9145 B( 14-C , 84-H ) :   0.9015 B( 15-C , 16-C ) :   1.6055
B( 15-C , 23-O ) :   1.0446 B( 16-C , 17-O ) :   1.0396 B( 16-C , 24-C ) :   1.1464
B( 17-O , 18-C ) :   1.0682 B( 18-C , 19-C ) :   1.1976 B( 18-C , 22-C ) :   1.5757
B( 19-C , 20-C ) :   1.5765 B( 19-C , 23-O ) :   1.0508 B( 20-C , 21-S ) :   1.1393
B( 20-C , 85-H ) :   0.9722 B( 21-S , 22-C ) :   1.1328 B( 22-C , 86-H ) :   0.9711
B( 24-C , 25-C ) :   1.6653 B( 24-C , 87-H ) :   0.9552 B( 25-C , 26-C ) :   1.1325
B( 25-C , 88-H ) :   0.9702 B( 26-C , 27-S ) :   1.1002 B( 26-C , 30-C ) :   1.5390
B( 27-S , 28-C ) :   1.1124 B( 28-C , 29-C ) :   1.5262 B( 28-C , 37-C ) :   1.1514
B( 29-C , 30-C ) :   1.2496 B( 29-C , 34-S ) :   1.0429 B( 30-C , 31-S ) :   1.0379
B( 31-S , 32-C ) :   0.9809 B( 32-C , 33-C ) :   1.0903 B( 32-C , 89-H ) :   0.9446
B( 32-C , 90-H ) :   0.9515 B( 33-C , 91-H ) :   0.9706 B( 33-C , 92-H ) :   0.9674
B( 33-C , 93-H ) :   0.9702 B( 34-S , 35-C ) :   0.9792 B( 35-C , 36-C ) :   1.0863
B( 35-C , 94-H ) :   0.9450 B( 35-C , 95-H ) :   0.9521 B( 36-C , 96-H ) :   0.9717
B( 36-C , 97-H ) :   0.9674 B( 36-C , 98-H ) :   0.9703 B( 37-C , 38-C ) :   1.6744
B( 37-C , 99-H ) :   0.9407 B( 38-C , 39-C ) :   1.1708 B( 38-C ,100-H ) :   0.9621
B( 39-C , 40-C ) :   1.6318 B( 39-C ,101-H ) :   0.9710 B( 40-C , 41-C ) :   1.1981
B( 40-C ,102-H ) :   0.9672 B( 41-C , 42-S ) :   1.0846 B( 41-C , 45-C ) :   1.4114
B( 42-S , 43-C ) :   1.1267 B( 43-C , 44-C ) :   1.4215 B( 43-C , 49-C ) :   1.1080
B( 44-C , 45-C ) :   1.3014 B( 44-C , 46-C ) :   0.9247 B( 45-C ,103-H ) :   1.0102
B( 46-C , 47-O ) :   2.2681 B( 46-C , 48-C ) :   0.9112 B( 48-C , 49-C ) :   1.5474
B( 48-C , 50-C ) :   1.1912 B( 49-C ,104-H ) :   1.0135 B( 50-C , 51-C ) :   1.5255
B( 50-C ,105-H ) :   0.9806 B( 51-C , 52-C ) :   1.2128 B( 51-C ,106-H ) :   0.9707
B( 52-C , 53-C ) :   1.5070 B( 52-C ,107-H ) :   0.9857 B( 53-C , 54-C ) :   1.1593
B( 53-C , 57-S ) :   1.0387 B( 54-C , 55-C ) :   1.5763 B( 54-C ,108-H ) :   1.0006
B( 55-C , 56-C ) :   1.1915 B( 55-C ,109-H ) :   0.9934 B( 56-C , 57-S ) :   1.0417
B( 56-C , 58-C ) :   1.5276 B( 58-C , 59-C ) :   1.1634 B( 58-C , 62-S ) :   1.0503
B( 59-C , 60-C ) :   1.6526 B( 59-C ,110-H ) :   0.9919 B( 60-C , 61-C ) :   1.0828
B( 60-C ,111-H ) :   0.9927 B( 61-C , 62-S ) :   1.0081 B( 61-C , 63-C ) :   1.8600
B( 63-C ,112-H ) :   0.9499 B( 63-C ,113-H ) :   0.9420

-----------------------------------------------------------------------------
         ABSORPTION SPECTRUM VIA TRANSITION ELECTRIC DIPOLE MOMENTS
-----------------------------------------------------------------------------
State   Energy  Wavelength   fosc         T2         TX        TY        TZ
        (cm-1)    (nm)                  (au**2)     (au)      (au)      (au)
-----------------------------------------------------------------------------
   0    9720.4   1028.8   1.073506027  36.35771   1.41027  -5.10520  -2.88198
   1   16829.6    594.2   0.039611404   0.77486  -0.83554  -0.10046   0.25813
   2   19474.9    513.5   0.874104762  14.77624   0.43332   3.41747   1.70568
   3   20909.7    478.2   0.745483098  11.73722   1.89056  -2.00973  -2.03076
   4   22722.3    440.1   0.132587951   1.92100  -1.35301   0.08933   0.28702
   5   26251.6    380.9   0.000141791   0.00178  -0.03512  -0.01815  -0.01467
   6   26681.0    374.8   0.131720961   1.62528  -0.63114  -0.56644  -0.95189
   7   27504.9    363.6   0.176782458   2.11595  -0.52164  -1.03530  -0.87863
   8   28541.4    350.4   0.050512553   0.58264   0.72498   0.04297   0.23494
   9   28824.8    346.9   0.154096943   1.75996   1.28304  -0.03370  -0.33563
  10   29712.1    336.6   0.035602846   0.39448   0.56606  -0.16503   0.21640
  11   30277.6    330.3   0.186053126   2.02298   1.22340   0.34767   0.63671
  12   31296.8    319.5   0.096606837   1.01621  -0.98193   0.22804   0.00540
  13   31673.5    315.7   0.038794528   0.40323  -0.60745   0.06355   0.17376
  14   31717.4    315.3   0.019134233   0.19860  -0.31969   0.25157  -0.18197
  15   33680.0    296.9   0.193109768   1.88759   1.36443  -0.15866  -0.02747
  16   33837.3    295.5   0.000677842   0.00659   0.03706   0.04534   0.05627
  17   33893.3    295.0   0.010242608   0.09949  -0.14777  -0.03611  -0.27631
  18   34094.1    293.3   0.054966169   0.53075   0.08455   0.40949   0.59659
  19   34467.6    290.1   0.066932299   0.63929  -0.78732   0.11467   0.07925
  20   35011.6    285.6   0.151092633   1.42072  -1.10263   0.32784   0.31215
  21   35124.5    284.7   0.000030922   0.00029   0.01656   0.00044   0.00394
  22   35799.7    279.3   0.077626093   0.71384   0.29344   0.47024   0.63766
  23   36657.0    272.8   0.007333286   0.06586   0.03429   0.13133  -0.21780
  24   37001.3    270.3   0.130203460   1.15846  -0.74962  -0.68104  -0.36432
  25   37468.8    266.9   0.027576196   0.24229   0.20392  -0.23293  -0.38269
  26   38100.0    262.5   0.060922967   0.52642  -0.20786   0.45608   0.52460
  27   38493.0    259.8   0.078822404   0.67413   0.72101   0.05786   0.38849
  28   38929.2    256.9   0.013879369   0.11737   0.23791  -0.12598  -0.21191
  29   39408.5    253.8   0.038679068   0.32312   0.00901   0.45438   0.34143
  30   40037.0    249.8   0.000015602   0.00013   0.00339  -0.00912  -0.00579
  31   40218.8    248.6   0.053528046   0.43816  -0.34605   0.46916   0.31353

FINAL SINGLE POINT ENERGY     -5133.877649370592

DIPOLE MOMENT
-------------
                                X             Y             Z
Electronic contribution:      3.32515     101.10268      36.54555
Nuclear contribution   :     -3.77263    -100.03269     -36.13654
                        -----------------------------------------
Total Dipole Moment    :     -0.44748       1.06998       0.40901
                        -----------------------------------------
Magnitude (a.u.)       :      1.22980
Magnitude (Debye)      :      3.12589

Rotational constants in cm-1:     0.001368     0.000195     0.000177
Rotational constants in MHz :    41.015875     5.851418     5.300676

                             ****ORCA TERMINATED NORMALLY****
TOTAL RUN TIME: 0 days 0 hours 9 minutes 29 seconds 505 msec
