                         Program Version 4.2.0 -  RELEASE  -
|  1> # ORCA input file
|  2> # SCF done       -149.623626611028          0.000698047156
|  3> ! CAM-B3LYP def2-SVP def2/J RIJCOSX Grid4 TightSCF
|  4> %maxcore 5000
|  5> %tddft
|  6>     Mode sTDDFT
|  7>     Ethresh 5.0
|  8>     maxcore 5000
|  9> end
| 10>
| 11> %pal
| 12>   nprocs 6
| 13>   end
| 14> * xyz 0 1
| 15>    C       -0.95731         6.61009        -8.75394
| 16>    O       -1.89044         7.04991        -9.60840
| 17>    C       -1.52224         8.28667        -9.98966
| 18>    C       -0.36148         8.65289        -9.39202
| 19>    C        0.02807         7.55113        -8.56741
| 20>    C        1.17567         7.41388        -7.71657
| 21>    C        2.12824         8.35618        -7.55809
| 22>    C        3.27770         8.26626        -6.71430
| 23>    C        3.61480         7.20874        -5.93623
| 24>    C        4.76465         7.19263        -5.09153
| 25>    C        5.12192         6.13620        -4.28614
| 26>    O        6.22001         6.18524        -3.43624
| 27>    C        6.94736         7.33329        -3.48101
| 28>    C        6.58862         8.41868        -4.33145
| 29>    C        7.44195         9.46780        -4.23441
| 30>    S        8.70102         9.14770        -3.09947
| 31>    C        8.06566         7.58038        -2.75576
| 32>    O        5.49537         8.36911        -5.13730
| 33>    C        4.43428         4.89062        -4.23393
| 34>    C        4.74845         3.89745        -3.36474
| 35>    C        4.10787         2.63473        -3.33554
| 36>    S        2.88653         2.20438        -4.49897
| 37>    C        2.69722         0.61194        -3.80665
| 38>    C        3.54273         0.44665        -2.71494
| 39>    C        4.33274         1.58047        -2.46173
| 40>    C        5.31945         1.61659        -1.33750
| 41>    C        5.82596         0.19997        -1.06194
| 42>    C        6.63481        -0.39172        -2.21147
| 43>    O        6.53935        -1.55014        -2.52883
| 44>    C        7.58890         0.54889        -2.90228
| 45>    C        4.62427        -0.68171        -0.72346
| 46>    C        3.66913        -0.81163        -1.91260
| 47>    C        1.72546        -0.22227        -4.42379
| 48>    C        1.33676        -1.45972        -4.03998
| 49>    C        0.32093        -2.21546        -4.71309
| 50>    C       -0.37593        -3.22858        -4.10898
| 51>    O       -1.20170        -4.09438        -4.81108
| 52>    C       -1.34452        -3.80619        -6.13411
| 53>    C       -0.69344        -2.69088        -6.74050
| 54>    C       -0.98413        -2.56548        -8.05839
| 55>    S       -2.05817        -3.80862        -8.58472
| 56>    C       -2.11360        -4.50283        -7.00615
| 57>    O        0.14279        -1.87277        -6.04213
| 58>    C       -0.34150        -3.51769        -2.70667
| 59>    C       -0.08060        -2.59718        -1.75013
| 60>    C        0.08362        -2.85596        -0.36328
| 61>    O       -0.13103        -4.08505         0.16237
| 62>    C        0.17981        -4.02144         1.46751
| 63>    C        0.61137        -2.78105         1.81356
| 64>    C        0.55534        -1.99278         0.62952
| 65>    C        0.94527        -0.62599         0.44330
| 66>    C        1.66023         0.10671         1.31589
| 67>    C        2.06758         1.45953         1.04710
| 68>    C        2.80483         2.19305         1.88007
| 69>    H       -1.08608         5.62881        -8.34148
| 70>    H       -2.16283         8.79682       -10.68159
| 71>    H        0.15425         9.58206        -9.51570
| 72>    H        1.23766         6.47560        -7.18350
| 73>    H        2.03042         9.28142        -8.10942
| 74>    H        3.92601         9.13121        -6.70079
| 75>    H        2.99314         6.33052        -5.92439
| 76>    H        7.40471        10.39999        -4.75752
| 77>    H        8.54934         6.94173        -2.04707
| 78>    H        3.63192         4.73007        -4.93514
| 79>    H        5.53467         4.06564        -2.64351
| 80>    H        4.82196         1.98825        -0.43514
| 81>    H        6.13923         2.29788        -1.56138
| 82>    H        6.50786         0.22655        -0.20204
| 83>    H        8.28123        -0.02202        -3.51584
| 84>    H        8.13988         1.14735        -2.18148
| 85>    H        7.02264         1.21756        -3.54879
| 86>    H        4.09687        -0.24356         0.12630
| 87>    H        4.96293        -1.67795        -0.43775
| 88>    H        2.69189        -1.11427        -1.53143
| 89>    H        4.03048        -1.60133        -2.57758
| 90>    H        1.22093         0.22262        -5.27219
| 91>    H        1.79093        -1.95484        -3.20041
| 92>    H       -0.63165        -1.82372        -8.74377
| 93>    H       -2.70314        -5.37455        -6.81474
| 94>    H       -0.59453        -4.53132        -2.43066
| 95>    H        0.03539        -1.56196        -2.03148
| 96>    H        0.05241        -4.91787         2.04210
| 97>    H        0.91644        -2.45998         2.78775
| 98>    H        0.65258        -0.17043        -0.49470
| 99>    H        1.97491        -0.31945         2.25860
|100>    H        1.75340         1.87305         0.09667
|101>    H        3.13644         1.80543         2.82926
|102>    H        3.09927         3.20126         1.64470
|103> *
|104>
|105>                          ****END OF INPUT****

CARTESIAN COORDINATES (ANGSTROEM)
---------------------------------
  C     -0.957310    6.610090   -8.753940
  O     -1.890440    7.049910   -9.608400
  C     -1.522240    8.286670   -9.989660
  C     -0.361480    8.652890   -9.392020
  C      0.028070    7.551130   -8.567410
  C      1.175670    7.413880   -7.716570
  C      2.128240    8.356180   -7.558090
  C      3.277700    8.266260   -6.714300
  C      3.614800    7.208740   -5.936230
  C      4.764650    7.192630   -5.091530
  C      5.121920    6.136200   -4.286140
  O      6.220010    6.185240   -3.436240
  C      6.947360    7.333290   -3.481010
  C      6.588620    8.418680   -4.331450
  C      7.441950    9.467800   -4.234410
  S      8.701020    9.147700   -3.099470
  C      8.065660    7.580380   -2.755760
  O      5.495370    8.369110   -5.137300
  C      4.434280    4.890620   -4.233930
  C      4.748450    3.897450   -3.364740
  C      4.107870    2.634730   -3.335540
  S      2.886530    2.204380   -4.498970
  C      2.697220    0.611940   -3.806650
  C      3.542730    0.446650   -2.714940
  C      4.332740    1.580470   -2.461730
  C      5.319450    1.616590   -1.337500
  C      5.825960    0.199970   -1.061940
  C      6.634810   -0.391720   -2.211470
  O      6.539350   -1.550140   -2.528830
  C      7.588900    0.548890   -2.902280
  C      4.624270   -0.681710   -0.723460
  C      3.669130   -0.811630   -1.912600
  C      1.725460   -0.222270   -4.423790
  C      1.336760   -1.459720   -4.039980
  C      0.320930   -2.215460   -4.713090
  C     -0.375930   -3.228580   -4.108980
  O     -1.201700   -4.094380   -4.811080
  C     -1.344520   -3.806190   -6.134110
  C     -0.693440   -2.690880   -6.740500
  C     -0.984130   -2.565480   -8.058390
  S     -2.058170   -3.808620   -8.584720
  C     -2.113600   -4.502830   -7.006150
  O      0.142790   -1.872770   -6.042130
  C     -0.341500   -3.517690   -2.706670
  C     -0.080600   -2.597180   -1.750130
  C      0.083620   -2.855960   -0.363280
  O     -0.131030   -4.085050    0.162370
  C      0.179810   -4.021440    1.467510
  C      0.611370   -2.781050    1.813560
  C      0.555340   -1.992780    0.629520
  C      0.945270   -0.625990    0.443300
  C      1.660230    0.106710    1.315890
  C      2.067580    1.459530    1.047100
  C      2.804830    2.193050    1.880070
  H     -1.086080    5.628810   -8.341480
  H     -2.162830    8.796820  -10.681590
  H      0.154250    9.582060   -9.515700
  H      1.237660    6.475600   -7.183500
  H      2.030420    9.281420   -8.109420
  H      3.926010    9.131210   -6.700790
  H      2.993140    6.330520   -5.924390
  H      7.404710   10.399990   -4.757520
  H      8.549340    6.941730   -2.047070
  H      3.631920    4.730070   -4.935140
  H      5.534670    4.065640   -2.643510
  H      4.821960    1.988250   -0.435140
  H      6.139230    2.297880   -1.561380
  H      6.507860    0.226550   -0.202040
  H      8.281230   -0.022020   -3.515840
  H      8.139880    1.147350   -2.181480
  H      7.022640    1.217560   -3.548790
  H      4.096870   -0.243560    0.126300
  H      4.962930   -1.677950   -0.437750
  H      2.691890   -1.114270   -1.531430
  H      4.030480   -1.601330   -2.577580
  H      1.220930    0.222620   -5.272190
  H      1.790930   -1.954840   -3.200410
  H     -0.631650   -1.823720   -8.743770
  H     -2.703140   -5.374550   -6.814740
  H     -0.594530   -4.531320   -2.430660
  H      0.035390   -1.561960   -2.031480
  H      0.052410   -4.917870    2.042100
  H      0.916440   -2.459980    2.787750
  H      0.652580   -0.170430   -0.494700
  H      1.974910   -0.319450    2.258600
  H      1.753400    1.873050    0.096670
  H      3.136440    1.805430    2.829260
  H      3.099270    3.201260    1.644700

 Total Charge           Charge          ....    0
 Multiplicity           Mult            ....    1
 Number of Electrons    NEL             ....  402
 Basis Dimension        Dim             ....  938

ORBITAL ENERGIES
----------------

  NO   OCC          E(Eh)            E(eV)
   0   2.0000     -88.951722     -2420.4994
   1   2.0000     -88.948709     -2420.4174
   2   2.0000     -88.941269     -2420.2150
   3   2.0000     -19.287387      -524.8365
   4   2.0000     -19.281894      -524.6870
   5   2.0000     -19.267308      -524.2901
   6   2.0000     -19.266460      -524.2670
   7   2.0000     -19.264491      -524.2134
   8   2.0000     -19.262286      -524.1534
   9   2.0000     -19.196786      -522.3711
  10   2.0000     -10.346082      -281.5312
  11   2.0000     -10.337638      -281.3014
  12   2.0000     -10.337086      -281.2864
  13   2.0000     -10.334524      -281.2167
  14   2.0000     -10.334055      -281.2039
  15   2.0000     -10.334051      -281.2038
  16   2.0000     -10.333285      -281.1830
  17   2.0000     -10.331510      -281.1347
  18   2.0000     -10.331035      -281.1218
  19   2.0000     -10.326688      -281.0035
  20   2.0000     -10.323970      -280.9295
  21   2.0000     -10.313308      -280.6394
  22   2.0000     -10.313109      -280.6340
  23   2.0000     -10.290769      -280.0261
  24   2.0000     -10.289385      -279.9884
  25   2.0000     -10.288180      -279.9556
  26   2.0000     -10.287712      -279.9429
  27   2.0000     -10.285288      -279.8769
  28   2.0000     -10.284833      -279.8645
  29   2.0000     -10.281980      -279.7869
  30   2.0000     -10.278654      -279.6964
  31   2.0000     -10.278614      -279.6953
  32   2.0000     -10.277490      -279.6647
  33   2.0000     -10.275765      -279.6178
  34   2.0000     -10.275226      -279.6031
  35   2.0000     -10.274678      -279.5882
  36   2.0000     -10.272526      -279.5296
  37   2.0000     -10.271921      -279.5132
  38   2.0000     -10.271420      -279.4995
  39   2.0000     -10.271200      -279.4936
  40   2.0000     -10.271122      -279.4914
  41   2.0000     -10.270746      -279.4812
  42   2.0000     -10.270602      -279.4773
  43   2.0000     -10.270455      -279.4733
  44   2.0000     -10.268717      -279.4260
  45   2.0000     -10.268244      -279.4131
  46   2.0000     -10.267266      -279.3865
  47   2.0000     -10.266651      -279.3698
  48   2.0000     -10.263898      -279.2949
  49   2.0000     -10.263482      -279.2835
  50   2.0000     -10.260241      -279.1954
  51   2.0000     -10.259494      -279.1750
  52   2.0000     -10.257331      -279.1162
  53   2.0000     -10.253023      -278.9989
  54   2.0000      -8.047462      -218.9826
  55   2.0000      -8.044587      -218.9043
  56   2.0000      -8.036853      -218.6939
  57   2.0000      -6.016996      -163.7308
  58   2.0000      -6.014100      -163.6520
  59   2.0000      -6.012824      -163.6173
  60   2.0000      -6.009953      -163.5391
  61   2.0000      -6.009127      -163.5167
  62   2.0000      -6.006212      -163.4373
  63   2.0000      -6.005969      -163.4307
  64   2.0000      -6.002228      -163.3289
  65   2.0000      -5.998964      -163.2401
  66   2.0000      -1.206010       -32.8172
  67   2.0000      -1.200918       -32.6786
  68   2.0000      -1.192296       -32.4440
  69   2.0000      -1.188821       -32.3495
  70   2.0000      -1.155454       -31.4415
  71   2.0000      -1.152032       -31.3484
  72   2.0000      -1.115676       -30.3591
  73   2.0000      -0.981284       -26.7021
  74   2.0000      -0.979116       -26.6431
  75   2.0000      -0.976611       -26.5749
  76   2.0000      -0.926558       -25.2129
  77   2.0000      -0.920342       -25.0438
  78   2.0000      -0.919306       -25.0156
  79   2.0000      -0.914610       -24.8878
  80   2.0000      -0.908421       -24.7194
  81   2.0000      -0.895080       -24.3564
  82   2.0000      -0.884480       -24.0679
  83   2.0000      -0.882006       -24.0006
  84   2.0000      -0.867784       -23.6136
  85   2.0000      -0.853541       -23.2260
  86   2.0000      -0.846754       -23.0414
  87   2.0000      -0.836096       -22.7513
  88   2.0000      -0.831889       -22.6368
  89   2.0000      -0.824248       -22.4289
  90   2.0000      -0.822927       -22.3930
  91   2.0000      -0.815633       -22.1945
  92   2.0000      -0.809078       -22.0161
  93   2.0000      -0.808638       -22.0041
  94   2.0000      -0.806991       -21.9593
  95   2.0000      -0.796700       -21.6793
  96   2.0000      -0.789785       -21.4911
  97   2.0000      -0.768849       -20.9214
  98   2.0000      -0.745765       -20.2933
  99   2.0000      -0.731765       -19.9123
 100   2.0000      -0.722052       -19.6480
 101   2.0000      -0.719366       -19.5749
 102   2.0000      -0.713066       -19.4035
 103   2.0000      -0.700841       -19.0708
 104   2.0000      -0.687744       -18.7145
 105   2.0000      -0.687640       -18.7116
 106   2.0000      -0.678871       -18.4730
 107   2.0000      -0.674151       -18.3446
 108   2.0000      -0.671801       -18.2806
 109   2.0000      -0.669508       -18.2183
 110   2.0000      -0.661438       -17.9986
 111   2.0000      -0.657768       -17.8988
 112   2.0000      -0.647752       -17.6262
 113   2.0000      -0.643786       -17.5183
 114   2.0000      -0.634993       -17.2790
 115   2.0000      -0.620469       -16.8838
 116   2.0000      -0.617848       -16.8125
 117   2.0000      -0.617211       -16.7952
 118   2.0000      -0.608445       -16.5566
 119   2.0000      -0.603741       -16.4286
 120   2.0000      -0.602077       -16.3834
 121   2.0000      -0.579882       -15.7794
 122   2.0000      -0.578167       -15.7327
 123   2.0000      -0.571420       -15.5491
 124   2.0000      -0.569949       -15.5091
 125   2.0000      -0.567534       -15.4434
 126   2.0000      -0.564534       -15.3618
 127   2.0000      -0.559447       -15.2233
 128   2.0000      -0.558072       -15.1859
 129   2.0000      -0.552255       -15.0276
 130   2.0000      -0.549084       -14.9413
 131   2.0000      -0.547136       -14.8883
 132   2.0000      -0.544118       -14.8062
 133   2.0000      -0.539765       -14.6877
 134   2.0000      -0.537990       -14.6394
 135   2.0000      -0.530647       -14.4396
 136   2.0000      -0.528882       -14.3916
 137   2.0000      -0.525070       -14.2879
 138   2.0000      -0.524706       -14.2780
 139   2.0000      -0.522763       -14.2251
 140   2.0000      -0.519166       -14.1272
 141   2.0000      -0.517434       -14.0801
 142   2.0000      -0.515860       -14.0373
 143   2.0000      -0.504567       -13.7300
 144   2.0000      -0.498041       -13.5524
 145   2.0000      -0.496409       -13.5080
 146   2.0000      -0.495665       -13.4877
 147   2.0000      -0.492922       -13.4131
 148   2.0000      -0.490154       -13.3378
 149   2.0000      -0.489293       -13.3143
 150   2.0000      -0.486305       -13.2330
 151   2.0000      -0.485260       -13.2046
 152   2.0000      -0.482339       -13.1251
 153   2.0000      -0.480056       -13.0630
 154   2.0000      -0.477331       -12.9888
 155   2.0000      -0.473939       -12.8965
 156   2.0000      -0.473829       -12.8935
 157   2.0000      -0.470517       -12.8034
 158   2.0000      -0.467044       -12.7089
 159   2.0000      -0.464603       -12.6425
 160   2.0000      -0.463447       -12.6110
 161   2.0000      -0.459195       -12.4953
 162   2.0000      -0.454747       -12.3743
 163   2.0000      -0.453037       -12.3278
 164   2.0000      -0.448230       -12.1969
 165   2.0000      -0.445466       -12.1217
 166   2.0000      -0.443426       -12.0662
 167   2.0000      -0.440190       -11.9782
 168   2.0000      -0.438209       -11.9243
 169   2.0000      -0.434180       -11.8146
 170   2.0000      -0.426875       -11.6159
 171   2.0000      -0.426350       -11.6016
 172   2.0000      -0.423769       -11.5313
 173   2.0000      -0.423005       -11.5106
 174   2.0000      -0.421530       -11.4704
 175   2.0000      -0.416597       -11.3362
 176   2.0000      -0.415995       -11.3198
 177   2.0000      -0.411661       -11.2019
 178   2.0000      -0.408094       -11.1048
 179   2.0000      -0.406897       -11.0722
 180   2.0000      -0.398237       -10.8366
 181   2.0000      -0.395605       -10.7650
 182   2.0000      -0.389491       -10.5986
 183   2.0000      -0.387165       -10.5353
 184   2.0000      -0.380773       -10.3614
 185   2.0000      -0.377755       -10.2792
 186   2.0000      -0.366000        -9.9594
 187   2.0000      -0.362095        -9.8531
 188   2.0000      -0.339136        -9.2284
 189   2.0000      -0.321451        -8.7471
 190   2.0000      -0.311528        -8.4771
 191   2.0000      -0.307670        -8.3721
 192   2.0000      -0.301763        -8.2114
 193   2.0000      -0.300132        -8.1670
 194   2.0000      -0.297939        -8.1073
 195   2.0000      -0.295555        -8.0425
 196   2.0000      -0.275041        -7.4842
 197   2.0000      -0.269159        -7.3242
 198   2.0000      -0.264253        -7.1907
 199   2.0000      -0.234534        -6.3820
 200   2.0000      -0.210953        -5.7403
 201   0.0000      -0.057234        -1.5574
 202   0.0000      -0.035377        -0.9627
 203   0.0000      -0.010682        -0.2907
 204   0.0000       0.014822         0.4033
 205   0.0000       0.030221         0.8224

MULLIKEN ATOMIC CHARGES
-----------------------
   0 C :    0.074478
   1 O :   -0.181304
   2 C :    0.134343
   3 C :   -0.046148
   4 C :    0.040911
   5 C :    0.047869
   6 C :   -0.000348
   7 C :    0.034714
   8 C :   -0.054940
   9 C :    0.178173
  10 C :    0.172210
  11 O :   -0.263663
  12 C :    0.226936
  13 C :    0.219439
  14 C :   -0.175481
  15 S :    0.102913
  16 C :   -0.180772
  17 O :   -0.257321
  18 C :   -0.078803
  19 C :    0.001480
  20 C :   -0.082653
  21 S :    0.082640
  22 C :   -0.122429
  23 C :   -0.067478
  24 C :   -0.111792
  25 C :    0.179290
  26 C :   -0.125224
  27 C :   -0.012470
  28 O :   -0.181452
  29 C :    0.062966
  30 C :    0.115452
  31 C :    0.080093
  32 C :    0.054777
  33 C :   -0.121517
  34 C :    0.155404
  35 C :    0.146481
  36 O :   -0.254107
  37 C :    0.219300
  38 C :    0.218757
  39 C :   -0.176885
  40 S :    0.102014
  41 C :   -0.175519
  42 O :   -0.255998
  43 C :    0.003028
  44 C :   -0.067588
  45 C :    0.106615
  46 O :   -0.189223
  47 C :    0.157287
  48 C :   -0.050892
  49 C :    0.063606
  50 C :   -0.011100
  51 C :   -0.003243
  52 C :   -0.003802
  53 C :   -0.019286
  54 H :    0.002562
  55 H :    0.009192
  56 H :   -0.012689
  57 H :   -0.027559
  58 H :   -0.023159
  59 H :   -0.005761
  60 H :   -0.015223
  61 H :    0.022008
  62 H :    0.019691
  63 H :   -0.006410
  64 H :   -0.003309
  65 H :    0.015464
  66 H :   -0.000186
  67 H :    0.018510
  68 H :    0.029467
  69 H :    0.026600
  70 H :    0.048453
  71 H :    0.002420
  72 H :    0.002880
  73 H :    0.017351
  74 H :    0.045167
  75 H :   -0.010791
  76 H :    0.035812
  77 H :    0.022763
  78 H :    0.022764
  79 H :    0.008964
  80 H :    0.030879
  81 H :    0.010804
  82 H :   -0.013197
  83 H :   -0.005933
  84 H :   -0.016777
  85 H :    0.002452
  86 H :    0.011973
  87 H :    0.025078
Sum of atomic charges:    0.0000000

LOEWDIN ATOMIC CHARGES
----------------------
   0 C :    0.030108
   1 O :    0.021811
   2 C :    0.033424
   3 C :   -0.069332
   4 C :   -0.075770
   5 C :   -0.005348
   6 C :   -0.040047
   7 C :   -0.020125
   8 C :   -0.038865
   9 C :    0.028176
  10 C :    0.023842
  11 O :   -0.058772
  12 C :   -0.007401
  13 C :   -0.007470
  14 C :   -0.213034
  15 S :    0.429381
  16 C :   -0.215092
  17 O :   -0.053495
  18 C :   -0.050547
  19 C :   -0.036387
  20 C :   -0.179356
  21 S :    0.418481
  22 C :   -0.167202
  23 C :   -0.053823
  24 C :   -0.059711
  25 C :   -0.018947
  26 C :   -0.060345
  27 C :    0.089756
  28 O :   -0.140809
  29 C :   -0.078808
  30 C :   -0.017095
  31 C :   -0.030271
  32 C :   -0.041396
  33 C :   -0.044358
  34 C :    0.024613
  35 C :    0.014688
  36 O :   -0.061840
  37 C :   -0.007092
  38 C :   -0.007323
  39 C :   -0.212548
  40 S :    0.428933
  41 C :   -0.212512
  42 O :   -0.057337
  43 C :   -0.023098
  44 C :   -0.032871
  45 C :    0.024435
  46 O :    0.016320
  47 C :    0.048668
  48 C :   -0.066973
  49 C :   -0.061538
  50 C :   -0.019527
  51 C :   -0.027403
  52 C :   -0.024126
  53 C :   -0.053543
  54 H :    0.020756
  55 H :    0.021926
  56 H :    0.028063
  57 H :    0.025471
  58 H :    0.025877
  59 H :    0.029663
  60 H :    0.028133
  61 H :    0.027982
  62 H :    0.026745
  63 H :    0.023387
  64 H :    0.031263
  65 H :    0.037305
  66 H :    0.023803
  67 H :    0.040475
  68 H :    0.038019
  69 H :    0.034991
  70 H :    0.049693
  71 H :    0.025076
  72 H :    0.029325
  73 H :    0.029400
  74 H :    0.038818
  75 H :    0.028286
  76 H :    0.036618
  77 H :    0.028114
  78 H :    0.028127
  79 H :    0.037830
  80 H :    0.039083
  81 H :    0.024234
  82 H :    0.029632
  83 H :    0.029589
  84 H :    0.024814
  85 H :    0.031385
  86 H :    0.020645
  87 H :    0.024376

  Mayer bond orders larger than 0.100000
B(  0-C ,  1-O ) :   1.1635 B(  0-C ,  4-C ) :   1.4968 B(  0-C , 54-H ) :   1.0046
B(  1-O ,  2-C ) :   1.1434 B(  2-C ,  3-C ) :   1.5913 B(  2-C , 55-H ) :   1.0001
B(  3-C ,  4-C ) :   1.2125 B(  3-C , 56-H ) :   1.0034 B(  4-C ,  5-C ) :   1.0965
B(  5-C ,  6-C ) :   1.7270 B(  5-C , 57-H ) :   0.9636 B(  6-C ,  7-C ) :   1.1058
B(  6-C , 58-H ) :   0.9751 B(  7-C ,  8-C ) :   1.6922 B(  7-C , 59-H ) :   0.9751
B(  8-C ,  9-C ) :   1.1865 B(  8-C , 60-H ) :   0.9464 B(  9-C , 10-C ) :   1.4465
B(  9-C , 17-O ) :   1.0536 B( 10-C , 11-O ) :   1.0495 B( 10-C , 18-C ) :   1.1795
B( 11-O , 12-C ) :   1.0564 B( 12-C , 13-C ) :   1.2014 B( 12-C , 16-C ) :   1.5681
B( 13-C , 14-C ) :   1.5713 B( 13-C , 17-O ) :   1.0601 B( 14-C , 15-S ) :   1.1381
B( 14-C , 61-H ) :   0.9723 B( 15-S , 16-C ) :   1.1388 B( 16-C , 62-H ) :   0.9732
B( 18-C , 19-C ) :   1.6452 B( 18-C , 63-H ) :   0.9583 B( 19-C , 20-C ) :   1.1340
B( 19-C , 64-H ) :   0.9748 B( 20-C , 21-S ) :   1.1018 B( 20-C , 24-C ) :   1.4672
B( 21-S , 22-C ) :   1.1115 B( 22-C , 23-C ) :   1.4897 B( 22-C , 32-C ) :   1.1272
B( 23-C , 24-C ) :   1.3190 B( 23-C , 31-C ) :   1.0659 B( 24-C , 25-C ) :   1.0598
B( 25-C , 26-C ) :   1.0513 B( 25-C , 65-H ) :   0.8930 B( 25-C , 66-H ) :   0.8974
B( 26-C , 27-C ) :   0.8931 B( 26-C , 30-C ) :   1.0635 B( 26-C , 67-H ) :   0.8880
B( 27-C , 28-O ) :   2.1946 B( 27-C , 29-C ) :   1.0482 B( 29-C , 68-H ) :   0.9469
B( 29-C , 69-H ) :   0.9500 B( 29-C , 70-H ) :   0.9361 B( 30-C , 31-C ) :   1.0839
B( 30-C , 71-H ) :   0.9321 B( 30-C , 72-H ) :   0.9130 B( 31-C , 73-H ) :   0.8950
B( 31-C , 74-H ) :   0.8979 B( 32-C , 33-C ) :   1.6683 B( 32-C , 75-H ) :   0.9541
B( 33-C , 34-C ) :   1.1384 B( 33-C , 76-H ) :   0.9518 B( 34-C , 35-C ) :   1.5157
B( 34-C , 42-O ) :   1.0580 B( 35-C , 36-O ) :   1.0287 B( 35-C , 43-C ) :   1.1111
B( 36-O , 37-C ) :   1.0650 B( 37-C , 38-C ) :   1.1957 B( 37-C , 41-C ) :   1.5744
B( 38-C , 39-C ) :   1.5738 B( 38-C , 42-O ) :   1.0583 B( 39-C , 40-S ) :   1.1383
B( 39-C , 77-H ) :   0.9723 B( 40-S , 41-C ) :   1.1384 B( 41-C , 78-H ) :   0.9719
B( 43-C , 44-C ) :   1.6597 B( 43-C , 79-H ) :   0.9672 B( 44-C , 45-C ) :   1.1752
B( 44-C , 80-H ) :   0.9449 B( 45-C , 46-O ) :   1.1647 B( 45-C , 49-C ) :   1.4052
B( 46-O , 47-C ) :   1.1340 B( 47-C , 48-C ) :   1.5626 B( 47-C , 81-H ) :   1.0030
B( 48-C , 49-C ) :   1.2090 B( 48-C , 82-H ) :   1.0019 B( 49-C , 50-C ) :   1.0822
B( 50-C , 51-C ) :   1.7428 B( 50-C , 83-H ) :   0.9563 B( 51-C , 52-C ) :   1.0959
B( 51-C , 84-H ) :   0.9783 B( 52-C , 53-C ) :   1.8906 B( 52-C , 85-H ) :   0.9769
B( 53-C , 86-H ) :   0.9585 B( 53-C , 87-H ) :   0.9480

-----------------------------------------------------------------------------
         ABSORPTION SPECTRUM VIA TRANSITION ELECTRIC DIPOLE MOMENTS
-----------------------------------------------------------------------------
State   Energy  Wavelength   fosc         T2         TX        TY        TZ
        (cm-1)    (nm)                  (au**2)     (au)      (au)      (au)
-----------------------------------------------------------------------------
   0   18165.6    550.5   0.954812236  17.30394   0.72037   3.38854  -2.30278
   1   23041.7    434.0   0.269768688   3.85436   0.99256  -1.69107  -0.09723
   2   23834.7    419.6   0.038041957   0.52545  -0.71570   0.11326   0.01977
   3   27431.3    364.5   0.056020894   0.67233  -0.74204  -0.13494  -0.32170
   4   29375.2    340.4   0.215993767   2.42067   1.04087   0.39532   1.08673
   5   30438.2    328.5   0.592554352   6.40892  -1.17306  -1.39941  -1.75343
   6   31500.7    317.5   1.215826848  12.70653  -2.52344  -1.39428  -2.09637
   7   31638.7    316.1   0.087336768   0.90877  -0.33826  -0.74078   0.49558
   8   33523.8    298.3   0.182716167   1.79432  -1.14217  -0.41122  -0.56627
   9   34868.5    286.8   0.006844724   0.06462   0.13964  -0.18757   0.09971
  10   35229.9    283.8   0.100175199   0.93610  -0.07285  -0.29157  -0.91966
  11   35781.7    279.5   0.046020713   0.42342  -0.39802   0.45912  -0.23283
  12   36052.2    277.4   0.012628010   0.11531   0.04502   0.18860  -0.27877
  13   36348.0    275.1   0.136943780   1.24033  -0.43109  -0.93301  -0.42893
  14   36871.3    271.2   0.064738445   0.57803   0.29066   0.43008   0.55550
  15   37590.5    266.0   0.003235717   0.02834  -0.05354  -0.03113   0.15653
  16   37793.6    264.6   0.032600944   0.28398   0.17142  -0.17595   0.47290
  17   37990.4    263.2   0.033940033   0.29411   0.39457   0.34806   0.13146
  18   38131.6    262.2   0.159106701   1.37366  -0.53791  -0.85142  -0.59950
  19   38672.8    258.6   0.178109250   1.51620   0.16704   0.97614  -0.73174
  20   38898.9    257.1   0.029077371   0.24609   0.03891  -0.43706   0.23142
  21   40131.4    249.2   0.031111393   0.25522  -0.40743  -0.22575  -0.19559

FINAL SINGLE POINT ENERGY     -3414.956702511622

DIPOLE MOMENT
-------------
                                X             Y             Z
Electronic contribution:    -11.69432       0.42767     -27.69296
Nuclear contribution   :     11.75436       0.26347      28.73660
                        -----------------------------------------
Total Dipole Moment    :      0.06005       0.69114       1.04364
                        -----------------------------------------
Magnitude (a.u.)       :      1.25318
Magnitude (Debye)      :      3.18534

Rotational constants in cm-1:     0.001424     0.000774     0.000565
Rotational constants in MHz :    42.676845    23.205763    16.926448

                             ****ORCA TERMINATED NORMALLY****
TOTAL RUN TIME: 0 days 0 hours 6 minutes 5 seconds 193 msec
