                         Program Version 4.2.0 -  RELEASE  -
|  1> # ORCA input file
|  2> # SCF done       -141.816440325106          0.000459293513
|  3> ! CAM-B3LYP def2-SVP def2/J RIJCOSX Grid4 TightSCF
|  4> %maxcore 5000
|  5> %tddft
|  6>     Mode sTDDFT
|  7>     Ethresh 5.0
|  8>     maxcore 5000
|  9> end
| 10>
| 11> %pal
| 12>   nprocs 6
| 13>   end
| 14> * xyz 0 1
| 15>    C       -1.16476         2.33024         0.69518
| 16>    O       -2.20912         1.58893         1.08255
| 17>    C       -2.23184         1.60218         2.42765
| 18>    C       -1.21032         2.34709         2.91712
| 19>    C       -0.49130         2.83878         1.78292
| 20>    C        0.67155         3.67700         1.83140
| 21>    C        1.32935         4.14745         0.74950
| 22>    C        2.48678         4.98226         0.75972
| 23>    C        3.14019         5.42960         1.86223
| 24>    C        4.28855         6.25816         1.84852
| 25>    S        5.00131         6.73485         3.38283
| 26>    C        6.21861         7.62779         2.57542
| 27>    C        6.07407         7.55682         1.18390
| 28>    C        4.99517         6.79125         0.77276
| 29>    C        7.16768         8.35204         0.58388
| 30>    O        7.38984         8.53848        -0.58903
| 31>    C        7.94233         8.87446         1.77111
| 32>    C        7.33530         8.41595         2.92736
| 33>    C        9.09064         9.67948         1.72384
| 34>    C        9.69339        10.12360         0.57528
| 35>    C       10.85466        10.90752         0.59727
| 36>    C       11.61726        11.38286         1.67068
| 37>    C       12.71602        12.11394         1.15311
| 38>    C       12.63632        12.10239        -0.29751
| 39>    O       13.34439        12.58967        -1.15138
| 40>    N       11.48545        11.35588        -0.54629
| 41>    C       13.46307        12.56185         2.23080
| 42>    O       12.86947        12.14607         3.39116
| 43>    C       11.72159        11.40889         3.10783
| 44>    O       11.04180        10.94206         3.98657
| 45>    C       14.64573        13.30194         2.27932
| 46>    S       15.37914        13.70553         3.82323
| 47>    C       16.65825        14.50352         3.01000
| 48>    C       16.51092        14.45623         1.60465
| 49>    C       15.38263        13.78431         1.18918
| 50>    C       17.66886        15.16537         1.02600
| 51>    O       17.94247        15.36416        -0.13182
| 52>    C       18.47777        15.60797         2.22444
| 53>    C       17.82478        15.18842         3.37921
| 54>    C       19.67264        16.30732         2.06349
| 55>    C       20.48677        16.74166         3.08920
| 56>    C       21.68002        17.42255         2.89128
| 57>    C       22.50638        17.85782         3.91200
| 58>    C       23.73204        18.54359         3.77987
| 59>    C       24.33564        18.84975         4.96501
| 60>    C       23.61305        18.42062         6.09942
| 61>    S       22.14071        17.61134         5.60747
| 62>    C       23.94651        18.57864         7.42994
| 63>    C       25.10275        19.21313         7.95862
| 64>    C       25.16368        19.22244         9.31033
| 65>    C       24.05051        18.59066         9.95596
| 66>    S       22.93053        17.98743         8.72348
| 67>    C       23.83352        18.44710        11.27139
| 68>    H       -0.99833         2.42442        -0.35918
| 69>    H       -3.01449         1.05132         2.91032
| 70>    H       -0.98136         2.53517         3.94589
| 71>    H        1.01053         3.92793         2.82643
| 72>    H        0.95742         3.87884        -0.22986
| 73>    H        2.86202         5.27187        -0.21204
| 74>    H        2.78567         5.15004         2.84431
| 75>    H        4.72608         6.62171        -0.25327
| 76>    H        7.66627         8.62734         3.92774
| 77>    H        9.52451         9.95598         2.67722
| 78>    H        9.27650         9.86273        -0.38684
| 79>    H       11.15362        11.16233        -1.47884
| 80>    H       15.07112        13.62408         0.17140
| 81>    H       18.15078        15.35263         4.38948
| 82>    H       19.96646        16.50827         1.04053
| 83>    H       20.19146        16.54255         4.11134
| 84>    H       21.99869        17.63045         1.87805
| 85>    H       24.13402        18.79079         2.81307
| 86>    H       25.27338        19.36875         5.04846
| 87>    H       25.85079        19.64161         7.31562
| 88>    H       25.96039        19.65606         9.88797
| 89>    H       24.53854        18.82805        11.98895
| 90>    H       22.95749        17.95253        11.64914
| 91> *
| 92>
| 93>                          ****END OF INPUT****

CARTESIAN COORDINATES (ANGSTROEM)
---------------------------------
  C     -1.164760    2.330240    0.695180
  O     -2.209120    1.588930    1.082550
  C     -2.231840    1.602180    2.427650
  C     -1.210320    2.347090    2.917120
  C     -0.491300    2.838780    1.782920
  C      0.671550    3.677000    1.831400
  C      1.329350    4.147450    0.749500
  C      2.486780    4.982260    0.759720
  C      3.140190    5.429600    1.862230
  C      4.288550    6.258160    1.848520
  S      5.001310    6.734850    3.382830
  C      6.218610    7.627790    2.575420
  C      6.074070    7.556820    1.183900
  C      4.995170    6.791250    0.772760
  C      7.167680    8.352040    0.583880
  O      7.389840    8.538480   -0.589030
  C      7.942330    8.874460    1.771110
  C      7.335300    8.415950    2.927360
  C      9.090640    9.679480    1.723840
  C      9.693390   10.123600    0.575280
  C     10.854660   10.907520    0.597270
  C     11.617260   11.382860    1.670680
  C     12.716020   12.113940    1.153110
  C     12.636320   12.102390   -0.297510
  O     13.344390   12.589670   -1.151380
  N     11.485450   11.355880   -0.546290
  C     13.463070   12.561850    2.230800
  O     12.869470   12.146070    3.391160
  C     11.721590   11.408890    3.107830
  O     11.041800   10.942060    3.986570
  C     14.645730   13.301940    2.279320
  S     15.379140   13.705530    3.823230
  C     16.658250   14.503520    3.010000
  C     16.510920   14.456230    1.604650
  C     15.382630   13.784310    1.189180
  C     17.668860   15.165370    1.026000
  O     17.942470   15.364160   -0.131820
  C     18.477770   15.607970    2.224440
  C     17.824780   15.188420    3.379210
  C     19.672640   16.307320    2.063490
  C     20.486770   16.741660    3.089200
  C     21.680020   17.422550    2.891280
  C     22.506380   17.857820    3.912000
  C     23.732040   18.543590    3.779870
  C     24.335640   18.849750    4.965010
  C     23.613050   18.420620    6.099420
  S     22.140710   17.611340    5.607470
  C     23.946510   18.578640    7.429940
  C     25.102750   19.213130    7.958620
  C     25.163680   19.222440    9.310330
  C     24.050510   18.590660    9.955960
  S     22.930530   17.987430    8.723480
  C     23.833520   18.447100   11.271390
  H     -0.998330    2.424420   -0.359180
  H     -3.014490    1.051320    2.910320
  H     -0.981360    2.535170    3.945890
  H      1.010530    3.927930    2.826430
  H      0.957420    3.878840   -0.229860
  H      2.862020    5.271870   -0.212040
  H      2.785670    5.150040    2.844310
  H      4.726080    6.621710   -0.253270
  H      7.666270    8.627340    3.927740
  H      9.524510    9.955980    2.677220
  H      9.276500    9.862730   -0.386840
  H     11.153620   11.162330   -1.478840
  H     15.071120   13.624080    0.171400
  H     18.150780   15.352630    4.389480
  H     19.966460   16.508270    1.040530
  H     20.191460   16.542550    4.111340
  H     21.998690   17.630450    1.878050
  H     24.134020   18.790790    2.813070
  H     25.273380   19.368750    5.048460
  H     25.850790   19.641610    7.315620
  H     25.960390   19.656060    9.887970
  H     24.538540   18.828050   11.988950
  H     22.957490   17.952530   11.649140

 Total Charge           Charge          ....    0
 Multiplicity           Mult            ....    1
 Number of Electrons    NEL             ....  394
 Basis Dimension        Dim             ....  873

ORBITAL ENERGIES
----------------

  NO   OCC          E(Eh)            E(eV)
   0   2.0000     -88.974231     -2421.1119
   1   2.0000     -88.969794     -2420.9912
   2   2.0000     -88.948466     -2420.4108
   3   2.0000     -88.945258     -2420.3235
   4   2.0000     -19.288416      -524.8645
   5   2.0000     -19.268642      -524.3264
   6   2.0000     -19.227632      -523.2105
   7   2.0000     -19.217202      -522.9267
   8   2.0000     -19.192522      -522.2551
   9   2.0000     -19.178596      -521.8761
  10   2.0000     -14.445398      -393.0793
  11   2.0000     -10.391652      -282.7712
  12   2.0000     -10.370662      -282.2001
  13   2.0000     -10.368653      -282.1454
  14   2.0000     -10.359313      -281.8912
  15   2.0000     -10.353272      -281.7269
  16   2.0000     -10.330241      -281.1002
  17   2.0000     -10.318581      -280.7829
  18   2.0000     -10.318038      -280.7681
  19   2.0000     -10.316985      -280.7394
  20   2.0000     -10.313416      -280.6423
  21   2.0000     -10.312721      -280.6234
  22   2.0000     -10.312396      -280.6146
  23   2.0000     -10.312197      -280.6091
  24   2.0000     -10.310425      -280.5609
  25   2.0000     -10.307921      -280.4928
  26   2.0000     -10.304315      -280.3947
  27   2.0000     -10.304235      -280.3925
  28   2.0000     -10.295047      -280.1425
  29   2.0000     -10.293092      -280.0893
  30   2.0000     -10.291331      -280.0414
  31   2.0000     -10.289133      -279.9815
  32   2.0000     -10.287853      -279.9467
  33   2.0000     -10.287189      -279.9286
  34   2.0000     -10.285476      -279.8820
  35   2.0000     -10.283824      -279.8371
  36   2.0000     -10.283301      -279.8228
  37   2.0000     -10.282771      -279.8084
  38   2.0000     -10.281976      -279.7868
  39   2.0000     -10.281973      -279.7867
  40   2.0000     -10.280007      -279.7332
  41   2.0000     -10.279620      -279.7227
  42   2.0000     -10.279360      -279.7156
  43   2.0000     -10.277910      -279.6762
  44   2.0000     -10.277554      -279.6665
  45   2.0000     -10.274415      -279.5810
  46   2.0000     -10.273274      -279.5500
  47   2.0000     -10.273192      -279.5478
  48   2.0000     -10.272557      -279.5305
  49   2.0000     -10.268091      -279.4090
  50   2.0000     -10.265274      -279.3323
  51   2.0000     -10.259659      -279.1795
  52   2.0000     -10.258897      -279.1588
  53   2.0000      -8.069179      -219.5735
  54   2.0000      -8.064306      -219.4409
  55   2.0000      -8.044749      -218.9087
  56   2.0000      -8.042103      -218.8368
  57   2.0000      -6.038190      -164.3075
  58   2.0000      -6.034309      -164.2019
  59   2.0000      -6.033433      -164.1781
  60   2.0000      -6.031743      -164.1321
  61   2.0000      -6.029402      -164.0684
  62   2.0000      -6.026760      -163.9965
  63   2.0000      -6.014423      -163.6608
  64   2.0000      -6.011885      -163.5917
  65   2.0000      -6.010498      -163.5540
  66   2.0000      -6.007965      -163.4850
  67   2.0000      -6.005687      -163.4230
  68   2.0000      -6.002670      -163.3410
  69   2.0000      -1.206861       -32.8404
  70   2.0000      -1.196822       -32.5672
  71   2.0000      -1.137527       -30.9537
  72   2.0000      -1.127481       -30.6803
  73   2.0000      -1.117595       -30.4113
  74   2.0000      -1.100762       -29.9533
  75   2.0000      -1.045501       -28.4495
  76   2.0000      -1.005642       -27.3649
  77   2.0000      -0.999178       -27.1890
  78   2.0000      -0.998360       -27.1668
  79   2.0000      -0.975568       -26.5466
  80   2.0000      -0.944818       -25.7098
  81   2.0000      -0.937149       -25.5011
  82   2.0000      -0.920057       -25.0360
  83   2.0000      -0.906549       -24.6684
  84   2.0000      -0.898375       -24.4460
  85   2.0000      -0.895465       -24.3669
  86   2.0000      -0.883796       -24.0493
  87   2.0000      -0.878386       -23.9021
  88   2.0000      -0.854961       -23.2647
  89   2.0000      -0.850032       -23.1305
  90   2.0000      -0.849749       -23.1228
  91   2.0000      -0.846973       -23.0473
  92   2.0000      -0.844437       -22.9783
  93   2.0000      -0.832516       -22.6539
  94   2.0000      -0.827983       -22.5306
  95   2.0000      -0.821854       -22.3638
  96   2.0000      -0.804598       -21.8942
  97   2.0000      -0.792462       -21.5640
  98   2.0000      -0.766095       -20.8465
  99   2.0000      -0.754396       -20.5282
 100   2.0000      -0.751296       -20.4438
 101   2.0000      -0.750880       -20.4325
 102   2.0000      -0.741249       -20.1704
 103   2.0000      -0.730156       -19.8686
 104   2.0000      -0.717805       -19.5325
 105   2.0000      -0.699471       -19.0336
 106   2.0000      -0.691107       -18.8060
 107   2.0000      -0.676803       -18.4167
 108   2.0000      -0.676458       -18.4074
 109   2.0000      -0.672252       -18.2929
 110   2.0000      -0.657630       -17.8950
 111   2.0000      -0.652508       -17.7557
 112   2.0000      -0.645346       -17.5608
 113   2.0000      -0.640593       -17.4314
 114   2.0000      -0.639996       -17.4152
 115   2.0000      -0.628729       -17.1086
 116   2.0000      -0.624571       -16.9954
 117   2.0000      -0.621011       -16.8986
 118   2.0000      -0.613053       -16.6820
 119   2.0000      -0.610195       -16.6042
 120   2.0000      -0.605572       -16.4784
 121   2.0000      -0.601417       -16.3654
 122   2.0000      -0.594516       -16.1776
 123   2.0000      -0.577957       -15.7270
 124   2.0000      -0.574805       -15.6412
 125   2.0000      -0.571722       -15.5574
 126   2.0000      -0.567943       -15.4545
 127   2.0000      -0.562898       -15.3172
 128   2.0000      -0.561582       -15.2814
 129   2.0000      -0.559777       -15.2323
 130   2.0000      -0.555762       -15.1231
 131   2.0000      -0.551221       -14.9995
 132   2.0000      -0.545361       -14.8400
 133   2.0000      -0.539316       -14.6755
 134   2.0000      -0.536824       -14.6077
 135   2.0000      -0.525151       -14.2901
 136   2.0000      -0.523666       -14.2497
 137   2.0000      -0.522445       -14.2165
 138   2.0000      -0.519342       -14.1320
 139   2.0000      -0.517467       -14.0810
 140   2.0000      -0.514720       -14.0062
 141   2.0000      -0.513134       -13.9631
 142   2.0000      -0.508953       -13.8493
 143   2.0000      -0.505851       -13.7649
 144   2.0000      -0.501289       -13.6408
 145   2.0000      -0.500228       -13.6119
 146   2.0000      -0.498996       -13.5784
 147   2.0000      -0.498086       -13.5536
 148   2.0000      -0.495948       -13.4954
 149   2.0000      -0.492850       -13.4111
 150   2.0000      -0.485550       -13.2125
 151   2.0000      -0.479215       -13.0401
 152   2.0000      -0.475879       -12.9493
 153   2.0000      -0.475336       -12.9346
 154   2.0000      -0.472284       -12.8515
 155   2.0000      -0.471051       -12.8179
 156   2.0000      -0.468451       -12.7472
 157   2.0000      -0.468335       -12.7440
 158   2.0000      -0.465286       -12.6611
 159   2.0000      -0.461360       -12.5542
 160   2.0000      -0.459372       -12.5001
 161   2.0000      -0.456920       -12.4334
 162   2.0000      -0.454040       -12.3551
 163   2.0000      -0.446916       -12.1612
 164   2.0000      -0.445433       -12.1208
 165   2.0000      -0.442434       -12.0392
 166   2.0000      -0.438080       -11.9208
 167   2.0000      -0.433619       -11.7994
 168   2.0000      -0.433438       -11.7945
 169   2.0000      -0.429339       -11.6829
 170   2.0000      -0.424643       -11.5551
 171   2.0000      -0.423838       -11.5332
 172   2.0000      -0.423163       -11.5149
 173   2.0000      -0.422204       -11.4887
 174   2.0000      -0.419475       -11.4145
 175   2.0000      -0.406112       -11.0509
 176   2.0000      -0.401767       -10.9326
 177   2.0000      -0.392462       -10.6794
 178   2.0000      -0.379233       -10.3195
 179   2.0000      -0.366206        -9.9650
 180   2.0000      -0.351633        -9.5684
 181   2.0000      -0.347706        -9.4616
 182   2.0000      -0.344891        -9.3849
 183   2.0000      -0.342249        -9.3131
 184   2.0000      -0.337635        -9.1875
 185   2.0000      -0.334332        -9.0976
 186   2.0000      -0.331030        -9.0078
 187   2.0000      -0.330599        -8.9961
 188   2.0000      -0.329606        -8.9690
 189   2.0000      -0.325197        -8.8491
 190   2.0000      -0.317011        -8.6263
 191   2.0000      -0.315155        -8.5758
 192   2.0000      -0.291137        -7.9222
 193   2.0000      -0.277417        -7.5489
 194   2.0000      -0.248672        -6.7667
 195   2.0000      -0.226645        -6.1673
 196   2.0000      -0.200847        -5.4653
 197   0.0000      -0.104122        -2.8333
 198   0.0000      -0.086959        -2.3663
 199   0.0000      -0.050844        -1.3835
 200   0.0000      -0.039720        -1.0808
 201   0.0000      -0.036112        -0.9827

MULLIKEN ATOMIC CHARGES
-----------------------
   0 C :    0.065295
   1 O :   -0.176845
   2 C :    0.132836
   3 C :   -0.043845
   4 C :    0.040130
   5 C :    0.048886
   6 C :    0.009910
   7 C :    0.006562
   8 C :    0.063113
   9 C :   -0.091723
  10 S :    0.169577
  11 C :   -0.041172
  12 C :   -0.009225
  13 C :   -0.006157
  14 C :    0.176525
  15 O :   -0.121937
  16 C :   -0.022940
  17 C :   -0.024468
  18 C :   -0.023990
  19 C :   -0.010807
  20 C :    0.109274
  21 C :   -0.117327
  22 C :   -0.080055
  23 C :    0.145443
  24 O :   -0.182804
  25 N :   -0.109338
  26 C :    0.168766
  27 O :   -0.257226
  28 C :    0.228639
  29 O :   -0.166495
  30 C :   -0.163641
  31 S :    0.209744
  32 C :   -0.018544
  33 C :    0.000170
  34 C :   -0.021505
  35 C :    0.163768
  36 O :   -0.109262
  37 C :   -0.026648
  38 C :   -0.048151
  39 C :   -0.013899
  40 C :    0.026855
  41 C :   -0.009642
  42 C :   -0.015294
  43 C :    0.031457
  44 C :    0.030521
  45 C :   -0.049012
  46 S :    0.077112
  47 C :   -0.062843
  48 C :    0.030521
  49 C :    0.054674
  50 C :   -0.068285
  51 S :    0.088919
  52 C :   -0.022064
  53 H :    0.006623
  54 H :    0.010468
  55 H :   -0.013575
  56 H :   -0.023162
  57 H :   -0.022960
  58 H :   -0.014771
  59 H :   -0.021188
  60 H :   -0.006904
  61 H :    0.008461
  62 H :   -0.001205
  63 H :   -0.014237
  64 H :    0.126587
  65 H :    0.017752
  66 H :   -0.010821
  67 H :   -0.003894
  68 H :   -0.001482
  69 H :   -0.010575
  70 H :   -0.010100
  71 H :   -0.011479
  72 H :   -0.009663
  73 H :   -0.007776
  74 H :    0.023976
  75 H :    0.026368
Sum of atomic charges:   -0.0000000

LOEWDIN ATOMIC CHARGES
----------------------
   0 C :    0.035241
   1 O :    0.028363
   2 C :    0.030417
   3 C :   -0.070025
   4 C :   -0.080269
   5 C :   -0.001269
   6 C :   -0.037191
   7 C :   -0.018627
   8 C :   -0.045966
   9 C :   -0.157569
  10 S :    0.465724
  11 C :   -0.187587
  12 C :   -0.091792
  13 C :   -0.023208
  14 C :    0.105731
  15 O :   -0.106951
  16 C :   -0.073758
  17 C :    0.025597
  18 C :    0.024522
  19 C :   -0.050947
  20 C :    0.066931
  21 C :   -0.137121
  22 C :   -0.123593
  23 C :    0.070296
  24 O :   -0.198311
  25 N :    0.032532
  26 C :    0.076529
  27 O :   -0.060876
  28 C :    0.100303
  29 O :   -0.166538
  30 C :   -0.203521
  31 S :    0.482958
  32 C :   -0.150100
  33 C :   -0.112662
  34 C :    0.022176
  35 C :    0.098684
  36 O :   -0.101789
  37 C :   -0.047316
  38 C :   -0.025833
  39 C :   -0.025338
  40 C :   -0.005874
  41 C :   -0.058284
  42 C :   -0.136550
  43 C :   -0.037002
  44 C :   -0.025894
  45 C :   -0.183893
  46 S :    0.376124
  47 C :   -0.170353
  48 C :   -0.027174
  49 C :   -0.026405
  50 C :   -0.140473
  51 S :    0.360908
  52 C :   -0.066263
  53 H :    0.020015
  54 H :    0.022303
  55 H :    0.029017
  56 H :    0.026247
  57 H :    0.026634
  58 H :    0.028288
  59 H :    0.024512
  60 H :    0.036926
  61 H :    0.039319
  62 H :    0.038268
  63 H :    0.030845
  64 H :    0.090678
  65 H :    0.046272
  66 H :    0.028880
  67 H :    0.034442
  68 H :    0.020939
  69 H :    0.035489
  70 H :    0.034782
  71 H :    0.032354
  72 H :    0.033357
  73 H :    0.034934
  74 H :    0.030551
  75 H :    0.028235

  Mayer bond orders larger than 0.100000
B(  0-C ,  1-O ) :   1.1773 B(  0-C ,  4-C ) :   1.4969 B(  0-C , 53-H ) :   1.0038
B(  1-O ,  2-C ) :   1.1451 B(  2-C ,  3-C ) :   1.5767 B(  2-C , 54-H ) :   1.0016
B(  3-C ,  4-C ) :   1.2060 B(  3-C , 55-H ) :   1.0080 B(  4-C ,  5-C ) :   1.0984
B(  5-C ,  6-C ) :   1.7170 B(  5-C , 56-H ) :   0.9668 B(  6-C ,  7-C ) :   1.1417
B(  6-C , 57-H ) :   0.9738 B(  7-C ,  8-C ) :   1.6972 B(  7-C , 58-H ) :   0.9745
B(  8-C ,  9-C ) :   1.1383 B(  8-C , 59-H ) :   0.9511 B(  9-C , 10-S ) :   1.1259
B(  9-C , 13-C ) :   1.4225 B( 10-S , 11-C ) :   1.1169 B( 11-C , 12-C ) :   1.4324
B( 11-C , 17-C ) :   1.0761 B( 12-C , 13-C ) :   1.3416 B( 12-C , 14-C ) :   0.9303
B( 13-C , 60-H ) :   1.0012 B( 14-C , 15-O ) :   2.2314 B( 14-C , 16-C ) :   0.9116
B( 16-C , 17-C ) :   1.5416 B( 16-C , 18-C ) :   1.1883 B( 17-C , 61-H ) :   1.0271
B( 18-C , 19-C ) :   1.5272 B( 18-C , 62-H ) :   0.9639 B( 19-C , 20-C ) :   1.1687
B( 19-C , 63-H ) :   0.9651 B( 20-C , 21-C ) :   1.3113 B( 20-C , 25-N ) :   1.1825
B( 21-C , 22-C ) :   1.2057 B( 21-C , 28-C ) :   1.0177 B( 22-C , 23-C ) :   0.9475
B( 22-C , 26-C ) :   1.3927 B( 23-C , 24-O ) :   2.1487 B( 23-C , 25-N ) :   1.0818
B( 25-N , 64-H ) :   0.9210 B( 26-C , 27-O ) :   1.1648 B( 26-C , 30-C ) :   1.2361
B( 27-O , 28-C ) :   1.0108 B( 28-C , 29-O ) :   2.1251 B( 29-O , 62-H ) :   0.1014
B( 30-C , 31-S ) :   1.0626 B( 30-C , 34-C ) :   1.3951 B( 31-S , 32-C ) :   1.1407
B( 32-C , 33-C ) :   1.3708 B( 32-C , 38-C ) :   1.1322 B( 33-C , 34-C ) :   1.3481
B( 33-C , 35-C ) :   0.9169 B( 34-C , 65-H ) :   0.9875 B( 35-C , 36-O ) :   2.2809
B( 35-C , 37-C ) :   0.9096 B( 37-C , 38-C ) :   1.5133 B( 37-C , 39-C ) :   1.2130
B( 38-C , 66-H ) :   1.0141 B( 39-C , 40-C ) :   1.4999 B( 39-C , 67-H ) :   0.9818
B( 40-C , 41-C ) :   1.2306 B( 40-C , 68-H ) :   0.9700 B( 41-C , 42-C ) :   1.4863
B( 41-C , 69-H ) :   0.9870 B( 42-C , 43-C ) :   1.1668 B( 42-C , 46-S ) :   1.0479
B( 43-C , 44-C ) :   1.5695 B( 43-C , 70-H ) :   1.0007 B( 44-C , 45-C ) :   1.1974
B( 44-C , 71-H ) :   0.9930 B( 45-C , 46-S ) :   1.0415 B( 45-C , 47-C ) :   1.5197
B( 47-C , 48-C ) :   1.1626 B( 47-C , 51-S ) :   1.0577 B( 48-C , 49-C ) :   1.6520
B( 48-C , 72-H ) :   0.9919 B( 49-C , 50-C ) :   1.0842 B( 49-C , 73-H ) :   0.9927
B( 50-C , 51-S ) :   1.0065 B( 50-C , 52-C ) :   1.8583 B( 52-C , 74-H ) :   0.9509
B( 52-C , 75-H ) :   0.9418

-----------------------------------------------------------------------------
         ABSORPTION SPECTRUM VIA TRANSITION ELECTRIC DIPOLE MOMENTS
-----------------------------------------------------------------------------
State   Energy  Wavelength   fosc         T2         TX        TY        TZ
        (cm-1)    (nm)                  (au**2)     (au)      (au)      (au)
-----------------------------------------------------------------------------
   0    8321.6   1201.7   1.650219130  65.28487  -6.50581  -4.00968  -2.62331
   1   12034.8    830.9   0.144280142   3.94677  -1.27703  -1.08717   1.06491
   2   14799.9    675.7   0.037818014   0.84123   0.02746   0.15850  -0.90297
   3   17549.2    569.8   0.004740439   0.08893  -0.03649  -0.07427  -0.28650
   4   19355.4    516.7   0.724675269  12.32586   2.27332   1.33293   2.31973
   5   20059.9    498.5   0.242614765   3.98166   1.43593   1.04958  -0.90450
   6   21621.0    462.5   0.038646205   0.58845   0.49588   0.32361   0.48767
   7   23200.6    431.0   0.066429518   0.94262  -0.36539  -0.24997   0.86408
   8   24997.0    400.0   0.496999131   6.54552  -2.04114  -1.51944   0.26570
   9   25550.7    391.4   0.000617136   0.00795   0.04108   0.06147   0.04986
  10   25650.1    389.9   0.001251385   0.01606   0.05050   0.07132   0.09179
  11   25657.4    389.8   0.070479742   0.90433  -0.51532  -0.37951  -0.70339
  12   27343.4    365.7   0.049225942   0.59268  -0.08159  -0.01858   0.76529
  13   28011.8    357.0   0.119655773   1.40627  -0.78241  -0.50287   0.73568
  14   28466.1    351.3   0.014109379   0.16318  -0.12595  -0.07744  -0.37592
  15   29587.8    338.0   0.010046056   0.11178   0.20470   0.14438  -0.22143
  16   30170.0    331.5   0.309310560   3.37516  -1.49449  -1.03455   0.26716
  17   30545.2    327.4   0.000355862   0.00384   0.03110  -0.05354  -0.00122
  18   30687.5    325.9   0.002103476   0.02257  -0.11782  -0.01222   0.09238
  19   31011.6    322.5   0.156398184   1.66028   1.01722   0.70711  -0.35433
  20   31408.0    318.4   0.031861381   0.33396  -0.08690  -0.06471  -0.56765
  21   33004.9    303.0   0.087436494   0.87215  -0.43629  -0.26743   0.78120
  22   33569.6    297.9   0.198035208   1.94210   1.05409   0.62261  -0.66585
  23   34040.9    293.8   0.000134835   0.00130   0.01890   0.02810  -0.01254
  24   34167.2    292.7   0.106631551   1.02743   0.81294   0.50614  -0.33223
  25   34298.4    291.6   0.000118360   0.00114  -0.01330  -0.03072   0.00390
  26   34511.9    289.8   0.026889930   0.25651   0.24127   0.18827  -0.40355
  27   34542.8    289.5   0.006377815   0.06078  -0.19742  -0.06753   0.13133
  28   35030.7    285.5   0.000510272   0.00480  -0.03949  -0.03343  -0.04602
  29   35577.2    281.1   0.097652359   0.90362   0.75212   0.55128  -0.18445
  30   36337.4    275.2   0.061992226   0.56164   0.51834   0.31090   0.44307
  31   36634.3    273.0   0.049621562   0.44592   0.35634   0.21646  -0.52162
  32   36851.8    271.4   0.167947280   1.50034   0.48220   0.36682  -1.06455
  33   37141.6    269.2   0.000014110   0.00013   0.00488  -0.00912   0.00424
  34   37659.4    265.5   0.067234500   0.58775  -0.49952  -0.30119   0.49751
  35   38223.5    261.6   0.039310222   0.33857   0.49056   0.27983   0.14008
  36   38485.9    259.8   0.021157057   0.18098  -0.18054  -0.08480  -0.37576
  37   38721.8    258.3   0.021865052   0.18590  -0.35515  -0.23144   0.07873
  38   38956.9    256.7   0.000110387   0.00093   0.00701  -0.02964  -0.00222
  39   39150.1    255.4   0.008912218   0.07494   0.16923   0.11276  -0.18328
  40   39500.7    253.2   0.019415236   0.16181   0.18783   0.13424  -0.32941
  41   39935.8    250.4   0.036166471   0.29814  -0.44497  -0.27200   0.16172
  42   40019.9    249.9   0.033224045   0.27331  -0.40100  -0.26712   0.20285

FINAL SINGLE POINT ENERGY     -3709.893110460793

DIPOLE MOMENT
-------------
                                X             Y             Z
Electronic contribution:      9.72046       9.00936      -3.34325
Nuclear contribution   :     -9.12711      -8.95159       5.34729
                        -----------------------------------------
Total Dipole Moment    :      0.59334       0.05777       2.00404
                        -----------------------------------------
Magnitude (a.u.)       :      2.09083
Magnitude (Debye)      :      5.31446

Rotational constants in cm-1:     0.004551     0.000223     0.000213
Rotational constants in MHz :   136.448965     6.680945     6.373059

                             ****ORCA TERMINATED NORMALLY****
TOTAL RUN TIME: 0 days 0 hours 5 minutes 8 seconds 732 msec
