                         Program Version 4.2.0 -  RELEASE  -
|  1> # ORCA input file
|  2> # SCF done       -143.822536293078          0.000712908676
|  3> ! CAM-B3LYP def2-SVP def2/J RIJCOSX Grid4 TightSCF
|  4> %maxcore 5000
|  5> %tddft
|  6>     Mode sTDDFT
|  7>     Ethresh 5.0
|  8>     maxcore 5000
|  9> end
| 10>
| 11> %pal
| 12>   nprocs 6
| 13>   end
| 14> * xyz 0 1
| 15>    C       15.98871         4.61163       -10.33095
| 16>    O       16.11646         3.77502       -11.36953
| 17>    C       14.93354         3.15116       -11.51894
| 18>    C       14.04117         3.57478       -10.59017
| 19>    C       14.72539         4.54437        -9.79208
| 20>    C       14.24310         5.29748        -8.67045
| 21>    C       12.99929         5.21210        -8.15449
| 22>    C       12.56634         5.96713        -7.02961
| 23>    C       11.32193         5.86710        -6.50135
| 24>    C       10.84939         6.58099        -5.37142
| 25>    S        9.20524         6.29197        -4.80915
| 26>    C        9.41613         7.40270        -3.52408
| 27>    C       10.69441         7.97047        -3.53708
| 28>    C       11.49874         7.51305        -4.57287
| 29>    C       10.77776         8.90122        -2.39906
| 30>    O       11.70872         9.60854        -2.08530
| 31>    C        9.42685         8.79003        -1.72336
| 32>    C        8.65383         7.89735        -2.43959
| 33>    C        9.03687         9.48797        -0.56690
| 34>    C        9.85801        10.33724         0.12283
| 35>    C        9.48875        10.99589         1.31535
| 36>    C       10.27916        11.95352         1.93573
| 37>    O       10.03491        12.37806         3.23047
| 38>    C        8.90684        11.89123         3.81322
| 39>    C        8.03139        11.00010         3.12669
| 40>    C        6.94892        10.65280         3.86624
| 41>    S        6.98292        11.40806         5.41619
| 42>    C        8.47231        12.19985         5.06054
| 43>    O        8.30298        10.54966         1.87336
| 44>    C       11.41510        12.59545         1.38566
| 45>    C       11.69909        12.77220         0.06142
| 46>    C       12.86519        13.38137        -0.43458
| 47>    S       13.01047        13.63115        -2.17312
| 48>    C       14.55819        14.33522        -1.97152
| 49>    C       14.94232        14.36761        -0.61777
| 50>    C       14.00100        13.83535         0.24081
| 51>    C       16.28026        14.98483        -0.55057
| 52>    O       16.95115        15.18994         0.43437
| 53>    C       16.61789        15.30203        -1.98987
| 54>    C       15.55506        14.89235        -2.78817
| 55>    C       17.79100        15.90422        -2.45096
| 56>    C       18.83499        16.31066        -1.64715
| 57>    C       20.02183        16.91521        -2.05871
| 58>    C       20.46297        17.25182        -3.32702
| 59>    C       21.70545        17.87229        -3.59543
| 60>    C       21.95026        18.11957        -4.91368
| 61>    C       20.90904        17.70450        -5.77135
| 62>    S       19.61083        16.99200        -4.83478
| 63>    C       20.84253        17.80817        -7.14505
| 64>    C       21.81607        18.36553        -8.01611
| 65>    C       21.47740        18.33221        -9.32589
| 66>    C       20.19812        17.74238        -9.59085
| 67>    S       19.46527        17.23475        -8.06078
| 68>    C       19.59999        17.57166       -10.77891
| 69>    H       16.84269         5.20067       -10.06034
| 70>    H       14.85459         2.43604       -12.31376
| 71>    H       13.02922         3.24575       -10.48009
| 72>    H       14.95866         5.97517        -8.22263
| 73>    H       12.27921         4.53740        -8.59686
| 74>    H       13.28520         6.64317        -6.58797
| 75>    H       10.61421         5.18717        -6.95862
| 76>    H       12.50980         7.83379        -4.74237
| 77>    H        7.64308         7.61426        -2.20868
| 78>    H        8.02127         9.33843        -0.22241
| 79>    H       10.86737        10.47897        -0.22334
| 80>    H        6.14392        10.00333         3.59380
| 81>    H        8.93582        12.83995         5.78129
| 82>    H       12.05174        13.05919         2.12655
| 83>    H       10.98184        12.46370        -0.68478
| 84>    H       14.11770        13.76552         1.30651
| 85>    H       15.50892        14.98855        -3.85757
| 86>    H       17.85184        16.04977        -3.52195
| 87>    H       18.73009        16.14625        -0.58423
| 88>    H       20.72200        17.16644        -1.27044
| 89>    H       22.38636        18.11996        -2.79972
| 90>    H       22.84559        18.58474        -5.28484
| 91>    H       22.73725        18.77290        -7.63872
| 92>    H       22.08675        18.70610       -10.12933
| 93>    H       20.08100        17.89149       -11.68627
| 94>    H       18.63318        17.11072       -10.86416
| 95> *
| 96>
| 97>                          ****END OF INPUT****

CARTESIAN COORDINATES (ANGSTROEM)
---------------------------------
  C     15.988710    4.611630  -10.330950
  O     16.116460    3.775020  -11.369530
  C     14.933540    3.151160  -11.518940
  C     14.041170    3.574780  -10.590170
  C     14.725390    4.544370   -9.792080
  C     14.243100    5.297480   -8.670450
  C     12.999290    5.212100   -8.154490
  C     12.566340    5.967130   -7.029610
  C     11.321930    5.867100   -6.501350
  C     10.849390    6.580990   -5.371420
  S      9.205240    6.291970   -4.809150
  C      9.416130    7.402700   -3.524080
  C     10.694410    7.970470   -3.537080
  C     11.498740    7.513050   -4.572870
  C     10.777760    8.901220   -2.399060
  O     11.708720    9.608540   -2.085300
  C      9.426850    8.790030   -1.723360
  C      8.653830    7.897350   -2.439590
  C      9.036870    9.487970   -0.566900
  C      9.858010   10.337240    0.122830
  C      9.488750   10.995890    1.315350
  C     10.279160   11.953520    1.935730
  O     10.034910   12.378060    3.230470
  C      8.906840   11.891230    3.813220
  C      8.031390   11.000100    3.126690
  C      6.948920   10.652800    3.866240
  S      6.982920   11.408060    5.416190
  C      8.472310   12.199850    5.060540
  O      8.302980   10.549660    1.873360
  C     11.415100   12.595450    1.385660
  C     11.699090   12.772200    0.061420
  C     12.865190   13.381370   -0.434580
  S     13.010470   13.631150   -2.173120
  C     14.558190   14.335220   -1.971520
  C     14.942320   14.367610   -0.617770
  C     14.001000   13.835350    0.240810
  C     16.280260   14.984830   -0.550570
  O     16.951150   15.189940    0.434370
  C     16.617890   15.302030   -1.989870
  C     15.555060   14.892350   -2.788170
  C     17.791000   15.904220   -2.450960
  C     18.834990   16.310660   -1.647150
  C     20.021830   16.915210   -2.058710
  C     20.462970   17.251820   -3.327020
  C     21.705450   17.872290   -3.595430
  C     21.950260   18.119570   -4.913680
  C     20.909040   17.704500   -5.771350
  S     19.610830   16.992000   -4.834780
  C     20.842530   17.808170   -7.145050
  C     21.816070   18.365530   -8.016110
  C     21.477400   18.332210   -9.325890
  C     20.198120   17.742380   -9.590850
  S     19.465270   17.234750   -8.060780
  C     19.599990   17.571660  -10.778910
  H     16.842690    5.200670  -10.060340
  H     14.854590    2.436040  -12.313760
  H     13.029220    3.245750  -10.480090
  H     14.958660    5.975170   -8.222630
  H     12.279210    4.537400   -8.596860
  H     13.285200    6.643170   -6.587970
  H     10.614210    5.187170   -6.958620
  H     12.509800    7.833790   -4.742370
  H      7.643080    7.614260   -2.208680
  H      8.021270    9.338430   -0.222410
  H     10.867370   10.478970   -0.223340
  H      6.143920   10.003330    3.593800
  H      8.935820   12.839950    5.781290
  H     12.051740   13.059190    2.126550
  H     10.981840   12.463700   -0.684780
  H     14.117700   13.765520    1.306510
  H     15.508920   14.988550   -3.857570
  H     17.851840   16.049770   -3.521950
  H     18.730090   16.146250   -0.584230
  H     20.722000   17.166440   -1.270440
  H     22.386360   18.119960   -2.799720
  H     22.845590   18.584740   -5.284840
  H     22.737250   18.772900   -7.638720
  H     22.086750   18.706100  -10.129330
  H     20.081000   17.891490  -11.686270
  H     18.633180   17.110720  -10.864160

 Total Charge           Charge          ....    0
 Multiplicity           Mult            ....    1
 Number of Electrons    NEL             ....  410
 Basis Dimension        Dim             ....  906

ORBITAL ENERGIES
----------------

  NO   OCC          E(Eh)            E(eV)
   0   2.0000     -88.963646     -2420.8239
   1   2.0000     -88.963533     -2420.8208
   2   2.0000     -88.948649     -2420.4158
   3   2.0000     -88.944745     -2420.3095
   4   2.0000     -88.939835     -2420.1760
   5   2.0000     -19.281602      -524.6791
   6   2.0000     -19.264733      -524.2200
   7   2.0000     -19.262247      -524.1524
   8   2.0000     -19.218956      -522.9744
   9   2.0000     -19.217321      -522.9299
  10   2.0000     -10.361899      -281.9616
  11   2.0000     -10.360990      -281.9369
  12   2.0000     -10.338629      -281.3284
  13   2.0000     -10.331579      -281.1365
  14   2.0000     -10.331335      -281.1299
  15   2.0000     -10.331052      -281.1222
  16   2.0000     -10.313294      -280.6390
  17   2.0000     -10.312474      -280.6167
  18   2.0000     -10.311900      -280.6011
  19   2.0000     -10.307648      -280.4854
  20   2.0000     -10.306935      -280.4660
  21   2.0000     -10.303544      -280.3737
  22   2.0000     -10.302043      -280.3328
  23   2.0000     -10.300048      -280.2786
  24   2.0000     -10.298731      -280.2427
  25   2.0000     -10.298227      -280.2290
  26   2.0000     -10.290275      -280.0126
  27   2.0000     -10.286074      -279.8983
  28   2.0000     -10.285627      -279.8861
  29   2.0000     -10.285604      -279.8855
  30   2.0000     -10.285373      -279.8792
  31   2.0000     -10.284702      -279.8610
  32   2.0000     -10.283592      -279.8308
  33   2.0000     -10.283093      -279.8172
  34   2.0000     -10.280680      -279.7515
  35   2.0000     -10.280548      -279.7479
  36   2.0000     -10.278079      -279.6807
  37   2.0000     -10.277415      -279.6627
  38   2.0000     -10.276633      -279.6414
  39   2.0000     -10.275049      -279.5983
  40   2.0000     -10.273808      -279.5645
  41   2.0000     -10.272091      -279.5178
  42   2.0000     -10.270869      -279.4845
  43   2.0000     -10.270473      -279.4738
  44   2.0000     -10.268582      -279.4223
  45   2.0000     -10.268325      -279.4153
  46   2.0000     -10.266964      -279.3783
  47   2.0000     -10.266726      -279.3718
  48   2.0000     -10.266365      -279.3620
  49   2.0000     -10.265539      -279.3395
  50   2.0000     -10.265029      -279.3256
  51   2.0000     -10.264139      -279.3014
  52   2.0000     -10.263448      -279.2826
  53   2.0000     -10.260274      -279.1963
  54   2.0000      -8.058563      -219.2847
  55   2.0000      -8.058489      -219.2826
  56   2.0000      -8.044518      -218.9025
  57   2.0000      -8.040478      -218.7925
  58   2.0000      -8.036616      -218.6874
  59   2.0000      -6.027611      -164.0196
  60   2.0000      -6.027568      -164.0185
  61   2.0000      -6.023704      -163.9133
  62   2.0000      -6.023626      -163.9112
  63   2.0000      -6.021068      -163.8416
  64   2.0000      -6.021012      -163.8401
  65   2.0000      -6.014015      -163.6497
  66   2.0000      -6.010200      -163.5459
  67   2.0000      -6.009883      -163.5372
  68   2.0000      -6.006437      -163.4435
  69   2.0000      -6.006168      -163.4362
  70   2.0000      -6.006111      -163.4346
  71   2.0000      -6.002464      -163.3353
  72   2.0000      -6.001545      -163.3104
  73   2.0000      -5.997183      -163.1916
  74   2.0000      -1.200517       -32.6677
  75   2.0000      -1.189925       -32.3795
  76   2.0000      -1.153090       -31.3772
  77   2.0000      -1.128409       -30.7056
  78   2.0000      -1.127151       -30.6713
  79   2.0000      -0.994913       -27.0730
  80   2.0000      -0.994347       -27.0576
  81   2.0000      -0.991998       -26.9936
  82   2.0000      -0.977063       -26.5872
  83   2.0000      -0.969010       -26.3681
  84   2.0000      -0.935497       -25.4562
  85   2.0000      -0.933470       -25.4010
  86   2.0000      -0.913789       -24.8655
  87   2.0000      -0.910264       -24.7696
  88   2.0000      -0.896129       -24.3849
  89   2.0000      -0.885903       -24.1066
  90   2.0000      -0.875928       -23.8352
  91   2.0000      -0.868732       -23.6394
  92   2.0000      -0.847890       -23.0723
  93   2.0000      -0.844540       -22.9811
  94   2.0000      -0.840725       -22.8773
  95   2.0000      -0.839687       -22.8490
  96   2.0000      -0.836553       -22.7638
  97   2.0000      -0.829358       -22.5680
  98   2.0000      -0.825166       -22.4539
  99   2.0000      -0.818670       -22.2772
 100   2.0000      -0.815511       -22.1912
 101   2.0000      -0.801537       -21.8109
 102   2.0000      -0.790382       -21.5074
 103   2.0000      -0.775224       -21.0949
 104   2.0000      -0.758301       -20.6344
 105   2.0000      -0.745439       -20.2844
 106   2.0000      -0.740815       -20.1586
 107   2.0000      -0.738917       -20.1069
 108   2.0000      -0.725536       -19.7428
 109   2.0000      -0.709575       -19.3085
 110   2.0000      -0.693730       -18.8773
 111   2.0000      -0.684493       -18.6260
 112   2.0000      -0.678419       -18.4607
 113   2.0000      -0.672592       -18.3022
 114   2.0000      -0.667779       -18.1712
 115   2.0000      -0.656728       -17.8705
 116   2.0000      -0.652883       -17.7658
 117   2.0000      -0.645897       -17.5758
 118   2.0000      -0.638118       -17.3641
 119   2.0000      -0.637398       -17.3445
 120   2.0000      -0.631555       -17.1855
 121   2.0000      -0.629499       -17.1295
 122   2.0000      -0.620278       -16.8786
 123   2.0000      -0.618561       -16.8319
 124   2.0000      -0.616523       -16.7764
 125   2.0000      -0.604250       -16.4425
 126   2.0000      -0.603339       -16.4177
 127   2.0000      -0.598563       -16.2877
 128   2.0000      -0.591775       -16.1030
 129   2.0000      -0.586490       -15.9592
 130   2.0000      -0.571500       -15.5513
 131   2.0000      -0.569510       -15.4972
 132   2.0000      -0.559147       -15.2152
 133   2.0000      -0.558609       -15.2005
 134   2.0000      -0.557563       -15.1721
 135   2.0000      -0.550690       -14.9850
 136   2.0000      -0.547272       -14.8920
 137   2.0000      -0.542838       -14.7714
 138   2.0000      -0.540282       -14.7018
 139   2.0000      -0.539424       -14.6785
 140   2.0000      -0.530610       -14.4386
 141   2.0000      -0.523756       -14.2521
 142   2.0000      -0.518660       -14.1135
 143   2.0000      -0.516657       -14.0590
 144   2.0000      -0.516039       -14.0421
 145   2.0000      -0.515294       -14.0219
 146   2.0000      -0.514651       -14.0044
 147   2.0000      -0.508503       -13.8371
 148   2.0000      -0.505013       -13.7421
 149   2.0000      -0.495830       -13.4922
 150   2.0000      -0.494736       -13.4625
 151   2.0000      -0.494090       -13.4449
 152   2.0000      -0.493210       -13.4209
 153   2.0000      -0.490351       -13.3431
 154   2.0000      -0.488335       -13.2883
 155   2.0000      -0.484845       -13.1933
 156   2.0000      -0.484475       -13.1832
 157   2.0000      -0.481191       -13.0939
 158   2.0000      -0.476591       -12.9687
 159   2.0000      -0.471749       -12.8369
 160   2.0000      -0.467415       -12.7190
 161   2.0000      -0.465260       -12.6604
 162   2.0000      -0.464437       -12.6380
 163   2.0000      -0.462570       -12.5872
 164   2.0000      -0.462190       -12.5768
 165   2.0000      -0.460450       -12.5295
 166   2.0000      -0.459124       -12.4934
 167   2.0000      -0.456789       -12.4299
 168   2.0000      -0.451493       -12.2857
 169   2.0000      -0.449652       -12.2357
 170   2.0000      -0.445692       -12.1279
 171   2.0000      -0.440999       -12.0002
 172   2.0000      -0.436704       -11.8833
 173   2.0000      -0.434029       -11.8105
 174   2.0000      -0.424456       -11.5500
 175   2.0000      -0.424172       -11.5423
 176   2.0000      -0.423500       -11.5240
 177   2.0000      -0.421590       -11.4720
 178   2.0000      -0.421091       -11.4585
 179   2.0000      -0.420019       -11.4293
 180   2.0000      -0.417276       -11.3547
 181   2.0000      -0.415244       -11.2994
 182   2.0000      -0.405569       -11.0361
 183   2.0000      -0.404835       -11.0161
 184   2.0000      -0.398597       -10.8464
 185   2.0000      -0.394713       -10.7407
 186   2.0000      -0.380929       -10.3656
 187   2.0000      -0.376044       -10.2327
 188   2.0000      -0.356803        -9.7091
 189   2.0000      -0.344126        -9.3642
 190   2.0000      -0.336969        -9.1694
 191   2.0000      -0.328281        -8.9330
 192   2.0000      -0.327736        -8.9181
 193   2.0000      -0.326667        -8.8890
 194   2.0000      -0.325689        -8.8625
 195   2.0000      -0.324468        -8.8292
 196   2.0000      -0.320318        -8.7163
 197   2.0000      -0.309581        -8.4241
 198   2.0000      -0.299077        -8.1383
 199   2.0000      -0.292702        -7.9648
 200   2.0000      -0.278311        -7.5732
 201   2.0000      -0.261806        -7.1241
 202   2.0000      -0.242831        -6.6078
 203   2.0000      -0.216905        -5.9023
 204   2.0000      -0.197035        -5.3616
 205   0.0000      -0.091969        -2.5026
 206   0.0000      -0.073051        -1.9878
 207   0.0000      -0.046202        -1.2572
 208   0.0000      -0.025428        -0.6919
 209   0.0000      -0.021591        -0.5875

MULLIKEN ATOMIC CHARGES
-----------------------
   0 C :    0.070317
   1 O :   -0.181107
   2 C :    0.135833
   3 C :   -0.047474
   4 C :    0.047863
   5 C :    0.017591
   6 C :    0.016884
   7 C :    0.012623
   8 C :    0.044100
   9 C :   -0.096692
  10 S :    0.154715
  11 C :   -0.034933
  12 C :   -0.014107
  13 C :   -0.002394
  14 C :    0.166884
  15 O :   -0.132895
  16 C :    0.009537
  17 C :   -0.053002
  18 C :   -0.033262
  19 C :   -0.089349
  20 C :    0.157620
  21 C :    0.173783
  22 O :   -0.247005
  23 C :    0.216296
  24 C :    0.221027
  25 C :   -0.176596
  26 S :    0.103023
  27 C :   -0.176394
  28 O :   -0.258470
  29 C :   -0.033728
  30 C :    0.061526
  31 C :   -0.120485
  32 S :    0.177103
  33 C :   -0.018266
  34 C :   -0.017945
  35 C :    0.001082
  36 C :    0.174499
  37 O :   -0.126041
  38 C :   -0.006310
  39 C :   -0.058315
  40 C :   -0.043909
  41 C :    0.014789
  42 C :    0.001571
  43 C :   -0.021527
  44 C :    0.034768
  45 C :    0.022656
  46 C :   -0.032793
  47 S :    0.059645
  48 C :   -0.060751
  49 C :    0.027339
  50 C :    0.056141
  51 C :   -0.069966
  52 S :    0.083427
  53 C :   -0.022505
  54 H :    0.002390
  55 H :    0.008837
  56 H :   -0.013624
  57 H :   -0.024722
  58 H :   -0.021118
  59 H :   -0.013419
  60 H :   -0.023702
  61 H :   -0.011552
  62 H :   -0.014798
  63 H :   -0.015926
  64 H :    0.037344
  65 H :    0.020979
  66 H :    0.023388
  67 H :    0.002670
  68 H :    0.002391
  69 H :   -0.005859
  70 H :   -0.009260
  71 H :   -0.018495
  72 H :    0.010028
  73 H :   -0.015510
  74 H :   -0.012575
  75 H :   -0.016007
  76 H :   -0.010735
  77 H :   -0.010695
  78 H :    0.020950
  79 H :    0.022596
Sum of atomic charges:   -0.0000000

LOEWDIN ATOMIC CHARGES
----------------------
   0 C :    0.029170
   1 O :    0.021574
   2 C :    0.033146
   3 C :   -0.070216
   4 C :   -0.076850
   5 C :   -0.019351
   6 C :   -0.030072
   7 C :   -0.019662
   8 C :   -0.052909
   9 C :   -0.172091
  10 S :    0.453566
  11 C :   -0.173039
  12 C :   -0.109736
  13 C :   -0.021385
  14 C :    0.107220
  15 O :   -0.115076
  16 C :   -0.054438
  17 C :   -0.019264
  18 C :   -0.029777
  19 C :   -0.030071
  20 C :    0.016881
  21 C :    0.032011
  22 O :   -0.055051
  23 C :   -0.009079
  24 C :   -0.007031
  25 C :   -0.214803
  26 S :    0.429828
  27 C :   -0.212370
  28 O :   -0.057325
  29 C :   -0.043767
  30 C :   -0.023720
  31 C :   -0.174248
  32 S :    0.468483
  33 C :   -0.167236
  34 C :   -0.106189
  35 C :   -0.011005
  36 C :    0.105453
  37 O :   -0.108992
  38 C :   -0.050740
  39 C :   -0.019675
  40 C :   -0.034816
  41 C :   -0.022360
  42 C :   -0.062277
  43 C :   -0.140558
  44 C :   -0.031682
  45 C :   -0.038824
  46 C :   -0.182483
  47 S :    0.389959
  48 C :   -0.172392
  49 C :   -0.026649
  50 C :   -0.029106
  51 C :   -0.140235
  52 S :    0.354984
  53 C :   -0.072081
  54 H :    0.020720
  55 H :    0.021708
  56 H :    0.027606
  57 H :    0.027548
  58 H :    0.024871
  59 H :    0.026286
  60 H :    0.025342
  61 H :    0.035241
  62 H :    0.029356
  63 H :    0.029691
  64 H :    0.036929
  65 H :    0.027441
  66 H :    0.028382
  67 H :    0.035176
  68 H :    0.033464
  69 H :    0.037578
  70 H :    0.030860
  71 H :    0.011432
  72 H :    0.034443
  73 H :    0.035243
  74 H :    0.033628
  75 H :    0.030582
  76 H :    0.032949
  77 H :    0.033869
  78 H :    0.029202
  79 H :    0.026808

  Mayer bond orders larger than 0.100000
B(  0-C ,  1-O ) :   1.1650 B(  0-C ,  4-C ) :   1.5005 B(  0-C , 54-H ) :   1.0064
B(  1-O ,  2-C ) :   1.1426 B(  2-C ,  3-C ) :   1.5918 B(  2-C , 55-H ) :   0.9999
B(  3-C ,  4-C ) :   1.2132 B(  3-C , 56-H ) :   1.0024 B(  4-C ,  5-C ) :   1.0750
B(  5-C ,  6-C ) :   1.6850 B(  5-C , 57-H ) :   0.9797 B(  6-C ,  7-C ) :   1.1370
B(  6-C , 58-H ) :   0.9835 B(  7-C ,  8-C ) :   1.6741 B(  7-C , 59-H ) :   0.9831
B(  8-C ,  9-C ) :   1.1107 B(  8-C , 60-H ) :   0.9653 B(  9-C , 10-S ) :   1.1025
B(  9-C , 13-C ) :   1.4544 B( 10-S , 11-C ) :   1.1297 B( 11-C , 12-C ) :   1.4438
B( 11-C , 17-C ) :   1.0646 B( 12-C , 13-C ) :   1.3166 B( 12-C , 14-C ) :   0.9453
B( 13-C , 61-H ) :   0.9989 B( 14-C , 15-O ) :   2.2043 B( 14-C , 16-C ) :   0.9103
B( 16-C , 17-C ) :   1.5658 B( 16-C , 18-C ) :   1.1611 B( 17-C , 62-H ) :   1.0255
B( 18-C , 19-C ) :   1.5701 B( 18-C , 63-H ) :   0.9888 B( 19-C , 20-C ) :   1.1814
B( 19-C , 64-H ) :   0.9505 B( 20-C , 21-C ) :   1.4378 B( 20-C , 28-O ) :   1.0541
B( 21-C , 22-O ) :   1.0521 B( 21-C , 29-C ) :   1.1762 B( 22-O , 23-C ) :   1.0614
B( 23-C , 24-C ) :   1.1980 B( 23-C , 27-C ) :   1.5721 B( 24-C , 25-C ) :   1.5711
B( 24-C , 28-O ) :   1.0623 B( 25-C , 26-S ) :   1.1373 B( 25-C , 65-H ) :   0.9725
B( 26-S , 27-C ) :   1.1411 B( 27-C , 66-H ) :   0.9720 B( 29-C , 30-C ) :   1.6353
B( 29-C , 67-H ) :   0.9491 B( 30-C , 31-C ) :   1.1777 B( 30-C , 68-H ) :   0.9515
B( 31-C , 32-S ) :   1.1037 B( 31-C , 35-C ) :   1.4083 B( 32-S , 33-C ) :   1.1388
B( 33-C , 34-C ) :   1.4068 B( 33-C , 39-C ) :   1.0917 B( 34-C , 35-C ) :   1.3480
B( 34-C , 36-C ) :   0.9381 B( 35-C , 69-H ) :   0.9994 B( 36-C , 37-O ) :   2.2241
B( 36-C , 38-C ) :   0.9075 B( 38-C , 39-C ) :   1.5173 B( 38-C , 40-C ) :   1.2570
B( 39-C , 70-H ) :   1.0248 B( 40-C , 41-C ) :   1.5093 B( 40-C , 71-H ) :   0.9518
B( 41-C , 42-C ) :   1.2436 B( 41-C , 72-H ) :   0.9605 B( 42-C , 43-C ) :   1.5120
B( 42-C , 73-H ) :   0.9632 B( 43-C , 44-C ) :   1.1681 B( 43-C , 47-S ) :   1.0498
B( 44-C , 45-C ) :   1.5760 B( 44-C , 74-H ) :   0.9991 B( 45-C , 46-C ) :   1.1909
B( 45-C , 75-H ) :   0.9921 B( 46-C , 47-S ) :   1.0337 B( 46-C , 48-C ) :   1.5269
B( 48-C , 49-C ) :   1.1628 B( 48-C , 52-S ) :   1.0509 B( 49-C , 50-C ) :   1.6517
B( 49-C , 76-H ) :   0.9918 B( 50-C , 51-C ) :   1.0828 B( 50-C , 77-H ) :   0.9932
B( 51-C , 52-S ) :   1.0084 B( 51-C , 53-C ) :   1.8596 B( 53-C , 78-H ) :   0.9505
B( 53-C , 79-H ) :   0.9412

-----------------------------------------------------------------------------
         ABSORPTION SPECTRUM VIA TRANSITION ELECTRIC DIPOLE MOMENTS
-----------------------------------------------------------------------------
State   Energy  Wavelength   fosc         T2         TX        TY        TZ
        (cm-1)    (nm)                  (au**2)     (au)      (au)      (au)
-----------------------------------------------------------------------------
   0    9039.1   1106.3   0.646298335  23.53868  -3.23609  -3.36927   1.30935
   1   12148.7    823.1   0.496918405  13.46573   1.42590  -0.94227  -3.24725
   2   14970.8    668.0   0.118527356   2.60646  -0.72514   0.04857   1.44162
   3   17880.5    559.3   0.332027466   6.11321   1.82412   0.92481  -1.38943
   4   18965.5    527.3   0.361155106   6.26908  -0.48163  -0.55190   2.39427
   5   20017.8    499.6   0.028042271   0.46118   0.10846   0.63356   0.21912
   6   21882.2    457.0   0.090992394   1.36895   0.43549   1.00872   0.40221
   7   22944.0    435.8   0.349979290   5.02167   0.78485   1.37493   1.58596
   8   24774.1    403.6   0.190771297   2.53508  -0.30302   0.55335   1.46187
   9   25543.9    391.5   0.001497786   0.01930   0.05043  -0.05687  -0.11630
  10   25981.3    384.9   0.030029928   0.38051  -0.46711   0.13059   0.38114
  11   26063.3    383.7   0.830746275  10.49338   2.52499  -0.49676  -1.96749
  12   26571.5    376.3   0.128592925   1.59322   0.06971   0.17471   1.24813
  13   27380.6    365.2   0.217326330   2.61304   1.36226   0.10409  -0.86397
  14   28124.1    355.6   0.017024840   0.19929  -0.03099   0.40834   0.17771
  15   28277.2    353.6   0.010681906   0.12436   0.31190  -0.11319   0.11944
  16   29090.0    343.8   0.017154904   0.19414   0.27016  -0.10523  -0.33179
  17   30777.5    324.9   0.445990759   4.77055   1.07953  -0.65607  -1.78177
  18   31223.4    320.3   0.126568355   1.33451  -0.96917  -0.38056  -0.50039
  19   31657.5    315.9   0.103688374   1.07827   0.84917   0.23313   0.55030
  20   32026.5    312.2   0.030533583   0.31387   0.55513   0.04707   0.05900
  21   32219.6    310.4   0.053976276   0.55152   0.08634  -0.05834  -0.73529
  22   32995.9    303.1   0.010688770   0.10665   0.03958  -0.29687  -0.13018
  23   33576.7    297.8   0.033998646   0.33335   0.28010   0.02869  -0.50405
  24   34169.7    292.7   0.000111434   0.00107   0.02442  -0.01641   0.01443
  25   34492.4    289.9   0.104188478   0.99442   0.83414   0.45467  -0.30317
  26   34813.3    287.2   0.217302058   2.05492   1.16022   0.55512   0.63297
  27   35528.4    281.5   0.085996676   0.79686  -0.42345  -0.50767  -0.59985
  28   35734.9    279.8   0.082126364   0.75660  -0.34551   0.24155   0.76084
  29   35992.6    277.8   0.138554222   1.26731  -0.84371   0.08748   0.74014
  30   36017.8    277.6   0.113889114   1.04098   0.54538  -0.53699  -0.67467
  31   36144.7    276.7   0.044811289   0.40815   0.49299   0.23480  -0.33162
  32   36693.9    272.5   0.134688320   1.20840  -0.41566  -0.74070  -0.69784
  33   36908.6    270.9   0.085072127   0.75881  -0.61901  -0.07890  -0.60779
  34   37619.5    265.8   0.044173429   0.38657   0.16240  -0.12990   0.58593
  35   38048.8    262.8   0.008644345   0.07479   0.12457   0.00362  -0.24344
  36   38225.8    261.6   0.011666496   0.10048  -0.21349  -0.00202   0.23429
  37   38508.1    259.7   0.210309439   1.79797  -0.00275  -0.34472  -1.29581
  38   38960.5    256.7   0.007752966   0.06551  -0.14464  -0.02262  -0.20995
  39   39095.6    255.8   0.000052632   0.00044   0.02006  -0.00639  -0.00033
  40   39730.2    251.7   0.048080404   0.39840   0.38925   0.25017   0.42931
  41   40024.6    249.8   0.023067934   0.18974   0.42372   0.10095   0.00270
  42   40231.5    248.6   0.021378103   0.17494   0.27626   0.03696  -0.31185

FINAL SINGLE POINT ENERGY     -4055.969904273842

DIPOLE MOMENT
-------------
                                X             Y             Z
Electronic contribution:    -22.98042       5.32275      29.10084
Nuclear contribution   :     23.50667      -5.07808     -30.87231
                        -----------------------------------------
Total Dipole Moment    :      0.52624       0.24467      -1.77148
                        -----------------------------------------
Magnitude (a.u.)       :      1.86411
Magnitude (Debye)      :      4.73820

Rotational constants in cm-1:     0.000842     0.000549     0.000345
Rotational constants in MHz :    25.253795    16.470906    10.329303

                             ****ORCA TERMINATED NORMALLY****
TOTAL RUN TIME: 0 days 0 hours 6 minutes 12 seconds 338 msec
