                         Program Version 4.2.0 -  RELEASE  -
|  1> # ORCA input file
|  2> # SCF done       -171.096231549529          0.000284833719
|  3> ! CAM-B3LYP def2-SVP def2/J RIJCOSX Grid4 TightSCF
|  4> %maxcore 5000
|  5> %tddft
|  6>     Mode sTDDFT
|  7>     Ethresh 5.0
|  8>     maxcore 5000
|  9> end
| 10>
| 11> %pal
| 12>   nprocs 6
| 13>   end
| 14> * xyz 0 1
| 15>    C      -12.87490         1.00762        -8.93458
| 16>    O      -12.64700         0.10064        -9.89497
| 17>    C      -13.28201        -1.02934        -9.53351
| 18>    C      -13.92000        -0.86402        -8.34907
| 19>    C      -13.66213         0.48104        -7.93473
| 20>    C      -14.14084         1.09042        -6.73042
| 21>    C      -13.86257         2.36175        -6.34750
| 22>    C      -14.29631         3.00788        -5.16285
| 23>    C      -15.11957         2.47350        -4.20533
| 24>    C      -15.53595         3.07559        -3.01231
| 25>    C      -15.21943         4.31135        -2.47352
| 26>    C      -15.68047         4.77921        -1.22610
| 27>    C      -15.21494         6.01890        -0.87197
| 28>    C      -14.36856         6.59618        -1.82632
| 29>    S      -14.17974         5.52533        -3.19279
| 30>    C      -13.70898         7.82566        -1.76641
| 31>    C      -13.69317         8.74822        -0.71715
| 32>    C      -12.89879         9.84734        -0.95998
| 33>    C      -12.27426         9.83643        -2.20825
| 34>    S      -12.71371         8.38962        -3.08656
| 35>    C      -11.39671        10.79576        -2.72512
| 36>    C      -10.86389        10.76300        -3.98567
| 37>    C       -9.93789        11.68245        -4.49101
| 38>    C       -9.41083        11.71801        -5.78204
| 39>    C       -8.48409        12.71857        -5.98437
| 40>    C       -8.24444        13.49745        -4.85168
| 41>    S       -9.23834        12.95908        -3.52158
| 42>    C       -7.32676        14.54376        -4.70014
| 43>    C       -6.46173        15.06767        -5.66576
| 44>    C       -5.63458        16.05343        -5.18468
| 45>    C       -5.81577        16.33810        -3.82231
| 46>    S       -7.08973        15.33977        -3.16537
| 47>    C       -5.07155        17.23905        -3.07228
| 48>    C       -5.25947        17.47645        -1.71133
| 49>    C       -4.45327        18.30407        -0.91963
| 50>    O       -4.69402        18.47259         0.43064
| 51>    C       -5.73438        17.77593         0.95351
| 52>    C       -6.55191        16.92910         0.15128
| 53>    C       -7.53753        16.32032         0.85538
| 54>    S       -7.48325        16.77537         2.51758
| 55>    C       -6.11754        17.79430         2.25589
| 56>    O       -6.33123        16.78312        -1.17931
| 57>    C       -3.32639        19.00522        -1.39669
| 58>    C       -2.48778        19.71472        -0.58561
| 59>    C       -1.31313        20.41886        -0.98024
| 60>    C       -0.48687        20.94038         0.00270
| 61>    C        0.70038        21.60522        -0.33644
| 62>    C        1.69064        22.17968         0.45362
| 63>    C        1.70866        22.22446         1.94601
| 64>    C        2.92170        21.47263         2.52344
| 65>    N        2.62283        21.03723         3.87528
| 66>    C        1.63358        23.67603         2.45076
| 67>    N        1.41476        23.71531         3.89044
| 68>    C        2.68372        22.71304        -0.44385
| 69>    C        3.84894        23.35606        -0.22579
| 70>    C        4.70027        23.84954        -1.34499
| 71>    C        4.21297        23.47747        -2.70919
| 72>    C        3.05420        22.82854        -2.91608
| 73>    C        2.24714        22.43179        -1.82096
| 74>    C        1.04713        21.76106        -1.74366
| 75>    C        0.17637        21.24321        -2.73294
| 76>    C       -0.95369        20.59596        -2.36164
| 77>    C        4.76265        25.36036        -1.24829
| 78>    C        5.86593        26.04994        -1.03383
| 79>    H      -12.43624         1.97618        -9.06658
| 80>    H      -13.20328        -1.86828       -10.19628
| 81>    H      -14.50243        -1.59109        -7.82124
| 82>    H      -14.75628         0.45618        -6.10869
| 83>    H      -13.23467         2.95531        -6.99872
| 84>    H      -13.93030         4.01441        -5.02438
| 85>    H      -15.50038         1.47364        -4.36595
| 86>    H      -16.19851         2.48477        -2.39035
| 87>    H      -16.33933         4.18730        -0.61494
| 88>    H      -15.46626         6.51627         0.04765
| 89>    H      -14.24502         8.59430         0.19262
| 90>    H      -12.75865        10.65503        -0.26308
| 91>    H      -11.12982        11.61254        -2.06605
| 92>    H      -11.16630         9.96850        -4.65692
| 93>    H       -9.71351        11.01490        -6.53807
| 94>    H       -7.97679        12.88727        -6.91710
| 95>    H       -6.45148        14.71976        -6.68314
| 96>    H       -4.89868        16.56836        -5.77687
| 97>    H       -4.28823        17.76558        -3.59000
| 98>    H       -8.27984        15.64065         0.49364
| 99>    H       -5.68156        18.34101         3.06522
|100>    H       -3.12770        18.93823        -2.45215
|101>    H       -2.70731        19.72071         0.47366
|102>    H       -0.75409        20.81135         1.04201
|103>    H        0.82269        21.69923         2.31639
|104>    H        3.81518        22.11519         2.45930
|105>    H        3.10809        20.58067         1.91536
|106>    H        2.40093        21.85562         4.43615
|107>    H        3.42845        20.57616         4.28452
|108>    H        0.84260        24.19574         1.88257
|109>    H        2.57620        24.19103         2.24829
|110>    H        0.51599        23.29769         4.11235
|111>    H        1.39698        24.67630         4.21595
|112>    H        4.20912        23.57644         0.76868
|113>    H        5.72113        23.46693        -1.20668
|114>    H        4.83884        23.78916        -3.53208
|115>    H        2.72783        22.58862        -3.91815
|116>    H        0.42502        21.37007        -3.77699
|117>    H       -1.61752        20.20880        -3.11883
|118>    H        3.80932        25.85357        -1.37887
|119>    H        6.82360        25.57258        -0.90300
|120>    H        5.85972        27.12563        -0.98281
|121> *
|122>
|123>                          ****END OF INPUT****

CARTESIAN COORDINATES (ANGSTROEM)
---------------------------------
  C    -12.874900    1.007620   -8.934580
  O    -12.647000    0.100640   -9.894970
  C    -13.282010   -1.029340   -9.533510
  C    -13.920000   -0.864020   -8.349070
  C    -13.662130    0.481040   -7.934730
  C    -14.140840    1.090420   -6.730420
  C    -13.862570    2.361750   -6.347500
  C    -14.296310    3.007880   -5.162850
  C    -15.119570    2.473500   -4.205330
  C    -15.535950    3.075590   -3.012310
  C    -15.219430    4.311350   -2.473520
  C    -15.680470    4.779210   -1.226100
  C    -15.214940    6.018900   -0.871970
  C    -14.368560    6.596180   -1.826320
  S    -14.179740    5.525330   -3.192790
  C    -13.708980    7.825660   -1.766410
  C    -13.693170    8.748220   -0.717150
  C    -12.898790    9.847340   -0.959980
  C    -12.274260    9.836430   -2.208250
  S    -12.713710    8.389620   -3.086560
  C    -11.396710   10.795760   -2.725120
  C    -10.863890   10.763000   -3.985670
  C     -9.937890   11.682450   -4.491010
  C     -9.410830   11.718010   -5.782040
  C     -8.484090   12.718570   -5.984370
  C     -8.244440   13.497450   -4.851680
  S     -9.238340   12.959080   -3.521580
  C     -7.326760   14.543760   -4.700140
  C     -6.461730   15.067670   -5.665760
  C     -5.634580   16.053430   -5.184680
  C     -5.815770   16.338100   -3.822310
  S     -7.089730   15.339770   -3.165370
  C     -5.071550   17.239050   -3.072280
  C     -5.259470   17.476450   -1.711330
  C     -4.453270   18.304070   -0.919630
  O     -4.694020   18.472590    0.430640
  C     -5.734380   17.775930    0.953510
  C     -6.551910   16.929100    0.151280
  C     -7.537530   16.320320    0.855380
  S     -7.483250   16.775370    2.517580
  C     -6.117540   17.794300    2.255890
  O     -6.331230   16.783120   -1.179310
  C     -3.326390   19.005220   -1.396690
  C     -2.487780   19.714720   -0.585610
  C     -1.313130   20.418860   -0.980240
  C     -0.486870   20.940380    0.002700
  C      0.700380   21.605220   -0.336440
  C      1.690640   22.179680    0.453620
  C      1.708660   22.224460    1.946010
  C      2.921700   21.472630    2.523440
  N      2.622830   21.037230    3.875280
  C      1.633580   23.676030    2.450760
  N      1.414760   23.715310    3.890440
  C      2.683720   22.713040   -0.443850
  C      3.848940   23.356060   -0.225790
  C      4.700270   23.849540   -1.344990
  C      4.212970   23.477470   -2.709190
  C      3.054200   22.828540   -2.916080
  C      2.247140   22.431790   -1.820960
  C      1.047130   21.761060   -1.743660
  C      0.176370   21.243210   -2.732940
  C     -0.953690   20.595960   -2.361640
  C      4.762650   25.360360   -1.248290
  C      5.865930   26.049940   -1.033830
  H    -12.436240    1.976180   -9.066580
  H    -13.203280   -1.868280  -10.196280
  H    -14.502430   -1.591090   -7.821240
  H    -14.756280    0.456180   -6.108690
  H    -13.234670    2.955310   -6.998720
  H    -13.930300    4.014410   -5.024380
  H    -15.500380    1.473640   -4.365950
  H    -16.198510    2.484770   -2.390350
  H    -16.339330    4.187300   -0.614940
  H    -15.466260    6.516270    0.047650
  H    -14.245020    8.594300    0.192620
  H    -12.758650   10.655030   -0.263080
  H    -11.129820   11.612540   -2.066050
  H    -11.166300    9.968500   -4.656920
  H     -9.713510   11.014900   -6.538070
  H     -7.976790   12.887270   -6.917100
  H     -6.451480   14.719760   -6.683140
  H     -4.898680   16.568360   -5.776870
  H     -4.288230   17.765580   -3.590000
  H     -8.279840   15.640650    0.493640
  H     -5.681560   18.341010    3.065220
  H     -3.127700   18.938230   -2.452150
  H     -2.707310   19.720710    0.473660
  H     -0.754090   20.811350    1.042010
  H      0.822690   21.699230    2.316390
  H      3.815180   22.115190    2.459300
  H      3.108090   20.580670    1.915360
  H      2.400930   21.855620    4.436150
  H      3.428450   20.576160    4.284520
  H      0.842600   24.195740    1.882570
  H      2.576200   24.191030    2.248290
  H      0.515990   23.297690    4.112350
  H      1.396980   24.676300    4.215950
  H      4.209120   23.576440    0.768680
  H      5.721130   23.466930   -1.206680
  H      4.838840   23.789160   -3.532080
  H      2.727830   22.588620   -3.918150
  H      0.425020   21.370070   -3.776990
  H     -1.617520   20.208800   -3.118830
  H      3.809320   25.853570   -1.378870
  H      6.823600   25.572580   -0.903000
  H      5.859720   27.125630   -0.982810

 Total Charge           Charge          ....    0
 Multiplicity           Mult            ....    1
 Number of Electrons    NEL             ....  484
 Basis Dimension        Dim             .... 1126

ORBITAL ENERGIES
----------------

  NO   OCC          E(Eh)            E(eV)
   0   2.0000     -88.950951     -2420.4784
   1   2.0000     -88.938363     -2420.1359
   2   2.0000     -88.938189     -2420.1312
   3   2.0000     -88.937760     -2420.1195
   4   2.0000     -88.935699     -2420.0634
   5   2.0000     -19.278393      -524.5918
   6   2.0000     -19.270868      -524.3870
   7   2.0000     -19.268585      -524.3249
   8   2.0000     -14.385447      -391.4479
   9   2.0000     -14.351130      -390.5141
  10   2.0000     -10.340802      -281.3875
  11   2.0000     -10.339153      -281.3427
  12   2.0000     -10.334648      -281.2201
  13   2.0000     -10.334122      -281.2058
  14   2.0000     -10.307994      -280.4948
  15   2.0000     -10.307430      -280.4794
  16   2.0000     -10.300865      -280.3008
  17   2.0000     -10.300598      -280.2935
  18   2.0000     -10.300250      -280.2840
  19   2.0000     -10.298293      -280.2308
  20   2.0000     -10.296380      -280.1788
  21   2.0000     -10.295920      -280.1662
  22   2.0000     -10.295496      -280.1547
  23   2.0000     -10.293660      -280.1047
  24   2.0000     -10.293072      -280.0887
  25   2.0000     -10.287285      -279.9313
  26   2.0000     -10.287034      -279.9244
  27   2.0000     -10.286183      -279.9013
  28   2.0000     -10.280802      -279.7549
  29   2.0000     -10.278480      -279.6917
  30   2.0000     -10.278409      -279.6897
  31   2.0000     -10.276181      -279.6291
  32   2.0000     -10.275090      -279.5994
  33   2.0000     -10.274543      -279.5845
  34   2.0000     -10.274092      -279.5723
  35   2.0000     -10.273210      -279.5483
  36   2.0000     -10.272750      -279.5357
  37   2.0000     -10.272311      -279.5238
  38   2.0000     -10.272212      -279.5211
  39   2.0000     -10.271163      -279.4926
  40   2.0000     -10.271095      -279.4907
  41   2.0000     -10.270477      -279.4739
  42   2.0000     -10.268855      -279.4298
  43   2.0000     -10.267257      -279.3863
  44   2.0000     -10.267162      -279.3837
  45   2.0000     -10.266621      -279.3690
  46   2.0000     -10.266097      -279.3547
  47   2.0000     -10.266002      -279.3521
  48   2.0000     -10.264370      -279.3077
  49   2.0000     -10.264010      -279.2979
  50   2.0000     -10.263730      -279.2903
  51   2.0000     -10.262950      -279.2691
  52   2.0000     -10.262133      -279.2468
  53   2.0000     -10.260211      -279.1945
  54   2.0000     -10.260060      -279.1904
  55   2.0000     -10.259487      -279.1748
  56   2.0000     -10.259402      -279.1725
  57   2.0000     -10.259178      -279.1664
  58   2.0000     -10.256596      -279.0962
  59   2.0000     -10.255802      -279.0746
  60   2.0000     -10.255705      -279.0719
  61   2.0000     -10.255024      -279.0534
  62   2.0000     -10.253798      -279.0200
  63   2.0000     -10.251908      -278.9686
  64   2.0000      -8.046714      -218.9622
  65   2.0000      -8.034672      -218.6345
  66   2.0000      -8.034081      -218.6185
  67   2.0000      -8.033752      -218.6095
  68   2.0000      -8.031164      -218.5391
  69   2.0000      -6.016253      -163.7106
  70   2.0000      -6.012045      -163.5961
  71   2.0000      -6.008381      -163.4964
  72   2.0000      -6.004224      -163.3832
  73   2.0000      -6.003670      -163.3682
  74   2.0000      -6.003394      -163.3607
  75   2.0000      -6.000923      -163.2934
  76   2.0000      -6.000233      -163.2746
  77   2.0000      -5.999626      -163.2581
  78   2.0000      -5.999314      -163.2496
  79   2.0000      -5.996600      -163.1758
  80   2.0000      -5.995942      -163.1579
  81   2.0000      -5.995321      -163.1410
  82   2.0000      -5.995050      -163.1336
  83   2.0000      -5.992312      -163.0591
  84   2.0000      -1.196884       -32.5689
  85   2.0000      -1.196123       -32.5482
  86   2.0000      -1.160400       -31.5761
  87   2.0000      -0.987016       -26.8581
  88   2.0000      -0.984959       -26.8021
  89   2.0000      -0.979737       -26.6600
  90   2.0000      -0.976427       -26.5699
  91   2.0000      -0.965651       -26.2767
  92   2.0000      -0.965500       -26.2726
  93   2.0000      -0.962159       -26.1817
  94   2.0000      -0.937339       -25.5063
  95   2.0000      -0.932115       -25.3641
  96   2.0000      -0.915920       -24.9235
  97   2.0000      -0.909011       -24.7354
  98   2.0000      -0.903727       -24.5917
  99   2.0000      -0.895431       -24.3659
 100   2.0000      -0.886125       -24.1127
 101   2.0000      -0.876287       -23.8450
 102   2.0000      -0.868389       -23.6301
 103   2.0000      -0.860379       -23.4121
 104   2.0000      -0.850932       -23.1550
 105   2.0000      -0.843959       -22.9653
 106   2.0000      -0.837732       -22.7958
 107   2.0000      -0.830556       -22.6006
 108   2.0000      -0.829353       -22.5678
 109   2.0000      -0.826221       -22.4826
 110   2.0000      -0.824468       -22.4349
 111   2.0000      -0.820507       -22.3271
 112   2.0000      -0.815784       -22.1986
 113   2.0000      -0.813252       -22.1297
 114   2.0000      -0.811235       -22.0748
 115   2.0000      -0.805974       -21.9317
 116   2.0000      -0.797348       -21.6969
 117   2.0000      -0.784693       -21.3526
 118   2.0000      -0.774244       -21.0683
 119   2.0000      -0.756793       -20.5934
 120   2.0000      -0.747415       -20.3382
 121   2.0000      -0.743341       -20.2273
 122   2.0000      -0.728062       -19.8116
 123   2.0000      -0.715825       -19.4786
 124   2.0000      -0.714000       -19.4289
 125   2.0000      -0.702014       -19.1028
 126   2.0000      -0.689867       -18.7722
 127   2.0000      -0.682758       -18.5788
 128   2.0000      -0.678479       -18.4624
 129   2.0000      -0.674505       -18.3542
 130   2.0000      -0.668365       -18.1871
 131   2.0000      -0.665991       -18.1225
 132   2.0000      -0.664472       -18.0812
 133   2.0000      -0.662938       -18.0395
 134   2.0000      -0.651533       -17.7291
 135   2.0000      -0.650107       -17.6903
 136   2.0000      -0.647138       -17.6095
 137   2.0000      -0.634244       -17.2586
 138   2.0000      -0.632184       -17.2026
 139   2.0000      -0.627113       -17.0646
 140   2.0000      -0.623096       -16.9553
 141   2.0000      -0.620261       -16.8782
 142   2.0000      -0.614282       -16.7155
 143   2.0000      -0.613097       -16.6832
 144   2.0000      -0.600860       -16.3502
 145   2.0000      -0.596940       -16.2436
 146   2.0000      -0.594481       -16.1767
 147   2.0000      -0.589544       -16.0423
 148   2.0000      -0.584990       -15.9184
 149   2.0000      -0.582885       -15.8611
 150   2.0000      -0.574461       -15.6319
 151   2.0000      -0.569947       -15.5091
 152   2.0000      -0.565928       -15.3997
 153   2.0000      -0.563026       -15.3207
 154   2.0000      -0.560897       -15.2628
 155   2.0000      -0.555353       -15.1119
 156   2.0000      -0.550589       -14.9823
 157   2.0000      -0.550276       -14.9738
 158   2.0000      -0.543426       -14.7874
 159   2.0000      -0.541629       -14.7385
 160   2.0000      -0.535898       -14.5825
 161   2.0000      -0.535083       -14.5603
 162   2.0000      -0.528950       -14.3935
 163   2.0000      -0.526897       -14.3376
 164   2.0000      -0.521888       -14.2013
 165   2.0000      -0.518060       -14.0971
 166   2.0000      -0.514883       -14.0107
 167   2.0000      -0.512605       -13.9487
 168   2.0000      -0.510362       -13.8877
 169   2.0000      -0.508564       -13.8387
 170   2.0000      -0.508202       -13.8289
 171   2.0000      -0.504991       -13.7415
 172   2.0000      -0.502431       -13.6719
 173   2.0000      -0.499453       -13.5908
 174   2.0000      -0.497635       -13.5413
 175   2.0000      -0.494985       -13.4692
 176   2.0000      -0.489372       -13.3165
 177   2.0000      -0.489247       -13.3131
 178   2.0000      -0.487948       -13.2778
 179   2.0000      -0.485411       -13.2087
 180   2.0000      -0.483861       -13.1665
 181   2.0000      -0.482228       -13.1221
 182   2.0000      -0.481332       -13.0977
 183   2.0000      -0.478772       -13.0280
 184   2.0000      -0.474949       -12.9240
 185   2.0000      -0.473384       -12.8814
 186   2.0000      -0.469470       -12.7749
 187   2.0000      -0.466116       -12.6837
 188   2.0000      -0.464135       -12.6297
 189   2.0000      -0.463519       -12.6130
 190   2.0000      -0.462478       -12.5847
 191   2.0000      -0.458292       -12.4708
 192   2.0000      -0.455768       -12.4021
 193   2.0000      -0.454939       -12.3795
 194   2.0000      -0.451454       -12.2847
 195   2.0000      -0.447690       -12.1823
 196   2.0000      -0.447373       -12.1736
 197   2.0000      -0.439057       -11.9473
 198   2.0000      -0.438060       -11.9202
 199   2.0000      -0.436165       -11.8686
 200   2.0000      -0.434331       -11.8187
 201   2.0000      -0.430412       -11.7121
 202   2.0000      -0.427879       -11.6432
 203   2.0000      -0.425618       -11.5817
 204   2.0000      -0.425028       -11.5656
 205   2.0000      -0.424718       -11.5572
 206   2.0000      -0.419870       -11.4252
 207   2.0000      -0.415978       -11.3193
 208   2.0000      -0.414382       -11.2759
 209   2.0000      -0.412937       -11.2366
 210   2.0000      -0.406065       -11.0496
 211   2.0000      -0.404866       -11.0170
 212   2.0000      -0.401208       -10.9174
 213   2.0000      -0.400291       -10.8925
 214   2.0000      -0.400125       -10.8879
 215   2.0000      -0.388215       -10.5639
 216   2.0000      -0.385178       -10.4812
 217   2.0000      -0.384290       -10.4571
 218   2.0000      -0.381076       -10.3696
 219   2.0000      -0.378160       -10.2903
 220   2.0000      -0.374336       -10.1862
 221   2.0000      -0.363393        -9.8884
 222   2.0000      -0.360384        -9.8066
 223   2.0000      -0.343458        -9.3460
 224   2.0000      -0.340722        -9.2715
 225   2.0000      -0.328605        -8.9418
 226   2.0000      -0.324977        -8.8431
 227   2.0000      -0.324213        -8.8223
 228   2.0000      -0.317916        -8.6509
 229   2.0000      -0.313804        -8.5390
 230   2.0000      -0.311934        -8.4882
 231   2.0000      -0.307819        -8.3762
 232   2.0000      -0.306785        -8.3480
 233   2.0000      -0.300247        -8.1701
 234   2.0000      -0.290795        -7.9129
 235   2.0000      -0.281760        -7.6671
 236   2.0000      -0.279077        -7.5941
 237   2.0000      -0.268583        -7.3085
 238   2.0000      -0.246817        -6.7162
 239   2.0000      -0.223013        -6.0685
 240   2.0000      -0.209114        -5.6903
 241   2.0000      -0.167228        -4.5505
 242   0.0000      -0.101016        -2.7488
 243   0.0000      -0.062923        -1.7122
 244   0.0000      -0.045217        -1.2304
 245   0.0000      -0.014749        -0.4013
 246   0.0000       0.008008         0.2179

MULLIKEN ATOMIC CHARGES
-----------------------
   0 C :    0.063173
   1 O :   -0.180395
   2 C :    0.130371
   3 C :   -0.043752
   4 C :    0.043469
   5 C :    0.037723
   6 C :    0.008136
   7 C :    0.003154
   8 C :    0.021613
   9 C :   -0.001700
  10 C :   -0.024872
  11 C :    0.024700
  12 C :    0.020760
  13 C :   -0.035732
  14 S :    0.062420
  15 C :   -0.038287
  16 C :    0.010716
  17 C :    0.025980
  18 C :   -0.033629
  19 S :    0.081438
  20 C :   -0.001780
  21 C :   -0.007295
  22 C :   -0.028577
  23 C :    0.021075
  24 C :    0.012264
  25 C :   -0.045131
  26 S :    0.082802
  27 C :   -0.039096
  28 C :    0.021834
  29 C :    0.013477
  30 C :   -0.007277
  31 S :    0.115785
  32 C :   -0.081502
  33 C :    0.184626
  34 C :    0.183229
  35 O :   -0.250423
  36 C :    0.219411
  37 C :    0.229673
  38 C :   -0.173313
  39 S :    0.105204
  40 C :   -0.173935
  41 O :   -0.280577
  42 C :   -0.063740
  43 C :   -0.000581
  44 C :    0.130835
  45 C :   -0.116130
  46 C :    0.068416
  47 C :   -0.027179
  48 C :   -0.053337
  49 C :    0.153305
  50 N :   -0.223927
  51 C :    0.140020
  52 N :   -0.217686
  53 C :    0.108959
  54 C :   -0.142244
  55 C :    0.120756
  56 C :   -0.043142
  57 C :    0.020943
  58 C :    0.001925
  59 C :    0.034668
  60 C :   -0.001297
  61 C :   -0.003977
  62 C :   -0.040505
  63 C :   -0.020097
  64 H :    0.002760
  65 H :    0.007021
  66 H :   -0.016452
  67 H :   -0.026205
  68 H :   -0.026550
  69 H :   -0.010231
  70 H :   -0.023846
  71 H :   -0.020967
  72 H :   -0.017139
  73 H :   -0.019407
  74 H :   -0.018440
  75 H :   -0.016342
  76 H :   -0.010745
  77 H :   -0.008412
  78 H :   -0.016502
  79 H :   -0.018816
  80 H :   -0.019427
  81 H :   -0.017640
  82 H :   -0.017852
  83 H :    0.026704
  84 H :    0.022799
  85 H :   -0.014538
  86 H :   -0.009111
  87 H :   -0.040506
  88 H :   -0.028880
  89 H :   -0.034144
  90 H :   -0.000905
  91 H :    0.078743
  92 H :    0.080054
  93 H :   -0.003156
  94 H :   -0.018126
  95 H :    0.101201
  96 H :    0.095527
  97 H :   -0.005631
  98 H :    0.021317
  99 H :   -0.011725
 100 H :   -0.038220
 101 H :   -0.041332
 102 H :   -0.040025
 103 H :    0.011868
 104 H :    0.015402
 105 H :    0.026129
Sum of atomic charges:   -0.0000000

LOEWDIN ATOMIC CHARGES
----------------------
   0 C :    0.030882
   1 O :    0.024142
   2 C :    0.027705
   3 C :   -0.071554
   4 C :   -0.077261
   5 C :   -0.012626
   6 C :   -0.032700
   7 C :   -0.037774
   8 C :   -0.035665
   9 C :   -0.060644
  10 C :   -0.149562
  11 C :   -0.037857
  12 C :   -0.045678
  13 C :   -0.183809
  14 S :    0.395079
  15 C :   -0.177183
  16 C :   -0.043948
  17 C :   -0.041033
  18 C :   -0.154007
  19 S :    0.384491
  20 C :   -0.058563
  21 C :   -0.062514
  22 C :   -0.150765
  23 C :   -0.044019
  24 C :   -0.041571
  25 C :   -0.179991
  26 S :    0.385115
  27 C :   -0.187675
  28 C :   -0.037281
  29 C :   -0.043734
  30 C :   -0.146305
  31 S :    0.406431
  32 C :   -0.073764
  33 C :    0.021745
  34 C :    0.030702
  35 O :   -0.046197
  36 C :   -0.008385
  37 C :   -0.007534
  38 C :   -0.209736
  39 S :    0.433636
  40 C :   -0.212830
  41 O :   -0.059257
  42 C :   -0.052415
  43 C :   -0.005201
  44 C :   -0.027902
  45 C :   -0.011420
  46 C :   -0.020219
  47 C :   -0.034169
  48 C :   -0.039224
  49 C :    0.030194
  50 N :   -0.131086
  51 C :    0.025784
  52 N :   -0.104977
  53 C :   -0.017323
  54 C :    0.058725
  55 C :   -0.029994
  56 C :   -0.032257
  57 C :   -0.018651
  58 C :   -0.033770
  59 C :   -0.032123
  60 C :   -0.008734
  61 C :   -0.027084
  62 C :   -0.002248
  63 C :   -0.058237
  64 H :    0.018523
  65 H :    0.020686
  66 H :    0.027908
  67 H :    0.024747
  68 H :    0.025592
  69 H :    0.009979
  70 H :    0.025805
  71 H :    0.032448
  72 H :    0.030867
  73 H :    0.029690
  74 H :    0.029858
  75 H :    0.031932
  76 H :    0.027435
  77 H :    0.027543
  78 H :    0.031993
  79 H :    0.029718
  80 H :    0.029326
  81 H :    0.030230
  82 H :    0.036765
  83 H :    0.030107
  84 H :    0.028316
  85 H :    0.027776
  86 H :    0.030042
  87 H :    0.024267
  88 H :    0.024232
  89 H :   -0.006675
  90 H :    0.017640
  91 H :    0.034202
  92 H :    0.048800
  93 H :    0.004121
  94 H :    0.012268
  95 H :    0.056328
  96 H :    0.056845
  97 H :    0.025114
  98 H :    0.051458
  99 H :    0.024612
 100 H :    0.028622
 101 H :    0.025704
 102 H :    0.021755
 103 H :    0.029566
 104 H :    0.021279
 105 H :    0.026398

  Mayer bond orders larger than 0.100000
B(  0-C ,  1-O ) :   1.1703 B(  0-C ,  4-C ) :   1.4936 B(  0-C , 64-H ) :   1.0027
B(  1-O ,  2-C ) :   1.1455 B(  2-C ,  3-C ) :   1.5754 B(  2-C , 65-H ) :   1.0019
B(  3-C ,  4-C ) :   1.2052 B(  3-C , 66-H ) :   1.0075 B(  4-C ,  5-C ) :   1.1062
B(  5-C ,  6-C ) :   1.6841 B(  5-C , 67-H ) :   0.9670 B(  6-C ,  7-C ) :   1.1940
B(  6-C , 68-H ) :   0.9706 B(  7-C ,  8-C ) :   1.5738 B(  7-C , 69-H ) :   0.9538
B(  8-C ,  9-C ) :   1.2615 B(  8-C , 70-H ) :   0.9599 B(  9-C , 10-C ) :   1.4985
B(  9-C , 71-H ) :   0.9582 B( 10-C , 11-C ) :   1.1977 B( 10-C , 14-S ) :   1.0494
B( 11-C , 12-C ) :   1.5194 B( 11-C , 72-H ) :   0.9990 B( 12-C , 13-C ) :   1.2527
B( 12-C , 73-H ) :   0.9943 B( 13-C , 14-S ) :   1.0534 B( 13-C , 15-C ) :   1.3921
B( 15-C , 16-C ) :   1.2765 B( 15-C , 19-S ) :   1.0647 B( 16-C , 17-C ) :   1.4740
B( 16-C , 74-H ) :   0.9949 B( 17-C , 18-C ) :   1.2513 B( 17-C , 75-H ) :   0.9999
B( 18-C , 19-S ) :   1.0578 B( 18-C , 20-C ) :   1.4116 B( 20-C , 21-C ) :   1.3207
B( 20-C , 76-H ) :   0.9725 B( 21-C , 22-C ) :   1.4083 B( 21-C , 77-H ) :   0.9716
B( 22-C , 23-C ) :   1.2568 B( 22-C , 26-S ) :   1.0597 B( 23-C , 24-C ) :   1.4640
B( 23-C , 78-H ) :   1.0002 B( 24-C , 25-C ) :   1.2896 B( 24-C , 79-H ) :   0.9948
B( 25-C , 26-S ) :   1.0649 B( 25-C , 27-C ) :   1.3759 B( 27-C , 28-C ) :   1.2647
B( 27-C , 31-S ) :   1.0444 B( 28-C , 29-C ) :   1.5082 B( 28-C , 80-H ) :   0.9955
B( 29-C , 30-C ) :   1.2021 B( 29-C , 81-H ) :   1.0007 B( 30-C , 31-S ) :   1.0557
B( 30-C , 32-C ) :   1.4833 B( 32-C , 33-C ) :   1.2680 B( 32-C , 82-H ) :   0.9556
B( 33-C , 34-C ) :   1.3471 B( 33-C , 41-O ) :   1.0292 B( 34-C , 35-O ) :   1.0584
B( 34-C , 42-C ) :   1.2316 B( 35-O , 36-C ) :   1.0593 B( 36-C , 37-C ) :   1.2100
B( 36-C , 40-C ) :   1.5666 B( 37-C , 38-C ) :   1.5705 B( 37-C , 41-O ) :   1.0338
B( 38-C , 39-S ) :   1.1398 B( 38-C , 83-H ) :   0.9730 B( 39-S , 40-C ) :   1.1406
B( 40-C , 84-H ) :   0.9729 B( 42-C , 43-C ) :   1.5902 B( 42-C , 85-H ) :   0.9469
B( 43-C , 44-C ) :   1.0894 B( 43-C , 86-H ) :   0.9904 B( 44-C , 45-C ) :   1.4757
B( 44-C , 61-C ) :   1.1124 B( 45-C , 46-C ) :   1.1322 B( 45-C , 87-H ) :   1.0042
B( 46-C , 47-C ) :   1.4836 B( 46-C , 59-C ) :   1.1098 B( 47-C , 48-C ) :   1.0342
B( 47-C , 53-C ) :   1.0900 B( 48-C , 49-C ) :   1.0295 B( 48-C , 51-C ) :   1.0445
B( 48-C , 88-H ) :   0.8773 B( 49-C , 50-N ) :   1.1082 B( 49-C , 89-H ) :   0.9239
B( 49-C , 90-H ) :   0.9462 B( 50-N , 91-H ) :   0.9427 B( 50-N , 92-H ) :   0.9669
B( 51-C , 52-N ) :   1.0783 B( 51-C , 93-H ) :   0.9472 B( 51-C , 94-H ) :   0.9314
B( 52-N , 91-H ) :   0.1013 B( 52-N , 95-H ) :   0.9628 B( 52-N , 96-H ) :   0.9673
B( 53-C , 54-C ) :   1.6407 B( 53-C , 58-C ) :   1.0453 B( 54-C , 55-C ) :   0.9767
B( 54-C , 97-H ) :   0.9670 B( 55-C , 56-C ) :   0.9903 B( 55-C , 62-C ) :   0.9617
B( 55-C , 98-H ) :   0.8763 B( 56-C , 57-C ) :   1.7206 B( 56-C , 99-H ) :   0.9732
B( 57-C , 58-C ) :   1.1277 B( 57-C ,100-H ) :   0.9898 B( 58-C , 59-C ) :   1.4542
B( 59-C , 60-C ) :   1.1303 B( 60-C , 61-C ) :   1.6302 B( 60-C ,101-H ) :   0.9892
B( 61-C ,102-H ) :   0.9794 B( 62-C , 63-C ) :   2.0037 B( 62-C ,103-H ) :   0.9645
B( 63-C ,104-H ) :   0.9601 B( 63-C ,105-H ) :   0.9534

-----------------------------------------------------------------------------
         ABSORPTION SPECTRUM VIA TRANSITION ELECTRIC DIPOLE MOMENTS
-----------------------------------------------------------------------------
State   Energy  Wavelength   fosc         T2         TX        TY        TZ
        (cm-1)    (nm)                  (au**2)     (au)      (au)      (au)
-----------------------------------------------------------------------------
   0    3648.8   2740.6   0.615914356  55.57090  -4.46177  -5.89387  -0.96220
   1   11121.8    899.1   0.000860118   0.02546   0.12233   0.07831  -0.06604
   2   13427.5    744.7   0.146803822   3.59929  -1.46147  -0.18726  -1.19512
   3   14776.4    676.8   0.019266241   0.42924   0.55351   0.26143  -0.23349
   4   15921.8    628.1   0.164266628   3.39650  -1.80519   0.12115   0.35085
   5   18776.2    532.6   0.127301609   2.23204   0.35913   1.19473   0.82200
   6   18889.5    529.4   0.053312708   0.92915   0.68889   0.49236  -0.46061
   7   22449.3    445.4   0.503949941   7.39027  -0.08743   1.23024   2.42263
   8   23426.7    426.9   0.007820867   0.10991  -0.29295  -0.06733  -0.13984
   9   23634.0    423.1   0.407082099   5.67049  -0.29732  -1.13664  -2.07127
  10   25392.4    393.8   0.074204071   0.96205   0.68050   0.15653  -0.68882
  11   26703.3    374.5   0.174927316   2.15659  -0.41886  -0.77356  -1.17591
  12   27520.2    363.4   0.091573870   1.09546  -0.98182  -0.22170   0.28695
  13   27885.3    358.6   0.014399522   0.17000   0.08418   0.10243   0.39041
  14   28030.0    356.8   0.290622634   3.41336   1.48801   1.09506  -0.00521
  15   28438.7    351.6   0.667269308   7.72445  -1.71319  -0.13744   2.18416
  16   29702.1    336.7   0.003297503   0.03655  -0.17568  -0.03156   0.06848
  17   29883.2    334.6   0.005347924   0.05892  -0.05146  -0.05148   0.23156
  18   29947.9    333.9   0.009972030   0.10962   0.13289   0.18148   0.24295
  19   30143.7    331.7   0.032203335   0.35171   0.25346   0.22141   0.48831
  20   30325.9    329.8   0.023712810   0.25742  -0.12318  -0.19598  -0.45149
  21   30674.5    326.0   0.004377113   0.04698  -0.14808  -0.01838   0.15720
  22   31481.4    317.6   0.005262571   0.05503  -0.09900  -0.07169  -0.20023
  23   31583.3    316.6   0.196429799   2.04751  -0.95748  -0.24987   1.03359
  24   32537.3    307.3   0.024287398   0.24574  -0.39958  -0.02463  -0.29235
  25   32791.1    305.0   0.022004967   0.22092  -0.31658  -0.16018   0.30830
  26   33102.1    302.1   0.032367335   0.32190  -0.44338  -0.35237   0.03391
  27   33167.7    301.5   0.041015870   0.40711   0.44152   0.40256  -0.22387
  28   33330.4    300.0   0.002362872   0.02334   0.12974   0.05195  -0.06171
  29   33585.5    297.7   0.038938206   0.38168  -0.45878  -0.06371   0.40883
  30   33789.2    296.0   0.000811734   0.00791  -0.03525   0.01937  -0.07932
  31   34093.0    293.3   0.003594548   0.03471  -0.01445   0.12259   0.13954
  32   34487.8    290.0   0.009280748   0.08859  -0.00791   0.06742   0.28980
  33   34869.9    286.8   0.171597036   1.62007   1.11380   0.61265  -0.06480
  34   35242.9    283.7   0.007915616   0.07394   0.22167   0.12057   0.10132
  35   35650.0    280.5   0.106305035   0.98168  -0.85054  -0.50249   0.07585
  36   36210.5    276.2   0.132343299   1.20321   0.90247   0.59648  -0.18161
  37   36791.5    271.8   0.112324421   1.00508   0.79157   0.49286  -0.36823
  38   37100.8    269.5   0.176657388   1.56756   1.02761   0.71485   0.02361
  39   37815.9    264.4   0.025542506   0.22236  -0.41586  -0.18153   0.12833
  40   38411.7    260.3   0.052018800   0.44583   0.44360   0.26408  -0.42346
  41   38753.9    258.0   0.002968251   0.02522  -0.02794   0.08751   0.12953
  42   39192.6    255.2   0.000924629   0.00777  -0.05778  -0.02428  -0.06196
  43   39277.0    254.6   0.142698564   1.19607  -0.94035  -0.55784  -0.02500
  44   39480.6    253.3   0.022441908   0.18713  -0.35511  -0.17159   0.17773
  45   39549.9    252.8   0.020562879   0.17116   0.19259  -0.17602  -0.32107
  46   39868.0    250.8   0.019315812   0.15950   0.06825   0.02216   0.39288
  47   39921.2    250.5   0.003838442   0.03165  -0.04618  -0.07158   0.15619

FINAL SINGLE POINT ENERGY     -4405.204853112493

DIPOLE MOMENT
-------------
                                X             Y             Z
Electronic contribution:    -74.89398     -52.02822     -17.24593
Nuclear contribution   :     76.03495      53.63399      17.56844
                        -----------------------------------------
Total Dipole Moment    :      1.14097       1.60577       0.32251
                        -----------------------------------------
Magnitude (a.u.)       :      1.99608
Magnitude (Debye)      :      5.07363

Rotational constants in cm-1:     0.002094     0.000177     0.000169
Rotational constants in MHz :    62.775789     5.318807     5.065534

                             ****ORCA TERMINATED NORMALLY****
TOTAL RUN TIME: 0 days 0 hours 10 minutes 43 seconds 264 msec
