                         Program Version 4.2.0 -  RELEASE  -
|  1> # ORCA input file
|  2> # SCF done       -144.423376063450          0.000747765937
|  3> ! CAM-B3LYP def2-SVP def2/J RIJCOSX Grid4 TightSCF
|  4> %maxcore 5000
|  5> %tddft
|  6>     Mode sTDDFT
|  7>     Ethresh 5.0
|  8>     maxcore 5000
|  9> end
| 10>
| 11> %pal
| 12>   nprocs 6
| 13>   end
| 14> * xyz 0 1
| 15>    C       -2.58062         2.21123        -1.12683
| 16>    C       -2.37984         0.84145        -0.82748
| 17>    C       -2.20120         0.45945         0.48303
| 18>    C       -2.20036         1.41678         1.51131
| 19>    C       -2.38908         2.79286         1.19511
| 20>    C       -2.58362         3.16393        -0.15097
| 21>    N       -2.38333         3.73147         2.16265
| 22>    C       -2.20541         3.32065         3.39034
| 23>    C       -2.02602         1.95856         3.70630
| 24>    N       -2.02095         1.02561         2.79296
| 25>    C       -2.39101        -0.14017        -1.91652
| 26>    C       -1.39916        -1.16398        -2.00825
| 27>    C       -0.30231        -1.37267        -1.20827
| 28>    S        0.63277        -2.70403        -1.72815
| 29>    C       -0.41761        -3.01079        -3.03755
| 30>    C       -1.46156        -2.11354        -3.08861
| 31>    C       -2.50678        -2.04375        -4.06021
| 32>    N       -2.59409        -3.03631        -5.00600
| 33>    C       -3.44794        -1.02624        -3.95401
| 34>    C       -3.35365        -0.09816        -2.88521
| 35>    C       -4.50867        -0.87205        -4.93331
| 36>    C       -5.70852        -0.32751        -4.68059
| 37>    C       -6.78432        -0.12368        -5.62631
| 38>    C       -6.58437         0.13871        -7.02067
| 39>    C       -5.41345         0.36570        -7.70055
| 40>    S       -5.67105         0.67690        -9.36241
| 41>    C       -7.36072         0.51630        -9.19061
| 42>    C       -7.72794         0.24613        -7.89152
| 43>    C       -9.05676         0.12359        -7.38176
| 44>    N      -10.11864         0.19633        -8.25727
| 45>    C       -9.22169        -0.03178        -6.01204
| 46>    C       -8.08149        -0.16509        -5.18246
| 47>    C      -10.52116        -0.11459        -5.36923
| 48>    C      -11.62111         0.57334        -5.71304
| 49>    C      -12.89422         0.50010        -5.02208
| 50>    C      -13.39172        -0.70877        -4.43616
| 51>    C      -12.89080        -1.98333        -4.53040
| 52>    S      -13.84944        -3.12447        -3.69256
| 53>    C      -14.94994        -1.92114        -3.19187
| 54>    C      -14.60728        -0.67423        -3.66507
| 55>    C      -15.33009         0.54544        -3.48729
| 56>    N      -16.44046         0.54514        -2.67394
| 57>    C      -14.88453         1.67765        -4.16069
| 58>    C      -13.67182         1.62006        -4.89697
| 59>    C      -15.55935         2.95724        -4.09569
| 60>    C      -16.88527         3.15568        -3.99085
| 61>    C      -17.53615         4.44620        -3.89371
| 62>    C      -18.93643         4.50957        -4.12072
| 63>    C      -19.62958         5.67903        -4.03410
| 64>    C      -18.95615         6.87229        -3.69945
| 65>    C      -17.55227         6.82627        -3.46076
| 66>    C      -16.86578         5.60722        -3.56213
| 67>    N      -16.87650         7.94973        -3.12781
| 68>    C      -17.56590         9.05470        -3.04000
| 69>    C      -18.95466         9.09743        -3.27856
| 70>    N      -19.63728         8.03027        -3.60115
| 71>    H       -2.71444         2.49623        -2.16034
| 72>    H       -2.08579        -0.57815         0.75509
| 73>    H       -2.72716         4.20954        -0.37614
| 74>    H       -2.20094         4.08035         4.16096
| 75>    H       -1.88359         1.63614         4.72972
| 76>    H        0.01731        -0.80792        -0.35647
| 77>    H       -0.19868        -3.83344        -3.68876
| 78>    H       -1.75308        -3.54529        -5.21559
| 79>    H       -3.20712        -2.87406        -5.78708
| 80>    H       -4.09890         0.68153        -2.84103
| 81>    H       -4.30879        -1.24333        -5.93065
| 82>    H       -5.95830        -0.07206        -3.65843
| 83>    H       -4.41594         0.42273        -7.31678
| 84>    H       -7.98297         0.66937       -10.04961
| 85>    H       -9.91384        -0.04571        -9.21333
| 86>    H      -10.98798        -0.17841        -7.90563
| 87>    H       -8.26000        -0.32897        -4.12848
| 88>    H      -10.55215        -0.73692        -4.48331
| 89>    H      -11.55652         1.33089        -6.48370
| 90>    H      -12.03498        -2.32698        -5.07417
| 91>    H      -15.80389        -2.21208        -2.61312
| 92>    H      -16.47842        -0.19629        -1.99303
| 93>    H      -16.71536         1.45061        -2.32153
| 94>    H      -13.33496         2.53685        -5.36077
| 95>    H      -14.90826         3.81723        -4.19076
| 96>    H      -17.55530         2.30748        -4.04184
| 97>    H      -19.45489         3.59494        -4.37341
| 98>    H      -20.69362         5.72553        -4.20809
| 99>    H      -15.80716         5.61343        -3.35617
|100>    H      -17.01726         9.94854        -2.77258
|101>    H      -19.50882        10.02362        -3.20176
|102> *
|103>
|104>                          ****END OF INPUT****

CARTESIAN COORDINATES (ANGSTROEM)
---------------------------------
  C     -2.580620    2.211230   -1.126830
  C     -2.379840    0.841450   -0.827480
  C     -2.201200    0.459450    0.483030
  C     -2.200360    1.416780    1.511310
  C     -2.389080    2.792860    1.195110
  C     -2.583620    3.163930   -0.150970
  N     -2.383330    3.731470    2.162650
  C     -2.205410    3.320650    3.390340
  C     -2.026020    1.958560    3.706300
  N     -2.020950    1.025610    2.792960
  C     -2.391010   -0.140170   -1.916520
  C     -1.399160   -1.163980   -2.008250
  C     -0.302310   -1.372670   -1.208270
  S      0.632770   -2.704030   -1.728150
  C     -0.417610   -3.010790   -3.037550
  C     -1.461560   -2.113540   -3.088610
  C     -2.506780   -2.043750   -4.060210
  N     -2.594090   -3.036310   -5.006000
  C     -3.447940   -1.026240   -3.954010
  C     -3.353650   -0.098160   -2.885210
  C     -4.508670   -0.872050   -4.933310
  C     -5.708520   -0.327510   -4.680590
  C     -6.784320   -0.123680   -5.626310
  C     -6.584370    0.138710   -7.020670
  C     -5.413450    0.365700   -7.700550
  S     -5.671050    0.676900   -9.362410
  C     -7.360720    0.516300   -9.190610
  C     -7.727940    0.246130   -7.891520
  C     -9.056760    0.123590   -7.381760
  N    -10.118640    0.196330   -8.257270
  C     -9.221690   -0.031780   -6.012040
  C     -8.081490   -0.165090   -5.182460
  C    -10.521160   -0.114590   -5.369230
  C    -11.621110    0.573340   -5.713040
  C    -12.894220    0.500100   -5.022080
  C    -13.391720   -0.708770   -4.436160
  C    -12.890800   -1.983330   -4.530400
  S    -13.849440   -3.124470   -3.692560
  C    -14.949940   -1.921140   -3.191870
  C    -14.607280   -0.674230   -3.665070
  C    -15.330090    0.545440   -3.487290
  N    -16.440460    0.545140   -2.673940
  C    -14.884530    1.677650   -4.160690
  C    -13.671820    1.620060   -4.896970
  C    -15.559350    2.957240   -4.095690
  C    -16.885270    3.155680   -3.990850
  C    -17.536150    4.446200   -3.893710
  C    -18.936430    4.509570   -4.120720
  C    -19.629580    5.679030   -4.034100
  C    -18.956150    6.872290   -3.699450
  C    -17.552270    6.826270   -3.460760
  C    -16.865780    5.607220   -3.562130
  N    -16.876500    7.949730   -3.127810
  C    -17.565900    9.054700   -3.040000
  C    -18.954660    9.097430   -3.278560
  N    -19.637280    8.030270   -3.601150
  H     -2.714440    2.496230   -2.160340
  H     -2.085790   -0.578150    0.755090
  H     -2.727160    4.209540   -0.376140
  H     -2.200940    4.080350    4.160960
  H     -1.883590    1.636140    4.729720
  H      0.017310   -0.807920   -0.356470
  H     -0.198680   -3.833440   -3.688760
  H     -1.753080   -3.545290   -5.215590
  H     -3.207120   -2.874060   -5.787080
  H     -4.098900    0.681530   -2.841030
  H     -4.308790   -1.243330   -5.930650
  H     -5.958300   -0.072060   -3.658430
  H     -4.415940    0.422730   -7.316780
  H     -7.982970    0.669370  -10.049610
  H     -9.913840   -0.045710   -9.213330
  H    -10.987980   -0.178410   -7.905630
  H     -8.260000   -0.328970   -4.128480
  H    -10.552150   -0.736920   -4.483310
  H    -11.556520    1.330890   -6.483700
  H    -12.034980   -2.326980   -5.074170
  H    -15.803890   -2.212080   -2.613120
  H    -16.478420   -0.196290   -1.993030
  H    -16.715360    1.450610   -2.321530
  H    -13.334960    2.536850   -5.360770
  H    -14.908260    3.817230   -4.190760
  H    -17.555300    2.307480   -4.041840
  H    -19.454890    3.594940   -4.373410
  H    -20.693620    5.725530   -4.208090
  H    -15.807160    5.613430   -3.356170
  H    -17.017260    9.948540   -2.772580
  H    -19.508820   10.023620   -3.201760

 Total Charge           Charge          ....    0
 Multiplicity           Mult            ....    1
 Number of Electrons    NEL             ....  404
 Basis Dimension        Dim             ....  951

ORBITAL ENERGIES
----------------

  NO   OCC          E(Eh)            E(eV)
   0   2.0000     -88.960102     -2420.7274
   1   2.0000     -88.956119     -2420.6191
   2   2.0000     -88.954994     -2420.5885
   3   2.0000     -14.419027      -392.3617
   4   2.0000     -14.415700      -392.2711
   5   2.0000     -14.412056      -392.1720
   6   2.0000     -14.410150      -392.1201
   7   2.0000     -14.409100      -392.0915
   8   2.0000     -14.406093      -392.0097
   9   2.0000     -14.405355      -391.9896
  10   2.0000     -10.314163      -280.6626
  11   2.0000     -10.307039      -280.4688
  12   2.0000     -10.306509      -280.4544
  13   2.0000     -10.304477      -280.3991
  14   2.0000     -10.303509      -280.3727
  15   2.0000     -10.301222      -280.3105
  16   2.0000     -10.300561      -280.2925
  17   2.0000     -10.300401      -280.2882
  18   2.0000     -10.299598      -280.2663
  19   2.0000     -10.296552      -280.1834
  20   2.0000     -10.295615      -280.1579
  21   2.0000     -10.291310      -280.0408
  22   2.0000     -10.286810      -279.9183
  23   2.0000     -10.285767      -279.8899
  24   2.0000     -10.283921      -279.8397
  25   2.0000     -10.280048      -279.7343
  26   2.0000     -10.279708      -279.7251
  27   2.0000     -10.278296      -279.6866
  28   2.0000     -10.274584      -279.5856
  29   2.0000     -10.273875      -279.5663
  30   2.0000     -10.272664      -279.5334
  31   2.0000     -10.272070      -279.5172
  32   2.0000     -10.272016      -279.5158
  33   2.0000     -10.269987      -279.4605
  34   2.0000     -10.269123      -279.4370
  35   2.0000     -10.268745      -279.4268
  36   2.0000     -10.268282      -279.4142
  37   2.0000     -10.267551      -279.3943
  38   2.0000     -10.265406      -279.3359
  39   2.0000     -10.264345      -279.3070
  40   2.0000     -10.264309      -279.3060
  41   2.0000     -10.262789      -279.2647
  42   2.0000     -10.260586      -279.2047
  43   2.0000     -10.260273      -279.1962
  44   2.0000     -10.259671      -279.1798
  45   2.0000     -10.259592      -279.1777
  46   2.0000     -10.258633      -279.1516
  47   2.0000     -10.258239      -279.1409
  48   2.0000     -10.256606      -279.0964
  49   2.0000     -10.256517      -279.0940
  50   2.0000     -10.256027      -279.0807
  51   2.0000     -10.255602      -279.0691
  52   2.0000     -10.255165      -279.0572
  53   2.0000     -10.254948      -279.0513
  54   2.0000     -10.253711      -279.0177
  55   2.0000     -10.252976      -278.9977
  56   2.0000      -8.055893      -219.2120
  57   2.0000      -8.051876      -219.1027
  58   2.0000      -8.050722      -219.0713
  59   2.0000      -6.024837      -163.9441
  60   2.0000      -6.020827      -163.8350
  61   2.0000      -6.020428      -163.8242
  62   2.0000      -6.019627      -163.8024
  63   2.0000      -6.019063      -163.7870
  64   2.0000      -6.016441      -163.7157
  65   2.0000      -6.015293      -163.6844
  66   2.0000      -6.015032      -163.6773
  67   2.0000      -6.013904      -163.6466
  68   2.0000      -1.064126       -28.9563
  69   2.0000      -1.060099       -28.8468
  70   2.0000      -1.016060       -27.6484
  71   2.0000      -1.010510       -27.4974
  72   2.0000      -1.009203       -27.4618
  73   2.0000      -0.987255       -26.8646
  74   2.0000      -0.983128       -26.7523
  75   2.0000      -0.976521       -26.5725
  76   2.0000      -0.971983       -26.4490
  77   2.0000      -0.971538       -26.4369
  78   2.0000      -0.944424       -25.6991
  79   2.0000      -0.940141       -25.5825
  80   2.0000      -0.922200       -25.0943
  81   2.0000      -0.916601       -24.9420
  82   2.0000      -0.907238       -24.6872
  83   2.0000      -0.887671       -24.1548
  84   2.0000      -0.875501       -23.8236
  85   2.0000      -0.863922       -23.5085
  86   2.0000      -0.849783       -23.1238
  87   2.0000      -0.841627       -22.9018
  88   2.0000      -0.834472       -22.7071
  89   2.0000      -0.832681       -22.6584
  90   2.0000      -0.831206       -22.6183
  91   2.0000      -0.827625       -22.5208
  92   2.0000      -0.813380       -22.1332
  93   2.0000      -0.805178       -21.9100
  94   2.0000      -0.801606       -21.8128
  95   2.0000      -0.797952       -21.7134
  96   2.0000      -0.785274       -21.3684
  97   2.0000      -0.775169       -21.0934
  98   2.0000      -0.761408       -20.7190
  99   2.0000      -0.746942       -20.3253
 100   2.0000      -0.735399       -20.0112
 101   2.0000      -0.726899       -19.7799
 102   2.0000      -0.723674       -19.6922
 103   2.0000      -0.713482       -19.4148
 104   2.0000      -0.702917       -19.1273
 105   2.0000      -0.692829       -18.8528
 106   2.0000      -0.683466       -18.5980
 107   2.0000      -0.679519       -18.4906
 108   2.0000      -0.676620       -18.4118
 109   2.0000      -0.670426       -18.2432
 110   2.0000      -0.667784       -18.1713
 111   2.0000      -0.654265       -17.8035
 112   2.0000      -0.647817       -17.6280
 113   2.0000      -0.643329       -17.5059
 114   2.0000      -0.639510       -17.4020
 115   2.0000      -0.637863       -17.3571
 116   2.0000      -0.630415       -17.1545
 117   2.0000      -0.618235       -16.8230
 118   2.0000      -0.615904       -16.7596
 119   2.0000      -0.610043       -16.6001
 120   2.0000      -0.608374       -16.5547
 121   2.0000      -0.600689       -16.3456
 122   2.0000      -0.597423       -16.2567
 123   2.0000      -0.592857       -16.1324
 124   2.0000      -0.589735       -16.0475
 125   2.0000      -0.584972       -15.9179
 126   2.0000      -0.580835       -15.8053
 127   2.0000      -0.575996       -15.6736
 128   2.0000      -0.569250       -15.4901
 129   2.0000      -0.554018       -15.0756
 130   2.0000      -0.551744       -15.0137
 131   2.0000      -0.546038       -14.8584
 132   2.0000      -0.541443       -14.7334
 133   2.0000      -0.538376       -14.6500
 134   2.0000      -0.531300       -14.4574
 135   2.0000      -0.528678       -14.3861
 136   2.0000      -0.523498       -14.2451
 137   2.0000      -0.519540       -14.1374
 138   2.0000      -0.513924       -13.9846
 139   2.0000      -0.513054       -13.9609
 140   2.0000      -0.512167       -13.9368
 141   2.0000      -0.510623       -13.8947
 142   2.0000      -0.509141       -13.8544
 143   2.0000      -0.507973       -13.8226
 144   2.0000      -0.506937       -13.7944
 145   2.0000      -0.502099       -13.6628
 146   2.0000      -0.496986       -13.5237
 147   2.0000      -0.494821       -13.4648
 148   2.0000      -0.493650       -13.4329
 149   2.0000      -0.490309       -13.3420
 150   2.0000      -0.485275       -13.2050
 151   2.0000      -0.481251       -13.0955
 152   2.0000      -0.476244       -12.9593
 153   2.0000      -0.474926       -12.9234
 154   2.0000      -0.471505       -12.8303
 155   2.0000      -0.468801       -12.7567
 156   2.0000      -0.461516       -12.5585
 157   2.0000      -0.459151       -12.4941
 158   2.0000      -0.455111       -12.3842
 159   2.0000      -0.448633       -12.2079
 160   2.0000      -0.446662       -12.1543
 161   2.0000      -0.444159       -12.0862
 162   2.0000      -0.438245       -11.9253
 163   2.0000      -0.435523       -11.8512
 164   2.0000      -0.431577       -11.7438
 165   2.0000      -0.429735       -11.6937
 166   2.0000      -0.428396       -11.6572
 167   2.0000      -0.427319       -11.6279
 168   2.0000      -0.425470       -11.5776
 169   2.0000      -0.422670       -11.5014
 170   2.0000      -0.420561       -11.4440
 171   2.0000      -0.418590       -11.3904
 172   2.0000      -0.415966       -11.3190
 173   2.0000      -0.414734       -11.2855
 174   2.0000      -0.408659       -11.1202
 175   2.0000      -0.408470       -11.1150
 176   2.0000      -0.404156       -10.9977
 177   2.0000      -0.402849       -10.9621
 178   2.0000      -0.399386       -10.8678
 179   2.0000      -0.396262       -10.7828
 180   2.0000      -0.393669       -10.7123
 181   2.0000      -0.380284       -10.3480
 182   2.0000      -0.372819       -10.1449
 183   2.0000      -0.370930       -10.0935
 184   2.0000      -0.368917       -10.0387
 185   2.0000      -0.351302        -9.5594
 186   2.0000      -0.335621        -9.1327
 187   2.0000      -0.318663        -8.6712
 188   2.0000      -0.313849        -8.5403
 189   2.0000      -0.313007        -8.5173
 190   2.0000      -0.309475        -8.4212
 191   2.0000      -0.308338        -8.3903
 192   2.0000      -0.306523        -8.3409
 193   2.0000      -0.305921        -8.3245
 194   2.0000      -0.303729        -8.2649
 195   2.0000      -0.297475        -8.0947
 196   2.0000      -0.295141        -8.0312
 197   2.0000      -0.287014        -7.8101
 198   2.0000      -0.272101        -7.4042
 199   2.0000      -0.241969        -6.5843
 200   2.0000      -0.223502        -6.0818
 201   2.0000      -0.207000        -5.6328
 202   0.0000      -0.039943        -1.0869
 203   0.0000      -0.027573        -0.7503
 204   0.0000      -0.024624        -0.6701
 205   0.0000      -0.016647        -0.4530
 206   0.0000      -0.006996        -0.1904

MULLIKEN ATOMIC CHARGES
-----------------------
   0 C :    0.012983
   1 C :    0.051325
   2 C :   -0.071859
   3 C :    0.004455
   4 C :   -0.025910
   5 C :    0.007273
   6 N :   -0.015650
   7 C :    0.013396
   8 C :    0.017525
   9 N :   -0.022198
  10 C :    0.117898
  11 C :    0.078596
  12 C :   -0.174650
  13 S :    0.143869
  14 C :   -0.220537
  15 C :    0.102546
  16 C :   -0.023368
  17 N :   -0.036774
  18 C :    0.066687
  19 C :   -0.105700
  20 C :   -0.076083
  21 C :   -0.030863
  22 C :    0.132627
  23 C :    0.083243
  24 C :   -0.184089
  25 S :    0.139280
  26 C :   -0.216371
  27 C :    0.103482
  28 C :   -0.015815
  29 N :   -0.049995
  30 C :    0.058574
  31 C :   -0.114079
  32 C :   -0.065169
  33 C :   -0.067203
  34 C :    0.130243
  35 C :    0.086521
  36 C :   -0.177864
  37 S :    0.146865
  38 C :   -0.214917
  39 C :    0.100970
  40 C :   -0.009675
  41 N :   -0.051508
  42 C :    0.057575
  43 C :   -0.109296
  44 C :   -0.027712
  45 C :   -0.054832
  46 C :    0.131772
  47 C :   -0.002239
  48 C :    0.008462
  49 C :   -0.034703
  50 C :    0.009744
  51 C :   -0.063923
  52 N :   -0.021271
  53 C :    0.018509
  54 C :    0.016912
  55 N :   -0.017868
  56 H :   -0.015409
  57 H :   -0.025974
  58 H :   -0.028701
  59 H :    0.005893
  60 H :    0.004914
  61 H :    0.023135
  62 H :    0.009256
  63 H :    0.108416
  64 H :    0.106237
  65 H :   -0.032504
  66 H :   -0.028495
  67 H :   -0.012341
  68 H :    0.020900
  69 H :    0.012306
  70 H :    0.104498
  71 H :    0.116120
  72 H :   -0.043155
  73 H :   -0.001180
  74 H :    0.001256
  75 H :    0.018821
  76 H :    0.014233
  77 H :    0.106496
  78 H :    0.120837
  79 H :   -0.042555
  80 H :   -0.002309
  81 H :   -0.007095
  82 H :   -0.021888
  83 H :   -0.026750
  84 H :   -0.036572
  85 H :    0.006609
  86 H :    0.005793
Sum of atomic charges:   -0.0000000

LOEWDIN ATOMIC CHARGES
----------------------
   0 C :   -0.010347
   1 C :   -0.003681
   2 C :   -0.020435
   3 C :   -0.014485
   4 C :   -0.020087
   5 C :   -0.012487
   6 N :   -0.041669
   7 C :   -0.008421
   8 C :   -0.004362
   9 N :   -0.045889
  10 C :   -0.049642
  11 C :   -0.040078
  12 C :   -0.206493
  13 S :    0.482247
  14 C :   -0.217287
  15 C :   -0.065044
  16 C :    0.041252
  17 N :   -0.012550
  18 C :   -0.090397
  19 C :   -0.001644
  20 C :   -0.041251
  21 C :   -0.019121
  22 C :   -0.052218
  23 C :   -0.038491
  24 C :   -0.210183
  25 S :    0.476288
  26 C :   -0.215322
  27 C :   -0.065520
  28 C :    0.040579
  29 N :   -0.019643
  30 C :   -0.091134
  31 C :   -0.005525
  32 C :   -0.027391
  33 C :   -0.034967
  34 C :   -0.050074
  35 C :   -0.038718
  36 C :   -0.206086
  37 S :    0.482669
  38 C :   -0.213399
  39 C :   -0.066599
  40 C :    0.047099
  41 N :   -0.015343
  42 C :   -0.093334
  43 C :   -0.008144
  44 C :    0.001402
  45 C :   -0.052254
  46 C :   -0.018455
  47 C :   -0.014115
  48 C :   -0.012392
  49 C :   -0.019291
  50 C :   -0.012509
  51 C :   -0.015768
  52 N :   -0.045334
  53 C :   -0.002272
  54 C :   -0.006670
  55 N :   -0.041908
  56 H :    0.030879
  57 H :    0.033824
  58 H :    0.033774
  59 H :    0.022858
  60 H :    0.022880
  61 H :    0.023139
  62 H :    0.014455
  63 H :    0.069675
  64 H :    0.070225
  65 H :    0.026394
  66 H :    0.014301
  67 H :    0.027461
  68 H :    0.020162
  69 H :    0.015932
  70 H :    0.068697
  71 H :    0.070475
  72 H :    0.025478
  73 H :    0.026722
  74 H :    0.028191
  75 H :    0.020894
  76 H :    0.016666
  77 H :    0.070438
  78 H :    0.073104
  79 H :    0.025836
  80 H :    0.028292
  81 H :    0.025803
  82 H :    0.028530
  83 H :    0.034406
  84 H :    0.030405
  85 H :    0.023714
  86 H :    0.023283

  Mayer bond orders larger than 0.100000
B(  0-C ,  1-C ) :   1.2556 B(  0-C ,  5-C ) :   1.4588 B(  0-C , 56-H ) :   0.9944
B(  1-C ,  2-C ) :   1.4230 B(  1-C , 10-C ) :   0.9455 B(  2-C ,  3-C ) :   1.2161
B(  2-C ,  5-C ) :   0.1032 B(  2-C , 57-H ) :   1.0188 B(  3-C ,  4-C ) :   1.2450
B(  3-C ,  9-N ) :   1.4200 B(  4-C ,  5-C ) :   1.2326 B(  4-C ,  6-N ) :   1.4373
B(  5-C , 58-H ) :   1.0071 B(  6-N ,  7-C ) :   1.6677 B(  7-C ,  8-C ) :   1.2315
B(  7-C , 59-H ) :   0.9741 B(  8-C ,  9-N ) :   1.6725 B(  8-C , 60-H ) :   0.9738
B( 10-C , 11-C ) :   1.1563 B( 10-C , 19-C ) :   1.5409 B( 11-C , 12-C ) :   1.4673
B( 11-C , 15-C ) :   1.2199 B( 12-C , 13-S ) :   1.1992 B( 12-C , 14-C ) :   0.1008
B( 12-C , 61-H ) :   0.9531 B( 13-S , 14-C ) :   1.2153 B( 14-C , 15-C ) :   1.4107
B( 14-C , 62-H ) :   0.9704 B( 15-C , 16-C ) :   1.1301 B( 16-C , 17-N ) :   1.3188
B( 16-C , 18-C ) :   1.4324 B( 17-N , 63-H ) :   0.9388 B( 17-N , 64-H ) :   0.9418
B( 18-C , 19-C ) :   1.1717 B( 18-C , 20-C ) :   1.0139 B( 19-C , 65-H ) :   0.9892
B( 20-C , 21-C ) :   1.7579 B( 20-C , 66-H ) :   0.9626 B( 21-C , 22-C ) :   1.0702
B( 21-C , 67-H ) :   0.9713 B( 22-C , 23-C ) :   1.1160 B( 22-C , 31-C ) :   1.4870
B( 23-C , 24-C ) :   1.4683 B( 23-C , 27-C ) :   1.2188 B( 24-C , 25-S ) :   1.1959
B( 24-C , 68-H ) :   0.9537 B( 25-S , 26-C ) :   1.2115 B( 26-C , 27-C ) :   1.4154
B( 26-C , 69-H ) :   0.9689 B( 27-C , 28-C ) :   1.1374 B( 28-C , 29-N ) :   1.2957
B( 28-C , 30-C ) :   1.4528 B( 29-N , 70-H ) :   0.9364 B( 29-N , 71-H ) :   0.9232
B( 30-C , 31-C ) :   1.1534 B( 30-C , 32-C ) :   1.0313 B( 31-C , 72-H ) :   1.0025
B( 32-C , 33-C ) :   1.7367 B( 32-C , 73-H ) :   0.9662 B( 33-C , 34-C ) :   1.0566
B( 33-C , 74-H ) :   0.9731 B( 34-C , 35-C ) :   1.1171 B( 34-C , 43-C ) :   1.5011
B( 35-C , 36-C ) :   1.4696 B( 35-C , 39-C ) :   1.2185 B( 36-C , 37-S ) :   1.1986
B( 36-C , 75-H ) :   0.9562 B( 37-S , 38-C ) :   1.2161 B( 38-C , 39-C ) :   1.4163
B( 38-C , 76-H ) :   0.9686 B( 39-C , 40-C ) :   1.1350 B( 40-C , 41-N ) :   1.3017
B( 40-C , 42-C ) :   1.4454 B( 41-N , 77-H ) :   0.9364 B( 41-N , 78-H ) :   0.9249
B( 42-C , 43-C ) :   1.1434 B( 42-C , 44-C ) :   1.0449 B( 43-C , 79-H ) :   1.0026
B( 44-C , 45-C ) :   1.7231 B( 44-C , 80-H ) :   0.9649 B( 45-C , 46-C ) :   1.0506
B( 45-C , 81-H ) :   0.9813 B( 46-C , 47-C ) :   1.2086 B( 46-C , 51-C ) :   1.3975
B( 47-C , 48-C ) :   1.4738 B( 47-C , 82-H ) :   0.9984 B( 48-C , 49-C ) :   1.2331
B( 48-C , 51-C ) :   0.1023 B( 48-C , 83-H ) :   1.0051 B( 49-C , 50-C ) :   1.2386
B( 49-C , 55-N ) :   1.4374 B( 50-C , 51-C ) :   1.2379 B( 50-C , 52-N ) :   1.4285
B( 51-C , 84-H ) :   1.0077 B( 52-N , 53-C ) :   1.6755 B( 53-C , 54-C ) :   1.2298
B( 53-C , 85-H ) :   0.9737 B( 54-C , 55-N ) :   1.6652 B( 54-C , 86-H ) :   0.9742

-----------------------------------------------------------------------------
         ABSORPTION SPECTRUM VIA TRANSITION ELECTRIC DIPOLE MOMENTS
-----------------------------------------------------------------------------
State   Energy  Wavelength   fosc         T2         TX        TY        TZ
        (cm-1)    (nm)                  (au**2)     (au)      (au)      (au)
-----------------------------------------------------------------------------
   0   23471.7    426.0   0.231835309   3.25170   0.22158   1.54299  -0.90652
   1   24454.0    408.9   0.260733120   3.51012   0.79953   0.29198   1.66902
   2   24998.4    400.0   0.158358583   2.08547   0.09924  -0.87587  -1.14388
   3   26072.3    383.5   0.989068738  12.48885  -3.11031   1.66188   0.23022
   4   27981.7    357.4   0.038029058   0.44742   0.33125   0.58058  -0.02503
   5   28139.1    355.4   0.162887862   1.90570   1.06033   0.15421  -0.87041
   6   29252.9    341.8   0.126848932   1.42756  -0.43576   1.01719   0.45055
   7   30572.4    327.1   0.036775394   0.39601  -0.25816   0.02216  -0.57347
   8   30725.0    325.5   0.007625395   0.08170   0.27153   0.07082  -0.05441
   9   31001.2    322.6   0.134592024   1.42928  -0.89731  -0.28818  -0.73557
  10   31059.2    322.0   0.163152502   1.72933   1.14475   0.26108   0.59222
  11   31763.9    314.8   0.137789690   1.42810  -1.19493  -0.01547   0.00001
  12   32430.0    308.4   0.293745248   2.98195   1.54115  -0.44035   0.64257
  13   32971.1    303.3   0.017849460   0.17822  -0.41925  -0.03645  -0.03351
  14   33518.2    298.3   0.333430470   3.27491   0.65451  -1.60223  -0.52857
  15   34134.1    293.0   0.159231987   1.53574   0.40852  -0.37810  -1.10720
  16   34480.6    290.0   0.148984416   1.42247   0.57978  -0.99030   0.32501
  17   35241.5    283.8   0.191778853   1.79152   0.60991  -1.18713  -0.10127
  18   35463.4    282.0   0.052507561   0.48744   0.32022  -0.04196   0.61898
  19   35814.6    279.2   0.142923904   1.31377  -0.30108   1.09797   0.13265
  20   36725.3    272.3   0.188294066   1.68790  -1.09633   0.63787   0.28120
  21   37386.3    267.5   0.023185281   0.20416  -0.01111  -0.34937  -0.28632
  22   38380.3    260.6   0.010984777   0.09422  -0.04417   0.22939  -0.19913
  23   38650.0    258.7   0.074274953   0.63266  -0.53604   0.58453  -0.06043
  24   39350.5    254.1   0.112071680   0.93761  -0.12755   0.58988   0.75722
  25   39577.2    252.7   0.053157215   0.44217   0.42561  -0.18957   0.47444
  26   39732.7    251.7   0.389581721   3.22794   1.65524  -0.69026  -0.10803

FINAL SINGLE POINT ENERGY     -3346.262939295406

DIPOLE MOMENT
-------------
                                X             Y             Z
Electronic contribution:     17.85993      -7.52709       1.56172
Nuclear contribution   :    -18.31556       6.06114      -2.61644
                        -----------------------------------------
Total Dipole Moment    :     -0.45563      -1.46595      -1.05472
                        -----------------------------------------
Magnitude (a.u.)       :      1.86254
Magnitude (Debye)      :      4.73420

Rotational constants in cm-1:     0.001517     0.000430     0.000383
Rotational constants in MHz :    45.466939    12.904121    11.480513

                             ****ORCA TERMINATED NORMALLY****
TOTAL RUN TIME: 0 days 0 hours 7 minutes 28 seconds 504 msec
