                         Program Version 4.2.0 -  RELEASE  -
|  1> # ORCA input file
|  2> # SCF done       -126.232620991816          0.000734609448
|  3> ! CAM-B3LYP def2-SVP def2/J RIJCOSX Grid4 TightSCF
|  4> %maxcore 5000
|  5> %tddft
|  6>     Mode sTDDFT
|  7>     Ethresh 5.0
|  8>     maxcore 5000
|  9> end
| 10>
| 11> %pal
| 12>   nprocs 6
| 13>   end
| 14> * xyz 0 1
| 15>    C       -5.42659        -3.50636         6.07762
| 16>    C       -6.66917        -4.03617         5.63899
| 17>    C       -7.44590        -4.74388         6.53563
| 18>    C       -7.02258        -4.93524         7.85879
| 19>    C       -5.77605        -4.39436         8.28495
| 20>    C       -4.99137        -3.67793         7.35720
| 21>    N       -5.34719        -4.56026         9.55132
| 22>    C       -6.12239        -5.23442        10.35908
| 23>    C       -7.35638        -5.77295         9.93849
| 24>    N       -7.80021        -5.62980         8.71973
| 25>    C       -7.10834        -3.83932         4.27740
| 26>    S       -8.59229        -4.55973         3.71957
| 27>    C       -8.37282        -3.88650         2.12752
| 28>    C       -7.21255        -3.14712         2.06020
| 29>    C       -6.50777        -3.12428         3.26561
| 30>    C       -9.29559        -4.12905         1.12344
| 31>    C      -10.12066        -4.37502         0.26639
| 32>    C      -11.06331        -4.68069        -0.70652
| 33>    C      -10.95992        -4.28926        -1.99781
| 34>    C      -11.89794        -4.61729        -3.01559
| 35>    S      -11.61588        -4.08129        -4.64978
| 36>    C      -13.07309        -4.86413        -5.20200
| 37>    C      -13.72351        -5.48963        -4.15592
| 38>    C      -13.06709        -5.35046        -2.93667
| 39>    C      -13.45881        -4.83637        -6.52935
| 40>    C      -13.78995        -4.82621        -7.69940
| 41>    C      -14.21800        -4.87188        -9.01700
| 42>    C      -13.62256        -4.19231       -10.02773
| 43>    C      -14.07283        -4.28182       -11.38064
| 44>    C      -13.53762        -3.58450       -12.43596
| 45>    O      -13.99924        -3.73395       -13.73387
| 46>    C      -15.02663        -4.60981       -13.90076
| 47>    C      -15.59106        -5.32211       -12.80462
| 48>    C      -16.60576        -6.14138       -13.17380
| 49>    S      -16.88992        -6.05578       -14.87308
| 50>    C      -15.62359        -4.90269       -15.08204
| 51>    O      -15.12628        -5.16882       -11.53530
| 52>    C      -12.47469        -2.63230       -12.32734
| 53>    C      -11.97443        -1.97398       -13.39510
| 54>    C      -10.92061        -0.98888       -13.37862
| 55>    C      -10.49850        -0.45018       -14.62466
| 56>    C       -9.51280         0.48562       -14.71068
| 57>    C       -8.87992         0.94980       -13.53826
| 58>    C       -9.29155         0.42425       -12.27958
| 59>    C      -10.30868        -0.54000       -12.22263
| 60>    N       -8.70833         0.84974       -11.13531
| 61>    C       -7.76731         1.74733       -11.24487
| 62>    C       -7.36063         2.26400       -12.49239
| 63>    N       -7.90415         1.87523       -13.61572
| 64>    H       -4.81410        -2.95887         5.37872
| 65>    H       -8.39609        -5.16488         6.24213
| 66>    H       -4.04756        -3.27646         7.69218
| 67>    H       -5.77199        -5.36201        11.37468
| 68>    H       -7.98466        -6.32984        10.62132
| 69>    H       -6.89601        -2.64528         1.16319
| 70>    H       -5.58244        -2.58967         3.38327
| 71>    H      -11.90316        -5.27670        -0.37400
| 72>    H      -10.10690        -3.69657        -2.30082
| 73>    H      -14.64526        -6.02714        -4.29184
| 74>    H      -13.43418        -5.77506        -2.01969
| 75>    H      -15.07697        -5.49798        -9.21977
| 76>    H      -12.77223        -3.56673        -9.81407
| 77>    H      -17.19637        -6.78269       -12.55401
| 78>    H      -15.39754        -4.51321       -16.05223
| 79>    H      -12.08486        -2.44987       -11.34095
| 80>    H      -12.39170        -2.19367       -14.36820
| 81>    H      -10.98246        -0.80442       -15.52379
| 82>    H       -9.19327         0.89257       -15.65748
| 83>    H      -10.58985        -0.90536       -11.24812
| 84>    H       -7.30731         2.08271       -10.32444
| 85>    H       -6.57745         3.00700       -12.56354
| 86> *
| 87>
| 88>                          ****END OF INPUT****

CARTESIAN COORDINATES (ANGSTROEM)
---------------------------------
  C     -5.426590   -3.506360    6.077620
  C     -6.669170   -4.036170    5.638990
  C     -7.445900   -4.743880    6.535630
  C     -7.022580   -4.935240    7.858790
  C     -5.776050   -4.394360    8.284950
  C     -4.991370   -3.677930    7.357200
  N     -5.347190   -4.560260    9.551320
  C     -6.122390   -5.234420   10.359080
  C     -7.356380   -5.772950    9.938490
  N     -7.800210   -5.629800    8.719730
  C     -7.108340   -3.839320    4.277400
  S     -8.592290   -4.559730    3.719570
  C     -8.372820   -3.886500    2.127520
  C     -7.212550   -3.147120    2.060200
  C     -6.507770   -3.124280    3.265610
  C     -9.295590   -4.129050    1.123440
  C    -10.120660   -4.375020    0.266390
  C    -11.063310   -4.680690   -0.706520
  C    -10.959920   -4.289260   -1.997810
  C    -11.897940   -4.617290   -3.015590
  S    -11.615880   -4.081290   -4.649780
  C    -13.073090   -4.864130   -5.202000
  C    -13.723510   -5.489630   -4.155920
  C    -13.067090   -5.350460   -2.936670
  C    -13.458810   -4.836370   -6.529350
  C    -13.789950   -4.826210   -7.699400
  C    -14.218000   -4.871880   -9.017000
  C    -13.622560   -4.192310  -10.027730
  C    -14.072830   -4.281820  -11.380640
  C    -13.537620   -3.584500  -12.435960
  O    -13.999240   -3.733950  -13.733870
  C    -15.026630   -4.609810  -13.900760
  C    -15.591060   -5.322110  -12.804620
  C    -16.605760   -6.141380  -13.173800
  S    -16.889920   -6.055780  -14.873080
  C    -15.623590   -4.902690  -15.082040
  O    -15.126280   -5.168820  -11.535300
  C    -12.474690   -2.632300  -12.327340
  C    -11.974430   -1.973980  -13.395100
  C    -10.920610   -0.988880  -13.378620
  C    -10.498500   -0.450180  -14.624660
  C     -9.512800    0.485620  -14.710680
  C     -8.879920    0.949800  -13.538260
  C     -9.291550    0.424250  -12.279580
  C    -10.308680   -0.540000  -12.222630
  N     -8.708330    0.849740  -11.135310
  C     -7.767310    1.747330  -11.244870
  C     -7.360630    2.264000  -12.492390
  N     -7.904150    1.875230  -13.615720
  H     -4.814100   -2.958870    5.378720
  H     -8.396090   -5.164880    6.242130
  H     -4.047560   -3.276460    7.692180
  H     -5.771990   -5.362010   11.374680
  H     -7.984660   -6.329840   10.621320
  H     -6.896010   -2.645280    1.163190
  H     -5.582440   -2.589670    3.383270
  H    -11.903160   -5.276700   -0.374000
  H    -10.106900   -3.696570   -2.300820
  H    -14.645260   -6.027140   -4.291840
  H    -13.434180   -5.775060   -2.019690
  H    -15.076970   -5.497980   -9.219770
  H    -12.772230   -3.566730   -9.814070
  H    -17.196370   -6.782690  -12.554010
  H    -15.397540   -4.513210  -16.052230
  H    -12.084860   -2.449870  -11.340950
  H    -12.391700   -2.193670  -14.368200
  H    -10.982460   -0.804420  -15.523790
  H     -9.193270    0.892570  -15.657480
  H    -10.589850   -0.905360  -11.248120
  H     -7.307310    2.082710  -10.324440
  H     -6.577450    3.007000  -12.563540

 Total Charge           Charge          ....    0
 Multiplicity           Mult            ....    1
 Number of Electrons    NEL             ....  354
 Basis Dimension        Dim             ....  808

ORBITAL ENERGIES
----------------

  NO   OCC          E(Eh)            E(eV)
   0   2.0000     -88.957091     -2420.6455
   1   2.0000     -88.956112     -2420.6189
   2   2.0000     -88.955173     -2420.5933
   3   2.0000     -19.274130      -524.4757
   4   2.0000     -19.273394      -524.4557
   5   2.0000     -14.415763      -392.2729
   6   2.0000     -14.414965      -392.2512
   7   2.0000     -14.414897      -392.2493
   8   2.0000     -14.414524      -392.2391
   9   2.0000     -10.347602      -281.5726
  10   2.0000     -10.346745      -281.5492
  11   2.0000     -10.339230      -281.3448
  12   2.0000     -10.338940      -281.3369
  13   2.0000     -10.312039      -280.6048
  14   2.0000     -10.311769      -280.5975
  15   2.0000     -10.310031      -280.5502
  16   2.0000     -10.309395      -280.5329
  17   2.0000     -10.309120      -280.5254
  18   2.0000     -10.308758      -280.5156
  19   2.0000     -10.308165      -280.4994
  20   2.0000     -10.307095      -280.4703
  21   2.0000     -10.306865      -280.4641
  22   2.0000     -10.306221      -280.4465
  23   2.0000     -10.303392      -280.3695
  24   2.0000     -10.303108      -280.3618
  25   2.0000     -10.294881      -280.1379
  26   2.0000     -10.292766      -280.0804
  27   2.0000     -10.292535      -280.0741
  28   2.0000     -10.291125      -280.0358
  29   2.0000     -10.289843      -280.0009
  30   2.0000     -10.289479      -279.9909
  31   2.0000     -10.287870      -279.9472
  32   2.0000     -10.286167      -279.9008
  33   2.0000     -10.283966      -279.8410
  34   2.0000     -10.281426      -279.7718
  35   2.0000     -10.277868      -279.6750
  36   2.0000     -10.277416      -279.6627
  37   2.0000     -10.276994      -279.6512
  38   2.0000     -10.276585      -279.6401
  39   2.0000     -10.275708      -279.6162
  40   2.0000     -10.275572      -279.6125
  41   2.0000     -10.274827      -279.5923
  42   2.0000     -10.274287      -279.5776
  43   2.0000     -10.273817      -279.5648
  44   2.0000     -10.273729      -279.5624
  45   2.0000     -10.272919      -279.5403
  46   2.0000     -10.272734      -279.5353
  47   2.0000     -10.271633      -279.5053
  48   2.0000     -10.271300      -279.4963
  49   2.0000      -8.052712      -219.1254
  50   2.0000      -8.051852      -219.1020
  51   2.0000      -8.050670      -219.0699
  52   2.0000      -6.021909      -163.8645
  53   2.0000      -6.021367      -163.8497
  54   2.0000      -6.019944      -163.8110
  55   2.0000      -6.017898      -163.7553
  56   2.0000      -6.017209      -163.7366
  57   2.0000      -6.015820      -163.6988
  58   2.0000      -6.014873      -163.6730
  59   2.0000      -6.013520      -163.6362
  60   2.0000      -6.012777      -163.6160
  61   2.0000      -1.199657       -32.6443
  62   2.0000      -1.162580       -31.6354
  63   2.0000      -1.070301       -29.1244
  64   2.0000      -1.069444       -29.1010
  65   2.0000      -0.993335       -27.0300
  66   2.0000      -0.992437       -27.0056
  67   2.0000      -0.986746       -26.8507
  68   2.0000      -0.985146       -26.8072
  69   2.0000      -0.984445       -26.7881
  70   2.0000      -0.950754       -25.8713
  71   2.0000      -0.946877       -25.7658
  72   2.0000      -0.923598       -25.1324
  73   2.0000      -0.908956       -24.7339
  74   2.0000      -0.898838       -24.4586
  75   2.0000      -0.878575       -23.9072
  76   2.0000      -0.870382       -23.6843
  77   2.0000      -0.857734       -23.3401
  78   2.0000      -0.846493       -23.0342
  79   2.0000      -0.845890       -23.0178
  80   2.0000      -0.841099       -22.8875
  81   2.0000      -0.833348       -22.6766
  82   2.0000      -0.831578       -22.6284
  83   2.0000      -0.821903       -22.3651
  84   2.0000      -0.817075       -22.2337
  85   2.0000      -0.810751       -22.0617
  86   2.0000      -0.801567       -21.8117
  87   2.0000      -0.782409       -21.2904
  88   2.0000      -0.760811       -20.7027
  89   2.0000      -0.751532       -20.4502
  90   2.0000      -0.740338       -20.1456
  91   2.0000      -0.735798       -20.0221
  92   2.0000      -0.728112       -19.8129
  93   2.0000      -0.717389       -19.5211
  94   2.0000      -0.702418       -19.1138
  95   2.0000      -0.697223       -18.9724
  96   2.0000      -0.694970       -18.9111
  97   2.0000      -0.683592       -18.6015
  98   2.0000      -0.678239       -18.4558
  99   2.0000      -0.667669       -18.1682
 100   2.0000      -0.663092       -18.0437
 101   2.0000      -0.652889       -17.7660
 102   2.0000      -0.652226       -17.7480
 103   2.0000      -0.623254       -16.9596
 104   2.0000      -0.621812       -16.9204
 105   2.0000      -0.621727       -16.9180
 106   2.0000      -0.613628       -16.6977
 107   2.0000      -0.606209       -16.4958
 108   2.0000      -0.601410       -16.3652
 109   2.0000      -0.596954       -16.2439
 110   2.0000      -0.594508       -16.1774
 111   2.0000      -0.588252       -16.0072
 112   2.0000      -0.584053       -15.8929
 113   2.0000      -0.580183       -15.7876
 114   2.0000      -0.574991       -15.6463
 115   2.0000      -0.567009       -15.4291
 116   2.0000      -0.565834       -15.3971
 117   2.0000      -0.549078       -14.9412
 118   2.0000      -0.534657       -14.5488
 119   2.0000      -0.531730       -14.4691
 120   2.0000      -0.528967       -14.3939
 121   2.0000      -0.524975       -14.2853
 122   2.0000      -0.521674       -14.1955
 123   2.0000      -0.520604       -14.1664
 124   2.0000      -0.519223       -14.1288
 125   2.0000      -0.518946       -14.1212
 126   2.0000      -0.518302       -14.1037
 127   2.0000      -0.517737       -14.0883
 128   2.0000      -0.501950       -13.6588
 129   2.0000      -0.501179       -13.6378
 130   2.0000      -0.499613       -13.5952
 131   2.0000      -0.499318       -13.5871
 132   2.0000      -0.498381       -13.5616
 133   2.0000      -0.490463       -13.3462
 134   2.0000      -0.486629       -13.2418
 135   2.0000      -0.483942       -13.1687
 136   2.0000      -0.483460       -13.1556
 137   2.0000      -0.478973       -13.0335
 138   2.0000      -0.475439       -12.9374
 139   2.0000      -0.470975       -12.8159
 140   2.0000      -0.467470       -12.7205
 141   2.0000      -0.456231       -12.4147
 142   2.0000      -0.455712       -12.4006
 143   2.0000      -0.450872       -12.2688
 144   2.0000      -0.443714       -12.0741
 145   2.0000      -0.442849       -12.0505
 146   2.0000      -0.441368       -12.0102
 147   2.0000      -0.441246       -12.0069
 148   2.0000      -0.432795       -11.7770
 149   2.0000      -0.431253       -11.7350
 150   2.0000      -0.429647       -11.6913
 151   2.0000      -0.421157       -11.4603
 152   2.0000      -0.416223       -11.3260
 153   2.0000      -0.415065       -11.2945
 154   2.0000      -0.413811       -11.2604
 155   2.0000      -0.411940       -11.2095
 156   2.0000      -0.411295       -11.1919
 157   2.0000      -0.389504       -10.5989
 158   2.0000      -0.378426       -10.2975
 159   2.0000      -0.377783       -10.2800
 160   2.0000      -0.377673       -10.2770
 161   2.0000      -0.356513        -9.7012
 162   2.0000      -0.342791        -9.3278
 163   2.0000      -0.338603        -9.2139
 164   2.0000      -0.336103        -9.1458
 165   2.0000      -0.325367        -8.8537
 166   2.0000      -0.325161        -8.8481
 167   2.0000      -0.319245        -8.6871
 168   2.0000      -0.313925        -8.5423
 169   2.0000      -0.313833        -8.5398
 170   2.0000      -0.313342        -8.5265
 171   2.0000      -0.310504        -8.4492
 172   2.0000      -0.301912        -8.2154
 173   2.0000      -0.289250        -7.8709
 174   2.0000      -0.278723        -7.5844
 175   2.0000      -0.249896        -6.8000
 176   2.0000      -0.227021        -6.1776
 177   0.0000      -0.067909        -1.8479
 178   0.0000      -0.050914        -1.3855
 179   0.0000      -0.034782        -0.9465
 180   0.0000      -0.020752        -0.5647
 181   0.0000      -0.005951        -0.1619

MULLIKEN ATOMIC CHARGES
-----------------------
   0 C :   -0.014539
   1 C :    0.193961
   2 C :   -0.096722
   3 C :    0.004233
   4 C :   -0.030577
   5 C :    0.015811
   6 N :   -0.016266
   7 C :    0.018257
   8 C :    0.019987
   9 N :   -0.016788
  10 C :   -0.074633
  11 S :    0.145592
  12 C :   -0.138009
  13 C :    0.059745
  14 C :   -0.011826
  15 C :    0.058044
  16 C :   -0.024192
  17 C :   -0.087431
  18 C :    0.077416
  19 C :   -0.091292
  20 S :    0.161966
  21 C :   -0.157980
  22 C :    0.061260
  23 C :    0.010012
  24 C :    0.052183
  25 C :   -0.008772
  26 C :   -0.067254
  27 C :   -0.040889
  28 C :    0.151912
  29 C :    0.193257
  30 O :   -0.259542
  31 C :    0.221097
  32 C :    0.224839
  33 C :   -0.174391
  34 S :    0.108224
  35 C :   -0.176414
  36 O :   -0.262366
  37 C :   -0.044707
  38 C :    0.008831
  39 C :    0.133497
  40 C :    0.003899
  41 C :    0.015664
  42 C :   -0.035501
  43 C :    0.000936
  44 C :   -0.050382
  45 N :   -0.016295
  46 C :    0.021186
  47 C :    0.015351
  48 N :   -0.014527
  49 H :   -0.020865
  50 H :   -0.019568
  51 H :   -0.024835
  52 H :    0.008527
  53 H :    0.010318
  54 H :   -0.013759
  55 H :   -0.015590
  56 H :    0.025017
  57 H :   -0.002774
  58 H :   -0.010353
  59 H :   -0.013730
  60 H :    0.037858
  61 H :    0.003878
  62 H :    0.024658
  63 H :    0.023104
  64 H :   -0.004811
  65 H :   -0.007076
  66 H :   -0.017788
  67 H :   -0.025773
  68 H :   -0.040782
  69 H :    0.008529
  70 H :    0.009953
Sum of atomic charges:   -0.0000000

LOEWDIN ATOMIC CHARGES
----------------------
   0 C :   -0.007594
   1 C :   -0.029129
   2 C :   -0.021387
   3 C :   -0.011987
   4 C :   -0.017005
   5 C :   -0.007378
   6 N :   -0.040452
   7 C :   -0.003293
   8 C :    0.000593
   9 N :   -0.042911
  10 C :   -0.161147
  11 S :    0.455392
  12 C :   -0.183089
  13 C :   -0.036956
  14 C :   -0.056407
  15 C :   -0.059305
  16 C :   -0.025023
  17 C :   -0.039857
  18 C :   -0.017412
  19 C :   -0.170285
  20 S :    0.450553
  21 C :   -0.188497
  22 C :   -0.031795
  23 C :   -0.053047
  24 C :   -0.057934
  25 C :   -0.026740
  26 C :   -0.034050
  27 C :   -0.020396
  28 C :    0.026577
  29 C :    0.032358
  30 O :   -0.053127
  31 C :   -0.008145
  32 C :   -0.007731
  33 C :   -0.210765
  34 S :    0.434740
  35 C :   -0.210885
  36 O :   -0.054729
  37 C :   -0.028756
  38 C :   -0.011464
  39 C :   -0.021161
  40 C :   -0.008658
  41 C :   -0.010691
  42 C :   -0.016084
  43 C :   -0.013306
  44 C :   -0.007580
  45 N :   -0.043799
  46 C :   -0.000640
  47 C :   -0.003435
  48 N :   -0.040515
  49 H :    0.029802
  50 H :    0.026584
  51 H :    0.035995
  52 H :    0.024557
  53 H :    0.025111
  54 H :    0.034135
  55 H :    0.029228
  56 H :    0.042281
  57 H :    0.034423
  58 H :    0.035293
  59 H :    0.029782
  60 H :    0.046525
  61 H :    0.037309
  62 H :    0.028998
  63 H :    0.028452
  64 H :    0.031204
  65 H :    0.030069
  66 H :    0.030095
  67 H :    0.035356
  68 H :    0.029940
  69 H :    0.024556
  70 H :    0.024635

  Mayer bond orders larger than 0.100000
B(  0-C ,  1-C ) :   1.2223 B(  0-C ,  5-C ) :   1.4921 B(  0-C , 49-H ) :   0.9936
B(  1-C ,  2-C ) :   1.3743 B(  1-C , 10-C ) :   1.0662 B(  2-C ,  3-C ) :   1.2478
B(  2-C , 50-H ) :   1.0017 B(  3-C ,  4-C ) :   1.2435 B(  3-C ,  9-N ) :   1.4333
B(  4-C ,  5-C ) :   1.2287 B(  4-C ,  6-N ) :   1.4393 B(  5-C , 51-H ) :   1.0024
B(  6-N ,  7-C ) :   1.6658 B(  7-C ,  8-C ) :   1.2290 B(  7-C , 52-H ) :   0.9743
B(  8-C ,  9-N ) :   1.6731 B(  8-C , 53-H ) :   0.9739 B( 10-C , 11-S ) :   1.1317
B( 10-C , 12-C ) :   0.1062 B( 10-C , 14-C ) :   1.5237 B( 11-S , 12-C ) :   1.1108
B( 12-C , 13-C ) :   1.5089 B( 12-C , 15-C ) :   0.9716 B( 13-C , 14-C ) :   1.2570
B( 13-C , 54-H ) :   1.0016 B( 14-C , 55-H ) :   0.9888 B( 15-C , 16-C ) :   2.2853
B( 16-C , 17-C ) :   1.0246 B( 17-C , 18-C ) :   1.7226 B( 17-C , 56-H ) :   0.9499
B( 18-C , 19-C ) :   1.1192 B( 18-C , 57-H ) :   0.9655 B( 19-C , 20-S ) :   1.1215
B( 19-C , 23-C ) :   1.4838 B( 20-S , 21-C ) :   1.1113 B( 21-C , 22-C ) :   1.4823
B( 21-C , 24-C ) :   0.9884 B( 22-C , 23-C ) :   1.2940 B( 22-C , 58-H ) :   0.9999
B( 23-C , 59-H ) :   0.9884 B( 24-C , 25-C ) :   2.2593 B( 25-C , 26-C ) :   0.9811
B( 26-C , 27-C ) :   1.6812 B( 26-C , 60-H ) :   0.9616 B( 27-C , 28-C ) :   1.1734
B( 27-C , 61-H ) :   0.9609 B( 28-C , 29-C ) :   1.4599 B( 28-C , 36-O ) :   1.0567
B( 29-C , 30-O ) :   1.0576 B( 29-C , 37-C ) :   1.1673 B( 30-O , 31-C ) :   1.0517
B( 31-C , 32-C ) :   1.2031 B( 31-C , 35-C ) :   1.5707 B( 32-C , 33-C ) :   1.5722
B( 32-C , 36-O ) :   1.0495 B( 33-C , 34-S ) :   1.1407 B( 33-C , 62-H ) :   0.9723
B( 34-S , 35-C ) :   1.1414 B( 35-C , 63-H ) :   0.9733 B( 37-C , 38-C ) :   1.6937
B( 37-C , 64-H ) :   0.9509 B( 38-C , 39-C ) :   1.0452 B( 38-C , 65-H ) :   0.9871
B( 39-C , 40-C ) :   1.2098 B( 39-C , 44-C ) :   1.3915 B( 40-C , 41-C ) :   1.4726
B( 40-C , 66-H ) :   0.9982 B( 41-C , 42-C ) :   1.2337 B( 41-C , 44-C ) :   0.1018
B( 41-C , 67-H ) :   1.0050 B( 42-C , 43-C ) :   1.2371 B( 42-C , 48-N ) :   1.4386
B( 43-C , 44-C ) :   1.2440 B( 43-C , 45-N ) :   1.4369 B( 44-C , 68-H ) :   1.0046
B( 45-N , 46-C ) :   1.6760 B( 46-C , 47-C ) :   1.2276 B( 46-C , 69-H ) :   0.9740
B( 47-C , 48-N ) :   1.6659 B( 47-C , 70-H ) :   0.9746

-----------------------------------------------------------------------------
         ABSORPTION SPECTRUM VIA TRANSITION ELECTRIC DIPOLE MOMENTS
-----------------------------------------------------------------------------
State   Energy  Wavelength   fosc         T2         TX        TY        TZ
        (cm-1)    (nm)                  (au**2)     (au)      (au)      (au)
-----------------------------------------------------------------------------
   0   20252.6    493.8   2.040894185  33.17536   0.57015  -1.37184   5.56492
   1   24971.6    400.5   1.192703390  15.72393   2.76869   1.30410   2.52142
   2   26918.5    371.5   0.015194314   0.18583  -0.30139  -0.05755  -0.30279
   3   29109.2    343.5   0.073117982   0.82693  -0.56381  -0.60587  -0.37678
   4   30787.2    324.8   0.052719211   0.56373   0.02381  -0.22841   0.71484
   5   31650.8    315.9   0.088740921   0.92303  -0.76930  -0.41731   0.39631
   6   32827.7    304.6   0.363836521   3.64872   1.43656   1.25360   0.11619
   7   33928.5    294.7   0.232539704   2.25636   0.75377   1.01907  -0.80603
   8   34618.5    288.9   0.067056189   0.63769   0.45520   0.38306   0.53268
   9   35812.6    279.2   0.046961760   0.43170   0.00643   0.16063  -0.63707
  10   36602.8    273.2   0.192891087   1.73490   0.48775   0.12970   1.21663
  11   36710.4    272.4   0.043220639   0.38759  -0.35036  -0.34467   0.38216
  12   37535.7    266.4   0.130903511   1.14811  -0.48593  -0.79034   0.53605
  13   38035.5    262.9   0.022618254   0.19577   0.27707   0.08969  -0.33311
  14   38728.6    258.2   0.194871039   1.65650  -0.94762  -0.57336  -0.65557
  15   39218.8    255.0   0.026644466   0.22366  -0.27429  -0.24381   0.29830
  16   39325.9    254.3   0.024267554   0.20315   0.17400   0.03623   0.41420
  17   39612.6    252.4   0.060796683   0.50527  -0.44694  -0.18561  -0.52064

FINAL SINGLE POINT ENERGY     -3098.569836504837

DIPOLE MOMENT
-------------
                                X             Y             Z
Electronic contribution:    -10.63487      -7.56673      -4.67764
Nuclear contribution   :     10.56415       7.53391       4.37357
                        -----------------------------------------
Total Dipole Moment    :     -0.07071      -0.03282      -0.30407
                        -----------------------------------------
Magnitude (a.u.)       :      0.31391
Magnitude (Debye)      :      0.79789

Rotational constants in cm-1:     0.002505     0.000309     0.000275
Rotational constants in MHz :    75.101916     9.255898     8.259116

                             ****ORCA TERMINATED NORMALLY****
TOTAL RUN TIME: 0 days 0 hours 5 minutes 1 seconds 627 msec
