                         Program Version 4.2.0 -  RELEASE  -
|  1> # ORCA input file
|  2> # SCF done       -151.214689113445          0.000582932500
|  3> ! CAM-B3LYP def2-SVP def2/J RIJCOSX Grid4 TightSCF
|  4> %maxcore 5000
|  5> %tddft
|  6>     Mode sTDDFT
|  7>     Ethresh 5.0
|  8>     maxcore 5000
|  9> end
| 10>
| 11> %pal
| 12>   nprocs 6
| 13>   end
| 14> * xyz 0 1
| 15>    O      -10.56381         8.24430         3.20437
| 16>    C       -9.33673         8.78703         3.43591
| 17>    N       -9.36138        10.08337         3.54789
| 18>    C      -10.67393        10.43566         3.38176
| 19>    C      -11.40095         9.28794         3.17188
| 20>    C      -11.11983        11.82105         3.42822
| 21>    O      -12.25834        12.18296         3.27639
| 22>    C       -8.19755         7.94417         3.51565
| 23>    S       -6.62054         8.59225         3.85767
| 24>    C       -5.86860         7.02670         3.74121
| 25>    C       -6.81504         6.04301         3.44955
| 26>    C       -8.12624         6.58039         3.33472
| 27>    S       -9.30300         5.36082         3.00937
| 28>    C       -8.03880         4.12758         3.03717
| 29>    C       -8.35070         2.70682         2.84711
| 30>    O       -7.47588         1.86918         2.85121
| 31>    C       -9.81664         2.38592         2.65749
| 32>    C      -10.06822         0.88787         2.56752
| 33>    C       -6.79626         4.64285         3.27245
| 34>    C       -4.48453         6.84493         3.91736
| 35>    S       -3.45893         8.16637         4.54827
| 36>    C       -2.12830         7.10005         4.40039
| 37>    C       -2.54424         5.85827         3.89078
| 38>    N       -3.83933         5.73911         3.64542
| 39>    C       -1.37608         4.93919         3.71931
| 40>    C       -0.24874         5.81052         4.19312
| 41>    C       -0.73646         7.05951         4.59967
| 42>    S        0.50247         8.08815         5.18635
| 43>    C        1.70278         6.85042         4.85401
| 44>    C        1.12705         5.70041         4.32617
| 45>    C        3.05554         7.14767         5.13282
| 46>    C        4.13484         6.43663         4.71217
| 47>    C        5.46283         6.80428         5.00765
| 48>    S        5.87243         8.07086         6.14144
| 49>    C        7.60218         7.93136         5.85906
| 50>    C        7.84153         6.90505         4.92869
| 51>    C        6.63683         6.29768         4.48005
| 52>    S        6.91688         5.02603         3.34200
| 53>    C        8.65007         5.27682         3.48475
| 54>    C        9.61255         4.48025         2.72192
| 55>    O       10.80625         4.63471         2.86543
| 56>    C        9.00962         3.47899         1.76010
| 57>    C       10.07246         2.76043         0.94229
| 58>    C        8.96989         6.28318         4.35342
| 59>    C        8.39768         8.82113         6.58571
| 60>    C        9.70593         9.22356         6.44085
| 61>    C       10.32742        10.16227         7.30516
| 62>    C       11.59049        10.51488         6.94650
| 63>    C       12.04618         9.88045         5.76766
| 64>    S       10.81113         8.79725         5.15261
| 65>    C       13.25384        10.04863         5.12860
| 66>    C       14.32126        10.90249         5.52597
| 67>    C       15.38707        10.88230         4.69573
| 68>    C       15.24290        10.00444         3.56986
| 69>    S       13.66230         9.20890         3.64990
| 70>    C       16.12393         9.78355         2.58452
| 71>    H      -12.44280         9.11118         3.00152
| 72>    H      -10.29378        12.52864         3.61754
| 73>    H      -10.15330         2.88782         1.74584
| 74>    H      -10.37517         2.82134         3.49031
| 75>    H       -9.49911         0.46137         1.74568
| 76>    H      -11.12463         0.68758         2.40870
| 77>    H       -9.75061         0.39927         3.48521
| 78>    H       -5.90638         4.04320         3.32110
| 79>    H       -1.25693         4.63325         2.67848
| 80>    H       -1.47900         4.03404         4.32054
| 81>    H        1.70053         4.82763         4.07319
| 82>    H        3.23361         8.05176         5.70206
| 83>    H        4.01613         5.56501         4.08318
| 84>    H        8.31280         4.00879         1.10510
| 85>    H        8.42397         2.76273         2.34347
| 86>    H       10.65193         3.47982         0.36928
| 87>    H        9.61332         2.05128         0.25828
| 88>    H       10.75468         2.22779         1.59957
| 89>    H        9.99339         6.53714         4.55216
| 90>    H        7.86350         9.33562         7.37751
| 91>    H        9.81181        10.54822         8.16697
| 92>    H       12.19924        11.21529         7.48900
| 93>    H       14.25695        11.50246         6.41634
| 94>    H       16.28447        11.45962         4.83061
| 95>    H       17.07297        10.29000         2.57315
| 96>    H       15.91491         9.10047         1.78187
| 97> *
| 98>
| 99>                          ****END OF INPUT****

CARTESIAN COORDINATES (ANGSTROEM)
---------------------------------
  O    -10.563810    8.244300    3.204370
  C     -9.336730    8.787030    3.435910
  N     -9.361380   10.083370    3.547890
  C    -10.673930   10.435660    3.381760
  C    -11.400950    9.287940    3.171880
  C    -11.119830   11.821050    3.428220
  O    -12.258340   12.182960    3.276390
  C     -8.197550    7.944170    3.515650
  S     -6.620540    8.592250    3.857670
  C     -5.868600    7.026700    3.741210
  C     -6.815040    6.043010    3.449550
  C     -8.126240    6.580390    3.334720
  S     -9.303000    5.360820    3.009370
  C     -8.038800    4.127580    3.037170
  C     -8.350700    2.706820    2.847110
  O     -7.475880    1.869180    2.851210
  C     -9.816640    2.385920    2.657490
  C    -10.068220    0.887870    2.567520
  C     -6.796260    4.642850    3.272450
  C     -4.484530    6.844930    3.917360
  S     -3.458930    8.166370    4.548270
  C     -2.128300    7.100050    4.400390
  C     -2.544240    5.858270    3.890780
  N     -3.839330    5.739110    3.645420
  C     -1.376080    4.939190    3.719310
  C     -0.248740    5.810520    4.193120
  C     -0.736460    7.059510    4.599670
  S      0.502470    8.088150    5.186350
  C      1.702780    6.850420    4.854010
  C      1.127050    5.700410    4.326170
  C      3.055540    7.147670    5.132820
  C      4.134840    6.436630    4.712170
  C      5.462830    6.804280    5.007650
  S      5.872430    8.070860    6.141440
  C      7.602180    7.931360    5.859060
  C      7.841530    6.905050    4.928690
  C      6.636830    6.297680    4.480050
  S      6.916880    5.026030    3.342000
  C      8.650070    5.276820    3.484750
  C      9.612550    4.480250    2.721920
  O     10.806250    4.634710    2.865430
  C      9.009620    3.478990    1.760100
  C     10.072460    2.760430    0.942290
  C      8.969890    6.283180    4.353420
  C      8.397680    8.821130    6.585710
  C      9.705930    9.223560    6.440850
  C     10.327420   10.162270    7.305160
  C     11.590490   10.514880    6.946500
  C     12.046180    9.880450    5.767660
  S     10.811130    8.797250    5.152610
  C     13.253840   10.048630    5.128600
  C     14.321260   10.902490    5.525970
  C     15.387070   10.882300    4.695730
  C     15.242900   10.004440    3.569860
  S     13.662300    9.208900    3.649900
  C     16.123930    9.783550    2.584520
  H    -12.442800    9.111180    3.001520
  H    -10.293780   12.528640    3.617540
  H    -10.153300    2.887820    1.745840
  H    -10.375170    2.821340    3.490310
  H     -9.499110    0.461370    1.745680
  H    -11.124630    0.687580    2.408700
  H     -9.750610    0.399270    3.485210
  H     -5.906380    4.043200    3.321100
  H     -1.256930    4.633250    2.678480
  H     -1.479000    4.034040    4.320540
  H      1.700530    4.827630    4.073190
  H      3.233610    8.051760    5.702060
  H      4.016130    5.565010    4.083180
  H      8.312800    4.008790    1.105100
  H      8.423970    2.762730    2.343470
  H     10.651930    3.479820    0.369280
  H      9.613320    2.051280    0.258280
  H     10.754680    2.227790    1.599570
  H      9.993390    6.537140    4.552160
  H      7.863500    9.335620    7.377510
  H      9.811810   10.548220    8.166970
  H     12.199240   11.215290    7.489000
  H     14.256950   11.502460    6.416340
  H     16.284470   11.459620    4.830610
  H     17.072970   10.290000    2.573150
  H     15.914910    9.100470    1.781870

 Total Charge           Charge          ....    0
 Multiplicity           Mult            ....    1
 Number of Electrons    NEL             ....  452
 Basis Dimension        Dim             ....  946

ORBITAL ENERGIES
----------------

  NO   OCC          E(Eh)            E(eV)
   0   2.0000     -88.978474     -2421.2274
   1   2.0000     -88.973959     -2421.1045
   2   2.0000     -88.963738     -2420.8264
   3   2.0000     -88.959145     -2420.7014
   4   2.0000     -88.957870     -2420.6667
   5   2.0000     -88.951472     -2420.4926
   6   2.0000     -88.947117     -2420.3741
   7   2.0000     -88.939489     -2420.1665
   8   2.0000     -19.319303      -525.7050
   9   2.0000     -19.210725      -522.7504
  10   2.0000     -19.201801      -522.5076
  11   2.0000     -19.196260      -522.3568
  12   2.0000     -14.420115      -392.3913
  13   2.0000     -14.416288      -392.2871
  14   2.0000     -10.379244      -282.4336
  15   2.0000     -10.355747      -281.7942
  16   2.0000     -10.355633      -281.7911
  17   2.0000     -10.350444      -281.6499
  18   2.0000     -10.348610      -281.6000
  19   2.0000     -10.345056      -281.5033
  20   2.0000     -10.324665      -280.9484
  21   2.0000     -10.320362      -280.8313
  22   2.0000     -10.315908      -280.7101
  23   2.0000     -10.314040      -280.6593
  24   2.0000     -10.312774      -280.6249
  25   2.0000     -10.311831      -280.5992
  26   2.0000     -10.311770      -280.5975
  27   2.0000     -10.309477      -280.5351
  28   2.0000     -10.308620      -280.5118
  29   2.0000     -10.307208      -280.4734
  30   2.0000     -10.306487      -280.4538
  31   2.0000     -10.306215      -280.4464
  32   2.0000     -10.305862      -280.4368
  33   2.0000     -10.305023      -280.4139
  34   2.0000     -10.302227      -280.3378
  35   2.0000     -10.300517      -280.2913
  36   2.0000     -10.293878      -280.1107
  37   2.0000     -10.293119      -280.0900
  38   2.0000     -10.290828      -280.0277
  39   2.0000     -10.290561      -280.0204
  40   2.0000     -10.287903      -279.9481
  41   2.0000     -10.287102      -279.9263
  42   2.0000     -10.287031      -279.9244
  43   2.0000     -10.286647      -279.9139
  44   2.0000     -10.285773      -279.8901
  45   2.0000     -10.285590      -279.8851
  46   2.0000     -10.284870      -279.8655
  47   2.0000     -10.284795      -279.8635
  48   2.0000     -10.284107      -279.8448
  49   2.0000     -10.281262      -279.7674
  50   2.0000     -10.279253      -279.7127
  51   2.0000     -10.271962      -279.5143
  52   2.0000     -10.270906      -279.4856
  53   2.0000     -10.267194      -279.3845
  54   2.0000     -10.251678      -278.9624
  55   2.0000     -10.248774      -278.8833
  56   2.0000      -8.072957      -219.6763
  57   2.0000      -8.069171      -219.5733
  58   2.0000      -8.059029      -219.2973
  59   2.0000      -8.054301      -219.1687
  60   2.0000      -8.053097      -219.1359
  61   2.0000      -8.046938      -218.9683
  62   2.0000      -8.043046      -218.8624
  63   2.0000      -8.036243      -218.6773
  64   2.0000      -6.042477      -164.4242
  65   2.0000      -6.038394      -164.3131
  66   2.0000      -6.038145      -164.3063
  67   2.0000      -6.034902      -164.2180
  68   2.0000      -6.034497      -164.2070
  69   2.0000      -6.031207      -164.1175
  70   2.0000      -6.028368      -164.0402
  71   2.0000      -6.024295      -163.9294
  72   2.0000      -6.024099      -163.9241
  73   2.0000      -6.022416      -163.8783
  74   2.0000      -6.021049      -163.8411
  75   2.0000      -6.019850      -163.8085
  76   2.0000      -6.018459      -163.7706
  77   2.0000      -6.016591      -163.7198
  78   2.0000      -6.015456      -163.6889
  79   2.0000      -6.015009      -163.6767
  80   2.0000      -6.012804      -163.6167
  81   2.0000      -6.012550      -163.6098
  82   2.0000      -6.008701      -163.5051
  83   2.0000      -6.008214      -163.4918
  84   2.0000      -6.006062      -163.4333
  85   2.0000      -6.003975      -163.3765
  86   2.0000      -6.002101      -163.3255
  87   2.0000      -5.996781      -163.1807
  88   2.0000      -1.246610       -33.9220
  89   2.0000      -1.123982       -30.5851
  90   2.0000      -1.118824       -30.4448
  91   2.0000      -1.113224       -30.2924
  92   2.0000      -1.074533       -29.2395
  93   2.0000      -1.028237       -27.9798
  94   2.0000      -1.015424       -27.6311
  95   2.0000      -1.005631       -27.3646
  96   2.0000      -0.998216       -27.1628
  97   2.0000      -0.993542       -27.0356
  98   2.0000      -0.970922       -26.4201
  99   2.0000      -0.954705       -25.9788
 100   2.0000      -0.946395       -25.7527
 101   2.0000      -0.933190       -25.3934
 102   2.0000      -0.910603       -24.7788
 103   2.0000      -0.905201       -24.6318
 104   2.0000      -0.897160       -24.4130
 105   2.0000      -0.882365       -24.0104
 106   2.0000      -0.869273       -23.6541
 107   2.0000      -0.865218       -23.5438
 108   2.0000      -0.860555       -23.4169
 109   2.0000      -0.856130       -23.2965
 110   2.0000      -0.846518       -23.0349
 111   2.0000      -0.841292       -22.8927
 112   2.0000      -0.837041       -22.7770
 113   2.0000      -0.827414       -22.5151
 114   2.0000      -0.824657       -22.4401
 115   2.0000      -0.818150       -22.2630
 116   2.0000      -0.814726       -22.1698
 117   2.0000      -0.802927       -21.8488
 118   2.0000      -0.789628       -21.4869
 119   2.0000      -0.780136       -21.2286
 120   2.0000      -0.770637       -20.9701
 121   2.0000      -0.758708       -20.6455
 122   2.0000      -0.750846       -20.4316
 123   2.0000      -0.744954       -20.2712
 124   2.0000      -0.741043       -20.1648
 125   2.0000      -0.717117       -19.5137
 126   2.0000      -0.701237       -19.0816
 127   2.0000      -0.694758       -18.9053
 128   2.0000      -0.690097       -18.7785
 129   2.0000      -0.683098       -18.5881
 130   2.0000      -0.675969       -18.3940
 131   2.0000      -0.666303       -18.1310
 132   2.0000      -0.658789       -17.9266
 133   2.0000      -0.653091       -17.7715
 134   2.0000      -0.641915       -17.4674
 135   2.0000      -0.631268       -17.1777
 136   2.0000      -0.629246       -17.1227
 137   2.0000      -0.624338       -16.9891
 138   2.0000      -0.619493       -16.8573
 139   2.0000      -0.611025       -16.6268
 140   2.0000      -0.605523       -16.4771
 141   2.0000      -0.600446       -16.3390
 142   2.0000      -0.598860       -16.2958
 143   2.0000      -0.593179       -16.1412
 144   2.0000      -0.590225       -16.0608
 145   2.0000      -0.588705       -16.0195
 146   2.0000      -0.585129       -15.9222
 147   2.0000      -0.573044       -15.5933
 148   2.0000      -0.569233       -15.4896
 149   2.0000      -0.566228       -15.4079
 150   2.0000      -0.563782       -15.3413
 151   2.0000      -0.555194       -15.1076
 152   2.0000      -0.548492       -14.9252
 153   2.0000      -0.547551       -14.8996
 154   2.0000      -0.546262       -14.8645
 155   2.0000      -0.543592       -14.7919
 156   2.0000      -0.542168       -14.7532
 157   2.0000      -0.536820       -14.6076
 158   2.0000      -0.533195       -14.5090
 159   2.0000      -0.527067       -14.3422
 160   2.0000      -0.519642       -14.1402
 161   2.0000      -0.518704       -14.1147
 162   2.0000      -0.514035       -13.9876
 163   2.0000      -0.510574       -13.8934
 164   2.0000      -0.509609       -13.8672
 165   2.0000      -0.507559       -13.8114
 166   2.0000      -0.503768       -13.7082
 167   2.0000      -0.499916       -13.6034
 168   2.0000      -0.496232       -13.5032
 169   2.0000      -0.494414       -13.4537
 170   2.0000      -0.493062       -13.4169
 171   2.0000      -0.488222       -13.2852
 172   2.0000      -0.487039       -13.2530
 173   2.0000      -0.483213       -13.1489
 174   2.0000      -0.482367       -13.1259
 175   2.0000      -0.478962       -13.0332
 176   2.0000      -0.473565       -12.8864
 177   2.0000      -0.470595       -12.8055
 178   2.0000      -0.466981       -12.7072
 179   2.0000      -0.466118       -12.6837
 180   2.0000      -0.463809       -12.6209
 181   2.0000      -0.461897       -12.5689
 182   2.0000      -0.458600       -12.4791
 183   2.0000      -0.458091       -12.4653
 184   2.0000      -0.448775       -12.2118
 185   2.0000      -0.445630       -12.1262
 186   2.0000      -0.443461       -12.0672
 187   2.0000      -0.442651       -12.0452
 188   2.0000      -0.440642       -11.9905
 189   2.0000      -0.437316       -11.9000
 190   2.0000      -0.436909       -11.8889
 191   2.0000      -0.430007       -11.7011
 192   2.0000      -0.426472       -11.6049
 193   2.0000      -0.424656       -11.5555
 194   2.0000      -0.424100       -11.5403
 195   2.0000      -0.422995       -11.5103
 196   2.0000      -0.420325       -11.4376
 197   2.0000      -0.416738       -11.3400
 198   2.0000      -0.416562       -11.3352
 199   2.0000      -0.414903       -11.2901
 200   2.0000      -0.413523       -11.2525
 201   2.0000      -0.412037       -11.2121
 202   2.0000      -0.408648       -11.1199
 203   2.0000      -0.404692       -11.0122
 204   2.0000      -0.396114       -10.7788
 205   2.0000      -0.393882       -10.7181
 206   2.0000      -0.381098       -10.3702
 207   2.0000      -0.379403       -10.3241
 208   2.0000      -0.370256       -10.0752
 209   2.0000      -0.358296        -9.7497
 210   2.0000      -0.352693        -9.5973
 211   2.0000      -0.338295        -9.2055
 212   2.0000      -0.331941        -9.0326
 213   2.0000      -0.331582        -9.0228
 214   2.0000      -0.328509        -8.9392
 215   2.0000      -0.327640        -8.9155
 216   2.0000      -0.326077        -8.8730
 217   2.0000      -0.323997        -8.8164
 218   2.0000      -0.321157        -8.7391
 219   2.0000      -0.317761        -8.6467
 220   2.0000      -0.313807        -8.5391
 221   2.0000      -0.305913        -8.3243
 222   2.0000      -0.287559        -7.8249
 223   2.0000      -0.263386        -7.1671
 224   2.0000      -0.235692        -6.4135
 225   2.0000      -0.203523        -5.5381
 226   0.0000      -0.086359        -2.3500
 227   0.0000      -0.069922        -1.9027
 228   0.0000      -0.030361        -0.8262
 229   0.0000      -0.021794        -0.5930
 230   0.0000      -0.018345        -0.4992

MULLIKEN ATOMIC CHARGES
-----------------------
   0 O :   -0.178330
   1 C :    0.073020
   2 N :   -0.085429
   3 C :   -0.045023
   4 C :    0.131626
   5 C :    0.167195
   6 O :   -0.176873
   7 C :   -0.205689
   8 S :    0.222561
   9 C :   -0.065908
  10 C :    0.108017
  11 C :    0.015550
  12 S :    0.124776
  13 C :   -0.078547
  14 C :    0.035505
  15 O :   -0.173182
  16 C :   -0.075208
  17 C :    0.060302
  18 C :   -0.009317
  19 C :   -0.126064
  20 S :    0.132062
  21 C :   -0.044166
  22 C :   -0.234492
  23 N :   -0.004567
  24 C :    0.397797
  25 C :   -0.159939
  26 C :   -0.106299
  27 S :    0.150805
  28 C :   -0.072689
  29 C :   -0.019462
  30 C :    0.024130
  31 C :   -0.002578
  32 C :   -0.115665
  33 S :    0.113347
  34 C :   -0.118539
  35 C :    0.145542
  36 C :   -0.034373
  37 S :    0.094389
  38 C :   -0.085923
  39 C :    0.035166
  40 O :   -0.178395
  41 C :   -0.075332
  42 C :    0.060072
  43 C :   -0.023895
  44 C :   -0.010138
  45 C :   -0.016424
  46 C :    0.025655
  47 C :    0.031241
  48 C :   -0.050459
  49 S :    0.088369
  50 C :   -0.065451
  51 C :    0.027958
  52 C :    0.055375
  53 C :   -0.067513
  54 S :    0.096027
  55 C :   -0.024748
  56 H :    0.035133
  57 H :   -0.010722
  58 H :    0.038867
  59 H :    0.038352
  60 H :    0.022079
  61 H :    0.007444
  62 H :    0.019073
  63 H :    0.010952
  64 H :    0.038443
  65 H :    0.038806
  66 H :   -0.023037
  67 H :   -0.009534
  68 H :   -0.009955
  69 H :    0.037232
  70 H :    0.037926
  71 H :    0.019653
  72 H :    0.005591
  73 H :    0.021178
  74 H :    0.007729
  75 H :   -0.014242
  76 H :   -0.012146
  77 H :   -0.012312
  78 H :   -0.011109
  79 H :   -0.009565
  80 H :    0.021457
  81 H :    0.026837
Sum of atomic charges:    0.0000000

LOEWDIN ATOMIC CHARGES
----------------------
   0 O :    0.021323
   1 C :    0.028301
   2 N :   -0.109859
   3 C :   -0.105426
   4 C :    0.070574
   5 C :    0.104141
   6 O :   -0.133009
   7 C :   -0.231818
   8 S :    0.488972
   9 C :   -0.184587
  10 C :   -0.067149
  11 C :   -0.169685
  12 S :    0.405039
  13 C :   -0.197345
  14 C :    0.064961
  15 O :   -0.144145
  16 C :   -0.078722
  17 C :   -0.048389
  18 C :    0.010032
  19 C :   -0.148715
  20 S :    0.410390
  21 C :   -0.206660
  22 C :   -0.039887
  23 N :   -0.077110
  24 C :   -0.011027
  25 C :   -0.041494
  26 C :   -0.206978
  27 S :    0.437918
  28 C :   -0.159518
  29 C :   -0.055912
  30 C :   -0.056290
  31 C :   -0.038105
  32 C :   -0.195860
  33 S :    0.438250
  34 C :   -0.152315
  35 C :   -0.083432
  36 C :   -0.180910
  37 S :    0.389620
  38 C :   -0.203198
  39 C :    0.064033
  40 O :   -0.148798
  41 C :   -0.078385
  42 C :   -0.049013
  43 C :   -0.006554
  44 C :   -0.091022
  45 C :   -0.144440
  46 C :   -0.035812
  47 C :   -0.032179
  48 C :   -0.185110
  49 S :    0.401618
  50 C :   -0.171675
  51 C :   -0.027623
  52 C :   -0.027059
  53 C :   -0.140241
  54 S :    0.363717
  55 C :   -0.068910
  56 H :    0.036158
  57 H :    0.002269
  58 H :    0.038676
  59 H :    0.034758
  60 H :    0.029861
  61 H :    0.024117
  62 H :    0.029229
  63 H :    0.043143
  64 H :    0.057193
  65 H :    0.057793
  66 H :    0.030581
  67 H :    0.021267
  68 H :    0.031217
  69 H :    0.034634
  70 H :    0.037555
  71 H :    0.029194
  72 H :    0.023285
  73 H :    0.029519
  74 H :    0.021840
  75 H :    0.033629
  76 H :    0.032986
  77 H :    0.031904
  78 H :    0.032497
  79 H :    0.034237
  80 H :    0.029542
  81 H :    0.028392

  Mayer bond orders larger than 0.100000
B(  0-O ,  1-C ) :   1.1912 B(  0-O ,  4-C ) :   1.1543 B(  1-C ,  2-N ) :   1.7757
B(  1-C ,  7-C ) :   1.1056 B(  2-N ,  3-C ) :   1.2942 B(  3-C ,  4-C ) :   1.5180
B(  3-C ,  5-C ) :   0.9707 B(  4-C , 56-H ) :   0.9908 B(  5-C ,  6-O ) :   2.2041
B(  5-C , 57-H ) :   0.9522 B(  7-C ,  8-S ) :   1.1264 B(  7-C ,  9-C ) :   0.1333
B(  7-C , 11-C ) :   1.5246 B(  8-S ,  9-C ) :   1.1427 B(  9-C , 10-C ) :   1.3933
B(  9-C , 19-C ) :   1.1273 B( 10-C , 11-C ) :   1.2293 B( 10-C , 18-C ) :   1.1469
B( 11-C , 12-S ) :   1.0542 B( 12-S , 13-C ) :   1.0391 B( 13-C , 14-C ) :   0.9899
B( 13-C , 18-C ) :   1.5721 B( 14-C , 15-O ) :   2.2117 B( 14-C , 16-C ) :   0.9990
B( 16-C , 17-C ) :   1.1097 B( 16-C , 58-H ) :   0.9220 B( 16-C , 59-H ) :   0.9272
B( 17-C , 60-H ) :   0.9662 B( 17-C , 61-H ) :   0.9634 B( 17-C , 62-H ) :   0.9700
B( 18-C , 63-H ) :   1.0169 B( 19-C , 20-S ) :   1.0649 B( 19-C , 23-N ) :   1.6664
B( 20-S , 21-C ) :   1.0965 B( 21-C , 22-C ) :   1.4599 B( 21-C , 26-C ) :   1.2018
B( 22-C , 23-N ) :   1.4520 B( 22-C , 24-C ) :   1.0418 B( 24-C , 25-C ) :   0.9795
B( 24-C , 64-H ) :   0.8617 B( 24-C , 65-H ) :   0.8578 B( 25-C , 26-C ) :   1.5030
B( 25-C , 29-C ) :   1.3229 B( 26-C , 27-S ) :   1.0810 B( 27-S , 28-C ) :   1.1051
B( 28-C , 29-C ) :   1.4533 B( 28-C , 30-C ) :   1.1390 B( 29-C , 66-H ) :   0.9975
B( 30-C , 31-C ) :   1.6503 B( 30-C , 67-H ) :   0.9551 B( 31-C , 32-C ) :   1.1920
B( 31-C , 68-H ) :   0.9711 B( 32-C , 33-S ) :   1.0922 B( 32-C , 36-C ) :   1.4703
B( 33-S , 34-C ) :   1.1252 B( 34-C , 35-C ) :   1.3225 B( 34-C , 44-C ) :   1.2052
B( 35-C , 36-C ) :   1.2401 B( 35-C , 43-C ) :   1.1425 B( 36-C , 37-S ) :   1.0454
B( 37-S , 38-C ) :   1.0495 B( 38-C , 39-C ) :   0.9960 B( 38-C , 43-C ) :   1.6059
B( 39-C , 40-O ) :   2.1957 B( 39-C , 41-C ) :   0.9982 B( 41-C , 42-C ) :   1.1099
B( 41-C , 69-H ) :   0.9285 B( 41-C , 70-H ) :   0.9222 B( 42-C , 71-H ) :   0.9694
B( 42-C , 72-H ) :   0.9635 B( 42-C , 73-H ) :   0.9668 B( 43-C , 74-H ) :   0.9918
B( 44-C , 45-C ) :   1.5807 B( 44-C , 75-H ) :   0.9384 B( 45-C , 46-C ) :   1.1470
B( 45-C , 49-S ) :   1.0435 B( 46-C , 47-C ) :   1.5916 B( 46-C , 76-H ) :   0.9995
B( 47-C , 48-C ) :   1.1774 B( 47-C , 77-H ) :   0.9921 B( 48-C , 49-S ) :   1.0377
B( 48-C , 50-C ) :   1.5416 B( 50-C , 51-C ) :   1.1539 B( 50-C , 54-S ) :   1.0547
B( 51-C , 52-C ) :   1.6595 B( 51-C , 78-H ) :   0.9921 B( 52-C , 53-C ) :   1.0803
B( 52-C , 79-H ) :   0.9926 B( 53-C , 54-S ) :   1.0076 B( 53-C , 55-C ) :   1.8633
B( 55-C , 80-H ) :   0.9504 B( 55-C , 81-H ) :   0.9416

-----------------------------------------------------------------------------
         ABSORPTION SPECTRUM VIA TRANSITION ELECTRIC DIPOLE MOMENTS
-----------------------------------------------------------------------------
State   Energy  Wavelength   fosc         T2         TX        TY        TZ
        (cm-1)    (nm)                  (au**2)     (au)      (au)      (au)
-----------------------------------------------------------------------------
   0   12764.3    783.4   2.222823124  57.33013   7.39267   1.62013   0.23185
   1   17621.9    567.5   0.341938320   6.38808  -2.18130   1.18311  -0.47984
   2   20157.4    496.1   0.146797465   2.39751  -1.42117   0.20729  -0.57863
   3   22933.8    436.0   0.022879017   0.32843   0.45242  -0.06824   0.34509
   4   24671.2    405.3   0.026166694   0.34917  -0.01549   0.38606  -0.44708
   5   25047.0    399.2   0.371853083   4.88754  -2.03480   0.33394   0.79725
   6   27258.9    366.9   0.092117055   1.11252  -0.38936   0.22171   0.95487
   7   28962.2    345.3   0.133427718   1.51667  -0.88975   0.25362   0.81282
   8   30115.7    332.1   0.147086961   1.60789   0.85512  -0.91968  -0.17566
   9   31553.1    316.9   0.040886178   0.42659   0.52020  -0.02587  -0.39410
  10   32122.4    311.3   0.166812428   1.70960   1.04035  -0.58543  -0.53342
  11   32564.4    307.1   0.058236800   0.58875   0.40144  -0.56623  -0.32708
  12   32880.6    304.1   0.055054068   0.55122   0.65057   0.06555  -0.35169
  13   32957.9    303.4   0.018941639   0.18921  -0.27875   0.05014   0.33013
  14   33054.9    302.5   0.016175004   0.16110   0.03187  -0.17935  -0.35765
  15   33450.4    299.0   0.054442391   0.53581   0.13519   0.52660   0.49013
  16   34150.1    292.8   0.031395177   0.30265   0.10328  -0.30651  -0.44501
  17   34516.2    289.7   0.026587421   0.25359  -0.05847  -0.43098  -0.25383
  18   34720.8    288.0   0.019658876   0.18640  -0.14303  -0.19504  -0.35764
  19   34802.2    287.3   0.000001876   0.00002  -0.00059   0.00084  -0.00409
  20   35152.3    284.5   0.058096659   0.54409   0.39775  -0.53240  -0.32006
  21   35589.8    281.0   0.136939937   1.26672   0.11495  -1.09354  -0.24017
  22   35968.1    278.0   0.033215925   0.30402   0.18801  -0.46674  -0.22546
  23   36667.5    272.7   0.001175879   0.01056  -0.03396  -0.09333  -0.02634
  24   36870.3    271.2   0.318528655   2.84412  -0.09127   1.66235   0.26901
  25   36908.6    270.9   0.055693542   0.49677  -0.28385   0.59355  -0.25278
  26   37686.4    265.3   0.005730995   0.05006   0.18708   0.01870   0.12131
  27   37840.5    264.3   0.231997306   2.01837   0.35065   1.36887   0.14706
  28   38423.3    260.3   0.133388008   1.14287   1.04846  -0.11108  -0.17679
  29   38826.1    257.6   0.166527025   1.41200  -0.49508   0.74723   0.78010
  30   39069.2    256.0   0.027155111   0.22882  -0.03261   0.45919  -0.13001
  31   39867.1    250.8   0.074903978   0.61854   0.62979  -0.32182  -0.34400
  32   40182.1    248.9   0.037369725   0.30617  -0.54477   0.00531   0.09677

FINAL SINGLE POINT ENERGY     -5208.471549981864

DIPOLE MOMENT
-------------
                                X             Y             Z
Electronic contribution:    -37.89063      31.42880      13.66890
Nuclear contribution   :     39.54747     -31.00419     -13.02244
                        -----------------------------------------
Total Dipole Moment    :      1.65684       0.42461       0.64646
                        -----------------------------------------
Magnitude (a.u.)       :      1.82848
Magnitude (Debye)      :      4.64763

Rotational constants in cm-1:     0.002609     0.000246     0.000230
Rotational constants in MHz :    78.223482     7.367713     6.887690

                             ****ORCA TERMINATED NORMALLY****
TOTAL RUN TIME: 0 days 0 hours 7 minutes 1 seconds 830 msec
