                         Program Version 4.2.0 -  RELEASE  -
|  1> # ORCA input file
|  2> # SCF done       -155.004007465327          0.000380578924
|  3> ! CAM-B3LYP def2-SVP def2/J RIJCOSX Grid4 TightSCF
|  4> %maxcore 5000
|  5> %tddft
|  6>     Mode sTDDFT
|  7>     Ethresh 5.0
|  8>     maxcore 5000
|  9> end
| 10>
| 11> %pal
| 12>   nprocs 6
| 13>   end
| 14> * xyz 0 1
| 15>    O       10.46072        12.72717        -0.37181
| 16>    C        9.24288        12.45659        -0.90644
| 17>    N        8.63056        13.51465        -1.34932
| 18>    C        9.48245        14.55493        -1.10053
| 19>    C       10.60937        14.04709        -0.49487
| 20>    C        9.15844        15.93109        -1.45845
| 21>    O        9.87409        16.87790        -1.26117
| 22>    C        8.76692        11.10831        -0.94428
| 23>    O        7.56465        10.83936        -1.47212
| 24>    C        7.36234         9.50439        -1.40286
| 25>    C        8.45924         8.89753        -0.81426
| 26>    C        9.36329         9.93044        -0.51742
| 27>    C       10.69502         9.78661         0.13110
| 28>    F       11.70112        10.22949        -0.64248
| 29>    F       10.78241        10.46443         1.28916
| 30>    F       10.97371         8.50823         0.41906
| 31>    C        6.16397         8.92018        -1.90029
| 32>    C        5.13473         9.63525        -2.41383
| 33>    C        3.96464         9.02857        -2.92693
| 34>    S        2.62861        10.04020        -3.54920
| 35>    C        1.79576         8.59365        -3.92306
| 36>    C        2.57013         7.47902        -3.55869
| 37>    N        3.74691         7.74296        -3.01477
| 38>    C        1.86315         6.20618        -3.89782
| 39>    C        0.59889         6.73355        -4.50860
| 40>    C        0.59176         8.13382        -4.49682
| 41>    S       -0.84024         8.78250        -5.18228
| 42>    C       -1.43556         7.16414        -5.50895
| 43>    C       -0.54095         6.19148        -5.08133
| 44>    C       -2.68705         7.00516        -6.15387
| 45>    C       -3.18800         5.81274        -6.56444
| 46>    C       -4.43054         5.65626        -7.22675
| 47>    O       -5.27124         6.68950        -7.43641
| 48>    C       -6.35743         6.22941        -8.10742
| 49>    C       -6.21662         4.86843        -8.34103
| 50>    C       -4.99087         4.50128        -7.77381
| 51>    C       -4.38512         3.14817        -7.75551
| 52>    F       -4.13982         2.70325        -6.50473
| 53>    F       -5.16282         2.22834        -8.33855
| 54>    F       -3.19492         3.09929        -8.39034
| 55>    C       -7.42891         7.08326        -8.45744
| 56>    C       -7.52407         8.39689        -8.10491
| 57>    C       -8.61266         9.20881        -8.45940
| 58>    C       -8.77726        10.51513        -8.07642
| 59>    C       -9.86659        11.36109        -8.41155
| 60>    C       -9.79292        12.60898        -7.88038
| 61>    C       -8.63874        12.83002        -7.08774
| 62>    S       -7.64373        11.38529        -7.05567
| 63>    C       -8.29262        13.97388        -6.40901
| 64>    C       -9.02152        15.19623        -6.35415
| 65>    C       -8.44531        16.15481        -5.59710
| 66>    C       -7.20520        15.76453        -4.98879
| 67>    S       -6.83051        14.09652        -5.45292
| 68>    C       -6.41735        16.49691        -4.19050
| 69>    H       11.50938        14.50432        -0.13834
| 70>    H        8.16911        16.02423        -1.93882
| 71>    H        8.59587         7.85394        -0.62097
| 72>    H        6.09717         7.84440        -1.85660
| 73>    H        5.18644        10.71385        -2.44851
| 74>    H        1.67167         5.60050        -3.01016
| 75>    H        2.43982         5.59736        -4.59624
| 76>    H       -0.72777         5.13885        -5.18484
| 77>    H       -3.25802         7.90399        -6.34115
| 78>    H       -2.62788         4.90291        -6.41498
| 79>    H       -6.90803         4.22762        -8.84770
| 80>    H       -8.21923         6.62078        -9.03116
| 81>    H       -6.73433         8.84082        -7.51333
| 82>    H       -9.39045         8.77387        -9.07398
| 83>    H      -10.66988        11.01141        -9.03610
| 84>    H      -10.53209        13.37501        -8.03156
| 85>    H       -9.95136        15.31751        -6.88098
| 86>    H       -8.84851        17.13902        -5.43714
| 87>    H       -6.68418        17.50663        -3.93285
| 88>    H       -5.50297        16.10522        -3.78423
| 89> *
| 90>
| 91>                          ****END OF INPUT****

CARTESIAN COORDINATES (ANGSTROEM)
---------------------------------
  O     10.460720   12.727170   -0.371810
  C      9.242880   12.456590   -0.906440
  N      8.630560   13.514650   -1.349320
  C      9.482450   14.554930   -1.100530
  C     10.609370   14.047090   -0.494870
  C      9.158440   15.931090   -1.458450
  O      9.874090   16.877900   -1.261170
  C      8.766920   11.108310   -0.944280
  O      7.564650   10.839360   -1.472120
  C      7.362340    9.504390   -1.402860
  C      8.459240    8.897530   -0.814260
  C      9.363290    9.930440   -0.517420
  C     10.695020    9.786610    0.131100
  F     11.701120   10.229490   -0.642480
  F     10.782410   10.464430    1.289160
  F     10.973710    8.508230    0.419060
  C      6.163970    8.920180   -1.900290
  C      5.134730    9.635250   -2.413830
  C      3.964640    9.028570   -2.926930
  S      2.628610   10.040200   -3.549200
  C      1.795760    8.593650   -3.923060
  C      2.570130    7.479020   -3.558690
  N      3.746910    7.742960   -3.014770
  C      1.863150    6.206180   -3.897820
  C      0.598890    6.733550   -4.508600
  C      0.591760    8.133820   -4.496820
  S     -0.840240    8.782500   -5.182280
  C     -1.435560    7.164140   -5.508950
  C     -0.540950    6.191480   -5.081330
  C     -2.687050    7.005160   -6.153870
  C     -3.188000    5.812740   -6.564440
  C     -4.430540    5.656260   -7.226750
  O     -5.271240    6.689500   -7.436410
  C     -6.357430    6.229410   -8.107420
  C     -6.216620    4.868430   -8.341030
  C     -4.990870    4.501280   -7.773810
  C     -4.385120    3.148170   -7.755510
  F     -4.139820    2.703250   -6.504730
  F     -5.162820    2.228340   -8.338550
  F     -3.194920    3.099290   -8.390340
  C     -7.428910    7.083260   -8.457440
  C     -7.524070    8.396890   -8.104910
  C     -8.612660    9.208810   -8.459400
  C     -8.777260   10.515130   -8.076420
  C     -9.866590   11.361090   -8.411550
  C     -9.792920   12.608980   -7.880380
  C     -8.638740   12.830020   -7.087740
  S     -7.643730   11.385290   -7.055670
  C     -8.292620   13.973880   -6.409010
  C     -9.021520   15.196230   -6.354150
  C     -8.445310   16.154810   -5.597100
  C     -7.205200   15.764530   -4.988790
  S     -6.830510   14.096520   -5.452920
  C     -6.417350   16.496910   -4.190500
  H     11.509380   14.504320   -0.138340
  H      8.169110   16.024230   -1.938820
  H      8.595870    7.853940   -0.620970
  H      6.097170    7.844400   -1.856600
  H      5.186440   10.713850   -2.448510
  H      1.671670    5.600500   -3.010160
  H      2.439820    5.597360   -4.596240
  H     -0.727770    5.138850   -5.184840
  H     -3.258020    7.903990   -6.341150
  H     -2.627880    4.902910   -6.414980
  H     -6.908030    4.227620   -8.847700
  H     -8.219230    6.620780   -9.031160
  H     -6.734330    8.840820   -7.513330
  H     -9.390450    8.773870   -9.073980
  H    -10.669880   11.011410   -9.036100
  H    -10.532090   13.375010   -8.031560
  H     -9.951360   15.317510   -6.880980
  H     -8.848510   17.139020   -5.437140
  H     -6.684180   17.506630   -3.932850
  H     -5.502970   16.105220   -3.784230

 Total Charge           Charge          ....    0
 Multiplicity           Mult            ....    1
 Number of Electrons    NEL             ....  412
 Basis Dimension        Dim             ....  872

ORBITAL ENERGIES
----------------

  NO   OCC          E(Eh)            E(eV)
   0   2.0000     -88.969648     -2420.9872
   1   2.0000     -88.964089     -2420.8359
   2   2.0000     -88.940540     -2420.1951
   3   2.0000     -88.936944     -2420.0973
   4   2.0000     -24.800780      -674.8635
   5   2.0000     -24.795819      -674.7285
   6   2.0000     -24.794280      -674.6867
   7   2.0000     -24.794107      -674.6819
   8   2.0000     -24.788979      -674.5424
   9   2.0000     -24.788356      -674.5255
  10   2.0000     -19.324313      -525.8413
  11   2.0000     -19.314569      -525.5762
  12   2.0000     -19.296508      -525.0847
  13   2.0000     -19.213899      -522.8368
  14   2.0000     -14.423854      -392.4930
  15   2.0000     -14.413531      -392.2121
  16   2.0000     -10.521980      -286.3176
  17   2.0000     -10.513430      -286.0850
  18   2.0000     -10.384353      -282.5726
  19   2.0000     -10.364140      -282.0226
  20   2.0000     -10.358696      -281.8744
  21   2.0000     -10.354727      -281.7664
  22   2.0000     -10.350179      -281.6427
  23   2.0000     -10.343434      -281.4592
  24   2.0000     -10.335771      -281.2506
  25   2.0000     -10.334474      -281.2153
  26   2.0000     -10.309909      -280.5469
  27   2.0000     -10.308449      -280.5072
  28   2.0000     -10.308299      -280.5031
  29   2.0000     -10.307539      -280.4824
  30   2.0000     -10.307290      -280.4756
  31   2.0000     -10.306899      -280.4650
  32   2.0000     -10.306878      -280.4644
  33   2.0000     -10.305065      -280.4151
  34   2.0000     -10.304718      -280.4056
  35   2.0000     -10.304560      -280.4013
  36   2.0000     -10.293779      -280.1080
  37   2.0000     -10.292031      -280.0604
  38   2.0000     -10.291281      -280.0400
  39   2.0000     -10.289121      -279.9812
  40   2.0000     -10.288946      -279.9764
  41   2.0000     -10.288258      -279.9577
  42   2.0000     -10.287080      -279.9257
  43   2.0000     -10.286514      -279.9103
  44   2.0000     -10.283357      -279.8244
  45   2.0000     -10.283356      -279.8243
  46   2.0000     -10.282579      -279.8032
  47   2.0000     -10.282217      -279.7933
  48   2.0000     -10.280975      -279.7595
  49   2.0000     -10.280446      -279.7452
  50   2.0000     -10.279058      -279.7074
  51   2.0000     -10.277343      -279.6607
  52   2.0000     -10.275052      -279.5984
  53   2.0000     -10.268675      -279.4248
  54   2.0000      -8.064816      -219.4548
  55   2.0000      -8.059099      -219.2992
  56   2.0000      -8.036816      -218.6929
  57   2.0000      -8.033695      -218.6079
  58   2.0000      -6.033911      -164.1911
  59   2.0000      -6.030083      -164.0869
  60   2.0000      -6.028435      -164.0421
  61   2.0000      -6.027068      -164.0049
  62   2.0000      -6.024358      -163.9311
  63   2.0000      -6.021201      -163.8452
  64   2.0000      -6.006557      -163.4467
  65   2.0000      -6.003508      -163.3638
  66   2.0000      -6.002652      -163.3405
  67   2.0000      -5.999621      -163.2580
  68   2.0000      -5.997605      -163.2031
  69   2.0000      -5.994205      -163.1106
  70   2.0000      -1.387266       -37.7494
  71   2.0000      -1.380431       -37.5634
  72   2.0000      -1.291101       -35.1326
  73   2.0000      -1.286092       -34.9963
  74   2.0000      -1.285750       -34.9870
  75   2.0000      -1.278218       -34.7821
  76   2.0000      -1.255000       -34.1503
  77   2.0000      -1.235224       -33.6122
  78   2.0000      -1.214849       -33.0577
  79   2.0000      -1.127622       -30.6841
  80   2.0000      -1.069160       -29.0933
  81   2.0000      -1.032145       -28.0861
  82   2.0000      -0.997733       -27.1497
  83   2.0000      -0.990358       -26.9490
  84   2.0000      -0.967589       -26.3294
  85   2.0000      -0.940234       -25.5851
  86   2.0000      -0.936288       -25.4777
  87   2.0000      -0.926221       -25.2038
  88   2.0000      -0.920631       -25.0516
  89   2.0000      -0.916708       -24.9449
  90   2.0000      -0.901235       -24.5238
  91   2.0000      -0.896566       -24.3968
  92   2.0000      -0.889639       -24.2083
  93   2.0000      -0.874831       -23.8054
  94   2.0000      -0.855053       -23.2672
  95   2.0000      -0.851133       -23.1605
  96   2.0000      -0.842913       -22.9368
  97   2.0000      -0.834364       -22.7042
  98   2.0000      -0.823003       -22.3950
  99   2.0000      -0.814198       -22.1555
 100   2.0000      -0.802183       -21.8285
 101   2.0000      -0.796682       -21.6788
 102   2.0000      -0.786703       -21.4073
 103   2.0000      -0.785070       -21.3628
 104   2.0000      -0.775248       -21.0956
 105   2.0000      -0.767399       -20.8820
 106   2.0000      -0.746552       -20.3147
 107   2.0000      -0.729681       -19.8556
 108   2.0000      -0.721258       -19.6264
 109   2.0000      -0.713631       -19.4189
 110   2.0000      -0.709715       -19.3123
 111   2.0000      -0.703037       -19.1306
 112   2.0000      -0.694233       -18.8910
 113   2.0000      -0.687865       -18.7178
 114   2.0000      -0.685917       -18.6648
 115   2.0000      -0.680007       -18.5039
 116   2.0000      -0.669600       -18.2207
 117   2.0000      -0.666480       -18.1358
 118   2.0000      -0.665551       -18.1106
 119   2.0000      -0.662774       -18.0350
 120   2.0000      -0.660621       -17.9764
 121   2.0000      -0.655183       -17.8284
 122   2.0000      -0.642131       -17.4733
 123   2.0000      -0.633499       -17.2384
 124   2.0000      -0.628825       -17.1112
 125   2.0000      -0.619942       -16.8695
 126   2.0000      -0.617076       -16.7915
 127   2.0000      -0.613533       -16.6951
 128   2.0000      -0.611468       -16.6389
 129   2.0000      -0.601530       -16.3685
 130   2.0000      -0.596853       -16.2412
 131   2.0000      -0.596265       -16.2252
 132   2.0000      -0.590629       -16.0718
 133   2.0000      -0.583507       -15.8780
 134   2.0000      -0.576116       -15.6769
 135   2.0000      -0.571743       -15.5579
 136   2.0000      -0.569581       -15.4991
 137   2.0000      -0.568924       -15.4812
 138   2.0000      -0.562792       -15.3144
 139   2.0000      -0.562522       -15.3070
 140   2.0000      -0.556016       -15.1300
 141   2.0000      -0.552678       -15.0391
 142   2.0000      -0.545647       -14.8478
 143   2.0000      -0.545439       -14.8421
 144   2.0000      -0.541630       -14.7385
 145   2.0000      -0.539198       -14.6723
 146   2.0000      -0.537769       -14.6334
 147   2.0000      -0.534892       -14.5552
 148   2.0000      -0.528907       -14.3923
 149   2.0000      -0.525515       -14.3000
 150   2.0000      -0.518631       -14.1127
 151   2.0000      -0.511647       -13.9226
 152   2.0000      -0.509662       -13.8686
 153   2.0000      -0.505904       -13.7663
 154   2.0000      -0.504298       -13.7226
 155   2.0000      -0.504216       -13.7204
 156   2.0000      -0.500027       -13.6064
 157   2.0000      -0.499424       -13.5900
 158   2.0000      -0.497491       -13.5374
 159   2.0000      -0.493003       -13.4153
 160   2.0000      -0.492913       -13.4128
 161   2.0000      -0.490607       -13.3501
 162   2.0000      -0.488392       -13.2898
 163   2.0000      -0.484925       -13.1955
 164   2.0000      -0.483803       -13.1649
 165   2.0000      -0.481898       -13.1131
 166   2.0000      -0.480487       -13.0747
 167   2.0000      -0.478569       -13.0225
 168   2.0000      -0.476877       -12.9765
 169   2.0000      -0.474416       -12.9095
 170   2.0000      -0.472549       -12.8587
 171   2.0000      -0.468996       -12.7620
 172   2.0000      -0.465654       -12.6711
 173   2.0000      -0.463330       -12.6078
 174   2.0000      -0.461135       -12.5481
 175   2.0000      -0.459876       -12.5139
 176   2.0000      -0.456906       -12.4330
 177   2.0000      -0.451764       -12.2931
 178   2.0000      -0.448403       -12.2017
 179   2.0000      -0.442271       -12.0348
 180   2.0000      -0.427669       -11.6375
 181   2.0000      -0.426355       -11.6017
 182   2.0000      -0.425893       -11.5892
 183   2.0000      -0.421345       -11.4654
 184   2.0000      -0.420213       -11.4346
 185   2.0000      -0.417360       -11.3569
 186   2.0000      -0.411492       -11.1973
 187   2.0000      -0.398906       -10.8548
 188   2.0000      -0.395020       -10.7490
 189   2.0000      -0.387021       -10.5314
 190   2.0000      -0.385337       -10.4856
 191   2.0000      -0.379479       -10.3261
 192   2.0000      -0.374951       -10.2029
 193   2.0000      -0.360214        -9.8019
 194   2.0000      -0.353866        -9.6292
 195   2.0000      -0.353167        -9.6102
 196   2.0000      -0.338001        -9.1975
 197   2.0000      -0.335807        -9.1378
 198   2.0000      -0.334898        -9.1130
 199   2.0000      -0.325805        -8.8656
 200   2.0000      -0.323016        -8.7897
 201   2.0000      -0.312641        -8.5074
 202   2.0000      -0.291213        -7.9243
 203   2.0000      -0.267225        -7.2716
 204   2.0000      -0.234758        -6.3881
 205   2.0000      -0.207196        -5.6381
 206   0.0000      -0.077786        -2.1167
 207   0.0000      -0.062611        -1.7037
 208   0.0000      -0.034937        -0.9507
 209   0.0000      -0.019489        -0.5303
 210   0.0000      -0.007582        -0.2063

MULLIKEN ATOMIC CHARGES
-----------------------
   0 O :   -0.163760
   1 C :    0.038328
   2 N :   -0.060456
   3 C :   -0.051056
   4 C :    0.145359
   5 C :    0.171664
   6 O :   -0.174630
   7 C :    0.147877
   8 O :   -0.171538
   9 C :    0.202037
  10 C :   -0.062868
  11 C :   -0.129155
  12 C :    0.536765
  13 F :   -0.163199
  14 F :   -0.163164
  15 F :   -0.154633
  16 C :   -0.023602
  17 C :    0.055725
  18 C :   -0.108023
  19 S :    0.139458
  20 C :   -0.066811
  21 C :   -0.226434
  22 N :   -0.012633
  23 C :    0.389464
  24 C :   -0.159535
  25 C :   -0.099569
  26 S :    0.158842
  27 C :   -0.083273
  28 C :   -0.014693
  29 C :    0.053355
  30 C :   -0.043661
  31 C :    0.142963
  32 O :   -0.203394
  33 C :    0.199893
  34 C :   -0.066039
  35 C :   -0.103924
  36 C :    0.520171
  37 F :   -0.173327
  38 F :   -0.154443
  39 F :   -0.171741
  40 C :   -0.038908
  41 C :    0.022733
  42 C :   -0.027818
  43 C :   -0.012834
  44 C :    0.036900
  45 C :    0.025077
  46 C :   -0.049416
  47 S :    0.073254
  48 C :   -0.066496
  49 C :    0.028923
  50 C :    0.053750
  51 C :   -0.063574
  52 S :    0.079830
  53 C :   -0.029411
  54 H :    0.039209
  55 H :   -0.010150
  56 H :    0.001602
  57 H :    0.016528
  58 H :    0.009664
  59 H :    0.037247
  60 H :    0.037446
  61 H :   -0.018943
  62 H :   -0.004345
  63 H :    0.004296
  64 H :   -0.008322
  65 H :   -0.009524
  66 H :    0.007461
  67 H :   -0.018253
  68 H :   -0.014328
  69 H :   -0.013816
  70 H :   -0.012912
  71 H :   -0.012434
  72 H :    0.019539
  73 H :    0.021683
Sum of atomic charges:   -0.0000000

LOEWDIN ATOMIC CHARGES
----------------------
   0 O :    0.038628
   1 C :    0.026790
   2 N :   -0.084477
   3 C :   -0.107282
   4 C :    0.080798
   5 C :    0.104932
   6 O :   -0.130012
   7 C :    0.023114
   8 O :    0.046729
   9 C :    0.043898
  10 C :   -0.041263
  11 C :   -0.108817
  12 C :    0.164407
  13 F :   -0.062668
  14 F :   -0.063170
  15 F :   -0.055007
  16 C :   -0.020708
  17 C :   -0.039348
  18 C :   -0.130373
  19 S :    0.417660
  20 C :   -0.214155
  21 C :   -0.037154
  22 N :   -0.084798
  23 C :   -0.012234
  24 C :   -0.045496
  25 C :   -0.201324
  26 S :    0.442484
  27 C :   -0.168502
  28 C :   -0.047849
  29 C :   -0.024638
  30 C :   -0.048302
  31 C :    0.053590
  32 O :    0.018343
  33 C :    0.035756
  34 C :   -0.044421
  35 C :   -0.129546
  36 C :    0.170523
  37 F :   -0.072201
  38 F :   -0.054355
  39 F :   -0.071767
  40 C :   -0.046140
  41 C :   -0.020946
  42 C :   -0.063449
  43 C :   -0.141937
  44 C :   -0.035934
  45 C :   -0.030407
  46 C :   -0.180779
  47 S :    0.363875
  48 C :   -0.177260
  49 C :   -0.026745
  50 C :   -0.031415
  51 C :   -0.139165
  52 S :    0.351464
  53 C :   -0.076310
  54 H :    0.039052
  55 H :    0.002659
  56 H :    0.039746
  57 H :    0.044720
  58 H :    0.035892
  59 H :    0.056813
  60 H :    0.056317
  61 H :    0.032268
  62 H :    0.032387
  63 H :    0.033951
  64 H :    0.035424
  65 H :    0.036648
  66 H :    0.025915
  67 H :    0.031366
  68 H :    0.032842
  69 H :    0.031246
  70 H :    0.031963
  71 H :    0.033241
  72 H :    0.028611
  73 H :    0.026304

  Mayer bond orders larger than 0.100000
B(  0-O ,  1-C ) :   1.2032 B(  0-O ,  4-C ) :   1.1699 B(  1-C ,  2-N ) :   1.7385
B(  1-C ,  7-C ) :   1.0286 B(  2-N ,  3-C ) :   1.2961 B(  3-C ,  4-C ) :   1.5024
B(  3-C ,  5-C ) :   0.9653 B(  4-C , 54-H ) :   0.9909 B(  5-C ,  6-O ) :   2.2068
B(  5-C , 55-H ) :   0.9515 B(  7-C ,  8-O ) :   1.2128 B(  7-C ,  9-C ) :   0.1210
B(  7-C , 11-C ) :   1.4905 B(  8-O ,  9-C ) :   1.1412 B(  9-C , 10-C ) :   1.4168
B(  9-C , 16-C ) :   1.1320 B( 10-C , 11-C ) :   1.2517 B( 10-C , 56-H ) :   1.0214
B( 11-C , 12-C ) :   0.9370 B( 12-C , 13-F ) :   1.1744 B( 12-C , 14-F ) :   1.1774
B( 12-C , 15-F ) :   1.1835 B( 16-C , 17-C ) :   1.6810 B( 16-C , 57-H ) :   0.9662
B( 17-C , 18-C ) :   1.1094 B( 17-C , 58-H ) :   0.9565 B( 18-C , 19-S ) :   1.0704
B( 18-C , 22-N ) :   1.6467 B( 19-S , 20-C ) :   1.0964 B( 20-C , 21-C ) :   1.4676
B( 20-C , 25-C ) :   1.1984 B( 21-C , 22-N ) :   1.4584 B( 21-C , 23-C ) :   1.0416
B( 23-C , 24-C ) :   0.9828 B( 23-C , 59-H ) :   0.8596 B( 23-C , 60-H ) :   0.8631
B( 24-C , 25-C ) :   1.5065 B( 24-C , 28-C ) :   1.3238 B( 25-C , 26-S ) :   1.0901
B( 26-S , 27-C ) :   1.1012 B( 27-C , 28-C ) :   1.4526 B( 27-C , 29-C ) :   1.1166
B( 28-C , 61-H ) :   0.9967 B( 29-C , 30-C ) :   1.6449 B( 29-C , 62-H ) :   0.9761
B( 30-C , 31-C ) :   1.1981 B( 30-C , 63-H ) :   0.9405 B( 31-C , 32-O ) :   1.1676
B( 31-C , 35-C ) :   1.4092 B( 32-O , 33-C ) :   1.1236 B( 33-C , 34-C ) :   1.4027
B( 33-C , 40-C ) :   1.1559 B( 34-C , 35-C ) :   1.2576 B( 34-C , 64-H ) :   1.0224
B( 35-C , 36-C ) :   0.9532 B( 36-C , 37-F ) :   1.1509 B( 36-C , 38-F ) :   1.1840
B( 36-C , 39-F ) :   1.1596 B( 40-C , 41-C ) :   1.6047 B( 40-C , 65-H ) :   0.9706
B( 41-C , 42-C ) :   1.1538 B( 41-C , 66-H ) :   0.9798 B( 42-C , 43-C ) :   1.5644
B( 42-C , 67-H ) :   0.9825 B( 43-C , 44-C ) :   1.1367 B( 43-C , 47-S ) :   1.0328
B( 44-C , 45-C ) :   1.6040 B( 44-C , 68-H ) :   0.9991 B( 45-C , 46-C ) :   1.1747
B( 45-C , 69-H ) :   0.9923 B( 46-C , 47-S ) :   1.0349 B( 46-C , 48-C ) :   1.5548
B( 48-C , 49-C ) :   1.1524 B( 48-C , 52-S ) :   1.0449 B( 49-C , 50-C ) :   1.6618
B( 49-C , 70-H ) :   0.9916 B( 50-C , 51-C ) :   1.0803 B( 50-C , 71-H ) :   0.9928
B( 51-C , 52-S ) :   1.0075 B( 51-C , 53-C ) :   1.8643 B( 53-C , 72-H ) :   0.9506
B( 53-C , 73-H ) :   0.9419

-----------------------------------------------------------------------------
         ABSORPTION SPECTRUM VIA TRANSITION ELECTRIC DIPOLE MOMENTS
-----------------------------------------------------------------------------
State   Energy  Wavelength   fosc         T2         TX        TY        TZ
        (cm-1)    (nm)                  (au**2)     (au)      (au)      (au)
-----------------------------------------------------------------------------
   0   14951.7    668.8   1.088497330  23.96697   3.96277  -2.82004   0.55754
   1   20408.8    490.0   1.588976239  25.63156   2.72965   3.65004   2.20404
   2   21294.3    469.6   1.035105684  16.00286  -3.02242  -1.94305  -1.75852
   3   25747.1    388.4   0.067259836   0.86001   0.17598   0.41368   0.81112
   4   25862.5    386.7   0.243905082   3.10474  -1.25090  -0.89296  -0.86174
   5   28814.9    347.0   0.051030032   0.58302   0.58596  -0.02931   0.48868
   6   30266.1    330.4   0.014111951   0.15350   0.20977   0.31066  -0.11396
   7   31181.6    320.7   0.032426970   0.34236  -0.47405  -0.30330  -0.16014
   8   32659.5    306.2   0.103972994   1.04806  -0.93039  -0.09895  -0.41550
   9   33109.3    302.0   0.082343835   0.81876  -0.83478   0.18984  -0.29303
  10   34019.0    294.0   0.010456574   0.10119  -0.28345  -0.12849  -0.06588
  11   34216.9    292.3   0.006022063   0.05794   0.11266  -0.20487   0.05724
  12   34291.9    291.6   0.002482088   0.02383   0.08249  -0.12247   0.04500
  13   34402.4    290.7   0.000063730   0.00061  -0.02044   0.00547  -0.01273
  14   35189.0    284.2   0.024077347   0.22526  -0.01486  -0.46224   0.10665
  15   36474.1    274.2   0.056626700   0.51111   0.10022  -0.70605   0.05053
  16   37552.5    266.3   0.285805466   2.50557  -0.22484   1.56678  -0.01479
  17   38023.4    263.0   0.044052399   0.38141  -0.49234  -0.26352  -0.26376
  18   38303.6    261.1   0.094822248   0.81498  -0.04855  -0.86891  -0.24005
  19   38776.9    257.9   0.000796688   0.00676  -0.07318   0.01061   0.03601
  20   39017.1    256.3   0.189577859   1.59959  -0.56492   1.11870  -0.17019
  21   39213.1    255.0   0.020395278   0.17123   0.02153   0.35904  -0.20458
  22   39645.2    252.2   0.047715295   0.39623   0.40894  -0.26254   0.40008

FINAL SINGLE POINT ENERGY     -4058.810053284858

DIPOLE MOMENT
-------------
                                X             Y             Z
Electronic contribution:     62.24884     -29.90061      17.47597
Nuclear contribution   :    -64.41709      30.06693     -17.97885
                        -----------------------------------------
Total Dipole Moment    :     -2.16825       0.16632      -0.50288
                        -----------------------------------------
Magnitude (a.u.)       :      2.23201
Magnitude (Debye)      :      5.67332

Rotational constants in cm-1:     0.001460     0.000349     0.000285
Rotational constants in MHz :    43.780427    10.452401     8.535138

                             ****ORCA TERMINATED NORMALLY****
TOTAL RUN TIME: 0 days 0 hours 4 minutes 26 seconds 375 msec
