                         Program Version 4.2.0 -  RELEASE  -
|  1> # ORCA input file
|  2> # SCF done       -134.442107052148          0.000655527083
|  3> ! CAM-B3LYP def2-SVP def2/J RIJCOSX Grid4 TightSCF
|  4> %maxcore 5000
|  5> %tddft
|  6>     Mode sTDDFT
|  7>     Ethresh 5.0
|  8>     maxcore 5000
|  9> end
| 10>
| 11> %pal
| 12>   nprocs 6
| 13>   end
| 14> * xyz 0 1
| 15>    C        0.81689         0.88206         4.34089
| 16>    S        1.77387         0.99025         5.79089
| 17>    C        3.03626         1.64771         4.84146
| 18>    C        2.65806         1.73643         3.52396
| 19>    N        1.39094         1.29210         3.27727
| 20>    C        3.45533         2.23903         2.44131
| 21>    S        5.06976         2.82364         2.67942
| 22>    C        5.24478         3.20060         0.98982
| 23>    C        4.07493         2.87095         0.29819
| 24>    C        3.07382         2.32993         1.12626
| 25>    C        3.87157         3.05109        -1.07888
| 26>    N        3.66520         3.18577        -2.20057
| 27>    C        6.46116         3.76901         0.54521
| 28>    C        6.74475         4.11007        -0.74167
| 29>    C        7.97328         4.70060        -1.11478
| 30>    N        8.27558         5.07618        -2.40077
| 31>    C        7.41659         4.97217        -3.55678
| 32>    C        6.36792         6.08044        -3.59112
| 33>    C        9.55323         5.65566        -2.49502
| 34>    O       10.03006         6.06138        -3.53506
| 35>    C       10.06746         5.61145        -1.14236
| 36>    C        9.08131         5.01885        -0.32214
| 37>    C        9.59604         4.96534         1.02802
| 38>    O        9.11627         4.55365         2.06799
| 39>    N       10.87202         5.53747         0.93643
| 40>    C       11.73235         5.62588         2.09119
| 41>    C       12.77902         4.51431         2.10665
| 42>    C       11.17545         5.93210        -0.35017
| 43>    C       12.38331         6.56019        -0.71239
| 44>    C       12.64648         6.98699        -1.98313
| 45>    C       13.83027         7.64702        -2.37683
| 46>    C       14.08442         8.15576        -3.63981
| 47>    C       15.36449         8.76576        -3.65597
| 48>    C       15.91397         8.59267        -2.29774
| 49>    C       14.99282         7.93267        -1.54830
| 50>    C       17.15824         9.02169        -1.82391
| 51>    N       18.17053         9.34806        -1.38871
| 52>    C       15.98593         9.41016        -4.70639
| 53>    C       17.27131        10.01448        -4.72117
| 54>    C       17.51178        10.55566        -5.96800
| 55>    C       16.34040        10.29716        -6.79363
| 56>    C       15.42575         9.61536        -6.05552
| 57>    C       14.17436         9.20469        -6.52729
| 58>    N       13.15879         8.89067        -6.96331
| 59>    C       18.69041        11.23762        -6.36374
| 60>    C       18.90778        11.76697        -7.59324
| 61>    C       20.11117        12.43874        -7.93312
| 62>    S       20.33281        13.11272        -9.55755
| 63>    C       21.88221        13.64922        -9.06740
| 64>    C       22.12032        13.30031        -7.76782
| 65>    N       21.13226        12.63312        -7.15785
| 66>    H       -0.18075         0.49235         4.36958
| 67>    H        3.97214         1.93067         5.27892
| 68>    H        2.10560         2.01784         0.77914
| 69>    H        7.20661         3.94220         1.31134
| 70>    H        6.01617         3.93703        -1.51827
| 71>    H        6.93927         3.98882        -3.57153
| 72>    H        8.07249         5.06177        -4.42727
| 73>    H        5.71425         6.02790        -2.72347
| 74>    H        5.76214         5.97984        -4.48683
| 75>    H        6.85399         7.05298        -3.60529
| 76>    H       11.07905         5.52516         2.96256
| 77>    H       12.20690         6.61081         2.12078
| 78>    H       12.28804         3.54450         2.12827
| 79>    H       13.40308         4.60765         2.99119
| 80>    H       13.41225         4.56038         1.22329
| 81>    H       13.11377         6.71993         0.06725
| 82>    H       11.90525         6.83010        -2.75583
| 83>    H       13.41341         8.10249        -4.47466
| 84>    H       15.10940         7.66065        -0.51563
| 85>    H       17.94751        10.04075        -3.88937
| 86>    H       16.22000        10.59759        -7.81750
| 87>    H       19.47015        11.33839        -5.62116
| 88>    H       18.16498        11.69888        -8.37450
| 89>    H       22.51945        14.17974        -9.74514
| 90>    H       23.02003        13.51940        -7.22148
| 91> *
| 92>
| 93>                          ****END OF INPUT****

CARTESIAN COORDINATES (ANGSTROEM)
---------------------------------
  C      0.816890    0.882060    4.340890
  S      1.773870    0.990250    5.790890
  C      3.036260    1.647710    4.841460
  C      2.658060    1.736430    3.523960
  N      1.390940    1.292100    3.277270
  C      3.455330    2.239030    2.441310
  S      5.069760    2.823640    2.679420
  C      5.244780    3.200600    0.989820
  C      4.074930    2.870950    0.298190
  C      3.073820    2.329930    1.126260
  C      3.871570    3.051090   -1.078880
  N      3.665200    3.185770   -2.200570
  C      6.461160    3.769010    0.545210
  C      6.744750    4.110070   -0.741670
  C      7.973280    4.700600   -1.114780
  N      8.275580    5.076180   -2.400770
  C      7.416590    4.972170   -3.556780
  C      6.367920    6.080440   -3.591120
  C      9.553230    5.655660   -2.495020
  O     10.030060    6.061380   -3.535060
  C     10.067460    5.611450   -1.142360
  C      9.081310    5.018850   -0.322140
  C      9.596040    4.965340    1.028020
  O      9.116270    4.553650    2.067990
  N     10.872020    5.537470    0.936430
  C     11.732350    5.625880    2.091190
  C     12.779020    4.514310    2.106650
  C     11.175450    5.932100   -0.350170
  C     12.383310    6.560190   -0.712390
  C     12.646480    6.986990   -1.983130
  C     13.830270    7.647020   -2.376830
  C     14.084420    8.155760   -3.639810
  C     15.364490    8.765760   -3.655970
  C     15.913970    8.592670   -2.297740
  C     14.992820    7.932670   -1.548300
  C     17.158240    9.021690   -1.823910
  N     18.170530    9.348060   -1.388710
  C     15.985930    9.410160   -4.706390
  C     17.271310   10.014480   -4.721170
  C     17.511780   10.555660   -5.968000
  C     16.340400   10.297160   -6.793630
  C     15.425750    9.615360   -6.055520
  C     14.174360    9.204690   -6.527290
  N     13.158790    8.890670   -6.963310
  C     18.690410   11.237620   -6.363740
  C     18.907780   11.766970   -7.593240
  C     20.111170   12.438740   -7.933120
  S     20.332810   13.112720   -9.557550
  C     21.882210   13.649220   -9.067400
  C     22.120320   13.300310   -7.767820
  N     21.132260   12.633120   -7.157850
  H     -0.180750    0.492350    4.369580
  H      3.972140    1.930670    5.278920
  H      2.105600    2.017840    0.779140
  H      7.206610    3.942200    1.311340
  H      6.016170    3.937030   -1.518270
  H      6.939270    3.988820   -3.571530
  H      8.072490    5.061770   -4.427270
  H      5.714250    6.027900   -2.723470
  H      5.762140    5.979840   -4.486830
  H      6.853990    7.052980   -3.605290
  H     11.079050    5.525160    2.962560
  H     12.206900    6.610810    2.120780
  H     12.288040    3.544500    2.128270
  H     13.403080    4.607650    2.991190
  H     13.412250    4.560380    1.223290
  H     13.113770    6.719930    0.067250
  H     11.905250    6.830100   -2.755830
  H     13.413410    8.102490   -4.474660
  H     15.109400    7.660650   -0.515630
  H     17.947510   10.040750   -3.889370
  H     16.220000   10.597590   -7.817500
  H     19.470150   11.338390   -5.621160
  H     18.164980   11.698880   -8.374500
  H     22.519450   14.179740   -9.745140
  H     23.020030   13.519400   -7.221480

 Total Charge           Charge          ....    0
 Multiplicity           Mult            ....    1
 Number of Electrons    NEL             ....  372
 Basis Dimension        Dim             ....  851

ORBITAL ENERGIES
----------------

  NO   OCC          E(Eh)            E(eV)
   0   2.0000     -88.977290     -2421.1951
   1   2.0000     -88.976281     -2421.1677
   2   2.0000     -88.964851     -2420.8567
   3   2.0000     -19.191980      -522.2403
   4   2.0000     -19.190716      -522.2059
   5   2.0000     -14.453511      -393.3000
   6   2.0000     -14.452386      -393.2694
   7   2.0000     -14.421887      -392.4395
   8   2.0000     -14.412419      -392.1818
   9   2.0000     -14.407036      -392.0354
  10   2.0000     -14.405382      -391.9904
  11   2.0000     -14.402794      -391.9200
  12   2.0000     -10.373710      -282.2830
  13   2.0000     -10.373593      -282.2798
  14   2.0000     -10.340781      -281.3870
  15   2.0000     -10.339756      -281.3591
  16   2.0000     -10.337512      -281.2980
  17   2.0000     -10.335693      -281.2485
  18   2.0000     -10.329632      -281.0836
  19   2.0000     -10.325638      -280.9749
  20   2.0000     -10.320004      -280.8216
  21   2.0000     -10.318665      -280.7851
  22   2.0000     -10.317533      -280.7543
  23   2.0000     -10.316516      -280.7267
  24   2.0000     -10.313584      -280.6469
  25   2.0000     -10.312299      -280.6119
  26   2.0000     -10.312194      -280.6091
  27   2.0000     -10.311172      -280.5812
  28   2.0000     -10.310174      -280.5541
  29   2.0000     -10.307403      -280.4787
  30   2.0000     -10.305179      -280.4182
  31   2.0000     -10.304474      -280.3990
  32   2.0000     -10.303845      -280.3819
  33   2.0000     -10.301847      -280.3275
  34   2.0000     -10.301705      -280.3236
  35   2.0000     -10.300694      -280.2961
  36   2.0000     -10.299617      -280.2668
  37   2.0000     -10.296875      -280.1922
  38   2.0000     -10.295939      -280.1667
  39   2.0000     -10.295399      -280.1521
  40   2.0000     -10.295005      -280.1413
  41   2.0000     -10.294200      -280.1194
  42   2.0000     -10.292142      -280.0634
  43   2.0000     -10.291259      -280.0394
  44   2.0000     -10.289281      -279.9856
  45   2.0000     -10.279678      -279.7242
  46   2.0000     -10.277626      -279.6684
  47   2.0000     -10.266037      -279.3531
  48   2.0000     -10.263940      -279.2960
  49   2.0000     -10.261631      -279.2332
  50   2.0000     -10.255037      -279.0537
  51   2.0000      -8.073036      -219.6785
  52   2.0000      -8.072809      -219.6723
  53   2.0000      -8.061159      -219.3553
  54   2.0000      -6.042068      -164.4130
  55   2.0000      -6.041958      -164.4100
  56   2.0000      -6.037876      -164.2989
  57   2.0000      -6.037796      -164.2968
  58   2.0000      -6.035552      -164.2357
  59   2.0000      -6.035101      -164.2234
  60   2.0000      -6.030084      -164.0869
  61   2.0000      -6.026086      -163.9781
  62   2.0000      -6.023789      -163.9156
  63   2.0000      -1.133830       -30.8531
  64   2.0000      -1.127218       -30.6732
  65   2.0000      -1.078176       -29.3387
  66   2.0000      -1.063731       -28.9456
  67   2.0000      -1.063392       -28.9364
  68   2.0000      -1.055382       -28.7184
  69   2.0000      -1.012835       -27.5606
  70   2.0000      -1.010869       -27.5071
  71   2.0000      -0.995675       -27.0937
  72   2.0000      -0.989823       -26.9345
  73   2.0000      -0.980927       -26.6924
  74   2.0000      -0.976118       -26.5615
  75   2.0000      -0.928904       -25.2768
  76   2.0000      -0.918473       -24.9929
  77   2.0000      -0.913287       -24.8518
  78   2.0000      -0.907038       -24.6817
  79   2.0000      -0.906233       -24.6599
  80   2.0000      -0.893266       -24.3070
  81   2.0000      -0.884126       -24.0583
  82   2.0000      -0.871605       -23.7176
  83   2.0000      -0.862358       -23.4660
  84   2.0000      -0.861206       -23.4346
  85   2.0000      -0.852645       -23.2016
  86   2.0000      -0.843890       -22.9634
  87   2.0000      -0.828488       -22.5443
  88   2.0000      -0.818668       -22.2771
  89   2.0000      -0.816331       -22.2135
  90   2.0000      -0.794090       -21.6083
  91   2.0000      -0.779047       -21.1989
  92   2.0000      -0.759490       -20.6668
  93   2.0000      -0.758772       -20.6472
  94   2.0000      -0.734118       -19.9764
  95   2.0000      -0.730442       -19.8763
  96   2.0000      -0.718492       -19.5512
  97   2.0000      -0.709019       -19.2934
  98   2.0000      -0.707772       -19.2594
  99   2.0000      -0.701969       -19.1016
 100   2.0000      -0.692613       -18.8470
 101   2.0000      -0.685621       -18.6567
 102   2.0000      -0.682086       -18.5605
 103   2.0000      -0.670808       -18.2536
 104   2.0000      -0.667923       -18.1751
 105   2.0000      -0.650021       -17.6880
 106   2.0000      -0.647112       -17.6088
 107   2.0000      -0.637125       -17.3371
 108   2.0000      -0.632657       -17.2155
 109   2.0000      -0.622617       -16.9423
 110   2.0000      -0.610160       -16.6033
 111   2.0000      -0.608203       -16.5501
 112   2.0000      -0.605623       -16.4798
 113   2.0000      -0.597258       -16.2522
 114   2.0000      -0.588910       -16.0251
 115   2.0000      -0.586491       -15.9592
 116   2.0000      -0.572425       -15.5765
 117   2.0000      -0.568059       -15.4577
 118   2.0000      -0.565163       -15.3789
 119   2.0000      -0.555920       -15.1274
 120   2.0000      -0.544641       -14.8204
 121   2.0000      -0.539991       -14.6939
 122   2.0000      -0.539262       -14.6741
 123   2.0000      -0.532310       -14.4849
 124   2.0000      -0.530228       -14.4282
 125   2.0000      -0.527969       -14.3668
 126   2.0000      -0.527089       -14.3428
 127   2.0000      -0.525746       -14.3063
 128   2.0000      -0.518366       -14.1054
 129   2.0000      -0.516438       -14.0530
 130   2.0000      -0.514621       -14.0036
 131   2.0000      -0.512837       -13.9550
 132   2.0000      -0.508868       -13.8470
 133   2.0000      -0.507915       -13.8211
 134   2.0000      -0.504878       -13.7384
 135   2.0000      -0.502678       -13.6786
 136   2.0000      -0.501477       -13.6459
 137   2.0000      -0.497986       -13.5509
 138   2.0000      -0.493723       -13.4349
 139   2.0000      -0.488611       -13.2958
 140   2.0000      -0.484505       -13.1841
 141   2.0000      -0.482480       -13.1290
 142   2.0000      -0.480150       -13.0655
 143   2.0000      -0.474633       -12.9154
 144   2.0000      -0.467902       -12.7323
 145   2.0000      -0.464823       -12.6485
 146   2.0000      -0.462803       -12.5935
 147   2.0000      -0.460026       -12.5179
 148   2.0000      -0.457078       -12.4377
 149   2.0000      -0.456772       -12.4294
 150   2.0000      -0.451170       -12.2770
 151   2.0000      -0.450152       -12.2493
 152   2.0000      -0.444750       -12.1023
 153   2.0000      -0.442612       -12.0441
 154   2.0000      -0.441699       -12.0192
 155   2.0000      -0.440601       -11.9893
 156   2.0000      -0.439515       -11.9598
 157   2.0000      -0.437476       -11.9043
 158   2.0000      -0.435769       -11.8579
 159   2.0000      -0.434197       -11.8151
 160   2.0000      -0.434165       -11.8142
 161   2.0000      -0.431353       -11.7377
 162   2.0000      -0.431254       -11.7350
 163   2.0000      -0.421275       -11.4635
 164   2.0000      -0.418889       -11.3985
 165   2.0000      -0.411524       -11.1981
 166   2.0000      -0.406413       -11.0591
 167   2.0000      -0.397677       -10.8213
 168   2.0000      -0.392560       -10.6821
 169   2.0000      -0.392374       -10.6770
 170   2.0000      -0.370234       -10.0746
 171   2.0000      -0.367678       -10.0050
 172   2.0000      -0.361187        -9.8284
 173   2.0000      -0.356107        -9.6902
 174   2.0000      -0.348262        -9.4767
 175   2.0000      -0.347596        -9.4586
 176   2.0000      -0.341599        -9.2954
 177   2.0000      -0.335796        -9.1375
 178   2.0000      -0.332472        -9.0470
 179   2.0000      -0.329996        -8.9797
 180   2.0000      -0.316209        -8.6045
 181   2.0000      -0.315662        -8.5896
 182   2.0000      -0.299085        -8.1385
 183   2.0000      -0.285491        -7.7686
 184   2.0000      -0.267909        -7.2902
 185   2.0000      -0.229803        -6.2533
 186   0.0000      -0.124657        -3.3921
 187   0.0000      -0.082599        -2.2476
 188   0.0000      -0.035256        -0.9594
 189   0.0000      -0.030314        -0.8249
 190   0.0000      -0.004626        -0.1259

MULLIKEN ATOMIC CHARGES
-----------------------
   0 C :    0.004833
   1 S :    0.112347
   2 C :   -0.128423
   3 C :    0.039074
   4 N :   -0.072335
   5 C :   -0.025353
   6 S :    0.168985
   7 C :   -0.065579
   8 C :   -0.066438
   9 C :   -0.003425
  10 C :   -0.162062
  11 N :    0.114283
  12 C :    0.058248
  13 C :   -0.041641
  14 C :    0.141747
  15 N :   -0.254987
  16 C :    0.094105
  17 C :    0.007257
  18 C :    0.161444
  19 O :   -0.196686
  20 C :   -0.057346
  21 C :   -0.068304
  22 C :    0.161870
  23 O :   -0.219092
  24 N :   -0.257401
  25 C :    0.100044
  26 C :    0.003745
  27 C :    0.142943
  28 C :   -0.028980
  29 C :    0.005576
  30 C :    0.109442
  31 C :   -0.108773
  32 C :    0.124481
  33 C :   -0.102966
  34 C :   -0.013413
  35 C :   -0.172653
  36 N :    0.133821
  37 C :    0.121841
  38 C :   -0.112592
  39 C :    0.118640
  40 C :   -0.009099
  41 C :   -0.100369
  42 C :   -0.177371
  43 N :    0.141313
  44 C :    0.006617
  45 C :    0.078908
  46 C :   -0.149660
  47 S :    0.110571
  48 C :   -0.076974
  49 C :    0.065280
  50 N :   -0.061244
  51 H :    0.045590
  52 H :    0.030927
  53 H :    0.007331
  54 H :    0.004862
  55 H :   -0.014471
  56 H :    0.035658
  57 H :    0.044257
  58 H :    0.019085
  59 H :    0.029699
  60 H :    0.025320
  61 H :    0.042367
  62 H :    0.022505
  63 H :    0.030083
  64 H :    0.024364
  65 H :    0.015462
  66 H :   -0.033006
  67 H :    0.017592
  68 H :    0.016398
  69 H :   -0.004255
  70 H :    0.002873
  71 H :   -0.002968
  72 H :    0.015339
  73 H :   -0.012736
  74 H :    0.036969
  75 H :    0.006510
Sum of atomic charges:   -0.0000000

LOEWDIN ATOMIC CHARGES
----------------------
   0 C :   -0.118710
   1 S :    0.432121
   2 C :   -0.203551
   3 C :   -0.062056
   4 N :   -0.087640
   5 C :   -0.166719
   6 S :    0.478084
   7 C :   -0.143464
   8 C :   -0.100598
   9 C :   -0.012500
  10 C :   -0.023479
  11 N :   -0.061917
  12 C :    0.002628
  13 C :   -0.037178
  14 C :    0.079494
  15 N :    0.003989
  16 C :    0.036910
  17 C :   -0.058887
  18 C :    0.080950
  19 O :   -0.188169
  20 C :   -0.109913
  21 C :   -0.121709
  22 C :    0.077843
  23 O :   -0.209561
  24 N :   -0.000226
  25 C :    0.036134
  26 C :   -0.061211
  27 C :    0.068018
  28 C :   -0.041180
  29 C :    0.031675
  30 C :   -0.021978
  31 C :   -0.012355
  32 C :    0.030124
  33 C :   -0.077653
  34 C :    0.048513
  35 C :   -0.030902
  36 N :   -0.064200
  37 C :    0.036816
  38 C :   -0.026605
  39 C :   -0.013829
  40 C :    0.050208
  41 C :   -0.077432
  42 C :   -0.033080
  43 N :   -0.058858
  44 C :    0.013987
  45 C :   -0.041700
  46 C :   -0.133557
  47 S :    0.414389
  48 C :   -0.200773
  49 C :   -0.030289
  50 N :   -0.092942
  51 H :    0.021800
  52 H :    0.026235
  53 H :    0.044548
  54 H :    0.036517
  55 H :    0.035706
  56 H :    0.027843
  57 H :    0.038367
  58 H :    0.023414
  59 H :    0.034172
  60 H :    0.030115
  61 H :    0.037500
  62 H :    0.022315
  63 H :    0.032611
  64 H :    0.030738
  65 H :    0.021738
  66 H :    0.026450
  67 H :    0.042845
  68 H :    0.040076
  69 H :    0.033272
  70 H :    0.035762
  71 H :    0.034253
  72 H :    0.044041
  73 H :    0.027814
  74 H :    0.028041
  75 H :    0.026765

  Mayer bond orders larger than 0.100000
B(  0-C ,  1-S ) :   1.1624 B(  0-C ,  4-N ) :   1.7285 B(  0-C , 51-H ) :   0.9650
B(  1-S ,  2-C ) :   1.1653 B(  2-C ,  3-C ) :   1.5598 B(  2-C , 52-H ) :   0.9586
B(  3-C ,  4-N ) :   1.3977 B(  3-C ,  5-C ) :   1.0710 B(  5-C ,  6-S ) :   1.1324
B(  5-C ,  9-C ) :   1.5064 B(  6-S ,  7-C ) :   1.1413 B(  7-C ,  8-C ) :   1.4340
B(  7-C , 12-C ) :   1.1653 B(  8-C ,  9-C ) :   1.2560 B(  8-C , 10-C ) :   1.1196
B(  9-C , 53-H ) :   1.0139 B( 10-C , 11-N ) :   2.9644 B( 12-C , 13-C ) :   1.6009
B( 12-C , 54-H ) :   0.9197 B( 13-C , 14-C ) :   1.1829 B( 13-C , 55-H ) :   0.9480
B( 14-C , 15-N ) :   1.1733 B( 14-C , 21-C ) :   1.3019 B( 15-N , 16-C ) :   0.9386
B( 15-N , 18-C ) :   1.0570 B( 16-C , 17-C ) :   1.1214 B( 16-C , 56-H ) :   0.9483
B( 16-C , 57-H ) :   0.9278 B( 17-C , 58-H ) :   0.9680 B( 17-C , 59-H ) :   0.9679
B( 17-C , 60-H ) :   0.9635 B( 18-C , 19-O ) :   2.0405 B( 18-C , 20-C ) :   0.9792
B( 19-O , 67-H ) :   0.1075 B( 20-C , 21-C ) :   1.2717 B( 20-C , 27-C ) :   1.3252
B( 21-C , 22-C ) :   0.9918 B( 22-C , 23-O ) :   2.0115 B( 22-C , 24-N ) :   1.0703
B( 23-O , 54-H ) :   0.1194 B( 24-N , 25-C ) :   0.9483 B( 24-N , 27-C ) :   1.1480
B( 25-C , 26-C ) :   1.1180 B( 25-C , 61-H ) :   0.9278 B( 25-C , 62-H ) :   0.9496
B( 26-C , 63-H ) :   0.9637 B( 26-C , 64-H ) :   0.9686 B( 26-C , 65-H ) :   0.9689
B( 27-C , 28-C ) :   1.1748 B( 28-C , 29-C ) :   1.5367 B( 28-C , 66-H ) :   0.9618
B( 29-C , 30-C ) :   1.1373 B( 29-C , 67-H ) :   0.9598 B( 30-C , 31-C ) :   1.4850
B( 30-C , 34-C ) :   1.0389 B( 31-C , 32-C ) :   1.1260 B( 31-C , 68-H ) :   1.0120
B( 32-C , 33-C ) :   1.1046 B( 32-C , 37-C ) :   1.3827 B( 33-C , 34-C ) :   1.6867
B( 33-C , 35-C ) :   1.0874 B( 34-C , 69-H ) :   1.0143 B( 35-C , 36-N ) :   2.9699
B( 37-C , 38-C ) :   1.1253 B( 37-C , 41-C ) :   1.1063 B( 38-C , 39-C ) :   1.5095
B( 38-C , 70-H ) :   1.0097 B( 39-C , 40-C ) :   1.0406 B( 39-C , 44-C ) :   1.1063
B( 40-C , 41-C ) :   1.6861 B( 40-C , 71-H ) :   1.0138 B( 41-C , 42-C ) :   1.0876
B( 42-C , 43-N ) :   2.9751 B( 44-C , 45-C ) :   1.6747 B( 44-C , 72-H ) :   0.9836
B( 45-C , 46-C ) :   1.0932 B( 45-C , 73-H ) :   0.9505 B( 46-C , 47-S ) :   1.1104
B( 46-C , 50-N ) :   1.7141 B( 47-S , 48-C ) :   1.1761 B( 48-C , 49-C ) :   1.5459
B( 48-C , 74-H ) :   0.9708 B( 49-C , 50-N ) :   1.3733 B( 49-C , 75-H ) :   0.9945

-----------------------------------------------------------------------------
         ABSORPTION SPECTRUM VIA TRANSITION ELECTRIC DIPOLE MOMENTS
-----------------------------------------------------------------------------
State   Energy  Wavelength   fosc         T2         TX        TY        TZ
        (cm-1)    (nm)                  (au**2)     (au)      (au)      (au)
-----------------------------------------------------------------------------
   0    9638.3   1037.5   0.898739703  30.69778  -4.20416  -2.62196   2.47954
   1   15544.9    643.3   0.146783708   3.10861   0.69372   0.81026  -1.40387
   2   17014.3    587.7   0.332559379   6.43472  -2.37005  -0.88898  -0.16521
   3   19634.2    509.3   0.006121187   0.10264  -0.07147   0.04072  -0.30963
   4   23955.2    417.4   0.544531763   7.48340   1.93955   1.17410  -1.53069
   5   24132.7    414.4   0.286730039   3.91149   1.08331   1.02338  -1.30024
   6   24998.0    400.0   0.029859738   0.39324  -0.30347  -0.21631   0.50434
   7   26989.0    370.5   0.009983361   0.12178   0.11383   0.03519  -0.32800
   8   27062.0    369.5   0.099241750   1.20729  -0.24314  -0.27868   1.03465
   9   28969.9    345.2   0.205885810   2.33967  -0.88835  -0.73629   1.00419
  10   29628.0    337.5   0.288661409   3.20746  -0.90650  -0.67982   1.38693
  11   30217.3    330.9   0.022596046   0.24618  -0.48499  -0.03368  -0.09914
  12   30698.4    325.8   0.002549742   0.02734   0.09320   0.07972  -0.11092
  13   32078.0    311.7   0.022401990   0.22991  -0.36460  -0.24706   0.18957
  14   32204.2    310.5   0.586179831   5.99230   1.78725   1.18901  -1.17657
  15   32344.5    309.2   0.000411155   0.00418  -0.01641   0.06092   0.01430
  16   32626.4    306.5   0.009913963   0.10004  -0.17109  -0.11635   0.23922
  17   34920.7    286.4   0.095828365   0.90341   0.32611   0.28578  -0.84581
  18   35236.6    283.8   0.003861707   0.03608   0.11425   0.11093  -0.10355
  19   35413.3    282.4   0.168979157   1.57088   0.97443   0.57861  -0.53533
  20   35611.4    280.8   0.099002808   0.91524  -0.10125  -0.18109   0.93391
  21   36444.8    274.4   0.340107923   3.07225  -0.72737  -0.73691   1.41427
  22   36727.7    272.3   0.102453641   0.91835  -0.24801  -0.36109   0.85232
  23   37266.9    268.3   0.000109455   0.00097   0.01957   0.01553  -0.01851
  24   37552.2    266.3   0.115539681   1.01291  -0.89636  -0.45232  -0.06969
  25   38257.6    261.4   0.000151956   0.00131  -0.01242  -0.01533  -0.03031
  26   38675.0    258.6   0.033620383   0.28619  -0.04791  -0.18777   0.49863
  27   38874.7    257.2   0.044746572   0.37894   0.39425   0.26871  -0.38897
  28   39279.2    254.6   0.020015548   0.16776  -0.39430  -0.11066   0.00599
  29   39527.0    253.0   0.022760704   0.18957   0.39455   0.06647   0.17169

FINAL SINGLE POINT ENERGY     -3226.454394978075

DIPOLE MOMENT
-------------
                                X             Y             Z
Electronic contribution:     -9.57818      -3.03306       3.19919
Nuclear contribution   :      9.35895       2.76637      -1.65072
                        -----------------------------------------
Total Dipole Moment    :     -0.21923      -0.26669       1.54847
                        -----------------------------------------
Magnitude (a.u.)       :      1.58649
Magnitude (Debye)      :      4.03254

Rotational constants in cm-1:     0.005759     0.000357     0.000338
Rotational constants in MHz :   172.641671    10.706860    10.119985

                             ****ORCA TERMINATED NORMALLY****
TOTAL RUN TIME: 0 days 0 hours 5 minutes 50 seconds 605 msec
