                         Program Version 4.2.0 -  RELEASE  -
|  1> # ORCA input file
|  2> # SCF done       -224.834473698387          0.000872559009
|  3> ! CAM-B3LYP def2-SVP def2/J RIJCOSX Grid4 TightSCF
|  4> %maxcore 5000
|  5> %tddft
|  6>     Mode sTDDFT
|  7>     Ethresh 5.0
|  8>     maxcore 5000
|  9> end
| 10>
| 11> %pal
| 12>   nprocs 6
| 13>   end
| 14> * xyz 0 1
| 15>    C        2.33542        -2.25392         1.37610
| 16>    O        2.20853        -3.42851         1.63218
| 17>    C        3.22726        -1.30060         2.06387
| 18>    C        3.15779        -0.04128         1.44191
| 19>    C        3.93638         1.00108         1.91955
| 20>    C        4.76322         0.76956         3.01301
| 21>    C        4.81935        -0.48512         3.62889
| 22>    C        4.04730        -1.53468         3.14910
| 23>   Br        5.94388        -0.76943         5.11868
| 24>   Br        5.82428         2.19071         3.66223
| 25>    C        2.19608        -0.10605         0.34583
| 26>    C        1.77205         0.95466        -0.40544
| 27>    C        2.27132         2.26936        -0.26350
| 28>    N        2.64357         3.35163        -0.19354
| 29>    C        0.75513         0.90713        -1.38624
| 30>    N       -0.08154         0.95402        -2.16970
| 31>    C        1.71276        -1.47814         0.26706
| 32>    C        0.95164        -1.98890        -0.73989
| 33>    C        0.37717        -3.28143        -0.83901
| 34>    O        0.22934        -4.13545         0.18816
| 35>    C       -0.35343        -5.25828        -0.25496
| 36>    C       -0.62303        -5.14228        -1.61313
| 37>    C       -0.16265        -3.86116        -1.99273
| 38>    C       -0.20617        -3.28115        -3.27250
| 39>    N       -0.22481        -2.79852        -4.31020
| 40>    C       -1.38819        -6.03996        -2.53198
| 41>    F       -1.98003        -7.06127        -1.90183
| 42>    F       -2.38627        -5.34806        -3.12043
| 43>    F       -0.64654        -6.53811        -3.51875
| 44>    C       -0.56646        -6.36679         0.63464
| 45>    N       -0.98330        -6.26161         1.93367
| 46>    C       -1.31632        -5.05842         2.65880
| 47>    C       -0.13567        -4.56162         3.48645
| 48>    C       -1.08454        -7.53041         2.54424
| 49>    O       -1.42984        -7.69127         3.69603
| 50>    C       -0.68629        -8.45788         1.50973
| 51>    C       -0.36856        -7.70522         0.34954
| 52>    C        0.11699        -8.62462        -0.66563
| 53>    O        0.55940        -8.44441        -1.77381
| 54>    N       -0.00713        -9.89257        -0.05924
| 55>    C        0.42080       -11.08872        -0.74609
| 56>    C        1.79473       -11.55429        -0.27069
| 57>    C       -0.47220        -9.80411         1.22488
| 58>    C       -0.69425       -10.93277         2.06714
| 59>    C       -1.17653       -10.79846         3.31877
| 60>    C       -1.40240       -11.88255         4.24145
| 61>    C       -2.56041       -11.93551         5.03902
| 62>    C       -3.67847       -10.98919         4.83561
| 63>    O       -3.80045       -10.17892         3.96912
| 64>    S       -4.92107       -11.29210         6.08632
| 65>    C       -4.05542       -12.71830         6.73713
| 66>    O       -4.53069       -13.38827         7.60577
| 67>    C       -2.76118       -12.89295         6.02572
| 68>    C       -1.82456       -13.92675         6.30115
| 69>    C       -0.70713       -13.93259         5.43233
| 70>    C       -0.50537       -12.93304         4.47591
| 71>    C        0.82891       -13.14795         3.86701
| 72>    O        1.43551       -12.50322         3.06933
| 73>    O        1.32938       -14.30222         4.40402
| 74>    C        0.45776       -14.85454         5.29657
| 75>    O        0.67701       -15.93076         5.76538
| 76>    C       -2.03795       -14.76580         7.44853
| 77>    C       -1.31046       -15.82793         7.85837
| 78>    C       -1.56977       -16.49455         9.09086
| 79>    C       -0.67944       -17.28142         9.74469
| 80>    C       -1.12157       -18.22951        10.80909
| 81>    O       -2.17906       -18.23180        11.38670
| 82>    C       -0.00333       -19.18894        10.94140
| 83>    C        1.07559       -18.77718        10.13442
| 84>    C        0.73443       -17.50758         9.49743
| 85>    C        1.62466       -16.61308         8.97218
| 86>    C        1.31103       -15.28281         8.61632
| 87>    N        1.13413       -14.17849         8.35959
| 88>    C        3.00480       -16.88152         8.82693
| 89>    N        4.12835       -17.06354         8.69052
| 90>    C        2.22464       -19.54786        10.07437
| 91>    C        2.28380       -20.71415        10.82870
| 92>    C        1.21454       -21.10835        11.63920
| 93>    C        0.05721       -20.34231        11.69673
| 94>   Br        1.32704       -22.69104        12.66276
| 95>   Br        3.84530       -21.77238        10.74071
| 96>    H        3.92452         1.98017         1.46913
| 97>    H        4.08366        -2.50865         3.61204
| 98>    H        0.75196        -1.37338        -1.60843
| 99>    H       -2.14707        -5.31392         3.32351
|100>    H       -1.64557        -4.29399         1.95193
|101>    H        0.15531        -5.32340         4.20492
|102>    H       -0.42066        -3.66301         4.02690
|103>    H        0.71372        -4.33634         2.84633
|104>    H        0.46666       -10.82506        -1.80641
|105>    H       -0.32811       -11.87379        -0.61184
|106>    H        2.53164       -10.77592        -0.45169
|107>    H        2.08908       -12.44218        -0.82310
|108>    H        1.78959       -11.78702         0.79157
|109>    H       -0.49250       -11.90948         1.65482
|110>    H       -1.45513        -9.81237         3.67522
|111>    H       -2.84946       -14.45357         8.09057
|112>    H       -0.50645       -16.22121         7.25894
|113>    H       -2.56115       -16.41737         9.52394
|114>    H        3.06375       -19.27607         9.45424
|115>    H       -0.77480       -20.64010        12.31586
|116> *
|117>
|118>                          ****END OF INPUT****

CARTESIAN COORDINATES (ANGSTROEM)
---------------------------------
  C      2.335420   -2.253920    1.376100
  O      2.208530   -3.428510    1.632180
  C      3.227260   -1.300600    2.063870
  C      3.157790   -0.041280    1.441910
  C      3.936380    1.001080    1.919550
  C      4.763220    0.769560    3.013010
  C      4.819350   -0.485120    3.628890
  C      4.047300   -1.534680    3.149100
  Br     5.943880   -0.769430    5.118680
  Br     5.824280    2.190710    3.662230
  C      2.196080   -0.106050    0.345830
  C      1.772050    0.954660   -0.405440
  C      2.271320    2.269360   -0.263500
  N      2.643570    3.351630   -0.193540
  C      0.755130    0.907130   -1.386240
  N     -0.081540    0.954020   -2.169700
  C      1.712760   -1.478140    0.267060
  C      0.951640   -1.988900   -0.739890
  C      0.377170   -3.281430   -0.839010
  O      0.229340   -4.135450    0.188160
  C     -0.353430   -5.258280   -0.254960
  C     -0.623030   -5.142280   -1.613130
  C     -0.162650   -3.861160   -1.992730
  C     -0.206170   -3.281150   -3.272500
  N     -0.224810   -2.798520   -4.310200
  C     -1.388190   -6.039960   -2.531980
  F     -1.980030   -7.061270   -1.901830
  F     -2.386270   -5.348060   -3.120430
  F     -0.646540   -6.538110   -3.518750
  C     -0.566460   -6.366790    0.634640
  N     -0.983300   -6.261610    1.933670
  C     -1.316320   -5.058420    2.658800
  C     -0.135670   -4.561620    3.486450
  C     -1.084540   -7.530410    2.544240
  O     -1.429840   -7.691270    3.696030
  C     -0.686290   -8.457880    1.509730
  C     -0.368560   -7.705220    0.349540
  C      0.116990   -8.624620   -0.665630
  O      0.559400   -8.444410   -1.773810
  N     -0.007130   -9.892570   -0.059240
  C      0.420800  -11.088720   -0.746090
  C      1.794730  -11.554290   -0.270690
  C     -0.472200   -9.804110    1.224880
  C     -0.694250  -10.932770    2.067140
  C     -1.176530  -10.798460    3.318770
  C     -1.402400  -11.882550    4.241450
  C     -2.560410  -11.935510    5.039020
  C     -3.678470  -10.989190    4.835610
  O     -3.800450  -10.178920    3.969120
  S     -4.921070  -11.292100    6.086320
  C     -4.055420  -12.718300    6.737130
  O     -4.530690  -13.388270    7.605770
  C     -2.761180  -12.892950    6.025720
  C     -1.824560  -13.926750    6.301150
  C     -0.707130  -13.932590    5.432330
  C     -0.505370  -12.933040    4.475910
  C      0.828910  -13.147950    3.867010
  O      1.435510  -12.503220    3.069330
  O      1.329380  -14.302220    4.404020
  C      0.457760  -14.854540    5.296570
  O      0.677010  -15.930760    5.765380
  C     -2.037950  -14.765800    7.448530
  C     -1.310460  -15.827930    7.858370
  C     -1.569770  -16.494550    9.090860
  C     -0.679440  -17.281420    9.744690
  C     -1.121570  -18.229510   10.809090
  O     -2.179060  -18.231800   11.386700
  C     -0.003330  -19.188940   10.941400
  C      1.075590  -18.777180   10.134420
  C      0.734430  -17.507580    9.497430
  C      1.624660  -16.613080    8.972180
  C      1.311030  -15.282810    8.616320
  N      1.134130  -14.178490    8.359590
  C      3.004800  -16.881520    8.826930
  N      4.128350  -17.063540    8.690520
  C      2.224640  -19.547860   10.074370
  C      2.283800  -20.714150   10.828700
  C      1.214540  -21.108350   11.639200
  C      0.057210  -20.342310   11.696730
  Br     1.327040  -22.691040   12.662760
  Br     3.845300  -21.772380   10.740710
  H      3.924520    1.980170    1.469130
  H      4.083660   -2.508650    3.612040
  H      0.751960   -1.373380   -1.608430
  H     -2.147070   -5.313920    3.323510
  H     -1.645570   -4.293990    1.951930
  H      0.155310   -5.323400    4.204920
  H     -0.420660   -3.663010    4.026900
  H      0.713720   -4.336340    2.846330
  H      0.466660  -10.825060   -1.806410
  H     -0.328110  -11.873790   -0.611840
  H      2.531640  -10.775920   -0.451690
  H      2.089080  -12.442180   -0.823100
  H      1.789590  -11.787020    0.791570
  H     -0.492500  -11.909480    1.654820
  H     -1.455130   -9.812370    3.675220
  H     -2.849460  -14.453570    8.090570
  H     -0.506450  -16.221210    7.258940
  H     -2.561150  -16.417370    9.523940
  H      3.063750  -19.276070    9.454240
  H     -0.774800  -20.640100   12.315860

 Total Charge           Charge          ....    0
 Multiplicity           Mult            ....    1
 Number of Electrons    NEL             ....  668
 Basis Dimension        Dim             .... 1310

ORBITAL ENERGIES
----------------

  NO   OCC          E(Eh)            E(eV)
   0   2.0000    -482.886759    -13140.0167
   1   2.0000    -482.885095    -13139.9715
   2   2.0000    -482.884972    -13139.9681
   3   2.0000    -482.883847    -13139.9375
   4   2.0000     -88.968615     -2420.9591
   5   2.0000     -62.564357     -1702.4627
   6   2.0000     -62.562733     -1702.4185
   7   2.0000     -62.562586     -1702.4145
   8   2.0000     -62.561473     -1702.3842
   9   2.0000     -56.398320     -1534.6763
  10   2.0000     -56.396705     -1534.6324
  11   2.0000     -56.396544     -1534.6280
  12   2.0000     -56.395653     -1534.6037
  13   2.0000     -56.395545     -1534.6008
  14   2.0000     -56.395442     -1534.5980
  15   2.0000     -56.394021     -1534.5593
  16   2.0000     -56.393912     -1534.5563
  17   2.0000     -56.393881     -1534.5555
  18   2.0000     -56.393779     -1534.5528
  19   2.0000     -56.392761     -1534.5250
  20   2.0000     -56.392661     -1534.5223
  21   2.0000     -24.810189      -675.1196
  22   2.0000     -24.802626      -674.9138
  23   2.0000     -24.802323      -674.9055
  24   2.0000     -19.344750      -526.3974
  25   2.0000     -19.314365      -525.5706
  26   2.0000     -19.262994      -524.1727
  27   2.0000     -19.261899      -524.1429
  28   2.0000     -19.260731      -524.1111
  29   2.0000     -19.260061      -524.0929
  30   2.0000     -19.240643      -523.5645
  31   2.0000     -19.235433      -523.4227
  32   2.0000     -19.207923      -522.6742
  33   2.0000     -19.202928      -522.5382
  34   2.0000     -14.468818      -393.7166
  35   2.0000     -14.468257      -393.7013
  36   2.0000     -14.434140      -392.7729
  37   2.0000     -14.433388      -392.7525
  38   2.0000     -14.433157      -392.7462
  39   2.0000     -14.431233      -392.6938
  40   2.0000     -14.431109      -392.6904
  41   2.0000     -10.535077      -286.6740
  42   2.0000     -10.458532      -284.5911
  43   2.0000     -10.455053      -284.4965
  44   2.0000     -10.426576      -283.7215
  45   2.0000     -10.421077      -283.5719
  46   2.0000     -10.396878      -282.9134
  47   2.0000     -10.393276      -282.8154
  48   2.0000     -10.391461      -282.7660
  49   2.0000     -10.390956      -282.7523
  50   2.0000     -10.386351      -282.6270
  51   2.0000     -10.386269      -282.6247
  52   2.0000     -10.367513      -282.1144
  53   2.0000     -10.365839      -282.0688
  54   2.0000     -10.365796      -282.0677
  55   2.0000     -10.365462      -282.0586
  56   2.0000     -10.363947      -282.0173
  57   2.0000     -10.363293      -281.9996
  58   2.0000     -10.362974      -281.9908
  59   2.0000     -10.360804      -281.9318
  60   2.0000     -10.360443      -281.9220
  61   2.0000     -10.360422      -281.9214
  62   2.0000     -10.360194      -281.9152
  63   2.0000     -10.356010      -281.8013
  64   2.0000     -10.354601      -281.7630
  65   2.0000     -10.354145      -281.7506
  66   2.0000     -10.350826      -281.6603
  67   2.0000     -10.350380      -281.6482
  68   2.0000     -10.348541      -281.5981
  69   2.0000     -10.347173      -281.5609
  70   2.0000     -10.337374      -281.2942
  71   2.0000     -10.336723      -281.2765
  72   2.0000     -10.334769      -281.2234
  73   2.0000     -10.334416      -281.2137
  74   2.0000     -10.332334      -281.1571
  75   2.0000     -10.332131      -281.1516
  76   2.0000     -10.331095      -281.1234
  77   2.0000     -10.330189      -281.0987
  78   2.0000     -10.330030      -281.0944
  79   2.0000     -10.329666      -281.0845
  80   2.0000     -10.324124      -280.9337
  81   2.0000     -10.323518      -280.9172
  82   2.0000     -10.322076      -280.8780
  83   2.0000     -10.321822      -280.8710
  84   2.0000     -10.318521      -280.7812
  85   2.0000     -10.317301      -280.7480
  86   2.0000     -10.316788      -280.7341
  87   2.0000     -10.315580      -280.7012
  88   2.0000     -10.314714      -280.6776
  89   2.0000     -10.314558      -280.6734
  90   2.0000     -10.313928      -280.6562
  91   2.0000     -10.313203      -280.6365
  92   2.0000     -10.309841      -280.5450
  93   2.0000     -10.284371      -279.8520
  94   2.0000     -10.276492      -279.6376
  95   2.0000     -10.264087      -279.3000
  96   2.0000     -10.255532      -279.0672
  97   2.0000      -8.793679      -239.2882
  98   2.0000      -8.792080      -239.2446
  99   2.0000      -8.791915      -239.2402
 100   2.0000      -8.790804      -239.2099
 101   2.0000      -8.067956      -219.5403
 102   2.0000      -6.629851      -180.4074
 103   2.0000      -6.628310      -180.3655
 104   2.0000      -6.628081      -180.3592
 105   2.0000      -6.627005      -180.3300
 106   2.0000      -6.615806      -180.0252
 107   2.0000      -6.614961      -180.0022
 108   2.0000      -6.614172      -179.9808
 109   2.0000      -6.614030      -179.9769
 110   2.0000      -6.613336      -179.9580
 111   2.0000      -6.613219      -179.9548
 112   2.0000      -6.612912      -179.9465
 113   2.0000      -6.612079      -179.9238
 114   2.0000      -6.036833      -164.2706
 115   2.0000      -6.033518      -164.1804
 116   2.0000      -6.028965      -164.0565
 117   2.0000      -2.745746       -74.7156
 118   2.0000      -2.744159       -74.6724
 119   2.0000      -2.743976       -74.6674
 120   2.0000      -2.742911       -74.6384
 121   2.0000      -2.741971       -74.6128
 122   2.0000      -2.741355       -74.5961
 123   2.0000      -2.740409       -74.5703
 124   2.0000      -2.740198       -74.5646
 125   2.0000      -2.739798       -74.5537
 126   2.0000      -2.739600       -74.5483
 127   2.0000      -2.739089       -74.5344
 128   2.0000      -2.738497       -74.5183
 129   2.0000      -2.730157       -74.2914
 130   2.0000      -2.730141       -74.2909
 131   2.0000      -2.728522       -74.2469
 132   2.0000      -2.728507       -74.2465
 133   2.0000      -2.728408       -74.2438
 134   2.0000      -2.728393       -74.2433
 135   2.0000      -2.727271       -74.2128
 136   2.0000      -2.727243       -74.2121
 137   2.0000      -1.397498       -38.0279
 138   2.0000      -1.302070       -35.4311
 139   2.0000      -1.294302       -35.2197
 140   2.0000      -1.269927       -34.5565
 141   2.0000      -1.268303       -34.5123
 142   2.0000      -1.190618       -32.3984
 143   2.0000      -1.188365       -32.3371
 144   2.0000      -1.182877       -32.1877
 145   2.0000      -1.157476       -31.4965
 146   2.0000      -1.151971       -31.3467
 147   2.0000      -1.151601       -31.3366
 148   2.0000      -1.149826       -31.2884
 149   2.0000      -1.141752       -31.0687
 150   2.0000      -1.080920       -29.4133
 151   2.0000      -1.071814       -29.1655
 152   2.0000      -1.040760       -28.3205
 153   2.0000      -1.038787       -28.2668
 154   2.0000      -1.036827       -28.2135
 155   2.0000      -1.023079       -27.8394
 156   2.0000      -1.021466       -27.7955
 157   2.0000      -1.017126       -27.6774
 158   2.0000      -1.011727       -27.5305
 159   2.0000      -1.010745       -27.5038
 160   2.0000      -0.993319       -27.0296
 161   2.0000      -0.990197       -26.9446
 162   2.0000      -0.972650       -26.4672
 163   2.0000      -0.969532       -26.3823
 164   2.0000      -0.961075       -26.1522
 165   2.0000      -0.953498       -25.9460
 166   2.0000      -0.941805       -25.6278
 167   2.0000      -0.936619       -25.4867
 168   2.0000      -0.934541       -25.4302
 169   2.0000      -0.930947       -25.3324
 170   2.0000      -0.923546       -25.1310
 171   2.0000      -0.921599       -25.0780
 172   2.0000      -0.913138       -24.8477
 173   2.0000      -0.906830       -24.6761
 174   2.0000      -0.897900       -24.4331
 175   2.0000      -0.888756       -24.1843
 176   2.0000      -0.880480       -23.9591
 177   2.0000      -0.869583       -23.6626
 178   2.0000      -0.865156       -23.5421
 179   2.0000      -0.863580       -23.4992
 180   2.0000      -0.851116       -23.1601
 181   2.0000      -0.837411       -22.7871
 182   2.0000      -0.827228       -22.5100
 183   2.0000      -0.820886       -22.3374
 184   2.0000      -0.819620       -22.3030
 185   2.0000      -0.812190       -22.1008
 186   2.0000      -0.795434       -21.6448
 187   2.0000      -0.787456       -21.4278
 188   2.0000      -0.785238       -21.3674
 189   2.0000      -0.781762       -21.2728
 190   2.0000      -0.779974       -21.2242
 191   2.0000      -0.775673       -21.1071
 192   2.0000      -0.772796       -21.0288
 193   2.0000      -0.765801       -20.8385
 194   2.0000      -0.744488       -20.2585
 195   2.0000      -0.740874       -20.1602
 196   2.0000      -0.728872       -19.8336
 197   2.0000      -0.726533       -19.7700
 198   2.0000      -0.721154       -19.6236
 199   2.0000      -0.717359       -19.5203
 200   2.0000      -0.710533       -19.3346
 201   2.0000      -0.705465       -19.1967
 202   2.0000      -0.702130       -19.1059
 203   2.0000      -0.699525       -19.0350
 204   2.0000      -0.689146       -18.7526
 205   2.0000      -0.686608       -18.6836
 206   2.0000      -0.678665       -18.4674
 207   2.0000      -0.673984       -18.3400
 208   2.0000      -0.672533       -18.3006
 209   2.0000      -0.666829       -18.1453
 210   2.0000      -0.660326       -17.9684
 211   2.0000      -0.658501       -17.9187
 212   2.0000      -0.653261       -17.7761
 213   2.0000      -0.648266       -17.6402
 214   2.0000      -0.639299       -17.3962
 215   2.0000      -0.637124       -17.3370
 216   2.0000      -0.635006       -17.2794
 217   2.0000      -0.629558       -17.1311
 218   2.0000      -0.627028       -17.0623
 219   2.0000      -0.624943       -17.0056
 220   2.0000      -0.618942       -16.8423
 221   2.0000      -0.613530       -16.6950
 222   2.0000      -0.606329       -16.4990
 223   2.0000      -0.605811       -16.4850
 224   2.0000      -0.602567       -16.3967
 225   2.0000      -0.592410       -16.1203
 226   2.0000      -0.590633       -16.0720
 227   2.0000      -0.588866       -16.0239
 228   2.0000      -0.585964       -15.9449
 229   2.0000      -0.585116       -15.9218
 230   2.0000      -0.576580       -15.6895
 231   2.0000      -0.574229       -15.6256
 232   2.0000      -0.571340       -15.5470
 233   2.0000      -0.568196       -15.4614
 234   2.0000      -0.566490       -15.4150
 235   2.0000      -0.563423       -15.3315
 236   2.0000      -0.561177       -15.2704
 237   2.0000      -0.560711       -15.2577
 238   2.0000      -0.559703       -15.2303
 239   2.0000      -0.558922       -15.2090
 240   2.0000      -0.555552       -15.1173
 241   2.0000      -0.555035       -15.1033
 242   2.0000      -0.553732       -15.0678
 243   2.0000      -0.553281       -15.0555
 244   2.0000      -0.551470       -15.0063
 245   2.0000      -0.551008       -14.9937
 246   2.0000      -0.544109       -14.8060
 247   2.0000      -0.543157       -14.7800
 248   2.0000      -0.537913       -14.6374
 249   2.0000      -0.537356       -14.6222
 250   2.0000      -0.536470       -14.5981
 251   2.0000      -0.532370       -14.4865
 252   2.0000      -0.528676       -14.3860
 253   2.0000      -0.527176       -14.3452
 254   2.0000      -0.524496       -14.2723
 255   2.0000      -0.520983       -14.1767
 256   2.0000      -0.519347       -14.1322
 257   2.0000      -0.518347       -14.1049
 258   2.0000      -0.517759       -14.0889
 259   2.0000      -0.516441       -14.0531
 260   2.0000      -0.515244       -14.0205
 261   2.0000      -0.513011       -13.9597
 262   2.0000      -0.512066       -13.9340
 263   2.0000      -0.511378       -13.9153
 264   2.0000      -0.509379       -13.8609
 265   2.0000      -0.506337       -13.7781
 266   2.0000      -0.503108       -13.6903
 267   2.0000      -0.499226       -13.5846
 268   2.0000      -0.498875       -13.5751
 269   2.0000      -0.490882       -13.3576
 270   2.0000      -0.489080       -13.3085
 271   2.0000      -0.486158       -13.2290
 272   2.0000      -0.484256       -13.1773
 273   2.0000      -0.480396       -13.0722
 274   2.0000      -0.479460       -13.0468
 275   2.0000      -0.477643       -12.9973
 276   2.0000      -0.475863       -12.9489
 277   2.0000      -0.474949       -12.9240
 278   2.0000      -0.474403       -12.9092
 279   2.0000      -0.473438       -12.8829
 280   2.0000      -0.470803       -12.8112
 281   2.0000      -0.469397       -12.7729
 282   2.0000      -0.467118       -12.7109
 283   2.0000      -0.464016       -12.6265
 284   2.0000      -0.463540       -12.6136
 285   2.0000      -0.459045       -12.4912
 286   2.0000      -0.456789       -12.4299
 287   2.0000      -0.456226       -12.4145
 288   2.0000      -0.455379       -12.3915
 289   2.0000      -0.454167       -12.3585
 290   2.0000      -0.448300       -12.1989
 291   2.0000      -0.447666       -12.1816
 292   2.0000      -0.446305       -12.1446
 293   2.0000      -0.444598       -12.0981
 294   2.0000      -0.442563       -12.0428
 295   2.0000      -0.439680       -11.9643
 296   2.0000      -0.435982       -11.8637
 297   2.0000      -0.434798       -11.8315
 298   2.0000      -0.432228       -11.7615
 299   2.0000      -0.430739       -11.7210
 300   2.0000      -0.429456       -11.6861
 301   2.0000      -0.426995       -11.6191
 302   2.0000      -0.423960       -11.5365
 303   2.0000      -0.422174       -11.4879
 304   2.0000      -0.417573       -11.3627
 305   2.0000      -0.415063       -11.2944
 306   2.0000      -0.409850       -11.1526
 307   2.0000      -0.409246       -11.1362
 308   2.0000      -0.405557       -11.0358
 309   2.0000      -0.399387       -10.8679
 310   2.0000      -0.398062       -10.8318
 311   2.0000      -0.395278       -10.7561
 312   2.0000      -0.394502       -10.7350
 313   2.0000      -0.392209       -10.6725
 314   2.0000      -0.387768       -10.5517
 315   2.0000      -0.379331       -10.3221
 316   2.0000      -0.377541       -10.2734
 317   2.0000      -0.366127        -9.9628
 318   2.0000      -0.363928        -9.9030
 319   2.0000      -0.362138        -9.8543
 320   2.0000      -0.361133        -9.8269
 321   2.0000      -0.357549        -9.7294
 322   2.0000      -0.355417        -9.6714
 323   2.0000      -0.353089        -9.6080
 324   2.0000      -0.350319        -9.5327
 325   2.0000      -0.348337        -9.4787
 326   2.0000      -0.345918        -9.4129
 327   2.0000      -0.343296        -9.3416
 328   2.0000      -0.328686        -8.9440
 329   2.0000      -0.326316        -8.8795
 330   2.0000      -0.322704        -8.7812
 331   2.0000      -0.318230        -8.6595
 332   2.0000      -0.312473        -8.5028
 333   2.0000      -0.261184        -7.1072
 334   0.0000      -0.125899        -3.4259
 335   0.0000      -0.117552        -3.1988
 336   0.0000      -0.113482        -3.0880
 337   0.0000      -0.093719        -2.5502
 338   0.0000      -0.085706        -2.3322

MULLIKEN ATOMIC CHARGES
-----------------------
   0 C :    0.153823
   1 O :   -0.125302
   2 C :   -0.020742
   3 C :    0.040745
   4 C :   -0.004819
   5 C :   -0.025116
   6 C :   -0.016851
   7 C :   -0.015080
   8 Br:    0.025325
   9 Br:    0.032247
  10 C :    0.294925
  11 C :   -0.324396
  12 C :   -0.187759
  13 N :    0.170755
  14 C :   -0.200162
  15 N :    0.185947
  16 C :   -0.049971
  17 C :   -0.099154
  18 C :    0.157592
  19 O :   -0.140896
  20 C :    0.057908
  21 C :   -0.069099
  22 C :   -0.091729
  23 C :   -0.206973
  24 N :    0.211875
  25 C :    0.540577
  26 F :   -0.147087
  27 F :   -0.162450
  28 F :   -0.131414
  29 C :    0.088482
  30 N :   -0.249282
  31 C :    0.120121
  32 C :   -0.008691
  33 C :    0.183075
  34 O :   -0.203761
  35 C :   -0.084537
  36 C :   -0.006492
  37 C :    0.140186
  38 O :   -0.167576
  39 N :   -0.260062
  40 C :    0.089621
  41 C :   -0.005697
  42 C :    0.119978
  43 C :    0.043491
  44 C :   -0.032077
  45 C :    0.031191
  46 C :    0.015790
  47 C :    0.045115
  48 O :   -0.106269
  49 S :    0.047121
  50 C :    0.044220
  51 O :   -0.128624
  52 C :    0.037557
  53 C :    0.082088
  54 C :   -0.056259
  55 C :   -0.083478
  56 C :    0.236865
  57 O :   -0.089093
  58 O :   -0.205887
  59 C :    0.262930
  60 O :   -0.115069
  61 C :   -0.039094
  62 C :    0.016111
  63 C :    0.019226
  64 C :   -0.098081
  65 C :    0.145642
  66 O :   -0.120395
  67 C :   -0.009035
  68 C :    0.030348
  69 C :    0.261432
  70 C :   -0.307325
  71 C :   -0.183889
  72 N :    0.151312
  73 C :   -0.181525
  74 N :    0.168099
  75 C :   -0.007945
  76 C :   -0.023709
  77 C :   -0.016756
  78 C :   -0.017081
  79 Br:    0.021979
  80 Br:    0.029008
  81 H :    0.010160
  82 H :    0.009434
  83 H :    0.051194
  84 H :    0.036138
  85 H :    0.017131
  86 H :    0.027468
  87 H :    0.010765
  88 H :    0.032356
  89 H :    0.049080
  90 H :    0.024318
  91 H :    0.028165
  92 H :    0.024216
  93 H :    0.031266
  94 H :   -0.019490
  95 H :    0.060543
  96 H :    0.023910
  97 H :    0.052624
  98 H :    0.030232
  99 H :    0.013617
 100 H :    0.010854
Sum of atomic charges:   -0.0000000

LOEWDIN ATOMIC CHARGES
----------------------
   0 C :    0.084916
   1 O :   -0.118018
   2 C :   -0.044168
   3 C :   -0.011528
   4 C :   -0.005638
   5 C :   -0.116098
   6 C :   -0.120886
   7 C :    0.009492
   8 Br:    0.146229
   9 Br:    0.149805
  10 C :    0.067509
  11 C :   -0.117022
  12 C :   -0.019390
  13 N :   -0.031654
  14 C :   -0.027921
  15 N :   -0.024272
  16 C :   -0.068850
  17 C :    0.045631
  18 C :    0.048030
  19 O :    0.070465
  20 C :    0.064842
  21 C :   -0.083606
  22 C :   -0.053176
  23 C :   -0.040573
  24 N :   -0.004677
  25 C :    0.168432
  26 F :   -0.040874
  27 F :   -0.060824
  28 F :   -0.032429
  29 C :    0.038796
  30 N :    0.011396
  31 C :    0.039114
  32 C :   -0.068264
  33 C :    0.083361
  34 O :   -0.192041
  35 C :   -0.121782
  36 C :   -0.097522
  37 C :    0.081299
  38 O :   -0.168294
  39 N :    0.002025
  40 C :    0.036417
  41 C :   -0.064245
  42 C :    0.095434
  43 C :   -0.009195
  44 C :    0.024861
  45 C :    0.027567
  46 C :   -0.043799
  47 C :   -0.046073
  48 O :   -0.088519
  49 S :    0.325837
  50 C :   -0.041170
  51 O :   -0.108653
  52 C :   -0.043427
  53 C :    0.030998
  54 C :   -0.031908
  55 C :   -0.041619
  56 C :    0.112083
  57 O :   -0.089912
  58 O :   -0.035964
  59 C :    0.121760
  60 O :   -0.096279
  61 C :   -0.002205
  62 C :    0.006433
  63 C :    0.068086
  64 C :   -0.071788
  65 C :    0.083664
  66 O :   -0.122303
  67 C :   -0.044638
  68 C :   -0.009395
  69 C :    0.068922
  70 C :   -0.116584
  71 C :   -0.010285
  72 N :   -0.055572
  73 C :   -0.018558
  74 N :   -0.032333
  75 C :   -0.006751
  76 C :   -0.116621
  77 C :   -0.121954
  78 C :    0.009052
  79 Br:    0.143792
  80 Br:    0.148054
  81 H :    0.045543
  82 H :    0.047551
  83 H :    0.060626
  84 H :    0.035133
  85 H :    0.022247
  86 H :    0.029690
  87 H :    0.026218
  88 H :    0.021092
  89 H :    0.039614
  90 H :    0.023172
  91 H :    0.032306
  92 H :    0.031765
  93 H :    0.024427
  94 H :    0.029895
  95 H :    0.045059
  96 H :    0.037843
  97 H :    0.028318
  98 H :    0.050642
  99 H :    0.045857
 100 H :    0.047954

  Mayer bond orders larger than 0.100000
B(  0-C ,  1-O ) :   2.1910 B(  0-C ,  2-C ) :   0.9497 B(  0-C , 16-C ) :   0.9239
B(  2-C ,  3-C ) :   1.3242 B(  2-C ,  7-C ) :   1.3664 B(  3-C ,  4-C ) :   1.3619
B(  3-C , 10-C ) :   1.0008 B(  4-C ,  5-C ) :   1.3738 B(  4-C , 81-H ) :   0.9789
B(  5-C ,  6-C ) :   1.4114 B(  5-C ,  9-Br) :   1.0640 B(  6-C ,  7-C ) :   1.3572
B(  6-C ,  8-Br) :   1.0413 B(  7-C , 82-H ) :   1.0081 B( 10-C , 11-C ) :   1.6703
B( 10-C , 16-C ) :   1.0457 B( 11-C , 12-C ) :   1.1387 B( 11-C , 14-C ) :   1.1364
B( 12-C , 13-N ) :   2.9746 B( 14-C , 15-N ) :   2.9887 B( 16-C , 17-C ) :   1.6029
B( 17-C , 18-C ) :   1.2117 B( 17-C , 83-H ) :   0.9256 B( 18-C , 19-O ) :   1.1650
B( 18-C , 20-C ) :   0.1041 B( 18-C , 22-C ) :   1.3871 B( 19-O , 20-C ) :   1.1844
B( 20-C , 21-C ) :   1.5074 B( 20-C , 29-C ) :   0.9647 B( 21-C , 22-C ) :   1.3051
B( 21-C , 25-C ) :   0.9250 B( 22-C , 23-C ) :   1.1204 B( 23-C , 24-N ) :   3.0179
B( 25-C , 26-F ) :   1.1582 B( 25-C , 27-F ) :   1.1669 B( 25-C , 28-F ) :   1.2073
B( 29-C , 30-N ) :   1.2121 B( 29-C , 36-C ) :   1.4692 B( 30-N , 31-C ) :   0.9390
B( 30-N , 33-C ) :   1.0475 B( 31-C , 32-C ) :   1.1180 B( 31-C , 84-H ) :   0.9341
B( 31-C , 85-H ) :   0.9483 B( 32-C , 86-H ) :   0.9617 B( 32-C , 87-H ) :   0.9640
B( 32-C , 88-H ) :   0.9524 B( 33-C , 34-O ) :   2.0200 B( 33-C , 35-C ) :   0.9944
B( 34-O , 95-H ) :   0.1164 B( 35-C , 36-C ) :   1.2306 B( 35-C , 42-C ) :   1.3390
B( 36-C , 37-C ) :   0.9383 B( 37-C , 38-O ) :   2.1627 B( 37-C , 39-N ) :   1.0265
B( 39-N , 40-C ) :   0.9369 B( 39-N , 42-C ) :   1.1829 B( 40-C , 41-C ) :   1.1202
B( 40-C , 89-H ) :   0.9286 B( 40-C , 90-H ) :   0.9499 B( 41-C , 91-H ) :   0.9608
B( 41-C , 92-H ) :   0.9653 B( 41-C , 93-H ) :   0.9622 B( 42-C , 43-C ) :   1.1652
B( 43-C , 44-C ) :   1.6882 B( 43-C , 94-H ) :   0.9532 B( 44-C , 45-C ) :   1.0701
B( 44-C , 95-H ) :   0.9010 B( 45-C , 46-C ) :   1.3697 B( 45-C , 55-C ) :   1.3378
B( 46-C , 47-C ) :   0.8441 B( 46-C , 52-C ) :   1.3363 B( 47-C , 48-O ) :   2.1818
B( 47-C , 49-S ) :   1.0252 B( 48-O , 49-S ) :   0.1072 B( 49-S , 50-C ) :   1.0466
B( 49-S , 51-O ) :   0.1043 B( 50-C , 51-O ) :   2.1330 B( 50-C , 52-C ) :   0.8442
B( 52-C , 53-C ) :   1.3391 B( 53-C , 54-C ) :   1.2866 B( 53-C , 61-C ) :   1.1282
B( 54-C , 55-C ) :   1.3844 B( 54-C , 59-C ) :   0.9046 B( 55-C , 56-C ) :   0.9022
B( 56-C , 57-O ) :   2.2150 B( 56-C , 58-O ) :   1.0585 B( 58-O , 59-C ) :   1.0774
B( 59-C , 60-O ) :   2.1501 B( 61-C , 62-C ) :   1.6779 B( 61-C , 96-H ) :   0.9617
B( 62-C , 63-C ) :   1.0827 B( 62-C , 97-H ) :   0.9197 B( 63-C , 64-C ) :   1.6696
B( 63-C , 98-H ) :   0.9653 B( 64-C , 65-C ) :   0.9256 B( 64-C , 69-C ) :   1.0227
B( 65-C , 66-O ) :   2.2931 B( 65-C , 67-C ) :   0.9219 B( 67-C , 68-C ) :   1.3231
B( 67-C , 78-C ) :   1.3714 B( 68-C , 69-C ) :   1.0090 B( 68-C , 75-C ) :   1.3667
B( 69-C , 70-C ) :   1.6780 B( 70-C , 71-C ) :   1.1645 B( 70-C , 73-C ) :   1.1273
B( 71-C , 72-N ) :   2.9702 B( 73-C , 74-N ) :   2.9925 B( 75-C , 76-C ) :   1.3719
B( 75-C , 99-H ) :   0.9826 B( 76-C , 77-C ) :   1.4150 B( 76-C , 80-Br) :   1.0585
B( 77-C , 78-C ) :   1.3599 B( 77-C , 79-Br) :   1.0384 B( 78-C ,100-H ) :   1.0073

-----------------------------------------------------------------------------
         ABSORPTION SPECTRUM VIA TRANSITION ELECTRIC DIPOLE MOMENTS
-----------------------------------------------------------------------------
State   Energy  Wavelength   fosc         T2         TX        TY        TZ
        (cm-1)    (nm)                  (au**2)     (au)      (au)      (au)
-----------------------------------------------------------------------------
   0   14370.3    695.9   0.698769397  16.00829  -0.62850  -3.84674   0.90328
   1   16274.1    614.5   0.016976464   0.34342   0.20190  -0.51840  -0.18417
   2   17982.3    556.1   0.106095253   1.94235  -0.61761   0.55695  -1.11836
   3   22696.1    440.6   0.049751126   0.72165   0.16230   0.21983   0.80435
   4   24002.3    416.6   0.124886163   1.71292   0.28853  -0.69603   1.07015
   5   24225.1    412.8   0.048371544   0.65736   0.03928  -0.72280   0.36520
   6   25307.3    395.1   0.542576116   7.05816  -1.11735   2.06458  -1.24387
   7   25530.8    391.7   0.079896483   1.03024  -0.76948  -0.29707  -0.59151
   8   25894.7    386.2   0.149939756   1.90626   0.51015   1.28141   0.06316
   9   27146.2    368.4   0.218464389   2.64940  -0.33095   1.43111  -0.70129
  10   27408.7    364.8   0.027010688   0.32443  -0.08786   0.48956  -0.27757
  11   27541.4    363.1   0.033139126   0.39612  -0.27732  -0.47287  -0.30920
  12   27665.9    361.5   0.056598372   0.67349   0.43816  -0.31585   0.61786
  13   28112.6    355.7   0.393324199   4.60601   1.43059   1.28646   0.95103
  14   28481.8    351.1   0.157341748   1.81866  -0.39976  -0.69115   1.08681
  15   29303.8    341.3   0.007255991   0.08152   0.04796  -0.23881  -0.14895
  16   30012.5    333.2   0.222534768   2.44102   0.25723   1.08585  -1.09352
  17   30784.3    324.8   0.021830294   0.23346  -0.40313   0.19721   0.17903
  18   31016.8    322.4   0.084290704   0.89466  -0.70536  -0.12618   0.61742
  19   31361.8    318.9   0.026962115   0.28303  -0.16947  -0.39367   0.31516
  20   31589.2    316.6   0.007822913   0.08153   0.25750   0.12314   0.00754
  21   31632.0    316.1   0.045383319   0.47233   0.40980  -0.28381   0.47312
  22   31720.1    315.3   0.046884872   0.48660   0.17166   0.47278  -0.48334
  23   32052.4    312.0   0.031148345   0.31993   0.45466   0.28559  -0.17791
  24   32127.8    311.3   0.021726385   0.22263   0.36854   0.28303  -0.08185
  25   32206.9    310.5   0.039396738   0.40270   0.32319  -0.12967   0.53051
  26   32604.4    306.7   0.015063273   0.15210   0.05950   0.32221   0.21151
  27   32677.0    306.0   0.010706318   0.10786  -0.21822  -0.20623   0.13309
  28   32864.8    304.3   0.045034827   0.45112   0.13349  -0.49455   0.43442
  29   33163.6    301.5   0.053124558   0.52736  -0.48756   0.49359  -0.21451
  30   33232.3    300.9   0.050391900   0.49920   0.11961  -0.56779   0.40312
  31   33335.6    300.0   0.262599934   2.59336  -0.84270  -0.39468  -1.31432
  32   33774.1    296.1   0.058555942   0.57077  -0.11089   0.73832  -0.11558
  33   34001.2    294.1   0.017958847   0.17388   0.26424  -0.31765  -0.05621
  34   34321.9    291.4   0.622121000   5.96732  -0.85671   1.61653  -1.61870
  35   34484.5    290.0   0.048432415   0.46237  -0.38150  -0.52810   0.19477
  36   34917.9    286.4   0.410753593   3.87266   1.00384   1.14222  -1.24912
  37   35235.2    283.8   0.059415547   0.55514  -0.00564  -0.72853   0.15604
  38   35356.5    282.8   0.016420658   0.15290   0.03308   0.35871  -0.15209
  39   35565.7    281.2   0.025846141   0.23924   0.27022   0.38732  -0.12733
  40   35677.5    280.3   0.002263246   0.02088  -0.04888   0.10142   0.09060
  41   35750.1    279.7   0.039762458   0.36616  -0.47665   0.36992   0.04602
  42   35982.3    277.9   0.000878795   0.00804   0.07081  -0.01460   0.05304
  43   36054.3    277.4   0.027837983   0.25419   0.27907  -0.41163   0.08286
  44   36373.6    274.9   0.068038560   0.61581   0.37026   0.35635  -0.59306
  45   36527.8    273.8   0.013613671   0.12270   0.29752   0.00163   0.18487
  46   36665.8    272.7   0.003645847   0.03274  -0.09838  -0.13342   0.07249
  47   37005.3    270.2   0.008110935   0.07216   0.04975   0.13658  -0.22590
  48   37031.8    270.0   0.063828922   0.56744   0.23658  -0.49117   0.51983
  49   37338.1    267.8   0.002530154   0.02231  -0.04045  -0.14262   0.01820
  50   37548.6    266.3   0.077296149   0.67770   0.27788   0.12027   0.76552
  51   38028.3    263.0   0.007373499   0.06383  -0.04751   0.21166   0.12952
  52   38139.4    262.2   0.165854056   1.43162   0.76728   0.88024   0.26094
  53   38284.8    261.2   0.016327684   0.14040  -0.02910   0.20171   0.31443
  54   38441.1    260.1   0.026693437   0.22860   0.28478  -0.36044   0.13260
  55   38668.0    258.6   0.026789621   0.22808   0.19923  -0.01164   0.43388
  56   38709.6    258.3   0.060846058   0.51747  -0.03564   0.38524  -0.60646
  57   38868.9    257.3   0.103394824   0.87573   0.06803  -0.53681   0.76351
  58   39223.9    254.9   0.046544496   0.39065  -0.60324   0.15972   0.03532
  59   39313.3    254.4   0.023216244   0.19441  -0.40375   0.17571  -0.02296
  60   39459.2    253.4   0.013411011   0.11189  -0.28188   0.17945  -0.01533
  61   39502.5    253.1   0.001925839   0.01605   0.11796  -0.04483  -0.01121
  62   39704.3    251.9   0.009230091   0.07653  -0.25746  -0.06492   0.07768
  63   40030.2    249.8   0.003552237   0.02921  -0.14959   0.08268  -0.00079
  64   40128.9    249.2   0.001425316   0.01169   0.07300  -0.07915  -0.00999

FINAL SINGLE POINT ENERGY    -14270.561754279897

DIPOLE MOMENT
-------------
                                X             Y             Z
Electronic contribution:    125.42740     -36.46590     133.82032
Nuclear contribution   :   -125.67297      33.90351    -131.44805
                        -----------------------------------------
Total Dipole Moment    :     -0.24557      -2.56239       2.37227
                        -----------------------------------------
Magnitude (a.u.)       :      3.50055
Magnitude (Debye)      :      8.89769

Rotational constants in cm-1:     0.000861     0.000154     0.000140
Rotational constants in MHz :    25.803037     4.622585     4.191007

                             ****ORCA TERMINATED NORMALLY****
TOTAL RUN TIME: 0 days 0 hours 11 minutes 58 seconds 209 msec
