                         Program Version 4.2.0 -  RELEASE  -
|  1> # ORCA input file
|  2> # SCF done       -195.806594531847          0.000520206080
|  3> ! CAM-B3LYP def2-SVP def2/J RIJCOSX Grid4 TightSCF
|  4> %maxcore 5000
|  5> %tddft
|  6>     Mode sTDDFT
|  7>     Ethresh 5.0
|  8>     maxcore 5000
|  9> end
| 10>
| 11> %pal
| 12>   nprocs 6
| 13>   end
| 14> * xyz 0 1
| 15>    C        1.65469         2.29917        -4.46229
| 16>    C        0.58758         3.10808        -4.70343
| 17>    S       -0.83634         2.18459        -5.01620
| 18>    C        0.02198         0.67350        -4.81987
| 19>   Cl       -0.76375        -0.81701        -4.98405
| 20>    C        1.33230         0.90605        -4.52733
| 21>    C        2.52727         0.09779        -4.25759
| 22>    O        2.61692        -1.10665        -4.28141
| 23>    C        3.61718         1.09955        -4.03141
| 24>    C        3.06098         2.44020        -4.14459
| 25>    C        3.69240         3.64002        -3.94287
| 26>    C        3.00010         4.86240        -4.07603
| 27>    N        2.45618         5.86660        -4.18549
| 28>    C        5.04174         3.82102        -3.58015
| 29>    N        6.12683         4.04484        -3.27781
| 30>    C        4.94823         0.82819        -3.90010
| 31>    C        5.59503        -0.41233        -3.67100
| 32>    C        5.12498        -1.58372        -3.11628
| 33>    C        6.18785        -2.53446        -3.07118
| 34>    C        7.37666        -1.85924        -3.61746
| 35>    C        7.01906        -0.59097        -3.94371
| 36>    C        8.67685        -2.37657        -3.69365
| 37>    N        9.76262        -2.74745        -3.73532
| 38>    C        6.12242        -3.83231        -2.61732
| 39>    C        7.11898        -4.83579        -2.74021
| 40>    C        6.68931        -5.98855        -2.10955
| 41>    C        5.36427        -5.72245        -1.55998
| 42>    C        5.00570        -4.45237        -1.88026
| 43>    C        3.80554        -3.84270        -1.49278
| 44>    N        2.81861        -3.38097        -1.13062
| 45>    C        7.46032        -7.17885        -2.06602
| 46>    N        7.33613        -8.23691        -1.19984
| 47>    C        6.45843        -8.36314        -0.05904
| 48>    C        6.77512        -7.34203         1.02858
| 49>    C        8.32143        -9.22021        -1.42944
| 50>    O        8.42203       -10.23138        -0.76813
| 51>    C        9.07441        -8.72062        -2.55860
| 52>    C        8.52882        -7.47093        -2.92233
| 53>    C        9.23092        -7.00324        -4.10226
| 54>    O        9.09916        -6.02583        -4.80280
| 55>    N       10.18788        -8.01171        -4.35315
| 56>    C       11.15156        -7.86328        -5.41716
| 57>    C       12.49031        -7.34723        -4.89596
| 58>    C       10.11392        -9.03041        -3.44095
| 59>    C       10.97070       -10.16110        -3.44881
| 60>    C       10.91637       -11.13735        -2.51038
| 61>    C       11.80494       -12.24907        -2.51694
| 62>    O       12.72983       -12.39368        -3.52560
| 63>    C       13.40608       -13.51650        -3.21416
| 64>    C       12.85391       -14.02532        -1.99616
| 65>    N       11.85061       -13.18387        -1.61704
| 66>    C       13.33924       -15.17269        -1.39084
| 67>    C       14.39078       -15.77634        -2.06159
| 68>    C       14.91635       -15.25568        -3.28360
| 69>    C       14.44625       -14.11129        -3.89887
| 70>    O       15.91604       -16.06991        -3.67225
| 71>    C       15.99278       -17.02205        -2.69685
| 72>    N       15.11563       -16.88750        -1.74649
| 73>    C       16.93866       -18.07840        -2.84881
| 74>    C       17.29460       -18.99350        -1.92066
| 75>    C       17.97758       -20.25872        -2.36460
| 76>    O       18.50078       -20.45086        -3.43308
| 77>    C       17.79451       -21.17562        -1.23687
| 78>    C       18.05374       -22.48688        -0.96249
| 79>    S       17.52477       -22.88919         0.65254
| 80>    C       16.97020       -21.28071         0.94384
| 81>    C       17.17413       -20.48695        -0.14081
| 82>    C       16.98862       -19.09355        -0.50007
| 83>    C       16.78542       -18.07726         0.38783
| 84>    C       16.54701       -18.33737         1.75468
| 85>    N       16.34076       -18.54219         2.86402
| 86>    C       16.90859       -16.70467         0.08605
| 87>    N       17.09786       -15.58282        -0.06211
| 88>   Cl       18.77830       -23.63960        -1.96837
| 89>    H        0.53446         4.17843        -4.72425
| 90>    H        5.63153         1.66505        -3.99611
| 91>    H        4.12646        -1.77699        -2.78110
| 92>    H        7.65963         0.17170        -4.34736
| 93>    H        8.04801        -4.71239        -3.25965
| 94>    H        4.74786        -6.41899        -1.02552
| 95>    H        6.62847        -9.37376         0.32476
| 96>    H        5.41626        -8.29217        -0.37994
| 97>    H        7.80374        -7.45940         1.36100
| 98>    H        6.11644        -7.49808         1.87828
| 99>    H        6.64169        -6.32433         0.66790
|100>    H       10.72442        -7.13364        -6.11077
|101>    H       11.27286        -8.81714        -5.93721
|102>    H       12.35395        -6.37735        -4.42426
|103>    H       13.18698        -7.23548        -5.72190
|104>    H       12.91684        -8.03263        -4.16666
|105>    H       11.70674       -10.23158        -4.23748
|106>    H       10.20353       -11.11516        -1.69816
|107>    H       12.93944       -15.55550        -0.46927
|108>    H       14.85567       -13.72194        -4.81465
|109>    H       17.35016       -18.19608        -3.84445
|110>    H       16.52632       -21.03826         1.88893
|111> *
|112>
|113>                          ****END OF INPUT****

CARTESIAN COORDINATES (ANGSTROEM)
---------------------------------
  C      1.654690    2.299170   -4.462290
  C      0.587580    3.108080   -4.703430
  S     -0.836340    2.184590   -5.016200
  C      0.021980    0.673500   -4.819870
  Cl    -0.763750   -0.817010   -4.984050
  C      1.332300    0.906050   -4.527330
  C      2.527270    0.097790   -4.257590
  O      2.616920   -1.106650   -4.281410
  C      3.617180    1.099550   -4.031410
  C      3.060980    2.440200   -4.144590
  C      3.692400    3.640020   -3.942870
  C      3.000100    4.862400   -4.076030
  N      2.456180    5.866600   -4.185490
  C      5.041740    3.821020   -3.580150
  N      6.126830    4.044840   -3.277810
  C      4.948230    0.828190   -3.900100
  C      5.595030   -0.412330   -3.671000
  C      5.124980   -1.583720   -3.116280
  C      6.187850   -2.534460   -3.071180
  C      7.376660   -1.859240   -3.617460
  C      7.019060   -0.590970   -3.943710
  C      8.676850   -2.376570   -3.693650
  N      9.762620   -2.747450   -3.735320
  C      6.122420   -3.832310   -2.617320
  C      7.118980   -4.835790   -2.740210
  C      6.689310   -5.988550   -2.109550
  C      5.364270   -5.722450   -1.559980
  C      5.005700   -4.452370   -1.880260
  C      3.805540   -3.842700   -1.492780
  N      2.818610   -3.380970   -1.130620
  C      7.460320   -7.178850   -2.066020
  N      7.336130   -8.236910   -1.199840
  C      6.458430   -8.363140   -0.059040
  C      6.775120   -7.342030    1.028580
  C      8.321430   -9.220210   -1.429440
  O      8.422030  -10.231380   -0.768130
  C      9.074410   -8.720620   -2.558600
  C      8.528820   -7.470930   -2.922330
  C      9.230920   -7.003240   -4.102260
  O      9.099160   -6.025830   -4.802800
  N     10.187880   -8.011710   -4.353150
  C     11.151560   -7.863280   -5.417160
  C     12.490310   -7.347230   -4.895960
  C     10.113920   -9.030410   -3.440950
  C     10.970700  -10.161100   -3.448810
  C     10.916370  -11.137350   -2.510380
  C     11.804940  -12.249070   -2.516940
  O     12.729830  -12.393680   -3.525600
  C     13.406080  -13.516500   -3.214160
  C     12.853910  -14.025320   -1.996160
  N     11.850610  -13.183870   -1.617040
  C     13.339240  -15.172690   -1.390840
  C     14.390780  -15.776340   -2.061590
  C     14.916350  -15.255680   -3.283600
  C     14.446250  -14.111290   -3.898870
  O     15.916040  -16.069910   -3.672250
  C     15.992780  -17.022050   -2.696850
  N     15.115630  -16.887500   -1.746490
  C     16.938660  -18.078400   -2.848810
  C     17.294600  -18.993500   -1.920660
  C     17.977580  -20.258720   -2.364600
  O     18.500780  -20.450860   -3.433080
  C     17.794510  -21.175620   -1.236870
  C     18.053740  -22.486880   -0.962490
  S     17.524770  -22.889190    0.652540
  C     16.970200  -21.280710    0.943840
  C     17.174130  -20.486950   -0.140810
  C     16.988620  -19.093550   -0.500070
  C     16.785420  -18.077260    0.387830
  C     16.547010  -18.337370    1.754680
  N     16.340760  -18.542190    2.864020
  C     16.908590  -16.704670    0.086050
  N     17.097860  -15.582820   -0.062110
  Cl    18.778300  -23.639600   -1.968370
  H      0.534460    4.178430   -4.724250
  H      5.631530    1.665050   -3.996110
  H      4.126460   -1.776990   -2.781100
  H      7.659630    0.171700   -4.347360
  H      8.048010   -4.712390   -3.259650
  H      4.747860   -6.418990   -1.025520
  H      6.628470   -9.373760    0.324760
  H      5.416260   -8.292170   -0.379940
  H      7.803740   -7.459400    1.361000
  H      6.116440   -7.498080    1.878280
  H      6.641690   -6.324330    0.667900
  H     10.724420   -7.133640   -6.110770
  H     11.272860   -8.817140   -5.937210
  H     12.353950   -6.377350   -4.424260
  H     13.186980   -7.235480   -5.721900
  H     12.916840   -8.032630   -4.166660
  H     11.706740  -10.231580   -4.237480
  H     10.203530  -11.115160   -1.698160
  H     12.939440  -15.555500   -0.469270
  H     14.855670  -13.721940   -4.814650
  H     17.350160  -18.196080   -3.844450
  H     16.526320  -21.038260    1.888930

 Total Charge           Charge          ....    0
 Multiplicity           Mult            ....    1
 Number of Electrons    NEL             ....  530
 Basis Dimension        Dim             .... 1162

ORBITAL ENERGIES
----------------

  NO   OCC          E(Eh)            E(eV)
   0   2.0000    -101.622251     -2765.2820
   1   2.0000    -101.617146     -2765.1431
   2   2.0000     -88.998035     -2421.7597
   3   2.0000     -88.994437     -2421.6617
   4   2.0000     -19.316540      -525.6298
   5   2.0000     -19.311971      -525.5054
   6   2.0000     -19.229004      -523.2478
   7   2.0000     -19.223971      -523.1108
   8   2.0000     -19.207429      -522.6607
   9   2.0000     -19.203955      -522.5662
  10   2.0000     -14.468150      -393.6984
  11   2.0000     -14.468075      -393.6963
  12   2.0000     -14.431632      -392.7047
  13   2.0000     -14.425600      -392.5405
  14   2.0000     -14.423904      -392.4944
  15   2.0000     -14.422871      -392.4663
  16   2.0000     -14.421811      -392.4374
  17   2.0000     -14.419229      -392.3672
  18   2.0000     -14.414756      -392.2454
  19   2.0000     -14.405810      -392.0020
  20   2.0000     -10.389761      -282.7198
  21   2.0000     -10.389189      -282.7042
  22   2.0000     -10.386856      -282.6407
  23   2.0000     -10.385077      -282.5923
  24   2.0000     -10.382331      -282.5176
  25   2.0000     -10.381662      -282.4994
  26   2.0000     -10.381259      -282.4884
  27   2.0000     -10.376784      -282.3666
  28   2.0000     -10.359336      -281.8919
  29   2.0000     -10.358978      -281.8821
  30   2.0000     -10.357777      -281.8494
  31   2.0000     -10.355263      -281.7810
  32   2.0000     -10.355114      -281.7770
  33   2.0000     -10.351642      -281.6825
  34   2.0000     -10.351364      -281.6749
  35   2.0000     -10.350642      -281.6553
  36   2.0000     -10.333788      -281.1967
  37   2.0000     -10.332539      -281.1627
  38   2.0000     -10.331138      -281.1246
  39   2.0000     -10.330811      -281.1157
  40   2.0000     -10.329543      -281.0812
  41   2.0000     -10.327234      -281.0183
  42   2.0000     -10.326856      -281.0080
  43   2.0000     -10.326450      -280.9970
  44   2.0000     -10.326113      -280.9878
  45   2.0000     -10.323870      -280.9268
  46   2.0000     -10.322850      -280.8990
  47   2.0000     -10.322567      -280.8913
  48   2.0000     -10.322417      -280.8873
  49   2.0000     -10.321487      -280.8619
  50   2.0000     -10.319758      -280.8149
  51   2.0000     -10.319622      -280.8112
  52   2.0000     -10.318371      -280.7771
  53   2.0000     -10.318271      -280.7744
  54   2.0000     -10.317625      -280.7568
  55   2.0000     -10.316901      -280.7372
  56   2.0000     -10.316023      -280.7132
  57   2.0000     -10.313842      -280.6539
  58   2.0000     -10.313469      -280.6438
  59   2.0000     -10.312095      -280.6064
  60   2.0000     -10.311603      -280.5930
  61   2.0000     -10.310412      -280.5606
  62   2.0000     -10.308328      -280.5039
  63   2.0000     -10.307361      -280.4775
  64   2.0000     -10.306254      -280.4474
  65   2.0000     -10.306181      -280.4454
  66   2.0000     -10.300782      -280.2985
  67   2.0000     -10.300637      -280.2946
  68   2.0000     -10.296749      -280.1888
  69   2.0000     -10.292508      -280.0734
  70   2.0000     -10.281558      -279.7754
  71   2.0000     -10.277132      -279.6550
  72   2.0000     -10.273478      -279.5556
  73   2.0000     -10.269644      -279.4512
  74   2.0000      -9.577008      -260.6036
  75   2.0000      -9.571921      -260.4652
  76   2.0000      -8.093688      -220.2404
  77   2.0000      -8.090174      -220.1448
  78   2.0000      -7.347648      -199.9397
  79   2.0000      -7.342581      -199.8018
  80   2.0000      -7.337049      -199.6513
  81   2.0000      -7.336500      -199.6363
  82   2.0000      -7.331943      -199.5123
  83   2.0000      -7.331403      -199.4976
  84   2.0000      -6.063053      -164.9841
  85   2.0000      -6.059546      -164.8886
  86   2.0000      -6.058447      -164.8587
  87   2.0000      -6.055994      -164.7920
  88   2.0000      -6.054936      -164.7632
  89   2.0000      -6.052430      -164.6950
  90   2.0000      -1.247124       -33.9360
  91   2.0000      -1.240121       -33.7454
  92   2.0000      -1.149155       -31.2701
  93   2.0000      -1.146268       -31.1915
  94   2.0000      -1.142225       -31.0815
  95   2.0000      -1.141632       -31.0654
  96   2.0000      -1.079335       -29.3702
  97   2.0000      -1.070484       -29.1293
  98   2.0000      -1.045850       -28.4590
  99   2.0000      -1.041443       -28.3391
 100   2.0000      -1.039469       -28.2854
 101   2.0000      -1.034273       -28.1440
 102   2.0000      -1.023424       -27.8488
 103   2.0000      -1.019875       -27.7522
 104   2.0000      -1.019469       -27.7412
 105   2.0000      -1.004977       -27.3468
 106   2.0000      -1.001292       -27.2465
 107   2.0000      -1.000185       -27.2164
 108   2.0000      -0.993734       -27.0409
 109   2.0000      -0.990595       -26.9554
 110   2.0000      -0.989626       -26.9291
 111   2.0000      -0.982874       -26.7453
 112   2.0000      -0.973167       -26.4812
 113   2.0000      -0.958898       -26.0929
 114   2.0000      -0.955714       -26.0063
 115   2.0000      -0.942749       -25.6535
 116   2.0000      -0.929828       -25.3019
 117   2.0000      -0.915614       -24.9151
 118   2.0000      -0.913830       -24.8666
 119   2.0000      -0.902492       -24.5580
 120   2.0000      -0.901123       -24.5208
 121   2.0000      -0.890736       -24.2382
 122   2.0000      -0.879084       -23.9211
 123   2.0000      -0.865633       -23.5551
 124   2.0000      -0.863846       -23.5064
 125   2.0000      -0.857667       -23.3383
 126   2.0000      -0.845279       -23.0012
 127   2.0000      -0.837294       -22.7839
 128   2.0000      -0.834017       -22.6948
 129   2.0000      -0.831978       -22.6393
 130   2.0000      -0.829132       -22.5618
 131   2.0000      -0.819662       -22.3041
 132   2.0000      -0.796725       -21.6800
 133   2.0000      -0.788476       -21.4555
 134   2.0000      -0.771423       -20.9915
 135   2.0000      -0.769946       -20.9513
 136   2.0000      -0.763212       -20.7681
 137   2.0000      -0.756662       -20.5898
 138   2.0000      -0.751158       -20.4401
 139   2.0000      -0.738430       -20.0937
 140   2.0000      -0.729147       -19.8411
 141   2.0000      -0.720933       -19.6176
 142   2.0000      -0.719562       -19.5803
 143   2.0000      -0.716166       -19.4879
 144   2.0000      -0.710965       -19.3463
 145   2.0000      -0.700574       -19.0636
 146   2.0000      -0.694231       -18.8910
 147   2.0000      -0.691978       -18.8297
 148   2.0000      -0.681398       -18.5418
 149   2.0000      -0.680893       -18.5280
 150   2.0000      -0.680133       -18.5074
 151   2.0000      -0.678419       -18.4607
 152   2.0000      -0.674067       -18.3423
 153   2.0000      -0.667893       -18.1743
 154   2.0000      -0.661164       -17.9912
 155   2.0000      -0.650675       -17.7058
 156   2.0000      -0.645872       -17.5751
 157   2.0000      -0.636004       -17.3066
 158   2.0000      -0.627011       -17.0618
 159   2.0000      -0.620328       -16.8800
 160   2.0000      -0.618333       -16.8257
 161   2.0000      -0.617097       -16.7921
 162   2.0000      -0.606584       -16.5060
 163   2.0000      -0.601435       -16.3659
 164   2.0000      -0.600389       -16.3374
 165   2.0000      -0.598062       -16.2741
 166   2.0000      -0.592513       -16.1231
 167   2.0000      -0.586012       -15.9462
 168   2.0000      -0.584602       -15.9078
 169   2.0000      -0.579418       -15.7668
 170   2.0000      -0.575666       -15.6647
 171   2.0000      -0.573845       -15.6151
 172   2.0000      -0.565699       -15.3935
 173   2.0000      -0.562690       -15.3116
 174   2.0000      -0.558687       -15.2026
 175   2.0000      -0.557626       -15.1738
 176   2.0000      -0.555225       -15.1084
 177   2.0000      -0.552717       -15.0402
 178   2.0000      -0.550933       -14.9916
 179   2.0000      -0.547656       -14.9025
 180   2.0000      -0.546424       -14.8689
 181   2.0000      -0.543468       -14.7885
 182   2.0000      -0.539070       -14.6688
 183   2.0000      -0.538272       -14.6471
 184   2.0000      -0.533274       -14.5111
 185   2.0000      -0.532207       -14.4821
 186   2.0000      -0.529262       -14.4019
 187   2.0000      -0.527193       -14.3457
 188   2.0000      -0.525882       -14.3100
 189   2.0000      -0.525727       -14.3058
 190   2.0000      -0.523257       -14.2385
 191   2.0000      -0.516621       -14.0580
 192   2.0000      -0.513311       -13.9679
 193   2.0000      -0.510906       -13.9025
 194   2.0000      -0.509953       -13.8765
 195   2.0000      -0.507637       -13.8135
 196   2.0000      -0.506287       -13.7768
 197   2.0000      -0.504666       -13.7327
 198   2.0000      -0.500239       -13.6122
 199   2.0000      -0.498072       -13.5532
 200   2.0000      -0.497221       -13.5301
 201   2.0000      -0.494457       -13.4549
 202   2.0000      -0.493985       -13.4420
 203   2.0000      -0.491296       -13.3688
 204   2.0000      -0.488079       -13.2813
 205   2.0000      -0.486348       -13.2342
 206   2.0000      -0.486010       -13.2250
 207   2.0000      -0.484533       -13.1848
 208   2.0000      -0.476620       -12.9695
 209   2.0000      -0.473939       -12.8965
 210   2.0000      -0.469254       -12.7691
 211   2.0000      -0.465091       -12.6558
 212   2.0000      -0.464233       -12.6324
 213   2.0000      -0.461238       -12.5509
 214   2.0000      -0.460474       -12.5301
 215   2.0000      -0.459209       -12.4957
 216   2.0000      -0.456588       -12.4244
 217   2.0000      -0.456128       -12.4119
 218   2.0000      -0.455284       -12.3889
 219   2.0000      -0.455206       -12.3868
 220   2.0000      -0.451565       -12.2877
 221   2.0000      -0.449366       -12.2279
 222   2.0000      -0.449114       -12.2210
 223   2.0000      -0.447583       -12.1793
 224   2.0000      -0.445960       -12.1352
 225   2.0000      -0.444651       -12.0996
 226   2.0000      -0.443444       -12.0667
 227   2.0000      -0.438111       -11.9216
 228   2.0000      -0.437869       -11.9150
 229   2.0000      -0.436797       -11.8858
 230   2.0000      -0.435221       -11.8430
 231   2.0000      -0.434757       -11.8303
 232   2.0000      -0.434576       -11.8254
 233   2.0000      -0.432888       -11.7795
 234   2.0000      -0.432560       -11.7706
 235   2.0000      -0.426464       -11.6047
 236   2.0000      -0.420441       -11.4408
 237   2.0000      -0.418926       -11.3995
 238   2.0000      -0.418105       -11.3772
 239   2.0000      -0.417467       -11.3599
 240   2.0000      -0.408598       -11.1185
 241   2.0000      -0.408139       -11.1060
 242   2.0000      -0.403309       -10.9746
 243   2.0000      -0.402344       -10.9483
 244   2.0000      -0.400145       -10.8885
 245   2.0000      -0.384119       -10.4524
 246   2.0000      -0.380232       -10.3466
 247   2.0000      -0.378101       -10.2887
 248   2.0000      -0.373068       -10.1517
 249   2.0000      -0.363477        -9.8907
 250   2.0000      -0.361366        -9.8333
 251   2.0000      -0.352397        -9.5892
 252   2.0000      -0.346843        -9.4381
 253   2.0000      -0.346451        -9.4274
 254   2.0000      -0.340433        -9.2637
 255   2.0000      -0.338699        -9.2165
 256   2.0000      -0.333546        -9.0762
 257   2.0000      -0.331241        -9.0135
 258   2.0000      -0.321426        -8.7464
 259   2.0000      -0.317886        -8.6501
 260   2.0000      -0.315999        -8.5988
 261   2.0000      -0.310904        -8.4601
 262   2.0000      -0.297250        -8.0886
 263   2.0000      -0.294355        -8.0098
 264   2.0000      -0.250128        -6.8063
 265   0.0000      -0.143787        -3.9126
 266   0.0000      -0.106728        -2.9042
 267   0.0000      -0.089002        -2.4219
 268   0.0000      -0.079963        -2.1759
 269   0.0000      -0.055441        -1.5086

MULLIKEN ATOMIC CHARGES
-----------------------
   0 C :    0.031888
   1 C :   -0.131505
   2 S :    0.188735
   3 C :   -0.168916
   4 Cl:    0.003712
   5 C :    0.076190
   6 C :    0.151383
   7 O :   -0.126054
   8 C :   -0.080033
   9 C :    0.289933
  10 C :   -0.330605
  11 C :   -0.194138
  12 N :    0.156093
  13 C :   -0.187775
  14 N :    0.165924
  15 C :   -0.029298
  16 C :    0.087442
  17 C :   -0.047922
  18 C :    0.073690
  19 C :   -0.077347
  20 C :   -0.005671
  21 C :   -0.181677
  22 N :    0.145217
  23 C :    0.136741
  24 C :   -0.105885
  25 C :    0.035647
  26 C :   -0.030316
  27 C :   -0.083523
  28 C :   -0.179433
  29 N :    0.151723
  30 C :    0.154981
  31 N :   -0.257829
  32 C :    0.095795
  33 C :   -0.007936
  34 C :    0.160870
  35 O :   -0.194435
  36 C :   -0.071719
  37 C :   -0.049782
  38 C :    0.152782
  39 O :   -0.172641
  40 N :   -0.254398
  41 C :    0.091423
  42 C :    0.000275
  43 C :    0.154969
  44 C :   -0.021155
  45 C :    0.004160
  46 C :    0.098883
  47 O :   -0.213143
  48 C :    0.224061
  49 C :    0.006603
  50 N :   -0.010503
  51 C :   -0.056198
  52 C :    0.034522
  53 C :    0.219977
  54 C :   -0.148228
  55 O :   -0.185974
  56 C :    0.117065
  57 N :   -0.065059
  58 C :    0.022967
  59 C :   -0.107122
  60 C :    0.133318
  61 O :   -0.119137
  62 C :    0.081261
  63 C :   -0.168190
  64 S :    0.189585
  65 C :   -0.127121
  66 C :    0.022094
  67 C :    0.273075
  68 C :   -0.264753
  69 C :   -0.195681
  70 N :    0.157869
  71 C :   -0.180369
  72 N :    0.164108
  73 Cl:    0.003529
  74 H :    0.055932
  75 H :    0.018163
  76 H :    0.025354
  77 H :    0.008466
  78 H :    0.028180
  79 H :   -0.007802
  80 H :    0.051652
  81 H :    0.026371
  82 H :    0.030744
  83 H :    0.030439
  84 H :    0.029925
  85 H :    0.050875
  86 H :    0.025759
  87 H :    0.041530
  88 H :    0.028367
  89 H :    0.017128
  90 H :   -0.000033
  91 H :    0.046578
  92 H :   -0.014495
  93 H :   -0.009918
  94 H :    0.035735
  95 H :    0.054026
Sum of atomic charges:   -0.0000000

LOEWDIN ATOMIC CHARGES
----------------------
   0 C :   -0.060097
   1 C :   -0.148672
   2 S :    0.477600
   3 C :   -0.270942
   4 Cl:    0.195478
   5 C :   -0.116290
   6 C :    0.082511
   7 O :   -0.120557
   8 C :   -0.073133
   9 C :    0.073417
  10 C :   -0.134098
  11 C :   -0.014924
  12 N :   -0.049391
  13 C :   -0.025142
  14 N :   -0.044199
  15 C :    0.067509
  16 C :   -0.039661
  17 C :    0.041844
  18 C :    0.034698
  19 C :   -0.085240
  20 C :    0.059180
  21 C :   -0.033252
  22 N :   -0.053669
  23 C :    0.048384
  24 C :    0.009478
  25 C :   -0.027395
  26 C :    0.049357
  27 C :   -0.073252
  28 C :   -0.033634
  29 N :   -0.050405
  30 C :    0.069456
  31 N :   -0.000695
  32 C :    0.035217
  33 C :   -0.060501
  34 C :    0.081201
  35 O :   -0.186566
  36 C :   -0.118404
  37 C :   -0.096136
  38 C :    0.084981
  39 O :   -0.165378
  40 N :    0.004282
  41 C :    0.036381
  42 C :   -0.060002
  43 C :    0.085208
  44 C :   -0.027471
  45 C :    0.019785
  46 C :    0.058613
  47 O :   -0.014670
  48 C :    0.047172
  49 C :   -0.035293
  50 N :   -0.075255
  51 C :   -0.000372
  52 C :   -0.031611
  53 C :    0.047879
  54 C :   -0.061967
  55 O :    0.004994
  56 C :    0.051857
  57 N :   -0.068991
  58 C :    0.036195
  59 C :   -0.043978
  60 C :    0.081505
  61 O :   -0.123813
  62 C :   -0.121040
  63 C :   -0.271016
  64 S :    0.479249
  65 C :   -0.153046
  66 C :   -0.053918
  67 C :    0.063094
  68 C :   -0.104538
  69 C :   -0.013873
  70 N :   -0.043188
  71 C :   -0.018426
  72 N :   -0.044575
  73 Cl:    0.195351
  74 H :    0.038064
  75 H :    0.047820
  76 H :    0.037299
  77 H :    0.040714
  78 H :    0.039550
  79 H :    0.036375
  80 H :    0.040787
  81 H :    0.020064
  82 H :    0.033938
  83 H :    0.034791
  84 H :    0.024005
  85 H :    0.040559
  86 H :    0.023984
  87 H :    0.036983
  88 H :    0.032905
  89 H :    0.022429
  90 H :    0.035100
  91 H :    0.053518
  92 H :    0.047304
  93 H :    0.045733
  94 H :    0.056647
  95 H :    0.038234

  Mayer bond orders larger than 0.100000
B(  0-C ,  1-C ) :   1.5424 B(  0-C ,  5-C ) :   1.2222 B(  0-C ,  9-C ) :   0.9973
B(  1-C ,  2-S ) :   1.1636 B(  1-C , 74-H ) :   0.9542 B(  2-S ,  3-C ) :   1.1507
B(  3-C ,  4-Cl) :   1.1314 B(  3-C ,  5-C ) :   1.4773 B(  5-C ,  6-C ) :   0.9504
B(  6-C ,  7-O ) :   2.2286 B(  6-C ,  8-C ) :   0.9252 B(  8-C ,  9-C ) :   1.0680
B(  8-C , 15-C ) :   1.6151 B(  9-C , 10-C ) :   1.6500 B( 10-C , 11-C ) :   1.1497
B( 10-C , 13-C ) :   1.1358 B( 11-C , 12-N ) :   2.9893 B( 13-C , 14-N ) :   2.9798
B( 15-C , 16-C ) :   1.1231 B( 15-C , 75-H ) :   0.9411 B( 16-C , 17-C ) :   1.5315
B( 16-C , 20-C ) :   1.0303 B( 17-C , 18-C ) :   1.1141 B( 17-C , 76-H ) :   0.9882
B( 18-C , 19-C ) :   1.1116 B( 18-C , 23-C ) :   1.3956 B( 19-C , 20-C ) :   1.6608
B( 19-C , 21-C ) :   1.0858 B( 20-C , 77-H ) :   1.0239 B( 21-C , 22-N ) :   2.9855
B( 23-C , 24-C ) :   1.1222 B( 23-C , 27-C ) :   1.0931 B( 24-C , 25-C ) :   1.5447
B( 24-C , 78-H ) :   0.9906 B( 25-C , 26-C ) :   1.0125 B( 25-C , 30-C ) :   1.0495
B( 26-C , 27-C ) :   1.6812 B( 26-C , 79-H ) :   1.0287 B( 27-C , 28-C ) :   1.0825
B( 28-C , 29-N ) :   2.9768 B( 30-C , 31-N ) :   1.1989 B( 30-C , 37-C ) :   1.3712
B( 31-N , 32-C ) :   0.9397 B( 31-N , 34-C ) :   1.0424 B( 32-C , 33-C ) :   1.1166
B( 32-C , 80-H ) :   0.9220 B( 32-C , 81-H ) :   0.9516 B( 33-C , 82-H ) :   0.9617
B( 33-C , 83-H ) :   0.9662 B( 33-C , 84-H ) :   0.9665 B( 34-C , 35-O ) :   2.0517
B( 34-C , 36-C ) :   0.9883 B( 36-C , 37-C ) :   1.2607 B( 36-C , 43-C ) :   1.3172
B( 37-C , 38-C ) :   0.9639 B( 38-C , 39-O ) :   2.1032 B( 38-C , 40-N ) :   1.0344
B( 40-N , 41-C ) :   0.9407 B( 40-N , 43-C ) :   1.1864 B( 41-C , 42-C ) :   1.1217
B( 41-C , 85-H ) :   0.9273 B( 41-C , 86-H ) :   0.9499 B( 42-C , 87-H ) :   0.9636
B( 42-C , 88-H ) :   0.9676 B( 42-C , 89-H ) :   0.9681 B( 43-C , 44-C ) :   1.1380
B( 44-C , 45-C ) :   1.5975 B( 44-C , 90-H ) :   0.9671 B( 45-C , 46-C ) :   1.1110
B( 45-C , 91-H ) :   0.9422 B( 46-C , 47-O ) :   1.1055 B( 46-C , 50-N ) :   1.7403
B( 47-O , 48-C ) :   1.1199 B( 48-C , 49-C ) :   1.2319 B( 48-C , 54-C ) :   1.3256
B( 49-C , 50-N ) :   1.2973 B( 49-C , 51-C ) :   1.2961 B( 51-C , 52-C ) :   1.2772
B( 51-C , 54-C ) :   0.1477 B( 51-C , 92-H ) :   1.0478 B( 52-C , 53-C ) :   1.2382
B( 52-C , 57-N ) :   1.2783 B( 53-C , 54-C ) :   1.3107 B( 53-C , 55-O ) :   1.1257
B( 54-C , 93-H ) :   1.0439 B( 55-O , 56-C ) :   1.1263 B( 56-C , 57-N ) :   1.6871
B( 56-C , 58-C ) :   1.0578 B( 58-C , 59-C ) :   1.7191 B( 58-C , 94-H ) :   0.9452
B( 59-C , 60-C ) :   0.9243 B( 59-C , 67-C ) :   1.0152 B( 60-C , 61-O ) :   2.2917
B( 60-C , 62-C ) :   0.9268 B( 62-C , 63-C ) :   1.4768 B( 62-C , 66-C ) :   1.2228
B( 63-C , 64-S ) :   1.1592 B( 63-C , 73-Cl) :   1.1328 B( 64-S , 65-C ) :   1.1566
B( 65-C , 66-C ) :   1.5544 B( 65-C , 95-H ) :   0.9555 B( 66-C , 67-C ) :   1.0108
B( 67-C , 68-C ) :   1.7130 B( 68-C , 69-C ) :   1.1392 B( 68-C , 71-C ) :   1.1431
B( 69-C , 70-N ) :   2.9981 B( 71-C , 72-N ) :   2.9870

-----------------------------------------------------------------------------
         ABSORPTION SPECTRUM VIA TRANSITION ELECTRIC DIPOLE MOMENTS
-----------------------------------------------------------------------------
State   Energy  Wavelength   fosc         T2         TX        TY        TZ
        (cm-1)    (nm)                  (au**2)     (au)      (au)      (au)
-----------------------------------------------------------------------------
   0    8047.2   1242.7   0.485139214  19.84722   2.22709  -3.85535   0.15353
   1   15166.7    659.3   0.038988189   0.84629  -0.11974   0.84399  -0.34588
   2   18508.6    540.3   0.469515298   8.35125  -2.07235   1.98659   0.33176
   3   19436.6    514.5   0.168589856   2.85553  -1.17316   1.21622  -0.00396
   4   22021.8    454.1   0.236228862   3.53146  -0.64292   1.29108  -1.20467
   5   22473.6    445.0   0.205532261   3.01081   0.28389  -1.64235   0.48259
   6   22898.0    436.7   0.185016177   2.66003  -0.99337   1.28942  -0.10318
   7   23096.0    433.0   0.027989567   0.39896  -0.26517   0.57229   0.03362
   8   23213.9    430.8   0.130320973   1.84817   0.84905  -1.03978   0.21479
   9   24314.1    411.3   0.179885028   2.43564   0.80661  -1.33125   0.11306
  10   24500.6    408.2   0.005433750   0.07301   0.16370  -0.20268   0.07165
  11   25029.7    399.5   0.093333887   1.22761  -0.77668   0.55267  -0.56473
  12   25318.5    395.0   0.188895087   2.45617   0.00548  -1.44767   0.60033
  13   26734.0    374.1   0.082825639   1.01994  -0.40533   0.79021  -0.48086
  14   27156.2    368.2   0.097627935   1.18353   0.34050  -1.03200  -0.05073
  15   27724.6    360.7   0.350696359   4.16429   0.81575  -1.71786   0.74015
  16   28227.6    354.3   0.065876590   0.76830  -0.34031   0.80350   0.08297
  17   28443.5    351.6   0.039492723   0.45710  -0.23103   0.54351  -0.32912
  18   28451.3    351.5   0.001581519   0.01830  -0.04201  -0.04410   0.12079
  19   29165.0    342.9   0.002089062   0.02358   0.10374  -0.11321  -0.00155
  20   30907.8    323.5   0.035415857   0.37723  -0.52609  -0.17271  -0.26576
  21   31376.8    318.7   0.137756789   1.44537   0.75991  -0.85349  -0.37346
  22   31606.5    316.4   0.006480132   0.06750   0.15586   0.17212   0.11653
  23   31760.8    314.9   0.046910043   0.48624   0.25358  -0.63309   0.14536
  24   32083.8    311.7   0.079319772   0.81390   0.41073  -0.79458  -0.11767
  25   32168.8    310.9   0.195439703   2.00011  -0.33034   1.30801  -0.42438
  26   32904.8    303.9   0.079996609   0.80037   0.28649  -0.82527   0.19292
  27   32989.1    303.1   0.008754485   0.08736   0.07514   0.28029   0.05618
  28   33524.5    298.3   0.171678350   1.68589  -1.25550  -0.25882  -0.20643
  29   33606.2    297.6   0.026112646   0.25580   0.29842  -0.39248   0.11274
  30   33838.4    295.5   0.028580760   0.27806  -0.38133   0.01485   0.36391
  31   33895.2    295.0   0.018059693   0.17541  -0.03853   0.32199   0.26503
  32   34445.3    290.3   0.199680516   1.90845  -0.28753   1.16173  -0.69005
  33   34523.4    289.7   0.052586404   0.50146  -0.38707   0.46862  -0.36336
  34   34666.5    288.5   0.063022061   0.59849  -0.31573   0.68306  -0.17955
  35   35156.6    284.4   0.013037630   0.12209   0.33978   0.05276   0.06207
  36   35590.8    281.0   0.127095534   1.17562  -1.04251  -0.27158  -0.12263
  37   35979.2    277.9   0.063730421   0.58314   0.13193   0.75155   0.03003
  38   36036.4    277.5   0.172498185   1.57587  -0.37215   1.10074   0.47512
  39   36424.1    274.5   0.025880317   0.23391  -0.29480   0.37311   0.08828
  40   36433.9    274.5   0.208580533   1.88470   0.64412  -1.19854  -0.18255
  41   36643.1    272.9   0.031130331   0.27968   0.31210   0.10671   0.41339
  42   36750.6    272.1   0.006940539   0.06217  -0.12816  -0.21169  -0.03062
  43   37269.6    268.3   0.031866207   0.28148  -0.42854   0.25071  -0.18703
  44   37535.3    266.4   0.023719901   0.20804  -0.22762  -0.32570  -0.22394
  45   37584.9    266.1   0.009277157   0.08126  -0.22884  -0.07337  -0.15333
  46   37665.0    265.5   0.408494913   3.57046   0.43957  -1.82277  -0.23400
  47   37943.7    263.5   0.041274650   0.35811   0.44447  -0.32775   0.23053
  48   38090.2    262.5   0.030213581   0.26113  -0.36310  -0.34710  -0.09390
  49   38185.9    261.9   0.229842402   1.98154   0.56291   1.27413   0.20314
  50   38798.3    257.7   0.313315868   2.65855   1.37280   0.80974   0.34395
  51   39424.6    253.6   0.000520723   0.00435  -0.02503   0.00294  -0.06093
  52   39875.2    250.8   0.055522777   0.45840  -0.30873   0.53876  -0.26986
  53   39959.4    250.3   0.004082611   0.03364   0.15394   0.05377  -0.08395
  54   39979.9    250.1   0.056503750   0.46528  -0.63553  -0.23383  -0.08185
  55   40186.1    248.8   0.037116082   0.30406   0.29518   0.45797  -0.08480
  56   40292.8    248.2   0.038115645   0.31142   0.26337   0.43442  -0.23095

FINAL SINGLE POINT ENERGY     -4782.105882777314

DIPOLE MOMENT
-------------
                                X             Y             Z
Electronic contribution:      1.88321     -32.00286      -4.99816
Nuclear contribution   :     -2.42114      28.94322       3.54393
                        -----------------------------------------
Total Dipole Moment    :     -0.53793      -3.05964      -1.45423
                        -----------------------------------------
Magnitude (a.u.)       :      3.43010
Magnitude (Debye)      :      8.71861

Rotational constants in cm-1:     0.003265     0.000149     0.000147
Rotational constants in MHz :    97.882032     4.460268     4.400878

                             ****ORCA TERMINATED NORMALLY****
TOTAL RUN TIME: 0 days 0 hours 10 minutes 59 seconds 878 msec
