                         Program Version 4.2.0 -  RELEASE  -
|  1> # ORCA input file
|  2> # SCF done       -214.948312866287          0.000458467185
|  3> ! CAM-B3LYP def2-SVP def2/J RIJCOSX Grid4 TightSCF
|  4> %maxcore 5000
|  5> %tddft
|  6>     Mode sTDDFT
|  7>     Ethresh 5.0
|  8>     maxcore 5000
|  9> end
| 10>
| 11> %pal
| 12>   nprocs 6
| 13>   end
| 14> * xyz 0 1
| 15>    C        3.37502        -0.63265         2.32372
| 16>    C        3.61869        -1.95543         1.98290
| 17>    C        4.91230        -2.62217         2.25795
| 18>    O        5.88902        -2.13698         2.73708
| 19>    S        4.79280        -4.33894         1.75092
| 20>    C        3.09227        -4.17224         1.20014
| 21>    O        2.45607        -5.09433         0.78551
| 22>    C        2.65632        -2.77185         1.38179
| 23>    C        1.37622        -2.28884         1.06428
| 24>    C        1.15471        -0.94113         1.38010
| 25>    C        2.11602        -0.15221         2.00227
| 26>    C        1.52378         1.19906         2.19856
| 27>    O        1.98539         2.16329         2.71566
| 28>    O        0.27088         1.16712         1.63643
| 29>    C       -0.01346        -0.06006         1.09795
| 30>    O       -1.00319        -0.27215         0.47101
| 31>    C        0.28691        -3.08123         0.53697
| 32>    S        0.37188        -4.14405        -0.83881
| 33>    C       -0.99014        -3.06036         1.03582
| 34>    C       -1.70806        -2.42697         2.15988
| 35>    O       -1.28969        -1.68382         3.01446
| 36>    N       -3.00513        -2.89446         2.05446
| 37>    C       -4.07784        -2.44022         2.91487
| 38>    C       -4.74515        -1.19663         2.33848
| 39>    C       -3.20604        -3.77762         0.99235
| 40>    O       -4.25178        -4.31034         0.72083
| 41>    C       -1.88951        -3.89150         0.34658
| 42>    C       -1.32849        -4.55599        -0.72538
| 43>    C       -1.99066        -5.45589        -1.59604
| 44>    C       -1.39177        -6.04149        -2.66352
| 45>    C       -1.91292        -6.97656        -3.59127
| 46>    N       -3.08481        -7.69036        -3.56773
| 47>    C       -4.14596        -7.65551        -2.58871
| 48>    C       -5.12998        -6.51913        -2.85699
| 49>    C       -3.19396        -8.55003        -4.68241
| 50>    O       -4.13657        -9.29155        -4.86164
| 51>    C       -1.98155        -8.32303        -5.44081
| 52>    C       -1.22235        -7.36458        -4.74366
| 53>    C       -0.00492        -7.11296        -5.48778
| 54>    O        0.93389        -6.37564        -5.28521
| 55>    N       -0.11678        -7.95460        -6.61196
| 56>    C        0.94154        -8.03264        -7.59033
| 57>    C        1.81979        -9.26407        -7.38256
| 58>    C       -1.27995        -8.68908        -6.59838
| 59>    C       -1.63559        -9.61694        -7.59768
| 60>    C       -2.76652       -10.38048        -7.53125
| 61>    C       -3.13749       -11.34138        -8.49655
| 62>    C       -4.22575       -12.19074        -8.40821
| 63>    C       -4.25110       -13.04632        -9.54245
| 64>    C       -3.10087       -12.64549       -10.37963
| 65>    C       -2.44729       -11.63893        -9.74760
| 66>    C       -2.74154       -13.16405       -11.62974
| 67>    N       -2.41937       -13.54517       -12.66425
| 68>    C       -5.13127       -14.07039        -9.81311
| 69>    C       -5.08982       -14.97725       -10.91436
| 70>    C       -6.13704       -15.86558       -10.80810
| 71>    C       -6.88827       -15.52636        -9.60802
| 72>    C       -6.29803       -14.46272        -9.00291
| 73>    C       -6.74394       -13.85874        -7.82170
| 74>    N       -7.13734       -13.39143        -6.84911
| 75>    C       -6.49431       -16.94370       -11.66734
| 76>    C       -5.78697       -17.29886       -12.76369
| 77>    C       -6.10517       -18.38698       -13.64504
| 78>    C       -5.08074       -19.12010       -14.29361
| 79>    C       -3.63776       -18.87719       -14.09207
| 80>    O       -3.10663       -18.08979       -13.36884
| 81>    S       -2.69280       -20.01526       -15.12315
| 82>    C       -4.15662       -20.82796       -15.75094
| 83>    O       -4.13902       -21.74128       -16.51735
| 84>    C       -5.34981       -20.17770       -15.16070
| 85>    C       -6.64151       -20.59161       -15.45567
| 86>    C       -7.65059       -19.86883       -14.84504
| 87>    C       -7.41102       -18.80552       -13.97492
| 88>    C       -8.74153       -18.23769       -13.63108
| 89>    O       -9.04252       -17.29235       -12.97195
| 90>    O       -9.69333       -19.00865       -14.26104
| 91>    C       -9.12087       -20.01173       -14.99983
| 92>    O       -9.74718       -20.80572       -15.62456
| 93>    H        4.12409        -0.02530         2.80590
| 94>    H       -3.64212        -2.22217         3.89259
| 95>    H       -4.79768        -3.25750         3.00128
| 96>    H       -4.01304        -0.40190         2.21517
| 97>    H       -5.52724        -0.85394         3.00972
| 98>    H       -5.18658        -1.42119         1.37035
| 99>    H       -3.02706        -5.62020        -1.34226
|100>    H       -0.36534        -5.76666        -2.88230
|101>    H       -3.71370        -7.58614        -1.58840
|102>    H       -4.67094        -8.61136        -2.67856
|103>    H       -4.62250        -5.55859        -2.91017
|104>    H       -5.86828        -6.47885        -2.06147
|105>    H       -5.64215        -6.69058        -3.80051
|106>    H        1.54207        -7.12859        -7.45653
|107>    H        0.51236        -8.02239        -8.59622
|108>    H        2.27756        -9.23056        -6.39709
|109>    H        2.60768        -9.28373        -8.13028
|110>    H        1.23810       -10.17997        -7.46177
|111>    H       -0.96436        -9.72491        -8.43701
|112>    H       -3.42792       -10.27315        -6.68118
|113>    H       -4.92886       -12.21710        -7.59880
|114>    H       -1.57296       -11.13538       -10.11580
|115>    H       -4.34105       -14.96077       -11.68092
|116>    H       -7.76941       -16.04341        -9.27564
|117>    H       -7.37053       -17.50475       -11.37668
|118>    H       -4.86355       -16.78043       -12.97807
|119>    H       -6.83780       -21.41166       -16.12685
|120> *
|121>
|122>                          ****END OF INPUT****

CARTESIAN COORDINATES (ANGSTROEM)
---------------------------------
  C      3.375020   -0.632650    2.323720
  C      3.618690   -1.955430    1.982900
  C      4.912300   -2.622170    2.257950
  O      5.889020   -2.136980    2.737080
  S      4.792800   -4.338940    1.750920
  C      3.092270   -4.172240    1.200140
  O      2.456070   -5.094330    0.785510
  C      2.656320   -2.771850    1.381790
  C      1.376220   -2.288840    1.064280
  C      1.154710   -0.941130    1.380100
  C      2.116020   -0.152210    2.002270
  C      1.523780    1.199060    2.198560
  O      1.985390    2.163290    2.715660
  O      0.270880    1.167120    1.636430
  C     -0.013460   -0.060060    1.097950
  O     -1.003190   -0.272150    0.471010
  C      0.286910   -3.081230    0.536970
  S      0.371880   -4.144050   -0.838810
  C     -0.990140   -3.060360    1.035820
  C     -1.708060   -2.426970    2.159880
  O     -1.289690   -1.683820    3.014460
  N     -3.005130   -2.894460    2.054460
  C     -4.077840   -2.440220    2.914870
  C     -4.745150   -1.196630    2.338480
  C     -3.206040   -3.777620    0.992350
  O     -4.251780   -4.310340    0.720830
  C     -1.889510   -3.891500    0.346580
  C     -1.328490   -4.555990   -0.725380
  C     -1.990660   -5.455890   -1.596040
  C     -1.391770   -6.041490   -2.663520
  C     -1.912920   -6.976560   -3.591270
  N     -3.084810   -7.690360   -3.567730
  C     -4.145960   -7.655510   -2.588710
  C     -5.129980   -6.519130   -2.856990
  C     -3.193960   -8.550030   -4.682410
  O     -4.136570   -9.291550   -4.861640
  C     -1.981550   -8.323030   -5.440810
  C     -1.222350   -7.364580   -4.743660
  C     -0.004920   -7.112960   -5.487780
  O      0.933890   -6.375640   -5.285210
  N     -0.116780   -7.954600   -6.611960
  C      0.941540   -8.032640   -7.590330
  C      1.819790   -9.264070   -7.382560
  C     -1.279950   -8.689080   -6.598380
  C     -1.635590   -9.616940   -7.597680
  C     -2.766520  -10.380480   -7.531250
  C     -3.137490  -11.341380   -8.496550
  C     -4.225750  -12.190740   -8.408210
  C     -4.251100  -13.046320   -9.542450
  C     -3.100870  -12.645490  -10.379630
  C     -2.447290  -11.638930   -9.747600
  C     -2.741540  -13.164050  -11.629740
  N     -2.419370  -13.545170  -12.664250
  C     -5.131270  -14.070390   -9.813110
  C     -5.089820  -14.977250  -10.914360
  C     -6.137040  -15.865580  -10.808100
  C     -6.888270  -15.526360   -9.608020
  C     -6.298030  -14.462720   -9.002910
  C     -6.743940  -13.858740   -7.821700
  N     -7.137340  -13.391430   -6.849110
  C     -6.494310  -16.943700  -11.667340
  C     -5.786970  -17.298860  -12.763690
  C     -6.105170  -18.386980  -13.645040
  C     -5.080740  -19.120100  -14.293610
  C     -3.637760  -18.877190  -14.092070
  O     -3.106630  -18.089790  -13.368840
  S     -2.692800  -20.015260  -15.123150
  C     -4.156620  -20.827960  -15.750940
  O     -4.139020  -21.741280  -16.517350
  C     -5.349810  -20.177700  -15.160700
  C     -6.641510  -20.591610  -15.455670
  C     -7.650590  -19.868830  -14.845040
  C     -7.411020  -18.805520  -13.974920
  C     -8.741530  -18.237690  -13.631080
  O     -9.042520  -17.292350  -12.971950
  O     -9.693330  -19.008650  -14.261040
  C     -9.120870  -20.011730  -14.999830
  O     -9.747180  -20.805720  -15.624560
  H      4.124090   -0.025300    2.805900
  H     -3.642120   -2.222170    3.892590
  H     -4.797680   -3.257500    3.001280
  H     -4.013040   -0.401900    2.215170
  H     -5.527240   -0.853940    3.009720
  H     -5.186580   -1.421190    1.370350
  H     -3.027060   -5.620200   -1.342260
  H     -0.365340   -5.766660   -2.882300
  H     -3.713700   -7.586140   -1.588400
  H     -4.670940   -8.611360   -2.678560
  H     -4.622500   -5.558590   -2.910170
  H     -5.868280   -6.478850   -2.061470
  H     -5.642150   -6.690580   -3.800510
  H      1.542070   -7.128590   -7.456530
  H      0.512360   -8.022390   -8.596220
  H      2.277560   -9.230560   -6.397090
  H      2.607680   -9.283730   -8.130280
  H      1.238100  -10.179970   -7.461770
  H     -0.964360   -9.724910   -8.437010
  H     -3.427920  -10.273150   -6.681180
  H     -4.928860  -12.217100   -7.598800
  H     -1.572960  -11.135380  -10.115800
  H     -4.341050  -14.960770  -11.680920
  H     -7.769410  -16.043410   -9.275640
  H     -7.370530  -17.504750  -11.376680
  H     -4.863550  -16.780430  -12.978070
  H     -6.837800  -21.411660  -16.126850

 Total Charge           Charge          ....    0
 Multiplicity           Mult            ....    1
 Number of Electrons    NEL             ....  558
 Basis Dimension        Dim             .... 1239

ORBITAL ENERGIES
----------------

  NO   OCC          E(Eh)            E(eV)
   0   2.0000     -88.988870     -2421.5103
   1   2.0000     -88.965491     -2420.8741
   2   2.0000     -88.962031     -2420.7799
   3   2.0000     -19.302788      -525.2556
   4   2.0000     -19.301691      -525.2257
   5   2.0000     -19.258321      -524.0456
   6   2.0000     -19.257329      -524.0186
   7   2.0000     -19.255761      -523.9759
   8   2.0000     -19.254227      -523.9341
   9   2.0000     -19.250650      -523.8368
  10   2.0000     -19.249607      -523.8084
  11   2.0000     -19.248987      -523.7916
  12   2.0000     -19.246156      -523.7145
  13   2.0000     -19.222898      -523.0816
  14   2.0000     -19.222722      -523.0769
  15   2.0000     -19.201507      -522.4996
  16   2.0000     -19.199733      -522.4513
  17   2.0000     -14.464667      -393.6036
  18   2.0000     -14.462905      -393.5557
  19   2.0000     -14.462740      -393.5512
  20   2.0000     -14.416510      -392.2932
  21   2.0000     -14.409317      -392.0974
  22   2.0000     -10.446404      -284.2611
  23   2.0000     -10.443856      -284.1918
  24   2.0000     -10.442347      -284.1507
  25   2.0000     -10.442245      -284.1479
  26   2.0000     -10.421783      -283.5911
  27   2.0000     -10.418712      -283.5076
  28   2.0000     -10.418081      -283.4904
  29   2.0000     -10.415486      -283.4198
  30   2.0000     -10.406060      -283.1633
  31   2.0000     -10.404993      -283.1343
  32   2.0000     -10.383508      -282.5496
  33   2.0000     -10.383314      -282.5443
  34   2.0000     -10.359435      -281.8945
  35   2.0000     -10.352670      -281.7105
  36   2.0000     -10.352346      -281.7017
  37   2.0000     -10.348670      -281.6016
  38   2.0000     -10.345619      -281.5186
  39   2.0000     -10.343883      -281.4714
  40   2.0000     -10.342802      -281.4419
  41   2.0000     -10.342045      -281.4214
  42   2.0000     -10.341922      -281.4180
  43   2.0000     -10.340894      -281.3900
  44   2.0000     -10.340581      -281.3815
  45   2.0000     -10.340578      -281.3814
  46   2.0000     -10.340119      -281.3689
  47   2.0000     -10.339716      -281.3580
  48   2.0000     -10.339509      -281.3523
  49   2.0000     -10.334986      -281.2293
  50   2.0000     -10.331608      -281.1373
  51   2.0000     -10.328982      -281.0659
  52   2.0000     -10.325511      -280.9714
  53   2.0000     -10.318365      -280.7770
  54   2.0000     -10.318221      -280.7731
  55   2.0000     -10.318179      -280.7719
  56   2.0000     -10.317995      -280.7669
  57   2.0000     -10.311653      -280.5944
  58   2.0000     -10.311499      -280.5902
  59   2.0000     -10.311185      -280.5816
  60   2.0000     -10.311184      -280.5816
  61   2.0000     -10.310814      -280.5715
  62   2.0000     -10.310134      -280.5530
  63   2.0000     -10.308953      -280.5209
  64   2.0000     -10.308680      -280.5134
  65   2.0000     -10.308292      -280.5029
  66   2.0000     -10.307490      -280.4811
  67   2.0000     -10.306574      -280.4561
  68   2.0000     -10.305582      -280.4291
  69   2.0000     -10.302543      -280.3464
  70   2.0000     -10.301612      -280.3211
  71   2.0000     -10.293296      -280.0948
  72   2.0000     -10.292778      -280.0807
  73   2.0000     -10.273657      -279.5604
  74   2.0000     -10.273239      -279.5490
  75   2.0000     -10.272834      -279.5380
  76   2.0000     -10.263251      -279.2773
  77   2.0000     -10.261186      -279.2211
  78   2.0000      -8.083328      -219.9585
  79   2.0000      -8.064713      -219.4520
  80   2.0000      -8.061213      -219.3568
  81   2.0000      -6.052691      -164.7021
  82   2.0000      -6.048341      -164.5837
  83   2.0000      -6.045475      -164.5057
  84   2.0000      -6.033548      -164.1812
  85   2.0000      -6.030292      -164.0926
  86   2.0000      -6.030037      -164.0857
  87   2.0000      -6.026798      -163.9975
  88   2.0000      -6.025784      -163.9699
  89   2.0000      -6.022302      -163.8752
  90   2.0000      -1.252507       -34.0824
  91   2.0000      -1.251277       -34.0490
  92   2.0000      -1.183879       -32.2150
  93   2.0000      -1.180547       -32.1243
  94   2.0000      -1.179375       -32.0924
  95   2.0000      -1.178701       -32.0741
  96   2.0000      -1.177223       -32.0339
  97   2.0000      -1.175900       -31.9979
  98   2.0000      -1.168163       -31.7873
  99   2.0000      -1.145790       -31.1785
 100   2.0000      -1.143467       -31.1153
 101   2.0000      -1.140592       -31.0371
 102   2.0000      -1.138790       -30.9880
 103   2.0000      -1.136875       -30.9359
 104   2.0000      -1.073560       -29.2131
 105   2.0000      -1.064492       -28.9663
 106   2.0000      -1.061250       -28.8781
 107   2.0000      -1.034655       -28.1544
 108   2.0000      -1.027527       -27.9604
 109   2.0000      -1.022304       -27.8183
 110   2.0000      -1.011893       -27.5350
 111   2.0000      -1.005451       -27.3597
 112   2.0000      -0.991671       -26.9847
 113   2.0000      -0.985637       -26.8206
 114   2.0000      -0.965693       -26.2778
 115   2.0000      -0.963585       -26.2205
 116   2.0000      -0.939274       -25.5589
 117   2.0000      -0.938226       -25.5304
 118   2.0000      -0.936917       -25.4948
 119   2.0000      -0.923674       -25.1345
 120   2.0000      -0.919721       -25.0269
 121   2.0000      -0.900243       -24.4968
 122   2.0000      -0.895179       -24.3591
 123   2.0000      -0.892331       -24.2816
 124   2.0000      -0.890465       -24.2308
 125   2.0000      -0.881917       -23.9982
 126   2.0000      -0.867526       -23.6066
 127   2.0000      -0.859703       -23.3937
 128   2.0000      -0.856601       -23.3093
 129   2.0000      -0.839096       -22.8330
 130   2.0000      -0.836786       -22.7701
 131   2.0000      -0.827652       -22.5216
 132   2.0000      -0.816659       -22.2224
 133   2.0000      -0.810872       -22.0649
 134   2.0000      -0.809776       -22.0351
 135   2.0000      -0.805226       -21.9113
 136   2.0000      -0.790893       -21.5213
 137   2.0000      -0.786667       -21.4063
 138   2.0000      -0.774792       -21.0832
 139   2.0000      -0.773045       -21.0356
 140   2.0000      -0.770259       -20.9598
 141   2.0000      -0.767268       -20.8784
 142   2.0000      -0.756431       -20.5835
 143   2.0000      -0.754463       -20.5300
 144   2.0000      -0.741555       -20.1787
 145   2.0000      -0.734169       -19.9778
 146   2.0000      -0.727146       -19.7866
 147   2.0000      -0.718054       -19.5392
 148   2.0000      -0.714077       -19.4310
 149   2.0000      -0.706844       -19.2342
 150   2.0000      -0.703755       -19.1502
 151   2.0000      -0.698286       -19.0013
 152   2.0000      -0.696571       -18.9547
 153   2.0000      -0.679728       -18.4963
 154   2.0000      -0.675849       -18.3908
 155   2.0000      -0.673816       -18.3355
 156   2.0000      -0.668095       -18.1798
 157   2.0000      -0.658820       -17.9274
 158   2.0000      -0.653289       -17.7769
 159   2.0000      -0.650633       -17.7046
 160   2.0000      -0.648098       -17.6356
 161   2.0000      -0.643813       -17.5190
 162   2.0000      -0.641766       -17.4633
 163   2.0000      -0.636644       -17.3240
 164   2.0000      -0.633497       -17.2383
 165   2.0000      -0.627197       -17.0669
 166   2.0000      -0.624245       -16.9866
 167   2.0000      -0.618143       -16.8205
 168   2.0000      -0.612853       -16.6766
 169   2.0000      -0.611427       -16.6378
 170   2.0000      -0.608610       -16.5611
 171   2.0000      -0.600936       -16.3523
 172   2.0000      -0.594772       -16.1846
 173   2.0000      -0.588888       -16.0244
 174   2.0000      -0.586750       -15.9663
 175   2.0000      -0.581914       -15.8347
 176   2.0000      -0.580210       -15.7883
 177   2.0000      -0.579554       -15.7705
 178   2.0000      -0.576672       -15.6920
 179   2.0000      -0.574043       -15.6205
 180   2.0000      -0.571939       -15.5633
 181   2.0000      -0.567825       -15.4513
 182   2.0000      -0.567404       -15.4399
 183   2.0000      -0.566365       -15.4116
 184   2.0000      -0.562659       -15.3107
 185   2.0000      -0.561166       -15.2701
 186   2.0000      -0.559525       -15.2255
 187   2.0000      -0.557129       -15.1602
 188   2.0000      -0.552250       -15.0275
 189   2.0000      -0.551429       -15.0051
 190   2.0000      -0.549702       -14.9581
 191   2.0000      -0.549172       -14.9437
 192   2.0000      -0.544334       -14.8121
 193   2.0000      -0.540303       -14.7024
 194   2.0000      -0.539529       -14.6813
 195   2.0000      -0.538810       -14.6618
 196   2.0000      -0.535879       -14.5820
 197   2.0000      -0.533568       -14.5191
 198   2.0000      -0.529019       -14.3954
 199   2.0000      -0.528710       -14.3869
 200   2.0000      -0.527178       -14.3452
 201   2.0000      -0.526892       -14.3375
 202   2.0000      -0.525872       -14.3097
 203   2.0000      -0.522008       -14.2046
 204   2.0000      -0.520975       -14.1765
 205   2.0000      -0.519896       -14.1471
 206   2.0000      -0.518661       -14.1135
 207   2.0000      -0.518397       -14.1063
 208   2.0000      -0.516747       -14.0614
 209   2.0000      -0.516122       -14.0444
 210   2.0000      -0.513982       -13.9862
 211   2.0000      -0.511273       -13.9125
 212   2.0000      -0.508104       -13.8262
 213   2.0000      -0.505798       -13.7635
 214   2.0000      -0.504846       -13.7376
 215   2.0000      -0.504072       -13.7165
 216   2.0000      -0.502416       -13.6714
 217   2.0000      -0.499509       -13.5923
 218   2.0000      -0.496441       -13.5088
 219   2.0000      -0.492913       -13.4128
 220   2.0000      -0.492614       -13.4047
 221   2.0000      -0.488544       -13.2940
 222   2.0000      -0.487044       -13.2531
 223   2.0000      -0.484367       -13.1803
 224   2.0000      -0.483888       -13.1673
 225   2.0000      -0.479818       -13.0565
 226   2.0000      -0.477472       -12.9927
 227   2.0000      -0.477217       -12.9857
 228   2.0000      -0.473636       -12.8883
 229   2.0000      -0.469612       -12.7788
 230   2.0000      -0.467108       -12.7107
 231   2.0000      -0.465318       -12.6619
 232   2.0000      -0.462698       -12.5906
 233   2.0000      -0.460170       -12.5219
 234   2.0000      -0.455311       -12.3897
 235   2.0000      -0.455013       -12.3815
 236   2.0000      -0.451917       -12.2973
 237   2.0000      -0.447350       -12.1730
 238   2.0000      -0.444823       -12.1042
 239   2.0000      -0.444461       -12.0944
 240   2.0000      -0.441848       -12.0233
 241   2.0000      -0.439718       -11.9653
 242   2.0000      -0.438520       -11.9327
 243   2.0000      -0.430953       -11.7268
 244   2.0000      -0.430337       -11.7101
 245   2.0000      -0.426874       -11.6158
 246   2.0000      -0.424755       -11.5582
 247   2.0000      -0.421952       -11.4819
 248   2.0000      -0.421149       -11.4600
 249   2.0000      -0.415166       -11.2972
 250   2.0000      -0.409134       -11.1331
 251   2.0000      -0.406349       -11.0573
 252   2.0000      -0.405809       -11.0426
 253   2.0000      -0.401703       -10.9309
 254   2.0000      -0.389076       -10.5873
 255   2.0000      -0.386848       -10.5267
 256   2.0000      -0.385592       -10.4925
 257   2.0000      -0.385483       -10.4895
 258   2.0000      -0.383372       -10.4321
 259   2.0000      -0.382162       -10.3992
 260   2.0000      -0.378760       -10.3066
 261   2.0000      -0.376545       -10.2463
 262   2.0000      -0.372087       -10.1250
 263   2.0000      -0.366663        -9.9774
 264   2.0000      -0.361146        -9.8273
 265   2.0000      -0.359895        -9.7933
 266   2.0000      -0.357811        -9.7365
 267   2.0000      -0.356790        -9.7088
 268   2.0000      -0.355384        -9.6705
 269   2.0000      -0.355247        -9.6668
 270   2.0000      -0.353504        -9.6193
 271   2.0000      -0.341323        -9.2879
 272   2.0000      -0.334341        -9.0979
 273   2.0000      -0.331115        -9.0101
 274   2.0000      -0.326044        -8.8721
 275   2.0000      -0.313451        -8.5294
 276   2.0000      -0.309197        -8.4137
 277   2.0000      -0.290321        -7.9000
 278   2.0000      -0.242888        -6.6093
 279   0.0000      -0.138913        -3.7800
 280   0.0000      -0.105219        -2.8632
 281   0.0000      -0.104923        -2.8551
 282   0.0000      -0.096387        -2.6228
 283   0.0000      -0.077381        -2.1057

MULLIKEN ATOMIC CHARGES
-----------------------
   0 C :   -0.050648
   1 C :    0.039270
   2 C :    0.050287
   3 O :   -0.110219
   4 S :    0.024303
   5 C :    0.039094
   6 O :   -0.118852
   7 C :    0.046678
   8 C :    0.052387
   9 C :   -0.052466
  10 C :   -0.033654
  11 C :    0.241476
  12 O :   -0.087712
  13 O :   -0.223584
  14 C :    0.251338
  15 O :   -0.108718
  16 C :   -0.225591
  17 S :    0.232387
  18 C :    0.090146
  19 C :    0.194118
  20 O :   -0.183451
  21 N :   -0.305207
  22 C :    0.130320
  23 C :   -0.009338
  24 C :    0.194442
  25 O :   -0.161369
  26 C :   -0.009264
  27 C :   -0.115599
  28 C :   -0.007264
  29 C :   -0.028396
  30 C :    0.121730
  31 N :   -0.262648
  32 C :    0.095425
  33 C :    0.005078
  34 C :    0.163001
  35 O :   -0.197416
  36 C :   -0.059022
  37 C :   -0.044882
  38 C :    0.151399
  39 O :   -0.188270
  40 N :   -0.265941
  41 C :    0.096392
  42 C :    0.002381
  43 C :    0.155830
  44 C :   -0.029304
  45 C :    0.013303
  46 C :    0.107774
  47 C :   -0.099546
  48 C :    0.121022
  49 C :   -0.096553
  50 C :   -0.007193
  51 C :   -0.170948
  52 N :    0.140183
  53 C :    0.108607
  54 C :   -0.101969
  55 C :    0.077816
  56 C :    0.001128
  57 C :   -0.092458
  58 C :   -0.181855
  59 N :    0.143856
  60 C :    0.065563
  61 C :   -0.048711
  62 C :    0.077102
  63 C :    0.043427
  64 C :    0.037679
  65 O :   -0.119938
  66 S :    0.024763
  67 C :    0.054158
  68 O :   -0.113911
  69 C :    0.039332
  70 C :   -0.062294
  71 C :   -0.021929
  72 C :   -0.084978
  73 C :    0.234705
  74 O :   -0.100176
  75 O :   -0.226679
  76 C :    0.233179
  77 O :   -0.090441
  78 H :    0.027394
  79 H :    0.033191
  80 H :    0.033827
  81 H :    0.034621
  82 H :    0.025573
  83 H :    0.027822
  84 H :    0.012764
  85 H :    0.017247
  86 H :    0.029380
  87 H :    0.045528
  88 H :    0.021615
  89 H :    0.033271
  90 H :    0.028583
  91 H :    0.046556
  92 H :    0.024004
  93 H :    0.031652
  94 H :    0.027629
  95 H :    0.014429
  96 H :   -0.029453
  97 H :    0.020933
  98 H :    0.021210
  99 H :   -0.000454
 100 H :    0.011858
 101 H :    0.001933
 102 H :   -0.007686
 103 H :    0.037321
 104 H :    0.026570
Sum of atomic charges:   -0.0000000

LOEWDIN ATOMIC CHARGES
----------------------
   0 C :    0.049758
   1 C :   -0.050126
   2 C :   -0.046611
   3 O :   -0.102653
   4 S :    0.312592
   5 C :   -0.048332
   6 O :   -0.113867
   7 C :   -0.053910
   8 C :    0.017039
   9 C :   -0.029760
  10 C :   -0.038284
  11 C :    0.107036
  12 O :   -0.086970
  13 O :   -0.046853
  14 C :    0.111208
  15 O :   -0.099244
  16 C :   -0.159199
  17 S :    0.508791
  18 C :   -0.065583
  19 C :    0.092787
  20 O :   -0.171327
  21 N :   -0.024261
  22 C :    0.044202
  23 C :   -0.058686
  24 C :    0.094791
  25 O :   -0.160785
  26 C :   -0.091134
  27 C :   -0.126537
  28 C :   -0.021617
  29 C :   -0.018943
  30 C :    0.068511
  31 N :    0.002234
  32 C :    0.035869
  33 C :   -0.060966
  34 C :    0.082304
  35 O :   -0.186981
  36 C :   -0.115772
  37 C :   -0.107040
  38 C :    0.078910
  39 O :   -0.191296
  40 N :   -0.004260
  41 C :    0.036110
  42 C :   -0.060914
  43 C :    0.079040
  44 C :   -0.038385
  45 C :    0.037971
  46 C :   -0.017928
  47 C :   -0.006796
  48 C :    0.039919
  49 C :   -0.074833
  50 C :    0.052870
  51 C :   -0.031837
  52 N :   -0.057342
  53 C :    0.037466
  54 C :   -0.007784
  55 C :   -0.020327
  56 C :    0.056472
  57 C :   -0.083518
  58 C :   -0.033322
  59 N :   -0.057321
  60 C :    0.025504
  61 C :   -0.017072
  62 C :    0.037963
  63 C :   -0.056470
  64 C :   -0.040610
  65 O :   -0.102442
  66 S :    0.310948
  67 C :   -0.049362
  68 O :   -0.105764
  69 C :   -0.046418
  70 C :    0.039459
  71 C :   -0.039705
  72 C :   -0.052554
  73 C :    0.108295
  74 O :   -0.094690
  75 O :   -0.054696
  76 C :    0.101419
  77 O :   -0.089664
  78 H :    0.055243
  79 H :    0.033227
  80 H :    0.032945
  81 H :    0.031414
  82 H :    0.031328
  83 H :    0.029036
  84 H :    0.043334
  85 H :    0.041475
  86 H :    0.025210
  87 H :    0.038792
  88 H :    0.022443
  89 H :    0.035817
  90 H :    0.032694
  91 H :    0.039303
  92 H :    0.022667
  93 H :    0.033463
  94 H :    0.032185
  95 H :    0.021260
  96 H :    0.027856
  97 H :    0.044431
  98 H :    0.042032
  99 H :    0.035002
 100 H :    0.035533
 101 H :    0.039054
 102 H :    0.031215
 103 H :    0.040022
 104 H :    0.054304

  Mayer bond orders larger than 0.100000
B(  0-C ,  1-C ) :   1.3650 B(  0-C , 10-C ) :   1.3086 B(  0-C , 78-H ) :   1.0239
B(  1-C ,  2-C ) :   0.8347 B(  1-C ,  7-C ) :   1.3247 B(  2-C ,  3-O ) :   2.2307
B(  2-C ,  4-S ) :   1.0246 B(  3-O ,  4-S ) :   0.1086 B(  4-S ,  5-C ) :   1.0316
B(  4-S ,  6-O ) :   0.1083 B(  5-C ,  6-O ) :   2.1814 B(  5-C ,  7-C ) :   0.8479
B(  7-C ,  8-C ) :   1.4091 B(  8-C ,  9-C ) :   1.3858 B(  8-C , 16-C ) :   1.0118
B(  9-C , 10-C ) :   1.3862 B(  9-C , 14-C ) :   0.8953 B( 10-C , 11-C ) :   0.8831
B( 11-C , 12-O ) :   2.3152 B( 11-C , 13-O ) :   1.0424 B( 13-O , 14-C ) :   1.0653
B( 14-C , 15-O ) :   2.2383 B( 16-C , 17-S ) :   1.1551 B( 16-C , 18-C ) :   1.5620
B( 17-S , 27-C ) :   1.1400 B( 18-C , 19-C ) :   0.8694 B( 18-C , 26-C ) :   1.2746
B( 19-C , 20-O ) :   2.1465 B( 19-C , 21-N ) :   1.1029 B( 21-N , 22-C ) :   0.9146
B( 21-N , 24-C ) :   1.0620 B( 22-C , 23-C ) :   1.1289 B( 22-C , 79-H ) :   0.9401
B( 22-C , 80-H ) :   0.9414 B( 23-C , 81-H ) :   0.9674 B( 23-C , 82-H ) :   0.9699
B( 23-C , 83-H ) :   0.9684 B( 24-C , 25-O ) :   2.1790 B( 24-C , 26-C ) :   0.8984
B( 26-C , 27-C ) :   1.4763 B( 27-C , 28-C ) :   1.1768 B( 28-C , 29-C ) :   1.5537
B( 28-C , 84-H ) :   0.9717 B( 29-C , 30-C ) :   1.1905 B( 29-C , 85-H ) :   0.9477
B( 30-C , 31-N ) :   1.1768 B( 30-C , 37-C ) :   1.3299 B( 31-N , 32-C ) :   0.9360
B( 31-N , 34-C ) :   1.0562 B( 32-C , 33-C ) :   1.1176 B( 32-C , 86-H ) :   0.9511
B( 32-C , 87-H ) :   0.9262 B( 33-C , 88-H ) :   0.9674 B( 33-C , 89-H ) :   0.9683
B( 33-C , 90-H ) :   0.9612 B( 34-C , 35-O ) :   2.0357 B( 34-C , 36-C ) :   0.9838
B( 35-O , 97-H ) :   0.1064 B( 36-C , 37-C ) :   1.2672 B( 36-C , 43-C ) :   1.3154
B( 37-C , 38-C ) :   0.9736 B( 38-C , 39-O ) :   2.1354 B( 38-C , 40-N ) :   1.0346
B( 40-N , 41-C ) :   0.9436 B( 40-N , 43-C ) :   1.1631 B( 41-C , 42-C ) :   1.1197
B( 41-C , 91-H ) :   0.9277 B( 41-C , 92-H ) :   0.9501 B( 42-C , 93-H ) :   0.9640
B( 42-C , 94-H ) :   0.9679 B( 42-C , 95-H ) :   0.9686 B( 43-C , 44-C ) :   1.1728
B( 44-C , 45-C ) :   1.5348 B( 44-C , 96-H ) :   0.9623 B( 45-C , 46-C ) :   1.1371
B( 45-C , 97-H ) :   0.9602 B( 46-C , 47-C ) :   1.4933 B( 46-C , 50-C ) :   1.0284
B( 47-C , 48-C ) :   1.1199 B( 47-C , 98-H ) :   1.0118 B( 48-C , 49-C ) :   1.0954
B( 48-C , 53-C ) :   1.4045 B( 49-C , 50-C ) :   1.6990 B( 49-C , 51-C ) :   1.0856
B( 50-C , 99-H ) :   1.0148 B( 51-C , 52-N ) :   2.9753 B( 53-C , 54-C ) :   1.1240
B( 53-C , 57-C ) :   1.1096 B( 54-C , 55-C ) :   1.5511 B( 54-C ,100-H ) :   0.9934
B( 55-C , 56-C ) :   1.0386 B( 55-C , 60-C ) :   1.1216 B( 56-C , 57-C ) :   1.6623
B( 56-C ,101-H ) :   1.0247 B( 57-C , 58-C ) :   1.0883 B( 58-C , 59-N ) :   2.9751
B( 60-C , 61-C ) :   1.6862 B( 60-C ,102-H ) :   0.9621 B( 61-C , 62-C ) :   1.1087
B( 61-C ,103-H ) :   0.9439 B( 62-C , 63-C ) :   1.3544 B( 62-C , 72-C ) :   1.3199
B( 63-C , 64-C ) :   0.8598 B( 63-C , 69-C ) :   1.3419 B( 64-C , 65-O ) :   2.1632
B( 64-C , 66-S ) :   1.0276 B( 65-O , 66-S ) :   0.1049 B( 66-S , 67-C ) :   1.0315
B( 66-S , 68-O ) :   0.1104 B( 67-C , 68-O ) :   2.2246 B( 67-C , 69-C ) :   0.8360
B( 69-C , 70-C ) :   1.3496 B( 70-C , 71-C ) :   1.3202 B( 70-C ,104-H ) :   1.0275
B( 71-C , 72-C ) :   1.3764 B( 71-C , 76-C ) :   0.8856 B( 72-C , 73-C ) :   0.9112
B( 73-C , 74-O ) :   2.2481 B( 73-C , 75-O ) :   1.0563 B( 75-O , 76-C ) :   1.0466
B( 76-C , 77-O ) :   2.3109

-----------------------------------------------------------------------------
         ABSORPTION SPECTRUM VIA TRANSITION ELECTRIC DIPOLE MOMENTS
-----------------------------------------------------------------------------
State   Energy  Wavelength   fosc         T2         TX        TY        TZ
        (cm-1)    (nm)                  (au**2)     (au)      (au)      (au)
-----------------------------------------------------------------------------
   0    9407.7   1063.0   0.788092897  27.57835   1.45820   3.72940   3.39758
   1   15686.3    637.5   0.074726305   1.56830  -0.72044  -0.98817  -0.26976
   2   17150.2    583.1   0.335974556   6.44931  -0.09074   1.17901   2.24744
   3   18260.9    547.6   0.064842374   1.16899  -0.44113   0.56671   0.80823
   4   19159.5    521.9   0.023067842   0.39637  -0.41307  -0.45456  -0.13825
   5   20707.6    482.9   0.018112281   0.28795   0.51291  -0.11784  -0.10481
   6   22716.3    440.2   0.088004887   1.27539   0.97312  -0.02117  -0.57269
   7   24429.6    409.3   0.028017630   0.37756  -0.13673  -0.50772  -0.31795
   8   24501.6    408.1   0.015290163   0.20544   0.34586  -0.24032  -0.16754
   9   24836.1    402.6   1.059251451  14.04077   1.73047   2.86325   1.68763
  10   25755.3    388.3   0.119310582   1.52506  -0.50109  -0.69292  -0.89098
  11   26278.0    380.5   0.055933448   0.70074   0.47628   0.40950   0.55335
  12   26724.2    374.2   0.027266465   0.33589  -0.03992   0.48286   0.31803
  13   27248.8    367.0   0.163991702   1.98130   0.23851  -0.79586  -1.13623
  14   28247.8    354.0   0.032673612   0.38079  -0.37541  -0.36262  -0.32918
  15   28424.3    351.8   0.005012050   0.05805   0.20594  -0.12080  -0.03235
  16   28642.1    349.1   0.017803320   0.20463   0.27712  -0.34283  -0.10148
  17   30114.0    332.1   0.026548068   0.29023  -0.37945  -0.32254  -0.20546
  18   30315.2    329.9   0.011499878   0.12488   0.33761   0.10364   0.01281
  19   30690.7    325.8   0.162030996   1.73807  -0.68603  -0.95341  -0.59869
  20   31136.6    321.2   0.111334214   1.17715   0.63261   0.60237   0.64351
  21   31469.6    317.8   0.106016881   1.10907  -0.11668   0.62724   0.83787
  22   31669.2    315.8   0.059858045   0.62224  -0.73438  -0.08195   0.27607
  23   31928.7    313.2   0.012057945   0.12433   0.28023   0.19507   0.08801
  24   32108.9    311.4   0.012922202   0.13249   0.24192  -0.21488  -0.16671
  25   32219.6    310.4   0.048788801   0.49851  -0.07160   0.43850   0.54873
  26   33143.7    301.7   0.024476097   0.24312   0.43759   0.22719   0.00385
  27   33200.2    301.2   0.008351472   0.08281   0.02803   0.25428   0.13180
  28   33306.9    300.2   0.007986422   0.07894  -0.03027   0.20834   0.18606
  29   33523.0    298.3   0.000933798   0.00917   0.01846   0.08752  -0.03421
  30   33577.4    297.8   0.003584825   0.03515   0.09759  -0.02900   0.15742
  31   33679.2    296.9   0.007490427   0.07322   0.23044  -0.04728  -0.13372
  32   33938.0    294.7   0.002017375   0.01957  -0.13849  -0.01185  -0.01583
  33   34133.7    293.0   0.000245958   0.00237  -0.01868  -0.02693   0.03603
  34   34177.7    292.6   0.044844933   0.43196   0.11468  -0.36982  -0.53108
  35   34355.8    291.1   0.020858436   0.19987   0.15220  -0.29253  -0.30189
  36   34595.5    289.1   0.008595045   0.08179   0.09591   0.15415   0.22098
  37   34769.4    287.6   0.001362538   0.01290   0.00071   0.01022  -0.11312
  38   34950.2    286.1   0.028848638   0.27174  -0.50158  -0.03260  -0.13820
  39   35036.7    285.4   0.004938141   0.04640   0.20448  -0.06596   0.01540
  40   35176.3    284.3   0.063833118   0.59741  -0.61198   0.14009   0.45084
  41   35293.6    283.3   0.035665820   0.33268   0.49763   0.13157  -0.26027
  42   35631.9    280.6   0.051653765   0.47724  -0.68990  -0.00097  -0.03573
  43   35787.6    279.4   0.004868967   0.04479  -0.17744   0.08200   0.08112
  44   35863.5    278.8   0.000224917   0.00206   0.04040   0.01502   0.01438
  45   36426.8    274.5   0.132466127   1.19718   0.35895   0.85170   0.58562
  46   36728.0    272.3   0.024822706   0.22250   0.30065   0.03871  -0.36140
  47   37013.4    270.2   0.005041848   0.04484   0.05249   0.09044   0.18415
  48   37488.4    266.7   0.021900928   0.19233   0.28175   0.29128   0.16764
  49   37586.2    266.1   0.102402939   0.89693   0.56353   0.65854   0.38169
  50   37705.9    265.2   0.011059883   0.09656  -0.18283   0.20002   0.15208
  51   37869.7    264.1   0.001132056   0.00984  -0.08678  -0.04608   0.01371
  52   37888.0    263.9   0.000567261   0.00493   0.04279   0.05564   0.00146
  53   38006.4    263.1   0.076555782   0.66313  -0.56978  -0.57763  -0.06938
  54   38247.6    261.5   0.014068853   0.12110   0.24728  -0.02801  -0.24324
  55   38391.0    260.5   0.014043928   0.12043   0.03674  -0.21575  -0.26932
  56   38466.2    260.0   0.011798622   0.10098   0.27970  -0.03702  -0.14621
  57   38619.5    258.9   0.008170989   0.06965   0.20686   0.10011  -0.12978
  58   38683.0    258.5   0.040718796   0.34654   0.08712   0.42825   0.39440
  59   38747.8    258.1   0.002632812   0.02237  -0.13420  -0.06568  -0.00666
  60   38898.0    257.1   0.042586454   0.36043  -0.33971   0.08597   0.48748
  61   39122.9    255.6   0.013796862   0.11610   0.23432   0.24651   0.02067
  62   39199.8    255.1   0.164917690   1.38503  -0.85143  -0.68673  -0.43415
  63   39524.8    253.0   0.037060952   0.30869   0.40143   0.14230  -0.35678
  64   39624.2    252.4   0.037580509   0.31223  -0.16935   0.41592   0.33251
  65   39822.6    251.1   0.000130666   0.00108  -0.02217  -0.00526  -0.02369
  66   40141.0    249.1   0.010840649   0.08891   0.26434  -0.13669   0.01861
  67   40266.3    248.3   0.004786043   0.03913   0.15364  -0.09238   0.08362

FINAL SINGLE POINT ENERGY     -4667.151554099900

DIPOLE MOMENT
-------------
                                X             Y             Z
Electronic contribution:     17.30278     -24.12659     -16.08900
Nuclear contribution   :    -16.12860      23.83782      16.22342
                        -----------------------------------------
Total Dipole Moment    :      1.17419      -0.28878       0.13441
                        -----------------------------------------
Magnitude (a.u.)       :      1.21662
Magnitude (Debye)      :      3.09241

Rotational constants in cm-1:     0.002179     0.000159     0.000151
Rotational constants in MHz :    65.316282     4.752723     4.523280

                             ****ORCA TERMINATED NORMALLY****
TOTAL RUN TIME: 0 days 0 hours 12 minutes 34 seconds 595 msec
