                         Program Version 4.2.0 -  RELEASE  -
|  1> # ORCA input file
|  2> # SCF done       -184.937924607722          0.000253146525
|  3> ! CAM-B3LYP def2-SVP def2/J RIJCOSX Grid4 TightSCF
|  4> %maxcore 5000
|  5> %tddft
|  6>     Mode sTDDFT
|  7>     Ethresh 5.0
|  8>     maxcore 5000
|  9> end
| 10>
| 11> %pal
| 12>   nprocs 6
| 13>   end
| 14> * xyz 0 1
| 15>    C       -1.06400        -0.33418        -4.88716
| 16>    S       -1.13718         1.36518        -4.80707
| 17>    C        0.54120         1.46131        -4.30242
| 18>    C        1.09963         0.19344        -4.23020
| 19>    C        0.17128        -0.82051        -4.56277
| 20>    C        0.46886        -2.29409        -4.47398
| 21>    C       -0.21501        -2.79161        -3.29706
| 22>    N       -0.75150        -3.16582        -2.35997
| 23>    C        1.97338        -2.56909        -4.35966
| 24>    C        2.61032        -1.58908        -3.38231
| 25>    C        2.53918        -0.17193        -3.95983
| 26>    O        3.27589        -0.19228        -5.17677
| 27>    C        3.78367         1.04283        -5.60695
| 28>    C        1.04970         2.75896        -4.00642
| 29>    C        2.25377         3.15055        -3.46700
| 30>    C        2.29394         4.56736        -3.37183
| 31>    C        0.98839         5.05120        -3.85759
| 32>    C        0.26256         3.96873        -4.23440
| 33>    C        0.51629         6.36965        -3.85832
| 34>    N        0.06201         7.42397        -3.83301
| 35>    C        3.34846         5.34318        -2.94214
| 36>    C        3.42475         6.75993        -2.90890
| 37>    C        4.63071         7.14073        -2.34878
| 38>    C        5.37047         5.93196        -2.02990
| 39>    C        4.62718         4.85421        -2.40226
| 40>    C        5.04047         3.52354        -2.29614
| 41>    N        5.40961         2.43769        -2.21357
| 42>    C        5.01444         8.49823        -2.17746
| 43>    N        5.95120         9.00481        -1.30727
| 44>    C        6.70217         8.30348        -0.29253
| 45>    C        5.80364         7.71515         0.79043
| 46>    C        6.02275        10.41064        -1.37837
| 47>    O        6.76428        11.07549        -0.68228
| 48>    C        5.07526        10.77098        -2.40631
| 49>    C        4.47153         9.58000        -2.87295
| 50>    C        3.57371         9.92900        -3.95567
| 51>    O        2.88278         9.26446        -4.69509
| 52>    N        3.67399        11.33448        -4.04337
| 53>    C        2.86231        12.07768        -4.97658
| 54>    C        1.62075        12.65954        -4.30573
| 55>    C        4.55266        11.84846        -3.12542
| 56>    C        4.82299        13.23312        -2.97837
| 57>    C        5.69604        13.71743        -2.06301
| 58>    C        5.91890        15.11555        -1.90955
| 59>    O        6.82584        15.53908        -0.97984
| 60>    C        6.79638        16.88427        -1.05333
| 61>    C        5.84324        17.23690        -2.05591
| 62>    N        5.32682        16.07817        -2.55858
| 63>    C        5.56388        18.55869        -2.37339
| 64>    C        6.27926        19.49093        -1.64399
| 65>    C        7.22914        19.11104        -0.65180
| 66>    C        7.52170        17.80407        -0.32097
| 67>    O        7.74604        20.24664        -0.12967
| 68>    C        7.11418        21.25225        -0.80007
| 69>    N        6.25216        20.86161        -1.68774
| 70>    C        7.43034        22.60281        -0.47630
| 71>    S        8.54638        22.97436         0.79791
| 72>    C        8.33516        24.65390         0.52026
| 73>    C        7.45931        24.92202        -0.49177
| 74>    C        6.93392        23.74240        -1.06848
| 75>    C        6.02115        23.75295        -2.25774
| 76>    C        6.82431        23.38895        -3.40787
| 77>    N        7.48023        23.14481        -4.31106
| 78>    C        5.40515        25.14371        -2.46343
| 79>    C        6.47809        26.22454        -2.36193
| 80>    C        7.01505        26.29292        -0.93035
| 81>    O        5.95647        26.78051        -0.11826
| 82>    C        6.32470        27.14779         1.18389
| 83>    H       -1.93686        -0.89419        -5.16150
| 84>    H        0.04852        -2.81514        -5.34313
| 85>    H        2.43976        -2.43478        -5.33615
| 86>    H        2.13354        -3.59739        -4.03072
| 87>    H        3.65888        -1.84519        -3.23234
| 88>    H        2.09888        -1.61784        -2.41795
| 89>    H        2.99997         0.52847        -3.25354
| 90>    H        4.34272         0.83343        -6.51755
| 91>    H        4.45866         1.47773        -4.86092
| 92>    H        2.98507         1.75909        -5.83123
| 93>    H        3.06148         2.52068        -3.16196
| 94>    H       -0.73510         3.97913        -4.63317
| 95>    H        2.66155         7.42285        -3.26407
| 96>    H        6.36032         5.88308        -1.61858
| 97>    H        7.36407         9.05639         0.14673
| 98>    H        7.32423         7.53130        -0.75234
| 99>    H        5.21865         8.50383         1.25762
|100>    H        6.41402         7.23773         1.55203
|101>    H        5.12081         6.97551         0.37796
|102>    H        2.55972        11.36356        -5.74774
|103>    H        3.46427        12.86559        -5.43642
|104>    H        1.01490        11.85771        -3.89105
|105>    H        1.02753        13.19915        -5.03846
|106>    H        1.89469        13.34229        -3.50452
|107>    H        4.30503        13.93681        -3.61317
|108>    H        6.25282        13.06539        -1.40420
|109>    H        4.84883        18.83548        -3.12699
|110>    H        8.23967        17.52889         0.43159
|111>    H        8.89062        25.35407         1.11310
|112>    H        5.25270        22.98017        -2.14507
|113>    H        4.65652        25.32325        -1.69094
|114>    H        4.91985        25.18589        -3.43964
|115>    H        6.05045        27.19468        -2.61485
|116>    H        7.29921        26.00963        -3.04838
|117>    H        7.86661        26.99205        -0.87014
|118>    H        5.44210        27.60126         1.63106
|119>    H        7.14410        27.87748         1.17397
|120>    H        6.62778        26.28124         1.78316
|121> *
|122>
|123>                          ****END OF INPUT****

CARTESIAN COORDINATES (ANGSTROEM)
---------------------------------
  C     -1.064000   -0.334180   -4.887160
  S     -1.137180    1.365180   -4.807070
  C      0.541200    1.461310   -4.302420
  C      1.099630    0.193440   -4.230200
  C      0.171280   -0.820510   -4.562770
  C      0.468860   -2.294090   -4.473980
  C     -0.215010   -2.791610   -3.297060
  N     -0.751500   -3.165820   -2.359970
  C      1.973380   -2.569090   -4.359660
  C      2.610320   -1.589080   -3.382310
  C      2.539180   -0.171930   -3.959830
  O      3.275890   -0.192280   -5.176770
  C      3.783670    1.042830   -5.606950
  C      1.049700    2.758960   -4.006420
  C      2.253770    3.150550   -3.467000
  C      2.293940    4.567360   -3.371830
  C      0.988390    5.051200   -3.857590
  C      0.262560    3.968730   -4.234400
  C      0.516290    6.369650   -3.858320
  N      0.062010    7.423970   -3.833010
  C      3.348460    5.343180   -2.942140
  C      3.424750    6.759930   -2.908900
  C      4.630710    7.140730   -2.348780
  C      5.370470    5.931960   -2.029900
  C      4.627180    4.854210   -2.402260
  C      5.040470    3.523540   -2.296140
  N      5.409610    2.437690   -2.213570
  C      5.014440    8.498230   -2.177460
  N      5.951200    9.004810   -1.307270
  C      6.702170    8.303480   -0.292530
  C      5.803640    7.715150    0.790430
  C      6.022750   10.410640   -1.378370
  O      6.764280   11.075490   -0.682280
  C      5.075260   10.770980   -2.406310
  C      4.471530    9.580000   -2.872950
  C      3.573710    9.929000   -3.955670
  O      2.882780    9.264460   -4.695090
  N      3.673990   11.334480   -4.043370
  C      2.862310   12.077680   -4.976580
  C      1.620750   12.659540   -4.305730
  C      4.552660   11.848460   -3.125420
  C      4.822990   13.233120   -2.978370
  C      5.696040   13.717430   -2.063010
  C      5.918900   15.115550   -1.909550
  O      6.825840   15.539080   -0.979840
  C      6.796380   16.884270   -1.053330
  C      5.843240   17.236900   -2.055910
  N      5.326820   16.078170   -2.558580
  C      5.563880   18.558690   -2.373390
  C      6.279260   19.490930   -1.643990
  C      7.229140   19.111040   -0.651800
  C      7.521700   17.804070   -0.320970
  O      7.746040   20.246640   -0.129670
  C      7.114180   21.252250   -0.800070
  N      6.252160   20.861610   -1.687740
  C      7.430340   22.602810   -0.476300
  S      8.546380   22.974360    0.797910
  C      8.335160   24.653900    0.520260
  C      7.459310   24.922020   -0.491770
  C      6.933920   23.742400   -1.068480
  C      6.021150   23.752950   -2.257740
  C      6.824310   23.388950   -3.407870
  N      7.480230   23.144810   -4.311060
  C      5.405150   25.143710   -2.463430
  C      6.478090   26.224540   -2.361930
  C      7.015050   26.292920   -0.930350
  O      5.956470   26.780510   -0.118260
  C      6.324700   27.147790    1.183890
  H     -1.936860   -0.894190   -5.161500
  H      0.048520   -2.815140   -5.343130
  H      2.439760   -2.434780   -5.336150
  H      2.133540   -3.597390   -4.030720
  H      3.658880   -1.845190   -3.232340
  H      2.098880   -1.617840   -2.417950
  H      2.999970    0.528470   -3.253540
  H      4.342720    0.833430   -6.517550
  H      4.458660    1.477730   -4.860920
  H      2.985070    1.759090   -5.831230
  H      3.061480    2.520680   -3.161960
  H     -0.735100    3.979130   -4.633170
  H      2.661550    7.422850   -3.264070
  H      6.360320    5.883080   -1.618580
  H      7.364070    9.056390    0.146730
  H      7.324230    7.531300   -0.752340
  H      5.218650    8.503830    1.257620
  H      6.414020    7.237730    1.552030
  H      5.120810    6.975510    0.377960
  H      2.559720   11.363560   -5.747740
  H      3.464270   12.865590   -5.436420
  H      1.014900   11.857710   -3.891050
  H      1.027530   13.199150   -5.038460
  H      1.894690   13.342290   -3.504520
  H      4.305030   13.936810   -3.613170
  H      6.252820   13.065390   -1.404200
  H      4.848830   18.835480   -3.126990
  H      8.239670   17.528890    0.431590
  H      8.890620   25.354070    1.113100
  H      5.252700   22.980170   -2.145070
  H      4.656520   25.323250   -1.690940
  H      4.919850   25.185890   -3.439640
  H      6.050450   27.194680   -2.614850
  H      7.299210   26.009630   -3.048380
  H      7.866610   26.992050   -0.870140
  H      5.442100   27.601260    1.631060
  H      7.144100   27.877480    1.173970
  H      6.627780   26.281240    1.783160

 Total Charge           Charge          ....    0
 Multiplicity           Mult            ....    1
 Number of Electrons    NEL             ....  486
 Basis Dimension        Dim             .... 1150

ORBITAL ENERGIES
----------------

  NO   OCC          E(Eh)            E(eV)
   0   2.0000     -88.973342     -2421.0877
   1   2.0000     -88.970548     -2421.0117
   2   2.0000     -19.303675      -525.2797
   3   2.0000     -19.299572      -525.1681
   4   2.0000     -19.218426      -522.9600
   5   2.0000     -19.216743      -522.9142
   6   2.0000     -19.194915      -522.3202
   7   2.0000     -19.193956      -522.2941
   8   2.0000     -14.458847      -393.4452
   9   2.0000     -14.455915      -393.3655
  10   2.0000     -14.414405      -392.2359
  11   2.0000     -14.411757      -392.1639
  12   2.0000     -14.410879      -392.1399
  13   2.0000     -14.405732      -391.9999
  14   2.0000     -14.398281      -391.7971
  15   2.0000     -14.386632      -391.4802
  16   2.0000     -10.381428      -282.4930
  17   2.0000     -10.377267      -282.3798
  18   2.0000     -10.376725      -282.3650
  19   2.0000     -10.370445      -282.1942
  20   2.0000     -10.344870      -281.4982
  21   2.0000     -10.344524      -281.4888
  22   2.0000     -10.344392      -281.4852
  23   2.0000     -10.342658      -281.4380
  24   2.0000     -10.329582      -281.0822
  25   2.0000     -10.328141      -281.0430
  26   2.0000     -10.326571      -281.0003
  27   2.0000     -10.322408      -280.8870
  28   2.0000     -10.320746      -280.8418
  29   2.0000     -10.319278      -280.8018
  30   2.0000     -10.319021      -280.7948
  31   2.0000     -10.317308      -280.7482
  32   2.0000     -10.316584      -280.7285
  33   2.0000     -10.315674      -280.7038
  34   2.0000     -10.313439      -280.6429
  35   2.0000     -10.313279      -280.6386
  36   2.0000     -10.312004      -280.6039
  37   2.0000     -10.311734      -280.5966
  38   2.0000     -10.311498      -280.5901
  39   2.0000     -10.311038      -280.5776
  40   2.0000     -10.308639      -280.5123
  41   2.0000     -10.308488      -280.5082
  42   2.0000     -10.307580      -280.4835
  43   2.0000     -10.307337      -280.4769
  44   2.0000     -10.306627      -280.4576
  45   2.0000     -10.306618      -280.4573
  46   2.0000     -10.305991      -280.4403
  47   2.0000     -10.305020      -280.4139
  48   2.0000     -10.298978      -280.2494
  49   2.0000     -10.298716      -280.2423
  50   2.0000     -10.298429      -280.2345
  51   2.0000     -10.298352      -280.2324
  52   2.0000     -10.297236      -280.2020
  53   2.0000     -10.295552      -280.1562
  54   2.0000     -10.293952      -280.1127
  55   2.0000     -10.288266      -279.9580
  56   2.0000     -10.285767      -279.8900
  57   2.0000     -10.284388      -279.8524
  58   2.0000     -10.282264      -279.7946
  59   2.0000     -10.282146      -279.7914
  60   2.0000     -10.278661      -279.6966
  61   2.0000     -10.273830      -279.5651
  62   2.0000     -10.269743      -279.4539
  63   2.0000     -10.267773      -279.4003
  64   2.0000     -10.267736      -279.3993
  65   2.0000     -10.267189      -279.3844
  66   2.0000     -10.265189      -279.3300
  67   2.0000     -10.259847      -279.1846
  68   2.0000      -8.068987      -219.5683
  69   2.0000      -8.065980      -219.4865
  70   2.0000      -6.038129      -164.3058
  71   2.0000      -6.035165      -164.2252
  72   2.0000      -6.033884      -164.1903
  73   2.0000      -6.031508      -164.1257
  74   2.0000      -6.030942      -164.1103
  75   2.0000      -6.028376      -164.0404
  76   2.0000      -1.233926       -33.5768
  77   2.0000      -1.229258       -33.4498
  78   2.0000      -1.137553       -30.9544
  79   2.0000      -1.130890       -30.7731
  80   2.0000      -1.120839       -30.4996
  81   2.0000      -1.118534       -30.4369
  82   2.0000      -1.067713       -29.0540
  83   2.0000      -1.059329       -28.8258
  84   2.0000      -1.027631       -27.9633
  85   2.0000      -1.020930       -27.7809
  86   2.0000      -1.019710       -27.7477
  87   2.0000      -1.008812       -27.4512
  88   2.0000      -1.003167       -27.2975
  89   2.0000      -1.000241       -27.2179
  90   2.0000      -0.987033       -26.8585
  91   2.0000      -0.986605       -26.8469
  92   2.0000      -0.977829       -26.6081
  93   2.0000      -0.975459       -26.5436
  94   2.0000      -0.957575       -26.0569
  95   2.0000      -0.932093       -25.3635
  96   2.0000      -0.931681       -25.3523
  97   2.0000      -0.925115       -25.1737
  98   2.0000      -0.914496       -24.8847
  99   2.0000      -0.891030       -24.2462
 100   2.0000      -0.884970       -24.0812
 101   2.0000      -0.880296       -23.9541
 102   2.0000      -0.872543       -23.7431
 103   2.0000      -0.862269       -23.4635
 104   2.0000      -0.856257       -23.2999
 105   2.0000      -0.851375       -23.1671
 106   2.0000      -0.851214       -23.1627
 107   2.0000      -0.841342       -22.8941
 108   2.0000      -0.837096       -22.7785
 109   2.0000      -0.829027       -22.5590
 110   2.0000      -0.822434       -22.3796
 111   2.0000      -0.822128       -22.3712
 112   2.0000      -0.799989       -21.7688
 113   2.0000      -0.789804       -21.4917
 114   2.0000      -0.773768       -21.0553
 115   2.0000      -0.769322       -20.9343
 116   2.0000      -0.764030       -20.7903
 117   2.0000      -0.762457       -20.7475
 118   2.0000      -0.751611       -20.4524
 119   2.0000      -0.729223       -19.8432
 120   2.0000      -0.726954       -19.7814
 121   2.0000      -0.724125       -19.7044
 122   2.0000      -0.722420       -19.6580
 123   2.0000      -0.716851       -19.5065
 124   2.0000      -0.710485       -19.3333
 125   2.0000      -0.708881       -19.2896
 126   2.0000      -0.704543       -19.1716
 127   2.0000      -0.692129       -18.8338
 128   2.0000      -0.688326       -18.7303
 129   2.0000      -0.681879       -18.5549
 130   2.0000      -0.673748       -18.3336
 131   2.0000      -0.671263       -18.2660
 132   2.0000      -0.666748       -18.1431
 133   2.0000      -0.658729       -17.9249
 134   2.0000      -0.656481       -17.8637
 135   2.0000      -0.650034       -17.6883
 136   2.0000      -0.640650       -17.4330
 137   2.0000      -0.640050       -17.4166
 138   2.0000      -0.629165       -17.1205
 139   2.0000      -0.621384       -16.9087
 140   2.0000      -0.620216       -16.8769
 141   2.0000      -0.602781       -16.4025
 142   2.0000      -0.597212       -16.2510
 143   2.0000      -0.589808       -16.0495
 144   2.0000      -0.587331       -15.9821
 145   2.0000      -0.585426       -15.9303
 146   2.0000      -0.583005       -15.8644
 147   2.0000      -0.580195       -15.7879
 148   2.0000      -0.577021       -15.7016
 149   2.0000      -0.576981       -15.7005
 150   2.0000      -0.575565       -15.6619
 151   2.0000      -0.572116       -15.5681
 152   2.0000      -0.565427       -15.3860
 153   2.0000      -0.564433       -15.3590
 154   2.0000      -0.563247       -15.3267
 155   2.0000      -0.552908       -15.0454
 156   2.0000      -0.549945       -14.9648
 157   2.0000      -0.547512       -14.8985
 158   2.0000      -0.545581       -14.8460
 159   2.0000      -0.543599       -14.7921
 160   2.0000      -0.540878       -14.7180
 161   2.0000      -0.538498       -14.6533
 162   2.0000      -0.535115       -14.5612
 163   2.0000      -0.532592       -14.4926
 164   2.0000      -0.531405       -14.4603
 165   2.0000      -0.528677       -14.3860
 166   2.0000      -0.524983       -14.2855
 167   2.0000      -0.523960       -14.2577
 168   2.0000      -0.523301       -14.2397
 169   2.0000      -0.518995       -14.1226
 170   2.0000      -0.518352       -14.1051
 171   2.0000      -0.512826       -13.9547
 172   2.0000      -0.511768       -13.9259
 173   2.0000      -0.506993       -13.7960
 174   2.0000      -0.502389       -13.6707
 175   2.0000      -0.501520       -13.6470
 176   2.0000      -0.497316       -13.5327
 177   2.0000      -0.493886       -13.4393
 178   2.0000      -0.491733       -13.3807
 179   2.0000      -0.490975       -13.3601
 180   2.0000      -0.487108       -13.2549
 181   2.0000      -0.486873       -13.2485
 182   2.0000      -0.485763       -13.2183
 183   2.0000      -0.484159       -13.1746
 184   2.0000      -0.483427       -13.1547
 185   2.0000      -0.480198       -13.0669
 186   2.0000      -0.477873       -13.0036
 187   2.0000      -0.475762       -12.9461
 188   2.0000      -0.474686       -12.9169
 189   2.0000      -0.471041       -12.8177
 190   2.0000      -0.469152       -12.7663
 191   2.0000      -0.464620       -12.6430
 192   2.0000      -0.458392       -12.4735
 193   2.0000      -0.456945       -12.4341
 194   2.0000      -0.449194       -12.2232
 195   2.0000      -0.448472       -12.2036
 196   2.0000      -0.446766       -12.1571
 197   2.0000      -0.445679       -12.1275
 198   2.0000      -0.445312       -12.1176
 199   2.0000      -0.443909       -12.0794
 200   2.0000      -0.440786       -11.9944
 201   2.0000      -0.438718       -11.9381
 202   2.0000      -0.436737       -11.8842
 203   2.0000      -0.434176       -11.8145
 204   2.0000      -0.433636       -11.7998
 205   2.0000      -0.432922       -11.7804
 206   2.0000      -0.429731       -11.6936
 207   2.0000      -0.427702       -11.6384
 208   2.0000      -0.426695       -11.6110
 209   2.0000      -0.425884       -11.5889
 210   2.0000      -0.423424       -11.5219
 211   2.0000      -0.421566       -11.4714
 212   2.0000      -0.419031       -11.4024
 213   2.0000      -0.417909       -11.3719
 214   2.0000      -0.415308       -11.3011
 215   2.0000      -0.414055       -11.2670
 216   2.0000      -0.411486       -11.1971
 217   2.0000      -0.407270       -11.0824
 218   2.0000      -0.399813       -10.8795
 219   2.0000      -0.398080       -10.8323
 220   2.0000      -0.393480       -10.7071
 221   2.0000      -0.392611       -10.6835
 222   2.0000      -0.384452       -10.4615
 223   2.0000      -0.382818       -10.4170
 224   2.0000      -0.382247       -10.4015
 225   2.0000      -0.371716       -10.1149
 226   2.0000      -0.366989        -9.9863
 227   2.0000      -0.364583        -9.9208
 228   2.0000      -0.358734        -9.7616
 229   2.0000      -0.351288        -9.5590
 230   2.0000      -0.341328        -9.2880
 231   2.0000      -0.339856        -9.2479
 232   2.0000      -0.336012        -9.1434
 233   2.0000      -0.334125        -9.0920
 234   2.0000      -0.330524        -8.9940
 235   2.0000      -0.324400        -8.8274
 236   2.0000      -0.322018        -8.7626
 237   2.0000      -0.320334        -8.7167
 238   2.0000      -0.312547        -8.5048
 239   2.0000      -0.297883        -8.1058
 240   2.0000      -0.283095        -7.7034
 241   2.0000      -0.277230        -7.5438
 242   2.0000      -0.239056        -6.5050
 243   0.0000      -0.127671        -3.4741
 244   0.0000      -0.078045        -2.1237
 245   0.0000      -0.036880        -1.0035
 246   0.0000      -0.016977        -0.4620
 247   0.0000      -0.010232        -0.2784

MULLIKEN ATOMIC CHARGES
-----------------------
   0 C :   -0.090515
   1 S :    0.129212
   2 C :   -0.137997
   3 C :    0.015469
   4 C :   -0.032385
   5 C :    0.039285
   6 C :   -0.295290
   7 N :    0.111482
   8 C :    0.076540
   9 C :    0.058943
  10 C :    0.175260
  11 O :   -0.381801
  12 C :    0.183141
  13 C :    0.141311
  14 C :   -0.161495
  15 C :    0.113060
  16 C :   -0.079695
  17 C :   -0.028569
  18 C :   -0.177943
  19 N :    0.148284
  20 C :    0.111248
  21 C :   -0.097634
  22 C :    0.023684
  23 C :   -0.021555
  24 C :   -0.110238
  25 C :   -0.164394
  26 N :    0.129424
  27 C :    0.151377
  28 N :   -0.258062
  29 C :    0.099252
  30 C :   -0.009509
  31 C :    0.159638
  32 O :   -0.205954
  33 C :   -0.069716
  34 C :   -0.046793
  35 C :    0.143402
  36 O :   -0.179991
  37 N :   -0.257885
  38 C :    0.096927
  39 C :   -0.000300
  40 C :    0.152395
  41 C :   -0.019649
  42 C :    0.000561
  43 C :    0.104679
  44 O :   -0.187289
  45 C :    0.210255
  46 C :    0.018292
  47 N :   -0.047137
  48 C :   -0.085586
  49 C :    0.042867
  50 C :    0.217219
  51 C :   -0.156917
  52 O :   -0.201845
  53 C :    0.113958
  54 N :   -0.067435
  55 C :   -0.183780
  56 S :    0.178458
  57 C :   -0.115452
  58 C :   -0.037096
  59 C :   -0.021953
  60 C :    0.086610
  61 C :   -0.299427
  62 N :    0.104558
  63 C :    0.076261
  64 C :    0.062332
  65 C :    0.209704
  66 O :   -0.380100
  67 C :    0.185412
  68 H :    0.029012
  69 H :    0.042329
  70 H :    0.031782
  71 H :    0.022220
  72 H :    0.018620
  73 H :    0.026364
  74 H :    0.018561
  75 H :    0.024582
  76 H :    0.013752
  77 H :    0.010753
  78 H :   -0.023057
  79 H :    0.014858
  80 H :    0.024747
  81 H :   -0.014102
  82 H :    0.048811
  83 H :    0.023172
  84 H :    0.028997
  85 H :    0.026961
  86 H :    0.031043
  87 H :    0.046258
  88 H :    0.027213
  89 H :    0.037557
  90 H :    0.025662
  91 H :    0.019255
  92 H :    0.004011
  93 H :    0.032518
  94 H :   -0.022820
  95 H :   -0.010650
  96 H :    0.021640
  97 H :    0.048098
  98 H :    0.027318
  99 H :    0.019293
 100 H :    0.011348
 101 H :    0.026361
 102 H :   -0.008743
 103 H :    0.030343
 104 H :   -0.003696
 105 H :    0.010516
Sum of atomic charges:   -0.0000000

LOEWDIN ATOMIC CHARGES
----------------------
   0 C :   -0.165100
   1 S :    0.464972
   2 C :   -0.169345
   3 C :   -0.043422
   4 C :   -0.048148
   5 C :   -0.041511
   6 C :   -0.035461
   7 N :   -0.069021
   8 C :   -0.009543
   9 C :   -0.025881
  10 C :    0.077456
  11 O :   -0.165710
  12 C :    0.064426
  13 C :   -0.016144
  14 C :   -0.049654
  15 C :    0.051979
  16 C :   -0.070436
  17 C :    0.041280
  18 C :   -0.033792
  19 N :   -0.047086
  20 C :    0.019923
  21 C :    0.016668
  22 C :   -0.042625
  23 C :    0.045231
  24 C :   -0.085783
  25 C :   -0.025698
  26 N :   -0.073369
  27 C :    0.071569
  28 N :   -0.001791
  29 C :    0.034855
  30 C :   -0.061491
  31 C :    0.080934
  32 O :   -0.196519
  33 C :   -0.121080
  34 C :   -0.105835
  35 C :    0.082133
  36 O :   -0.175798
  37 N :    0.002812
  38 C :    0.036736
  39 C :   -0.060361
  40 C :    0.080882
  41 C :   -0.011234
  42 C :    0.006782
  43 C :    0.054678
  44 O :    0.000765
  45 C :    0.036398
  46 C :   -0.035599
  47 N :   -0.099028
  48 C :   -0.017288
  49 C :   -0.031107
  50 C :    0.038129
  51 C :   -0.060964
  52 O :   -0.012594
  53 C :    0.056703
  54 N :   -0.102969
  55 C :   -0.206053
  56 S :    0.472542
  57 C :   -0.172030
  58 C :   -0.075277
  59 C :   -0.014127
  60 C :   -0.044469
  61 C :   -0.027545
  62 N :   -0.076096
  63 C :   -0.009079
  64 C :   -0.028752
  65 C :    0.075849
  66 O :   -0.166587
  67 C :    0.064014
  68 H :    0.030037
  69 H :    0.059454
  70 H :    0.033064
  71 H :    0.033090
  72 H :    0.035262
  73 H :    0.031682
  74 H :    0.021526
  75 H :    0.023830
  76 H :    0.011408
  77 H :    0.007257
  78 H :    0.025235
  79 H :    0.031115
  80 H :    0.039229
  81 H :    0.034245
  82 H :    0.039277
  83 H :    0.018965
  84 H :    0.032881
  85 H :    0.033106
  86 H :    0.024290
  87 H :    0.038902
  88 H :    0.025088
  89 H :    0.035095
  90 H :    0.031913
  91 H :    0.023317
  92 H :    0.038898
  93 H :    0.044816
  94 H :    0.043230
  95 H :    0.045273
  96 H :    0.024419
  97 H :    0.059481
  98 H :    0.031538
  99 H :    0.032871
 100 H :    0.031638
 101 H :    0.032215
 102 H :    0.014169
 103 H :    0.025155
 104 H :    0.004846
 105 H :    0.005866

  Mayer bond orders larger than 0.100000
B(  0-C ,  1-S ) :   1.1807 B(  0-C ,  4-C ) :   1.5406 B(  0-C , 68-H ) :   0.9703
B(  1-S ,  2-C ) :   1.1354 B(  2-C ,  3-C ) :   1.5063 B(  2-C , 13-C ) :   1.1068
B(  3-C ,  4-C ) :   1.3409 B(  3-C , 10-C ) :   0.9798 B(  4-C ,  5-C ) :   0.9806
B(  5-C ,  6-C ) :   1.0305 B(  5-C ,  8-C ) :   1.0892 B(  5-C , 69-H ) :   0.8672
B(  6-C ,  7-N ) :   3.1237 B(  8-C ,  9-C ) :   1.0538 B(  8-C , 70-H ) :   0.9263
B(  8-C , 71-H ) :   0.9392 B(  9-C , 10-C ) :   1.0533 B(  9-C , 72-H ) :   0.9227
B(  9-C , 73-H ) :   0.9477 B( 10-C , 11-O ) :   1.0308 B( 10-C , 74-H ) :   0.9118
B( 11-O , 12-C ) :   0.9816 B( 12-C , 75-H ) :   0.9758 B( 12-C , 76-H ) :   0.9648
B( 12-C , 77-H ) :   0.9660 B( 13-C , 14-C ) :   1.5431 B( 13-C , 17-C ) :   1.0260
B( 14-C , 15-C ) :   1.1548 B( 14-C , 78-H ) :   0.9974 B( 15-C , 16-C ) :   1.0969
B( 15-C , 20-C ) :   1.3797 B( 16-C , 17-C ) :   1.7001 B( 16-C , 18-C ) :   1.0785
B( 17-C , 79-H ) :   1.0051 B( 18-C , 19-N ) :   2.9799 B( 20-C , 21-C ) :   1.1239
B( 20-C , 24-C ) :   1.1101 B( 21-C , 22-C ) :   1.5431 B( 21-C , 80-H ) :   0.9938
B( 22-C , 23-C ) :   1.0409 B( 22-C , 27-C ) :   1.0290 B( 23-C , 24-C ) :   1.6455
B( 23-C , 81-H ) :   1.0277 B( 24-C , 25-C ) :   1.0890 B( 25-C , 26-N ) :   2.9516
B( 27-C , 28-N ) :   1.1963 B( 27-C , 34-C ) :   1.3878 B( 28-N , 29-C ) :   0.9443
B( 28-N , 31-C ) :   1.0455 B( 29-C , 30-C ) :   1.1150 B( 29-C , 82-H ) :   0.9223
B( 29-C , 83-H ) :   0.9514 B( 30-C , 84-H ) :   0.9623 B( 30-C , 85-H ) :   0.9667
B( 30-C , 86-H ) :   0.9662 B( 31-C , 32-O ) :   2.0337 B( 31-C , 33-C ) :   0.9953
B( 33-C , 34-C ) :   1.2433 B( 33-C , 40-C ) :   1.3213 B( 34-C , 35-C ) :   0.9662
B( 35-C , 36-O ) :   2.1095 B( 35-C , 37-N ) :   1.0368 B( 37-N , 38-C ) :   0.9424
B( 37-N , 40-C ) :   1.1782 B( 38-C , 39-C ) :   1.1200 B( 38-C , 87-H ) :   0.9276
B( 38-C , 88-H ) :   0.9507 B( 39-C , 89-H ) :   0.9640 B( 39-C , 90-H ) :   0.9681
B( 39-C , 91-H ) :   0.9687 B( 40-C , 41-C ) :   1.1329 B( 41-C , 42-C ) :   1.6317
B( 41-C , 92-H ) :   0.9713 B( 42-C , 43-C ) :   1.1003 B( 42-C , 93-H ) :   0.9341
B( 43-C , 44-O ) :   1.1375 B( 43-C , 47-N ) :   1.7279 B( 44-O , 45-C ) :   1.1191
B( 45-C , 46-C ) :   1.2485 B( 45-C , 51-C ) :   1.3057 B( 46-C , 47-N ) :   1.3042
B( 46-C , 48-C ) :   1.2713 B( 48-C , 49-C ) :   1.2979 B( 48-C , 51-C ) :   0.1476
B( 48-C , 94-H ) :   1.0512 B( 49-C , 50-C ) :   1.2433 B( 49-C , 54-N ) :   1.2668
B( 50-C , 51-C ) :   1.3229 B( 50-C , 52-O ) :   1.0942 B( 51-C , 95-H ) :   1.0470
B( 52-O , 53-C ) :   1.1905 B( 53-C , 54-N ) :   1.7395 B( 53-C , 55-C ) :   1.0576
B( 55-C , 56-S ) :   1.1478 B( 55-C , 57-C ) :   0.1038 B( 55-C , 59-C ) :   1.5546
B( 56-S , 57-C ) :   1.1693 B( 57-C , 58-C ) :   1.5604 B( 57-C , 96-H ) :   0.9676
B( 58-C , 59-C ) :   1.3266 B( 58-C , 65-C ) :   0.9492 B( 59-C , 60-C ) :   1.0258
B( 60-C , 61-C ) :   1.0316 B( 60-C , 63-C ) :   1.0778 B( 60-C , 97-H ) :   0.8145
B( 61-C , 62-N ) :   3.1136 B( 63-C , 64-C ) :   1.0479 B( 63-C , 98-H ) :   0.9349
B( 63-C , 99-H ) :   0.9364 B( 64-C , 65-C ) :   1.0589 B( 64-C ,100-H ) :   0.9236
B( 64-C ,101-H ) :   0.9431 B( 65-C , 66-O ) :   1.0231 B( 65-C ,102-H ) :   0.9213
B( 66-O , 67-C ) :   0.9940 B( 67-C ,103-H ) :   0.9799 B( 67-C ,104-H ) :   0.9619
B( 67-C ,105-H ) :   0.9641

-----------------------------------------------------------------------------
         ABSORPTION SPECTRUM VIA TRANSITION ELECTRIC DIPOLE MOMENTS
-----------------------------------------------------------------------------
State   Energy  Wavelength   fosc         T2         TX        TY        TZ
        (cm-1)    (nm)                  (au**2)     (au)      (au)      (au)
-----------------------------------------------------------------------------
   0    9058.3   1104.0   0.423860069  15.40459  -1.51520  -3.59863  -0.39828
   1   15646.7    639.1   0.137189981   2.88652  -1.11264  -1.16734  -0.53467
   2   18844.8    530.7   0.594508494  10.38586   0.18205  -3.19464   0.38337
   3   20684.8    483.4   0.000106782   0.00170   0.03833  -0.01329  -0.00731
   4   23170.1    431.6   0.284591368   4.04362  -0.72429  -1.75185  -0.67086
   5   24037.4    416.0   0.003385810   0.04637   0.06192   0.16629   0.12200
   6   25266.0    395.8   0.297527029   3.87672   1.39640   1.29255   0.50607
   7   25520.6    391.8   0.055922081   0.72139  -0.67525  -0.43033  -0.28327
   8   25982.2    384.9   0.200441589   2.53973   0.81400   1.24449   0.57304
   9   26850.2    372.4   0.033766215   0.41401  -0.10149   0.62633  -0.10686
  10   29305.5    341.2   0.012135226   0.13632  -0.01528  -0.36875  -0.01074
  11   29344.4    340.8   0.571428578   6.41080  -0.81144  -2.25127  -0.82713
  12   30218.1    330.9   0.000224320   0.00244   0.00217   0.03593   0.03389
  13   31045.6    322.1   0.115187093   1.22146  -0.62735  -0.58526  -0.69669
  14   31421.4    318.3   0.001261615   0.01322  -0.00639  -0.07993  -0.08240
  15   31995.9    312.5   0.109382028   1.12545  -0.43211  -0.90393  -0.34878
  16   33057.1    302.5   0.069248180   0.68963  -0.01149  -0.82780  -0.06514
  17   33696.9    296.8   0.052536537   0.51327  -0.08157  -0.70152  -0.12035
  18   34218.0    292.2   0.149160117   1.43507  -0.50646  -1.08538  -0.02257
  19   34299.8    291.5   0.133259780   1.27904  -0.98584   0.21521  -0.51073
  20   34990.3    285.8   0.223751166   2.10520   0.94788   0.93869   0.57059
  21   35588.4    281.0   0.002305070   0.02132  -0.11775   0.07246  -0.04699
  22   36175.6    276.4   0.132739395   1.20798   0.36482   0.99414   0.29424
  23   36254.7    275.8   0.024325016   0.22088  -0.12395  -0.45333  -0.00310
  24   36602.5    273.2   0.042857078   0.38547  -0.06629  -0.57725  -0.21876
  25   36896.5    271.0   0.000938459   0.00837   0.05945  -0.06458   0.02584
  26   37341.5    267.8   0.456729848   4.02665  -0.41335  -1.91136  -0.45000
  27   37551.5    266.3   0.001012855   0.00888  -0.05422  -0.07605  -0.01252
  28   38584.8    259.2   0.002149272   0.01834  -0.08685  -0.07961   0.06676

FINAL SINGLE POINT ENERGY     -3686.218889566103

DIPOLE MOMENT
-------------
                                X             Y             Z
Electronic contribution:      2.08952      -2.76564       1.68182
Nuclear contribution   :     -1.66659       4.18413      -0.98502
                        -----------------------------------------
Total Dipole Moment    :      0.42292       1.41849       0.69679
                        -----------------------------------------
Magnitude (a.u.)       :      1.63601
Magnitude (Debye)      :      4.15839

Rotational constants in cm-1:     0.004214     0.000198     0.000193
Rotational constants in MHz :   126.347416     5.936515     5.779561

                             ****ORCA TERMINATED NORMALLY****
TOTAL RUN TIME: 0 days 0 hours 9 minutes 55 seconds 252 msec
