                         Program Version 4.2.0 -  RELEASE  -
|  1> # ORCA input file
|  2> # SCF done       -196.328407089638          0.000918249309
|  3> ! CAM-B3LYP def2-SVP def2/J RIJCOSX Grid4 TightSCF
|  4> %maxcore 5000
|  5> %tddft
|  6>     Mode sTDDFT
|  7>     Ethresh 5.0
|  8>     maxcore 5000
|  9> end
| 10>
| 11> %pal
| 12>   nprocs 6
| 13>   end
| 14> * xyz 0 1
| 15>    C        6.27561         4.58672         2.55196
| 16>    N        5.77995         5.68202         3.18821
| 17>    C        6.49377         6.50617         4.13091
| 18>    C        7.52825         7.38839         3.43688
| 19>    C        4.46366         5.97081         2.76604
| 20>    O        3.81176         6.90209         3.20207
| 21>    C        4.17251         4.94108         1.79999
| 22>    C        5.32667         4.09990         1.69806
| 23>    C        5.03841         3.06297         0.72542
| 24>    O        5.69247         2.13608         0.30372
| 25>    N        3.72781         3.35281         0.29742
| 26>    C        3.04339         2.50136        -0.64616
| 27>    C        2.07056         1.55221         0.04844
| 28>    C        3.20479         4.45820         0.92930
| 29>    C        1.90375         4.95987         0.66050
| 30>    C        1.38889         6.03420         1.30985
| 31>    C        0.09763         6.56299         1.05731
| 32>    S       -0.43767         7.94913         1.98451
| 33>    C       -0.90305         6.19977         0.17450
| 34>    C       -1.12842         5.17131        -0.85055
| 35>    O       -0.41772         4.27280        -1.24079
| 36>    N       -2.39921         5.42665        -1.34474
| 37>    C       -3.02900         4.61138        -2.36118
| 38>    C       -3.80853         3.45764        -1.73971
| 39>    C       -3.02586         6.51030        -0.74591
| 40>    O       -4.13474         6.89885        -1.03919
| 41>    C       -2.06050         7.01361         0.23836
| 42>    C       -1.98908         8.02705         1.17755
| 43>    C       -2.91185         9.03449         1.55575
| 44>    C       -4.12139         9.21155         0.97074
| 45>    C       -5.05494        10.20704         1.34755
| 46>    S       -4.78278        11.29333         2.67315
| 47>    C       -6.31770        12.07556         2.41944
| 48>    C       -7.00895        11.49367         1.35979
| 49>    C       -6.28873        10.45180         0.75267
| 50>    C       -6.79497         9.67571        -0.42367
| 51>    C       -7.97173        10.37800        -1.09164
| 52>    S       -7.40634        11.75420        -2.16045
| 53>    C       -8.99436        10.86274        -0.05275
| 54>    O       -9.54035         9.77049         0.64500
| 55>    C       -8.37452        11.89690         0.89699
| 56>    C       -6.62152        13.15057         3.29808
| 57>    C       -7.67215        13.99550         3.22976
| 58>    C       -7.95644        15.01568         4.20152
| 59>    C       -7.02104        15.82030         4.88820
| 60>    C       -5.60223        15.93518         4.50242
| 61>    O       -5.03443        15.44735         3.57000
| 62>    S       -4.77193        17.05312         5.63570
| 63>    C       -6.27561        17.40251         6.54710
| 64>    O       -6.28330        18.11156         7.51049
| 65>    C       -7.40187        16.68776         5.91808
| 66>    C       -8.74140        16.86458         6.33160
| 67>    C       -9.67724        16.16510         5.54989
| 68>    C       -9.29299        15.28994         4.53705
| 69>    C      -10.52196        14.74662         3.92599
| 70>    O      -10.65925        13.94001         3.05453
| 71>    O      -11.58356        15.35260         4.54619
| 72>    C      -11.15805        16.22395         5.52545
| 73>    O      -11.93009        16.87694         6.15759
| 74>    C       -9.09169        17.72497         7.43199
| 75>    C      -10.09321        17.50066         8.29858
| 76>    C      -10.37127        18.39372         9.39424
| 77>    N       -9.58945        19.55880         9.49433
| 78>    C       -9.88864        20.33044        10.41990
| 79>    C       -9.31424        21.59998        10.87381
| 80>    C       -9.68708        21.73023        12.37438
| 81>    N      -11.02955        21.28077        12.57590
| 82>    S      -11.34597        19.78010        11.48483
| 83>    C      -11.27470        18.24622        10.37691
| 84>    H        7.26689         4.22812         2.75912
| 85>    H        6.97700         5.86586         4.87521
| 86>    H        5.74320         7.12868         4.62568
| 87>    H        8.27110         6.78073         2.92456
| 88>    H        8.03258         8.01195         4.16961
| 89>    H        7.04188         8.03136         2.70737
| 90>    H        3.82351         1.92507        -1.15141
| 91>    H        2.51764         3.11377        -1.38290
| 92>    H        2.60008         0.93697         0.77221
| 93>    H        1.60559         0.90371        -0.68840
| 94>    H        1.28998         2.10729         0.56315
| 95>    H        1.31613         4.46029        -0.09499
| 96>    H        1.97243         6.53871         2.06923
| 97>    H       -2.23738         4.22965        -3.01023
| 98>    H       -3.69816         5.25968        -2.93169
| 99>    H       -3.14212         2.82300        -1.16003
|100>    H       -4.26743         2.86028        -2.52227
|101>    H       -4.59009         3.84023        -1.08727
|102>    H       -2.60081         9.68868         2.36029
|103>    H       -4.41736         8.55597         0.16423
|104>    H       -7.10983         8.67718        -0.10052
|105>    H       -5.99604         9.52895        -1.15371
|106>    H       -8.46755         9.69447        -1.78471
|107>    H       -6.56553        12.28932        -1.27691
|108>    H       -9.84380        11.31909        -0.57131
|109>    H       -8.87088         9.41706         1.24209
|110>    H       -9.05048        12.00942         1.74848
|111>    H       -8.32219        12.86195         0.38580
|112>    H       -5.91141        13.26539         4.10652
|113>    H       -8.43282        13.87136         2.47792
|114>    H       -8.45229        18.57894         7.60734
|115>    H      -10.71919        16.62356         8.23912
|116>    H       -9.77107        22.41646        10.30540
|117>    H       -8.23744        21.62546        10.71492
|118>    H       -9.53887        22.75519        12.72012
|119>    H       -9.02587        21.07284        12.95309
|120>    H      -11.71130        21.99472        12.35327
|121>    H      -10.66081        19.09320        12.40905
|122>    H      -11.98261        17.44455        10.45209
|123> *
|124>
|125>                          ****END OF INPUT****

CARTESIAN COORDINATES (ANGSTROEM)
---------------------------------
  C      6.275610    4.586720    2.551960
  N      5.779950    5.682020    3.188210
  C      6.493770    6.506170    4.130910
  C      7.528250    7.388390    3.436880
  C      4.463660    5.970810    2.766040
  O      3.811760    6.902090    3.202070
  C      4.172510    4.941080    1.799990
  C      5.326670    4.099900    1.698060
  C      5.038410    3.062970    0.725420
  O      5.692470    2.136080    0.303720
  N      3.727810    3.352810    0.297420
  C      3.043390    2.501360   -0.646160
  C      2.070560    1.552210    0.048440
  C      3.204790    4.458200    0.929300
  C      1.903750    4.959870    0.660500
  C      1.388890    6.034200    1.309850
  C      0.097630    6.562990    1.057310
  S     -0.437670    7.949130    1.984510
  C     -0.903050    6.199770    0.174500
  C     -1.128420    5.171310   -0.850550
  O     -0.417720    4.272800   -1.240790
  N     -2.399210    5.426650   -1.344740
  C     -3.029000    4.611380   -2.361180
  C     -3.808530    3.457640   -1.739710
  C     -3.025860    6.510300   -0.745910
  O     -4.134740    6.898850   -1.039190
  C     -2.060500    7.013610    0.238360
  C     -1.989080    8.027050    1.177550
  C     -2.911850    9.034490    1.555750
  C     -4.121390    9.211550    0.970740
  C     -5.054940   10.207040    1.347550
  S     -4.782780   11.293330    2.673150
  C     -6.317700   12.075560    2.419440
  C     -7.008950   11.493670    1.359790
  C     -6.288730   10.451800    0.752670
  C     -6.794970    9.675710   -0.423670
  C     -7.971730   10.378000   -1.091640
  S     -7.406340   11.754200   -2.160450
  C     -8.994360   10.862740   -0.052750
  O     -9.540350    9.770490    0.645000
  C     -8.374520   11.896900    0.896990
  C     -6.621520   13.150570    3.298080
  C     -7.672150   13.995500    3.229760
  C     -7.956440   15.015680    4.201520
  C     -7.021040   15.820300    4.888200
  C     -5.602230   15.935180    4.502420
  O     -5.034430   15.447350    3.570000
  S     -4.771930   17.053120    5.635700
  C     -6.275610   17.402510    6.547100
  O     -6.283300   18.111560    7.510490
  C     -7.401870   16.687760    5.918080
  C     -8.741400   16.864580    6.331600
  C     -9.677240   16.165100    5.549890
  C     -9.292990   15.289940    4.537050
  C    -10.521960   14.746620    3.925990
  O    -10.659250   13.940010    3.054530
  O    -11.583560   15.352600    4.546190
  C    -11.158050   16.223950    5.525450
  O    -11.930090   16.876940    6.157590
  C     -9.091690   17.724970    7.431990
  C    -10.093210   17.500660    8.298580
  C    -10.371270   18.393720    9.394240
  N     -9.589450   19.558800    9.494330
  C     -9.888640   20.330440   10.419900
  C     -9.314240   21.599980   10.873810
  C     -9.687080   21.730230   12.374380
  N    -11.029550   21.280770   12.575900
  S    -11.345970   19.780100   11.484830
  C    -11.274700   18.246220   10.376910
  H      7.266890    4.228120    2.759120
  H      6.977000    5.865860    4.875210
  H      5.743200    7.128680    4.625680
  H      8.271100    6.780730    2.924560
  H      8.032580    8.011950    4.169610
  H      7.041880    8.031360    2.707370
  H      3.823510    1.925070   -1.151410
  H      2.517640    3.113770   -1.382900
  H      2.600080    0.936970    0.772210
  H      1.605590    0.903710   -0.688400
  H      1.289980    2.107290    0.563150
  H      1.316130    4.460290   -0.094990
  H      1.972430    6.538710    2.069230
  H     -2.237380    4.229650   -3.010230
  H     -3.698160    5.259680   -2.931690
  H     -3.142120    2.823000   -1.160030
  H     -4.267430    2.860280   -2.522270
  H     -4.590090    3.840230   -1.087270
  H     -2.600810    9.688680    2.360290
  H     -4.417360    8.555970    0.164230
  H     -7.109830    8.677180   -0.100520
  H     -5.996040    9.528950   -1.153710
  H     -8.467550    9.694470   -1.784710
  H     -6.565530   12.289320   -1.276910
  H     -9.843800   11.319090   -0.571310
  H     -8.870880    9.417060    1.242090
  H     -9.050480   12.009420    1.748480
  H     -8.322190   12.861950    0.385800
  H     -5.911410   13.265390    4.106520
  H     -8.432820   13.871360    2.477920
  H     -8.452290   18.578940    7.607340
  H    -10.719190   16.623560    8.239120
  H     -9.771070   22.416460   10.305400
  H     -8.237440   21.625460   10.714920
  H     -9.538870   22.755190   12.720120
  H     -9.025870   21.072840   12.953090
  H    -11.711300   21.994720   12.353270
  H    -10.660810   19.093200   12.409050
  H    -11.982610   17.444550   10.452090

 Total Charge           Charge          ....    0
 Multiplicity           Mult            ....    1
 Number of Electrons    NEL             ....  528
 Basis Dimension        Dim             .... 1181

ORBITAL ENERGIES
----------------

  NO   OCC          E(Eh)            E(eV)
   0   2.0000     -89.025091     -2422.4959
   1   2.0000     -88.975568     -2421.1483
   2   2.0000     -88.962515     -2420.7931
   3   2.0000     -88.952076     -2420.5091
   4   2.0000     -88.911499     -2419.4049
   5   2.0000     -19.294522      -525.0306
   6   2.0000     -19.244168      -523.6604
   7   2.0000     -19.243639      -523.6460
   8   2.0000     -19.243556      -523.6438
   9   2.0000     -19.240738      -523.5671
  10   2.0000     -19.219350      -522.9851
  11   2.0000     -19.218447      -522.9605
  12   2.0000     -19.210458      -522.7431
  13   2.0000     -19.186854      -522.1009
  14   2.0000     -19.180304      -521.9226
  15   2.0000     -14.459037      -393.4504
  16   2.0000     -14.449642      -393.1948
  17   2.0000     -14.444504      -393.0549
  18   2.0000     -14.419364      -392.3708
  19   2.0000     -14.350173      -390.4881
  20   2.0000     -10.436256      -283.9850
  21   2.0000     -10.435808      -283.9728
  22   2.0000     -10.408188      -283.2212
  23   2.0000     -10.406751      -283.1821
  24   2.0000     -10.400552      -283.0134
  25   2.0000     -10.399833      -282.9939
  26   2.0000     -10.368360      -282.1374
  27   2.0000     -10.366610      -282.0898
  28   2.0000     -10.339549      -281.3534
  29   2.0000     -10.335759      -281.2503
  30   2.0000     -10.335220      -281.2356
  31   2.0000     -10.334420      -281.2139
  32   2.0000     -10.333994      -281.2023
  33   2.0000     -10.330293      -281.1016
  34   2.0000     -10.330148      -281.0976
  35   2.0000     -10.329035      -281.0673
  36   2.0000     -10.328773      -281.0602
  37   2.0000     -10.326656      -281.0026
  38   2.0000     -10.324915      -280.9552
  39   2.0000     -10.317506      -280.7536
  40   2.0000     -10.311350      -280.5861
  41   2.0000     -10.309267      -280.5294
  42   2.0000     -10.308427      -280.5066
  43   2.0000     -10.306430      -280.4522
  44   2.0000     -10.304492      -280.3995
  45   2.0000     -10.303400      -280.3698
  46   2.0000     -10.298236      -280.2293
  47   2.0000     -10.297321      -280.2044
  48   2.0000     -10.297286      -280.2034
  49   2.0000     -10.294875      -280.1378
  50   2.0000     -10.294333      -280.1230
  51   2.0000     -10.294213      -280.1198
  52   2.0000     -10.292587      -280.0755
  53   2.0000     -10.292023      -280.0602
  54   2.0000     -10.290777      -280.0263
  55   2.0000     -10.287790      -279.9450
  56   2.0000     -10.287515      -279.9375
  57   2.0000     -10.286765      -279.9171
  58   2.0000     -10.284769      -279.8628
  59   2.0000     -10.281183      -279.7652
  60   2.0000     -10.278439      -279.6905
  61   2.0000     -10.276720      -279.6438
  62   2.0000     -10.272519      -279.5294
  63   2.0000     -10.263252      -279.2773
  64   2.0000     -10.262534      -279.2577
  65   2.0000     -10.257812      -279.1293
  66   2.0000     -10.254723      -279.0452
  67   2.0000     -10.254198      -279.0309
  68   2.0000     -10.253345      -279.0077
  69   2.0000      -8.104577      -220.5367
  70   2.0000      -8.071124      -219.6265
  71   2.0000      -8.058152      -219.2735
  72   2.0000      -8.051512      -219.0928
  73   2.0000      -8.006995      -217.8814
  74   2.0000      -6.074750      -165.3024
  75   2.0000      -6.071253      -165.2072
  76   2.0000      -6.067818      -165.1137
  77   2.0000      -6.040400      -164.3676
  78   2.0000      -6.036141      -164.2517
  79   2.0000      -6.033270      -164.1736
  80   2.0000      -6.027174      -164.0077
  81   2.0000      -6.023372      -163.9043
  82   2.0000      -6.020443      -163.8246
  83   2.0000      -6.020319      -163.8212
  84   2.0000      -6.017115      -163.7340
  85   2.0000      -6.012569      -163.6103
  86   2.0000      -5.977338      -162.6516
  87   2.0000      -5.973582      -162.5494
  88   2.0000      -5.966680      -162.3616
  89   2.0000      -1.244339       -33.8602
  90   2.0000      -1.169487       -31.8234
  91   2.0000      -1.169295       -31.8181
  92   2.0000      -1.165318       -31.7099
  93   2.0000      -1.164294       -31.6820
  94   2.0000      -1.140505       -31.0347
  95   2.0000      -1.131136       -30.7798
  96   2.0000      -1.126579       -30.6558
  97   2.0000      -1.119243       -30.4561
  98   2.0000      -1.104431       -30.0531
  99   2.0000      -1.063601       -28.9421
 100   2.0000      -1.057231       -28.7687
 101   2.0000      -1.054879       -28.7047
 102   2.0000      -1.048266       -28.5248
 103   2.0000      -1.017248       -27.6807
 104   2.0000      -1.004008       -27.3205
 105   2.0000      -0.999072       -27.1861
 106   2.0000      -0.977691       -26.6043
 107   2.0000      -0.954412       -25.9709
 108   2.0000      -0.938739       -25.5444
 109   2.0000      -0.927388       -25.2355
 110   2.0000      -0.923193       -25.1214
 111   2.0000      -0.919959       -25.0334
 112   2.0000      -0.910482       -24.7755
 113   2.0000      -0.903638       -24.5892
 114   2.0000      -0.894121       -24.3303
 115   2.0000      -0.886817       -24.1315
 116   2.0000      -0.876447       -23.8493
 117   2.0000      -0.873983       -23.7823
 118   2.0000      -0.865799       -23.5596
 119   2.0000      -0.858984       -23.3741
 120   2.0000      -0.845490       -23.0070
 121   2.0000      -0.836717       -22.7682
 122   2.0000      -0.832020       -22.6404
 123   2.0000      -0.831884       -22.6367
 124   2.0000      -0.814479       -22.1631
 125   2.0000      -0.812677       -22.1141
 126   2.0000      -0.802721       -21.8431
 127   2.0000      -0.801516       -21.8104
 128   2.0000      -0.790826       -21.5195
 129   2.0000      -0.783683       -21.3251
 130   2.0000      -0.777146       -21.1472
 131   2.0000      -0.772453       -21.0195
 132   2.0000      -0.764364       -20.7994
 133   2.0000      -0.754946       -20.5431
 134   2.0000      -0.748808       -20.3761
 135   2.0000      -0.747573       -20.3425
 136   2.0000      -0.731379       -19.9018
 137   2.0000      -0.726049       -19.7568
 138   2.0000      -0.718230       -19.5440
 139   2.0000      -0.706992       -19.2382
 140   2.0000      -0.703614       -19.1463
 141   2.0000      -0.701060       -19.0768
 142   2.0000      -0.697809       -18.9884
 143   2.0000      -0.687444       -18.7063
 144   2.0000      -0.677714       -18.4415
 145   2.0000      -0.669896       -18.2288
 146   2.0000      -0.668782       -18.1985
 147   2.0000      -0.659738       -17.9524
 148   2.0000      -0.654459       -17.8087
 149   2.0000      -0.644795       -17.5458
 150   2.0000      -0.637914       -17.3585
 151   2.0000      -0.634801       -17.2738
 152   2.0000      -0.628628       -17.1058
 153   2.0000      -0.624229       -16.9861
 154   2.0000      -0.619967       -16.8702
 155   2.0000      -0.618069       -16.8185
 156   2.0000      -0.617116       -16.7926
 157   2.0000      -0.606181       -16.4950
 158   2.0000      -0.605395       -16.4736
 159   2.0000      -0.593186       -16.1414
 160   2.0000      -0.590453       -16.0670
 161   2.0000      -0.588204       -16.0059
 162   2.0000      -0.585100       -15.9214
 163   2.0000      -0.582419       -15.8484
 164   2.0000      -0.579432       -15.7671
 165   2.0000      -0.572216       -15.5708
 166   2.0000      -0.570230       -15.5167
 167   2.0000      -0.567696       -15.4478
 168   2.0000      -0.565054       -15.3759
 169   2.0000      -0.563413       -15.3312
 170   2.0000      -0.559998       -15.2383
 171   2.0000      -0.558968       -15.2103
 172   2.0000      -0.556851       -15.1527
 173   2.0000      -0.551997       -15.0206
 174   2.0000      -0.550526       -14.9806
 175   2.0000      -0.549526       -14.9534
 176   2.0000      -0.544152       -14.8071
 177   2.0000      -0.543276       -14.7833
 178   2.0000      -0.539528       -14.6813
 179   2.0000      -0.537723       -14.6322
 180   2.0000      -0.535306       -14.5664
 181   2.0000      -0.534275       -14.5384
 182   2.0000      -0.528078       -14.3697
 183   2.0000      -0.527368       -14.3504
 184   2.0000      -0.525662       -14.3040
 185   2.0000      -0.523550       -14.2465
 186   2.0000      -0.521670       -14.1954
 187   2.0000      -0.520326       -14.1588
 188   2.0000      -0.518018       -14.0960
 189   2.0000      -0.514743       -14.0069
 190   2.0000      -0.512371       -13.9423
 191   2.0000      -0.511127       -13.9085
 192   2.0000      -0.508297       -13.8315
 193   2.0000      -0.507872       -13.8199
 194   2.0000      -0.504773       -13.7356
 195   2.0000      -0.502819       -13.6824
 196   2.0000      -0.500716       -13.6252
 197   2.0000      -0.498884       -13.5753
 198   2.0000      -0.498148       -13.5553
 199   2.0000      -0.496010       -13.4971
 200   2.0000      -0.494410       -13.4536
 201   2.0000      -0.491829       -13.3833
 202   2.0000      -0.489696       -13.3253
 203   2.0000      -0.488345       -13.2885
 204   2.0000      -0.484976       -13.1969
 205   2.0000      -0.478085       -13.0094
 206   2.0000      -0.474247       -12.9049
 207   2.0000      -0.473402       -12.8819
 208   2.0000      -0.472992       -12.8708
 209   2.0000      -0.470314       -12.7979
 210   2.0000      -0.467901       -12.7322
 211   2.0000      -0.465377       -12.6636
 212   2.0000      -0.463519       -12.6130
 213   2.0000      -0.459614       -12.5067
 214   2.0000      -0.458513       -12.4768
 215   2.0000      -0.456274       -12.4159
 216   2.0000      -0.454507       -12.3678
 217   2.0000      -0.452931       -12.3249
 218   2.0000      -0.450433       -12.2569
 219   2.0000      -0.448765       -12.2115
 220   2.0000      -0.447499       -12.1771
 221   2.0000      -0.446311       -12.1447
 222   2.0000      -0.442701       -12.0465
 223   2.0000      -0.438094       -11.9212
 224   2.0000      -0.436271       -11.8715
 225   2.0000      -0.434576       -11.8254
 226   2.0000      -0.429742       -11.6939
 227   2.0000      -0.429337       -11.6829
 228   2.0000      -0.428700       -11.6655
 229   2.0000      -0.426921       -11.6171
 230   2.0000      -0.421215       -11.4618
 231   2.0000      -0.416718       -11.3395
 232   2.0000      -0.415269       -11.3000
 233   2.0000      -0.410135       -11.1603
 234   2.0000      -0.404273       -11.0008
 235   2.0000      -0.400534       -10.8991
 236   2.0000      -0.396041       -10.7768
 237   2.0000      -0.395370       -10.7586
 238   2.0000      -0.389820       -10.6075
 239   2.0000      -0.384113       -10.4523
 240   2.0000      -0.377273       -10.2661
 241   2.0000      -0.374821       -10.1994
 242   2.0000      -0.369277       -10.0485
 243   2.0000      -0.366810        -9.9814
 244   2.0000      -0.363416        -9.8891
 245   2.0000      -0.356341        -9.6965
 246   2.0000      -0.354954        -9.6588
 247   2.0000      -0.352362        -9.5883
 248   2.0000      -0.350508        -9.5378
 249   2.0000      -0.348504        -9.4833
 250   2.0000      -0.346033        -9.4160
 251   2.0000      -0.341340        -9.2883
 252   2.0000      -0.335279        -9.1234
 253   2.0000      -0.334237        -9.0950
 254   2.0000      -0.324097        -8.8191
 255   2.0000      -0.320279        -8.7152
 256   2.0000      -0.308075        -8.3832
 257   2.0000      -0.306507        -8.3405
 258   2.0000      -0.299293        -8.1442
 259   2.0000      -0.298948        -8.1348
 260   2.0000      -0.287957        -7.8357
 261   2.0000      -0.259552        -7.0628
 262   2.0000      -0.256234        -6.9725
 263   2.0000      -0.238482        -6.4894
 264   0.0000      -0.098204        -2.6723
 265   0.0000      -0.088908        -2.4193
 266   0.0000      -0.075510        -2.0547
 267   0.0000      -0.055931        -1.5220
 268   0.0000      -0.034818        -0.9474

MULLIKEN ATOMIC CHARGES
-----------------------
   0 C :    0.037701
   1 N :   -0.258108
   2 C :    0.112285
   3 C :   -0.003761
   4 C :    0.175398
   5 O :   -0.217971
   6 C :   -0.109073
   7 C :    0.005126
   8 C :    0.163255
   9 O :   -0.186495
  10 N :   -0.268245
  11 C :    0.098336
  12 C :    0.009072
  13 C :    0.152644
  14 C :   -0.029899
  15 C :    0.070452
  16 C :   -0.155283
  17 S :    0.182120
  18 C :    0.005003
  19 C :    0.208123
  20 O :   -0.186018
  21 N :   -0.295715
  22 C :    0.134094
  23 C :   -0.008332
  24 C :    0.202505
  25 O :   -0.187016
  26 C :    0.002013
  27 C :   -0.140613
  28 C :    0.040387
  29 C :   -0.017449
  30 C :   -0.083888
  31 S :    0.130792
  32 C :   -0.146048
  33 C :   -0.096392
  34 C :   -0.121155
  35 C :    0.153799
  36 C :   -0.170171
  37 S :   -0.047118
  38 C :    0.205190
  39 O :   -0.290864
  40 C :    0.099302
  41 C :    0.121005
  42 C :   -0.076233
  43 C :    0.045009
  44 C :    0.005755
  45 C :    0.026737
  46 O :   -0.121849
  47 S :    0.019027
  48 C :    0.033880
  49 O :   -0.122909
  50 C :    0.041329
  51 C :    0.057224
  52 C :   -0.079306
  53 C :   -0.070730
  54 C :    0.236184
  55 O :   -0.110065
  56 O :   -0.227317
  57 C :    0.221793
  58 O :   -0.093591
  59 C :   -0.051412
  60 C :    0.066852
  61 C :    0.065733
  62 N :    0.002388
  63 C :   -0.257897
  64 C :    0.141629
  65 C :    0.096850
  66 N :   -0.449396
  67 S :    0.364117
  68 C :   -0.208700
  69 H :    0.013850
  70 H :    0.017869
  71 H :    0.041953
  72 H :    0.015679
  73 H :    0.023188
  74 H :    0.030086
  75 H :    0.038735
  76 H :    0.035173
  77 H :    0.023143
  78 H :    0.021743
  79 H :    0.016296
  80 H :   -0.006487
  81 H :   -0.002805
  82 H :    0.032101
  83 H :    0.032826
  84 H :    0.026656
  85 H :    0.024555
  86 H :    0.026694
  87 H :   -0.016761
  88 H :    0.018980
  89 H :    0.031072
  90 H :    0.045088
  91 H :    0.045884
  92 H :    0.059221
  93 H :    0.005055
  94 H :    0.166361
  95 H :    0.047300
  96 H :    0.034746
  97 H :   -0.013702
  98 H :    0.022027
  99 H :    0.036288
 100 H :   -0.014679
 101 H :    0.034883
 102 H :    0.037690
 103 H :    0.006867
 104 H :    0.005686
 105 H :    0.089711
 106 H :    0.103325
 107 H :   -0.000387
Sum of atomic charges:   -0.0000000

LOEWDIN ATOMIC CHARGES
----------------------
   0 C :    0.087908
   1 N :   -0.000179
   2 C :    0.037944
   3 C :   -0.060813
   4 C :    0.076702
   5 O :   -0.208602
   6 C :   -0.130124
   7 C :   -0.126532
   8 C :    0.081420
   9 O :   -0.190382
  10 N :   -0.005587
  11 C :    0.036455
  12 C :   -0.059619
  13 C :    0.083019
  14 C :   -0.026266
  15 C :   -0.003232
  16 C :   -0.137739
  17 S :    0.473746
  18 C :   -0.089072
  19 C :    0.096786
  20 O :   -0.169605
  21 N :   -0.026289
  22 C :    0.043664
  23 C :   -0.059671
  24 C :    0.096551
  25 O :   -0.171463
  26 C :   -0.103578
  27 C :   -0.124950
  28 C :   -0.062706
  29 C :   -0.003447
  30 C :   -0.174993
  31 S :    0.449695
  32 C :   -0.168385
  33 C :   -0.054880
  34 C :   -0.058301
  35 C :   -0.041161
  36 C :   -0.137549
  37 S :    0.164161
  38 C :    0.052796
  39 O :   -0.119071
  40 C :   -0.048753
  41 C :    0.006014
  42 C :   -0.045903
  43 C :    0.028355
  44 C :   -0.058694
  45 C :   -0.047879
  46 O :   -0.112397
  47 S :    0.304024
  48 C :   -0.044313
  49 O :   -0.106189
  50 C :   -0.050959
  51 C :    0.029913
  52 C :   -0.047806
  53 C :   -0.046688
  54 C :    0.108522
  55 O :   -0.105351
  56 O :   -0.055096
  57 C :    0.108130
  58 O :   -0.092689
  59 C :   -0.038884
  60 C :    0.019153
  61 C :   -0.046121
  62 N :   -0.053482
  63 C :   -0.076434
  64 C :   -0.069207
  65 C :    0.000019
  66 N :   -0.365134
  67 S :    0.723668
  68 C :   -0.226250
  69 H :    0.032000
  70 H :    0.024124
  71 H :    0.035864
  72 H :    0.022458
  73 H :    0.030040
  74 H :    0.031443
  75 H :    0.035969
  76 H :    0.027829
  77 H :    0.028838
  78 H :    0.030753
  79 H :    0.022769
  80 H :    0.031029
  81 H :    0.035281
  82 H :    0.032470
  83 H :    0.032615
  84 H :    0.028053
  85 H :    0.031084
  86 H :    0.028019
  87 H :    0.022661
  88 H :    0.036590
  89 H :    0.038003
  90 H :    0.040848
  91 H :    0.032245
  92 H :   -0.033529
  93 H :    0.026015
  94 H :    0.070567
  95 H :    0.043062
  96 H :    0.035746
  97 H :    0.026943
  98 H :    0.034776
  99 H :    0.035760
 100 H :    0.029419
 101 H :    0.044040
 102 H :    0.044932
 103 H :    0.019199
 104 H :    0.010943
 105 H :    0.024558
 106 H :    0.005646
 107 H :    0.014715

  Mayer bond orders larger than 0.100000
B(  0-C ,  1-N ) :   1.1859 B(  0-C ,  7-C ) :   1.4622 B(  0-C , 69-H ) :   0.9894
B(  1-N ,  2-C ) :   0.9442 B(  1-N ,  4-C ) :   1.0588 B(  2-C ,  3-C ) :   1.1170
B(  2-C , 70-H ) :   0.9539 B(  2-C , 71-H ) :   0.9346 B(  3-C , 72-H ) :   0.9696
B(  3-C , 73-H ) :   0.9690 B(  3-C , 74-H ) :   0.9674 B(  4-C ,  5-O ) :   2.0137
B(  4-C ,  6-C ) :   1.0061 B(  5-O , 81-H ) :   0.1125 B(  6-C ,  7-C ) :   1.2050
B(  6-C , 13-C ) :   1.3671 B(  7-C ,  8-C ) :   0.9451 B(  8-C ,  9-O ) :   2.1769
B(  8-C , 10-N ) :   1.0219 B( 10-N , 11-C ) :   0.9431 B( 10-N , 13-C ) :   1.1625
B( 11-C , 12-C ) :   1.1237 B( 11-C , 75-H ) :   0.9279 B( 11-C , 76-H ) :   0.9480
B( 12-C , 77-H ) :   0.9644 B( 12-C , 78-H ) :   0.9676 B( 12-C , 79-H ) :   0.9669
B( 13-C , 14-C ) :   1.1569 B( 14-C , 15-C ) :   1.6186 B( 14-C , 80-H ) :   0.9408
B( 15-C , 16-C ) :   1.1360 B( 15-C , 81-H ) :   0.9358 B( 16-C , 17-S ) :   1.1276
B( 16-C , 18-C ) :   1.4823 B( 17-S , 27-C ) :   1.1277 B( 18-C , 19-C ) :   0.9066
B( 18-C , 26-C ) :   1.2702 B( 19-C , 20-O ) :   2.0698 B( 19-C , 21-N ) :   1.0942
B( 21-N , 22-C ) :   0.9202 B( 21-N , 24-C ) :   1.0896 B( 22-C , 23-C ) :   1.1251
B( 22-C , 82-H ) :   0.9406 B( 22-C , 83-H ) :   0.9411 B( 23-C , 84-H ) :   0.9692
B( 23-C , 85-H ) :   0.9706 B( 23-C , 86-H ) :   0.9689 B( 24-C , 25-O ) :   2.0674
B( 24-C , 26-C ) :   0.9127 B( 25-O , 88-H ) :   0.1092 B( 26-C , 27-C ) :   1.4776
B( 27-C , 28-C ) :   1.1495 B( 28-C , 29-C ) :   1.6302 B( 28-C , 87-H ) :   0.9601
B( 29-C , 30-C ) :   1.1771 B( 29-C , 88-H ) :   0.9412 B( 30-C , 31-S ) :   1.1177
B( 30-C , 34-C ) :   1.4536 B( 31-S , 32-C ) :   1.1275 B( 32-C , 33-C ) :   1.4615
B( 32-C , 41-C ) :   1.1736 B( 33-C , 34-C ) :   1.3261 B( 33-C , 40-C ) :   1.0390
B( 34-C , 35-C ) :   1.0476 B( 35-C , 36-C ) :   0.9943 B( 35-C , 89-H ) :   0.9032
B( 35-C , 90-H ) :   0.9076 B( 36-C , 37-S ) :   1.0427 B( 36-C , 38-C ) :   0.9550
B( 36-C , 91-H ) :   0.9184 B( 37-S , 92-H ) :   0.9500 B( 38-C , 39-O ) :   1.0549
B( 38-C , 40-C ) :   1.0230 B( 38-C , 93-H ) :   0.9182 B( 39-O , 94-H ) :   0.9805
B( 40-C , 95-H ) :   0.9035 B( 40-C , 96-H ) :   0.8936 B( 41-C , 42-C ) :   1.6820
B( 41-C , 97-H ) :   0.9359 B( 42-C , 43-C ) :   1.1236 B( 42-C , 98-H ) :   0.9373
B( 43-C , 44-C ) :   1.3327 B( 43-C , 53-C ) :   1.3213 B( 44-C , 45-C ) :   0.8487
B( 44-C , 50-C ) :   1.3210 B( 45-C , 46-O ) :   2.1874 B( 45-C , 47-S ) :   1.0265
B( 46-O , 47-S ) :   0.1061 B( 47-S , 48-C ) :   1.0295 B( 47-S , 49-O ) :   0.1045
B( 48-C , 49-O ) :   2.1622 B( 48-C , 50-C ) :   0.8514 B( 50-C , 51-C ) :   1.3586
B( 51-C , 52-C ) :   1.3168 B( 51-C , 59-C ) :   1.0835 B( 52-C , 53-C ) :   1.3616
B( 52-C , 57-C ) :   0.9034 B( 53-C , 54-C ) :   0.9186 B( 54-C , 55-O ) :   2.2062
B( 54-C , 56-O ) :   1.0686 B( 56-O , 57-C ) :   1.0448 B( 57-C , 58-O ) :   2.2634
B( 59-C , 60-C ) :   1.7138 B( 59-C , 99-H ) :   0.9356 B( 60-C , 61-C ) :   1.1191
B( 60-C ,100-H ) :   0.9658 B( 61-C , 62-N ) :   1.1365 B( 61-C , 68-C ) :   1.7123
B( 62-N , 63-C ) :   2.0110 B( 63-C , 64-C ) :   1.0267 B( 63-C , 67-S ) :   0.8326
B( 64-C , 65-C ) :   1.0042 B( 64-C ,101-H ) :   0.9092 B( 64-C ,102-H ) :   0.9281
B( 65-C , 66-N ) :   1.0866 B( 65-C ,103-H ) :   0.9471 B( 65-C ,104-H ) :   0.9537
B( 66-N , 67-S ) :   0.6648 B( 66-N ,105-H ) :   0.9565 B( 67-S , 68-C ) :   0.7513
B( 67-S ,106-H ) :   0.9002 B( 68-C ,107-H ) :   0.9456

-----------------------------------------------------------------------------
         ABSORPTION SPECTRUM VIA TRANSITION ELECTRIC DIPOLE MOMENTS
-----------------------------------------------------------------------------
State   Energy  Wavelength   fosc         T2         TX        TY        TZ
        (cm-1)    (nm)                  (au**2)     (au)      (au)      (au)
-----------------------------------------------------------------------------
   0   17361.6    576.0   0.320741403   6.08193  -1.50194   1.85619   0.61696
   1   18137.5    551.3   0.939829513  17.05873  -3.80324   1.59245  -0.24117
   2   20768.0    481.5   0.060073399   0.95228   0.46564  -0.66793  -0.53788
   3   21072.9    474.5   1.064909187  16.63661  -1.34039   3.01021   2.40387
   4   22984.6    435.1   0.015674536   0.22451  -0.26529   0.02741   0.39164
   5   23550.9    424.6   0.097311477   1.36029   0.81629  -0.81383  -0.17787
   6   23876.3    418.8   0.089527668   1.23443  -1.06753   0.25340  -0.17490
   7   25048.0    399.2   0.012034039   0.15817  -0.32411   0.03845  -0.22724
   8   25978.9    384.9   0.056328030   0.71381  -0.07951  -0.24827  -0.80365
   9   27588.2    362.5   0.057578348   0.68709   0.58780  -0.57988  -0.07292
  10   27643.5    361.7   0.025675754   0.30578  -0.19361   0.41882   0.30476
  11   27753.7    360.3   0.001613327   0.01914   0.07491   0.07480   0.08905
  12   27988.3    357.3   0.019993071   0.23517   0.11759  -0.09354   0.46108
  13   29651.0    337.3   0.000799224   0.00887  -0.08419  -0.01351   0.04003
  14   30009.6    333.2   0.155962597   1.71094  -0.41643   0.30555   1.20174
  15   30268.1    330.4   0.022543558   0.24520   0.01392   0.06885  -0.49016
  16   31176.0    320.8   0.022233161   0.23478   0.45511   0.03978  -0.16147
  17   31435.3    318.1   0.010582423   0.11083  -0.18881  -0.26379  -0.07476
  18   31679.0    315.7   0.031057214   0.32275  -0.46951   0.31714   0.04157
  19   31706.0    315.4   0.059292058   0.61564  -0.45879   0.54000   0.33698
  20   31867.3    313.8   0.037198077   0.38428  -0.28368  -0.32849  -0.44261
  21   32071.0    311.8   0.027166368   0.27887  -0.16555   0.43755   0.24497
  22   32391.3    308.7   0.026142784   0.26570  -0.42602   0.28621   0.04791
  23   32781.6    305.0   0.039853247   0.40023  -0.25619   0.49996   0.29093
  24   33029.3    302.8   0.001747458   0.01742  -0.13140  -0.00036   0.01234
  25   33095.8    302.2   0.059218749   0.58906  -0.67904   0.20585  -0.29256
  26   33281.6    300.5   0.154058864   1.52391   1.05664  -0.55817  -0.30961
  27   33620.2    297.4   0.032738292   0.32058   0.55920   0.05173  -0.07211
  28   34277.4    291.7   0.012949289   0.12437   0.05569  -0.24843  -0.24403
  29   34354.8    291.1   0.030526571   0.29253  -0.41352  -0.01961  -0.34805
  30   34718.3    288.0   0.101323534   0.96079  -0.77341   0.60052  -0.04477
  31   34928.6    286.3   0.018232465   0.17185  -0.33891   0.23541   0.03954
  32   35030.4    285.5   0.052082093   0.48946   0.56950  -0.40360  -0.04739
  33   36337.4    275.2   0.035058824   0.31763  -0.19713   0.00931   0.52790
  34   36700.3    272.5   0.004110569   0.03687  -0.01339   0.16402   0.09896
  35   37021.4    270.1   0.018520210   0.16469   0.34463   0.04070   0.21038
  36   37724.9    265.1   0.000257249   0.00224  -0.02762   0.03833  -0.00353
  37   37867.7    264.1   0.002463218   0.02141   0.07146  -0.04467  -0.11964
  38   38043.0    262.9   0.022087391   0.19114   0.37004   0.00741   0.23270
  39   38334.1    260.9   0.005356384   0.04600  -0.11676   0.15927   0.08368
  40   38423.6    260.3   0.016776401   0.14374   0.30034   0.08124   0.21664
  41   38594.1    259.1   0.005846779   0.04987   0.20910  -0.04471   0.06445
  42   38973.2    256.6   0.000458496   0.00387  -0.05166   0.00065  -0.03470
  43   39201.1    255.1   0.019712830   0.16555   0.27014   0.16213   0.25747
  44   39528.3    253.0   0.004015641   0.03344   0.16794   0.00418   0.07228
  45   39718.7    251.8   0.024388347   0.20215  -0.25114   0.32445   0.18386
  46   39925.3    250.5   0.061192041   0.50457  -0.43334  -0.10201   0.55352
  47   40052.5    249.7   0.005125589   0.04213   0.09179   0.16990   0.06956
  48   40194.1    248.8   0.030490841   0.24974   0.22934   0.37197   0.24244

FINAL SINGLE POINT ENERGY     -4903.424654861130

DIPOLE MOMENT
-------------
                                X             Y             Z
Electronic contribution:    -31.34901      46.08413      11.81722
Nuclear contribution   :     31.73443     -45.53540     -10.43255
                        -----------------------------------------
Total Dipole Moment    :      0.38543       0.54872       1.38467
                        -----------------------------------------
Magnitude (a.u.)       :      1.53850
Magnitude (Debye)      :      3.91055

Rotational constants in cm-1:     0.001382     0.000248     0.000217
Rotational constants in MHz :    41.421357     7.437898     6.502211

                             ****ORCA TERMINATED NORMALLY****
TOTAL RUN TIME: 0 days 0 hours 9 minutes 20 seconds 774 msec
