                         Program Version 4.2.0 -  RELEASE  -
|  1> # ORCA input file
|  2> # SCF done       -159.439255208189          0.000520923275
|  3> ! CAM-B3LYP def2-SVP def2/J RIJCOSX Grid4 TightSCF
|  4> %maxcore 5000
|  5> %tddft
|  6>     Mode sTDDFT
|  7>     Ethresh 5.0
|  8>     maxcore 5000
|  9> end
| 10>
| 11> %pal
| 12>   nprocs 6
| 13>   end
| 14> * xyz 0 1
| 15>    C       -0.06580         5.65919        12.32294
| 16>    N        0.51411         5.05078        11.25516
| 17>    C        1.44433         3.95132        11.31230
| 18>    C        2.83829         4.41730        11.72480
| 19>    C        0.15049         5.68138        10.03959
| 20>    O        0.54198         5.31604         8.94977
| 21>    C       -0.72912         6.74415        10.45805
| 22>    C       -0.83909         6.69746        11.88152
| 23>    C       -1.72307         7.77073        12.28201
| 24>    O       -2.12732         8.13525        13.36298
| 25>    N       -2.07750         8.40834        11.06854
| 26>    C       -3.03725         9.48501        11.09631
| 27>    C       -4.40835         9.04417        10.58933
| 28>    C       -1.49126         7.79892         9.97857
| 29>    C       -1.55694         8.11829         8.59453
| 30>    C       -2.12965         9.17774         7.97444
| 31>    C       -2.09763         9.38275         6.56734
| 32>    S       -2.80817        10.83922         5.91287
| 33>    C       -2.40633        10.38232         4.28927
| 34>    C       -1.75397         9.14656         4.28405
| 35>    C       -1.58106         8.59376         5.56189
| 36>    C       -1.31932         8.53288         3.09648
| 37>    N       -0.96941         8.03863         2.12244
| 38>    C       -2.71130        11.17625         3.15862
| 39>    C       -3.30947        12.39046         3.21664
| 40>    C       -3.62088        13.19326         2.09184
| 41>    S       -3.30859        12.68638         0.45336
| 42>    C       -3.95863        14.16184        -0.19911
| 43>    C       -4.39089        14.99867         0.83494
| 44>    C       -4.19830        14.44565         2.11055
| 45>    C       -4.97937        16.26489         0.67708
| 46>    N       -5.46719        17.30203         0.62096
| 47>    C       -3.98909        14.32938        -1.60433
| 48>    C       -4.42538        15.43578        -2.26099
| 49>    C       -4.47984        15.56410        -3.67263
| 50>    C       -4.91426        16.67919        -4.35762
| 51>    C       -4.87948        16.41796        -5.75826
| 52>    C       -4.36369        15.04365        -5.89931
| 53>    C       -4.12269        14.55187        -4.65603
| 54>    C       -4.10945        14.36200        -7.09400
| 55>    N       -3.87944        13.77883        -8.05722
| 56>    C       -5.26694        17.24710        -6.78153
| 57>    C       -5.37270        16.92822        -8.17045
| 58>    C       -5.83895        18.01669        -8.85492
| 59>    C       -6.03779        19.09465        -7.89197
| 60>    C       -5.69313        18.65535        -6.65415
| 61>    C       -5.71012        19.42909        -5.49050
| 62>    N       -5.73419        20.09881        -4.55693
| 63>    C       -6.20798        18.15221       -10.25429
| 64>    C       -5.41166        17.72042       -11.33028
| 65>    C       -4.00221        17.27334       -11.03569
| 66>    C       -3.15562        18.44899       -10.53998
| 67>    C       -5.90631        17.81841       -12.63375
| 68>    C       -5.09564        17.31617       -13.80466
| 69>    C       -4.12048        18.37455       -14.32512
| 70>    C       -7.16684        18.39306       -12.87400
| 71>    C       -7.70109        18.50748       -14.28064
| 72>    C       -8.98860        19.30878       -14.43963
| 73>    C       -7.91381        18.85706       -11.79956
| 74>    C       -7.44444        18.74179       -10.51089
| 75>    H        0.10833         5.30522        13.32240
| 76>    H        1.47786         3.52091        10.30780
| 77>    H        1.06956         3.20024        12.01386
| 78>    H        3.21405         5.14648        11.01120
| 79>    H        3.51871         3.57086        11.74888
| 80>    H        2.81423         4.87549        12.71125
| 81>    H       -2.65654        10.34147        10.53359
| 82>    H       -3.11663         9.77549        12.14878
| 83>    H       -4.35097         8.66821         9.57028
| 84>    H       -5.09855         9.88305        10.61639
| 85>    H       -4.79848         8.25360        11.22561
| 86>    H       -1.02975         7.39041         7.99160
| 87>    H       -2.64027         9.94783         8.53104
| 88>    H       -1.09719         7.64884         5.73030
| 89>    H       -2.42910        10.75914         2.19926
| 90>    H       -3.57786        12.80625         4.18022
| 91>    H       -4.47633        14.95209         3.01826
| 92>    H       -3.62537        13.48184        -2.16977
| 93>    H       -4.76935        16.29227        -1.69815
| 94>    H       -5.25176        17.59490        -3.91255
| 95>    H       -3.73137        13.57619        -4.43562
| 96>    H       -5.17957        15.95384        -8.57238
| 97>    H       -6.36742        20.08535        -8.14740
| 98>    H       -3.52724        16.86002       -11.92137
| 99>    H       -4.00390        16.49312       -10.27633
|100>    H       -3.54241        18.83813        -9.60086
|101>    H       -3.15861        19.25806       -11.26778
|102>    H       -2.12845        18.12891       -10.38090
|103>    H       -5.76294        17.02206       -14.61379
|104>    H       -4.54115        16.42092       -13.52094
|105>    H       -4.64954        19.28476       -14.59880
|106>    H       -3.59640        18.00349       -15.20324
|107>    H       -3.38436        18.62880       -13.56775
|108>    H       -7.87732        17.49735       -14.66554
|109>    H       -6.93679        18.96598       -14.91236
|110>    H       -9.81811        18.83405       -13.92101
|111>    H       -9.24537        19.36881       -15.49534
|112>    H       -8.86682        20.32204       -14.06346
|113>    H       -8.87859        19.30898       -11.95870
|114>    H       -8.05557        19.07713        -9.68553
|115> *
|116>
|117>                          ****END OF INPUT****

CARTESIAN COORDINATES (ANGSTROEM)
---------------------------------
  C     -0.065800    5.659190   12.322940
  N      0.514110    5.050780   11.255160
  C      1.444330    3.951320   11.312300
  C      2.838290    4.417300   11.724800
  C      0.150490    5.681380   10.039590
  O      0.541980    5.316040    8.949770
  C     -0.729120    6.744150   10.458050
  C     -0.839090    6.697460   11.881520
  C     -1.723070    7.770730   12.282010
  O     -2.127320    8.135250   13.362980
  N     -2.077500    8.408340   11.068540
  C     -3.037250    9.485010   11.096310
  C     -4.408350    9.044170   10.589330
  C     -1.491260    7.798920    9.978570
  C     -1.556940    8.118290    8.594530
  C     -2.129650    9.177740    7.974440
  C     -2.097630    9.382750    6.567340
  S     -2.808170   10.839220    5.912870
  C     -2.406330   10.382320    4.289270
  C     -1.753970    9.146560    4.284050
  C     -1.581060    8.593760    5.561890
  C     -1.319320    8.532880    3.096480
  N     -0.969410    8.038630    2.122440
  C     -2.711300   11.176250    3.158620
  C     -3.309470   12.390460    3.216640
  C     -3.620880   13.193260    2.091840
  S     -3.308590   12.686380    0.453360
  C     -3.958630   14.161840   -0.199110
  C     -4.390890   14.998670    0.834940
  C     -4.198300   14.445650    2.110550
  C     -4.979370   16.264890    0.677080
  N     -5.467190   17.302030    0.620960
  C     -3.989090   14.329380   -1.604330
  C     -4.425380   15.435780   -2.260990
  C     -4.479840   15.564100   -3.672630
  C     -4.914260   16.679190   -4.357620
  C     -4.879480   16.417960   -5.758260
  C     -4.363690   15.043650   -5.899310
  C     -4.122690   14.551870   -4.656030
  C     -4.109450   14.362000   -7.094000
  N     -3.879440   13.778830   -8.057220
  C     -5.266940   17.247100   -6.781530
  C     -5.372700   16.928220   -8.170450
  C     -5.838950   18.016690   -8.854920
  C     -6.037790   19.094650   -7.891970
  C     -5.693130   18.655350   -6.654150
  C     -5.710120   19.429090   -5.490500
  N     -5.734190   20.098810   -4.556930
  C     -6.207980   18.152210  -10.254290
  C     -5.411660   17.720420  -11.330280
  C     -4.002210   17.273340  -11.035690
  C     -3.155620   18.448990  -10.539980
  C     -5.906310   17.818410  -12.633750
  C     -5.095640   17.316170  -13.804660
  C     -4.120480   18.374550  -14.325120
  C     -7.166840   18.393060  -12.874000
  C     -7.701090   18.507480  -14.280640
  C     -8.988600   19.308780  -14.439630
  C     -7.913810   18.857060  -11.799560
  C     -7.444440   18.741790  -10.510890
  H      0.108330    5.305220   13.322400
  H      1.477860    3.520910   10.307800
  H      1.069560    3.200240   12.013860
  H      3.214050    5.146480   11.011200
  H      3.518710    3.570860   11.748880
  H      2.814230    4.875490   12.711250
  H     -2.656540   10.341470   10.533590
  H     -3.116630    9.775490   12.148780
  H     -4.350970    8.668210    9.570280
  H     -5.098550    9.883050   10.616390
  H     -4.798480    8.253600   11.225610
  H     -1.029750    7.390410    7.991600
  H     -2.640270    9.947830    8.531040
  H     -1.097190    7.648840    5.730300
  H     -2.429100   10.759140    2.199260
  H     -3.577860   12.806250    4.180220
  H     -4.476330   14.952090    3.018260
  H     -3.625370   13.481840   -2.169770
  H     -4.769350   16.292270   -1.698150
  H     -5.251760   17.594900   -3.912550
  H     -3.731370   13.576190   -4.435620
  H     -5.179570   15.953840   -8.572380
  H     -6.367420   20.085350   -8.147400
  H     -3.527240   16.860020  -11.921370
  H     -4.003900   16.493120  -10.276330
  H     -3.542410   18.838130   -9.600860
  H     -3.158610   19.258060  -11.267780
  H     -2.128450   18.128910  -10.380900
  H     -5.762940   17.022060  -14.613790
  H     -4.541150   16.420920  -13.520940
  H     -4.649540   19.284760  -14.598800
  H     -3.596400   18.003490  -15.203240
  H     -3.384360   18.628800  -13.567750
  H     -7.877320   17.497350  -14.665540
  H     -6.936790   18.965980  -14.912360
  H     -9.818110   18.834050  -13.921010
  H     -9.245370   19.368810  -15.495340
  H     -8.866820   20.322040  -14.063460
  H     -8.878590   19.308980  -11.958700
  H     -8.055570   19.077130   -9.685530

 Total Charge           Charge          ....    0
 Multiplicity           Mult            ....    1
 Number of Electrons    NEL             ....  430
 Basis Dimension        Dim             .... 1048

ORBITAL ENERGIES
----------------

  NO   OCC          E(Eh)            E(eV)
   0   2.0000     -88.982576     -2421.3390
   1   2.0000     -88.982106     -2421.3262
   2   2.0000     -19.192162      -522.2453
   3   2.0000     -19.187755      -522.1254
   4   2.0000     -14.455776      -393.3617
   5   2.0000     -14.453416      -393.2975
   6   2.0000     -14.413152      -392.2018
   7   2.0000     -14.411443      -392.1553
   8   2.0000     -14.408927      -392.0868
   9   2.0000     -14.403572      -391.9411
  10   2.0000     -10.374736      -282.3109
  11   2.0000     -10.374169      -282.2955
  12   2.0000     -10.343355      -281.4570
  13   2.0000     -10.339060      -281.3401
  14   2.0000     -10.336927      -281.2821
  15   2.0000     -10.335253      -281.2365
  16   2.0000     -10.327157      -281.0162
  17   2.0000     -10.327027      -281.0127
  18   2.0000     -10.323501      -280.9167
  19   2.0000     -10.323418      -280.9145
  20   2.0000     -10.321078      -280.8508
  21   2.0000     -10.318978      -280.7937
  22   2.0000     -10.315499      -280.6990
  23   2.0000     -10.313841      -280.6539
  24   2.0000     -10.311638      -280.5939
  25   2.0000     -10.310978      -280.5760
  26   2.0000     -10.310877      -280.5732
  27   2.0000     -10.310872      -280.5731
  28   2.0000     -10.310772      -280.5704
  29   2.0000     -10.310529      -280.5638
  30   2.0000     -10.309260      -280.5292
  31   2.0000     -10.308871      -280.5186
  32   2.0000     -10.306592      -280.4566
  33   2.0000     -10.306523      -280.4547
  34   2.0000     -10.306050      -280.4419
  35   2.0000     -10.305606      -280.4298
  36   2.0000     -10.303892      -280.3832
  37   2.0000     -10.303172      -280.3636
  38   2.0000     -10.300930      -280.3026
  39   2.0000     -10.300233      -280.2836
  40   2.0000     -10.300174      -280.2820
  41   2.0000     -10.297135      -280.1993
  42   2.0000     -10.285400      -279.8800
  43   2.0000     -10.275266      -279.6042
  44   2.0000     -10.274379      -279.5801
  45   2.0000     -10.273492      -279.5559
  46   2.0000     -10.271750      -279.5085
  47   2.0000     -10.268184      -279.4115
  48   2.0000     -10.267154      -279.3835
  49   2.0000     -10.267013      -279.3796
  50   2.0000     -10.266353      -279.3617
  51   2.0000     -10.266281      -279.3597
  52   2.0000     -10.262664      -279.2613
  53   2.0000     -10.261866      -279.2396
  54   2.0000     -10.261241      -279.2226
  55   2.0000     -10.259865      -279.1851
  56   2.0000     -10.259507      -279.1754
  57   2.0000     -10.256496      -279.0934
  58   2.0000     -10.255929      -279.0780
  59   2.0000     -10.252070      -278.9730
  60   2.0000      -8.078103      -219.8164
  61   2.0000      -8.077592      -219.8025
  62   2.0000      -6.047196      -164.5526
  63   2.0000      -6.046700      -164.5391
  64   2.0000      -6.043314      -164.4469
  65   2.0000      -6.042783      -164.4325
  66   2.0000      -6.040370      -164.3668
  67   2.0000      -6.039830      -164.3521
  68   2.0000      -1.132910       -30.8280
  69   2.0000      -1.126134       -30.6437
  70   2.0000      -1.063694       -28.9446
  71   2.0000      -1.054231       -28.6871
  72   2.0000      -1.020910       -27.7804
  73   2.0000      -1.017800       -27.6958
  74   2.0000      -1.013511       -27.5790
  75   2.0000      -0.997782       -27.1510
  76   2.0000      -0.992740       -27.0138
  77   2.0000      -0.990425       -26.9508
  78   2.0000      -0.983886       -26.7729
  79   2.0000      -0.979025       -26.6406
  80   2.0000      -0.955908       -26.0116
  81   2.0000      -0.937936       -25.5225
  82   2.0000      -0.929630       -25.2965
  83   2.0000      -0.921748       -25.0820
  84   2.0000      -0.906131       -24.6571
  85   2.0000      -0.894959       -24.3531
  86   2.0000      -0.881021       -23.9738
  87   2.0000      -0.880228       -23.9522
  88   2.0000      -0.873842       -23.7785
  89   2.0000      -0.871450       -23.7134
  90   2.0000      -0.869054       -23.6482
  91   2.0000      -0.856453       -23.3053
  92   2.0000      -0.847290       -23.0559
  93   2.0000      -0.843576       -22.9549
  94   2.0000      -0.838716       -22.8226
  95   2.0000      -0.823726       -22.4147
  96   2.0000      -0.822116       -22.3709
  97   2.0000      -0.807783       -21.9809
  98   2.0000      -0.800459       -21.7816
  99   2.0000      -0.797079       -21.6896
 100   2.0000      -0.782474       -21.2922
 101   2.0000      -0.770293       -20.9607
 102   2.0000      -0.762807       -20.7570
 103   2.0000      -0.749963       -20.4075
 104   2.0000      -0.739077       -20.1113
 105   2.0000      -0.731301       -19.8997
 106   2.0000      -0.723994       -19.7009
 107   2.0000      -0.719875       -19.5888
 108   2.0000      -0.711206       -19.3529
 109   2.0000      -0.709920       -19.3179
 110   2.0000      -0.698782       -19.0148
 111   2.0000      -0.694490       -18.8980
 112   2.0000      -0.684623       -18.6295
 113   2.0000      -0.683015       -18.5858
 114   2.0000      -0.679342       -18.4858
 115   2.0000      -0.668717       -18.1967
 116   2.0000      -0.663341       -18.0504
 117   2.0000      -0.655327       -17.8324
 118   2.0000      -0.649016       -17.6606
 119   2.0000      -0.643629       -17.5140
 120   2.0000      -0.634271       -17.2594
 121   2.0000      -0.632598       -17.2139
 122   2.0000      -0.625792       -17.0287
 123   2.0000      -0.617332       -16.7985
 124   2.0000      -0.612195       -16.6587
 125   2.0000      -0.605359       -16.4727
 126   2.0000      -0.588345       -16.0097
 127   2.0000      -0.585639       -15.9361
 128   2.0000      -0.581755       -15.8304
 129   2.0000      -0.575692       -15.6654
 130   2.0000      -0.573703       -15.6112
 131   2.0000      -0.565598       -15.3907
 132   2.0000      -0.558363       -15.1938
 133   2.0000      -0.554605       -15.0916
 134   2.0000      -0.553223       -15.0540
 135   2.0000      -0.547637       -14.9020
 136   2.0000      -0.540893       -14.7184
 137   2.0000      -0.536721       -14.6049
 138   2.0000      -0.533478       -14.5167
 139   2.0000      -0.532463       -14.4891
 140   2.0000      -0.529976       -14.4214
 141   2.0000      -0.523838       -14.2543
 142   2.0000      -0.523341       -14.2408
 143   2.0000      -0.522207       -14.2100
 144   2.0000      -0.519242       -14.1293
 145   2.0000      -0.519134       -14.1264
 146   2.0000      -0.516060       -14.0427
 147   2.0000      -0.515455       -14.0262
 148   2.0000      -0.513952       -13.9853
 149   2.0000      -0.509758       -13.8712
 150   2.0000      -0.506935       -13.7944
 151   2.0000      -0.505607       -13.7583
 152   2.0000      -0.503301       -13.6955
 153   2.0000      -0.502358       -13.6699
 154   2.0000      -0.501544       -13.6477
 155   2.0000      -0.499590       -13.5945
 156   2.0000      -0.498113       -13.5543
 157   2.0000      -0.486028       -13.2255
 158   2.0000      -0.484690       -13.1891
 159   2.0000      -0.480707       -13.0807
 160   2.0000      -0.478090       -13.0095
 161   2.0000      -0.474259       -12.9053
 162   2.0000      -0.473236       -12.8774
 163   2.0000      -0.471142       -12.8204
 164   2.0000      -0.470910       -12.8141
 165   2.0000      -0.468628       -12.7520
 166   2.0000      -0.462913       -12.5965
 167   2.0000      -0.460846       -12.5402
 168   2.0000      -0.458917       -12.4878
 169   2.0000      -0.456176       -12.4132
 170   2.0000      -0.455328       -12.3901
 171   2.0000      -0.454027       -12.3547
 172   2.0000      -0.450640       -12.2625
 173   2.0000      -0.450559       -12.2603
 174   2.0000      -0.447446       -12.1756
 175   2.0000      -0.443711       -12.0740
 176   2.0000      -0.443105       -12.0575
 177   2.0000      -0.442511       -12.0413
 178   2.0000      -0.439478       -11.9588
 179   2.0000      -0.438696       -11.9375
 180   2.0000      -0.436480       -11.8772
 181   2.0000      -0.435727       -11.8567
 182   2.0000      -0.434511       -11.8236
 183   2.0000      -0.433633       -11.7997
 184   2.0000      -0.433373       -11.7927
 185   2.0000      -0.433020       -11.7831
 186   2.0000      -0.431836       -11.7509
 187   2.0000      -0.427314       -11.6278
 188   2.0000      -0.425418       -11.5762
 189   2.0000      -0.421348       -11.4655
 190   2.0000      -0.419399       -11.4124
 191   2.0000      -0.415082       -11.2950
 192   2.0000      -0.414007       -11.2657
 193   2.0000      -0.411230       -11.1901
 194   2.0000      -0.408454       -11.1146
 195   2.0000      -0.406730       -11.0677
 196   2.0000      -0.403685       -10.9848
 197   2.0000      -0.398130       -10.8337
 198   2.0000      -0.396255       -10.7826
 199   2.0000      -0.390771       -10.6334
 200   2.0000      -0.384898       -10.4736
 201   2.0000      -0.368095       -10.0164
 202   2.0000      -0.347697        -9.4613
 203   2.0000      -0.345152        -9.3921
 204   2.0000      -0.342985        -9.3331
 205   2.0000      -0.338206        -9.2031
 206   2.0000      -0.331017        -9.0074
 207   2.0000      -0.324989        -8.8434
 208   2.0000      -0.316520        -8.6129
 209   2.0000      -0.316012        -8.5991
 210   2.0000      -0.302782        -8.2391
 211   2.0000      -0.298785        -8.1303
 212   2.0000      -0.281637        -7.6637
 213   2.0000      -0.262054        -7.1309
 214   2.0000      -0.242981        -6.6118
 215   0.0000      -0.119999        -3.2653
 216   0.0000      -0.088846        -2.4176
 217   0.0000      -0.059885        -1.6296
 218   0.0000      -0.031907        -0.8682
 219   0.0000       0.001892         0.0515

MULLIKEN ATOMIC CHARGES
-----------------------
   0 C :    0.050037
   1 N :   -0.263384
   2 C :    0.109777
   3 C :   -0.002693
   4 C :    0.160383
   5 O :   -0.194122
   6 C :   -0.078299
   7 C :    0.003392
   8 C :    0.162581
   9 O :   -0.185310
  10 N :   -0.276289
  11 C :    0.096877
  12 C :   -0.003526
  13 C :    0.132094
  14 C :   -0.040882
  15 C :    0.086715
  16 C :   -0.084650
  17 S :    0.132955
  18 C :   -0.042460
  19 C :   -0.062719
  20 C :    0.024414
  21 C :   -0.189093
  22 N :    0.134263
  23 C :   -0.014870
  24 C :    0.024474
  25 C :   -0.038514
  26 S :    0.148598
  27 C :   -0.046356
  28 C :   -0.068599
  29 C :    0.015204
  30 C :   -0.175835
  31 N :    0.125196
  32 C :    0.040189
  33 C :   -0.001771
  34 C :    0.104133
  35 C :   -0.100536
  36 C :    0.112519
  37 C :   -0.098384
  38 C :   -0.008511
  39 C :   -0.176358
  40 N :    0.133429
  41 C :    0.102511
  42 C :   -0.097009
  43 C :    0.040126
  44 C :    0.001242
  45 C :   -0.095188
  46 C :   -0.183043
  47 N :    0.142567
  48 C :    0.053337
  49 C :   -0.069654
  50 C :    0.090963
  51 C :    0.012523
  52 C :   -0.125040
  53 C :    0.047101
  54 C :    0.033330
  55 C :   -0.035339
  56 C :    0.034515
  57 C :    0.024570
  58 C :   -0.041473
  59 C :   -0.021221
  60 H :    0.017615
  61 H :    0.043002
  62 H :    0.019309
  63 H :    0.032376
  64 H :    0.025798
  65 H :    0.014078
  66 H :    0.022506
  67 H :    0.046685
  68 H :    0.019715
  69 H :    0.023029
  70 H :    0.029666
  71 H :    0.009062
  72 H :   -0.021636
  73 H :    0.013184
  74 H :    0.020689
  75 H :    0.001434
  76 H :   -0.002504
  77 H :   -0.015695
  78 H :    0.011971
  79 H :    0.013518
  80 H :   -0.001310
  81 H :    0.011814
  82 H :    0.000469
  83 H :   -0.005463
  84 H :    0.006698
  85 H :    0.015093
  86 H :    0.013858
  87 H :    0.016197
  88 H :   -0.005626
  89 H :    0.011961
  90 H :    0.006811
  91 H :    0.014039
  92 H :    0.007548
  93 H :    0.028593
  94 H :    0.012586
  95 H :    0.019620
  96 H :    0.011665
  97 H :    0.016899
  98 H :   -0.033375
  99 H :   -0.030762
Sum of atomic charges:   -0.0000000

LOEWDIN ATOMIC CHARGES
----------------------
   0 C :    0.099455
   1 N :   -0.002232
   2 C :    0.038115
   3 C :   -0.060609
   4 C :    0.076697
   5 O :   -0.197308
   6 C :   -0.117528
   7 C :   -0.133217
   8 C :    0.083984
   9 O :   -0.188731
  10 N :   -0.013665
  11 C :    0.033211
  12 C :   -0.063992
  13 C :    0.074900
  14 C :   -0.021475
  15 C :   -0.026512
  16 C :   -0.162480
  17 S :    0.453540
  18 C :   -0.137442
  19 C :   -0.101311
  20 C :   -0.016368
  21 C :   -0.033174
  22 N :   -0.051297
  23 C :   -0.044514
  24 C :   -0.026633
  25 C :   -0.167014
  26 S :    0.465365
  27 C :   -0.130907
  28 C :   -0.105651
  29 C :   -0.016697
  30 C :   -0.030828
  31 N :   -0.050391
  32 C :   -0.044381
  33 C :    0.010711
  34 C :   -0.022726
  35 C :   -0.008579
  36 C :    0.026925
  37 C :   -0.077692
  38 C :    0.049737
  39 C :   -0.029641
  40 N :   -0.064577
  41 C :    0.047965
  42 C :   -0.038136
  43 C :    0.008355
  44 C :    0.055693
  45 C :   -0.084722
  46 C :   -0.033631
  47 N :   -0.061579
  48 C :   -0.039069
  49 C :   -0.001403
  50 C :   -0.029938
  51 C :   -0.047744
  52 C :   -0.020897
  53 C :   -0.030355
  54 C :   -0.048839
  55 C :   -0.010533
  56 C :   -0.033822
  57 C :   -0.054869
  58 C :   -0.036353
  59 C :   -0.015182
  60 H :    0.033891
  61 H :    0.036878
  62 H :    0.025058
  63 H :    0.032209
  64 H :    0.030931
  65 H :    0.022304
  66 H :    0.018162
  67 H :    0.038506
  68 H :    0.021090
  69 H :    0.030515
  70 H :    0.033058
  71 H :    0.046247
  72 H :    0.028124
  73 H :    0.044570
  74 H :    0.037246
  75 H :    0.032499
  76 H :    0.041176
  77 H :    0.029209
  78 H :    0.044891
  79 H :    0.038901
  80 H :    0.034419
  81 H :    0.033147
  82 H :    0.037498
  83 H :    0.024662
  84 H :    0.032461
  85 H :    0.022108
  86 H :    0.020909
  87 H :    0.026084
  88 H :    0.025208
  89 H :    0.027238
  90 H :    0.021544
  91 H :    0.024996
  92 H :    0.022199
  93 H :    0.035023
  94 H :    0.030151
  95 H :    0.023700
  96 H :    0.027394
  97 H :    0.024345
  98 H :    0.025623
  99 H :    0.025819

  Mayer bond orders larger than 0.100000
B(  0-C ,  1-N ) :   1.1996 B(  0-C ,  7-C ) :   1.4492 B(  0-C , 60-H ) :   0.9897
B(  1-N ,  2-C ) :   0.9416 B(  1-N ,  4-C ) :   1.0312 B(  2-C ,  3-C ) :   1.1192
B(  2-C , 61-H ) :   0.9348 B(  2-C , 62-H ) :   0.9538 B(  3-C , 63-H ) :   0.9674
B(  3-C , 64-H ) :   0.9688 B(  3-C , 65-H ) :   0.9690 B(  4-C ,  5-O ) :   2.1212
B(  4-C ,  6-C ) :   0.9912 B(  6-C ,  7-C ) :   1.1934 B(  6-C , 13-C ) :   1.3905
B(  7-C ,  8-C ) :   0.9548 B(  8-C ,  9-O ) :   2.1687 B(  8-C , 10-N ) :   1.0161
B( 10-N , 11-C ) :   0.9474 B( 10-N , 13-C ) :   1.1576 B( 11-C , 12-C ) :   1.1150
B( 11-C , 66-H ) :   0.9507 B( 11-C , 67-H ) :   0.9222 B( 12-C , 68-H ) :   0.9684
B( 12-C , 69-H ) :   0.9679 B( 12-C , 70-H ) :   0.9623 B( 13-C , 14-C ) :   1.1827
B( 14-C , 15-C ) :   1.6168 B( 14-C , 71-H ) :   0.9468 B( 15-C , 16-C ) :   1.1122
B( 15-C , 72-H ) :   0.9604 B( 16-C , 17-S ) :   1.1102 B( 16-C , 20-C ) :   1.4945
B( 17-S , 18-C ) :   1.1262 B( 18-C , 19-C ) :   1.4414 B( 18-C , 23-C ) :   1.2033
B( 19-C , 20-C ) :   1.2847 B( 19-C , 21-C ) :   1.1028 B( 20-C , 73-H ) :   0.9975
B( 21-C , 22-N ) :   3.0194 B( 23-C , 24-C ) :   1.6232 B( 23-C , 74-H ) :   0.9568
B( 24-C , 25-C ) :   1.1654 B( 24-C , 75-H ) :   0.9760 B( 25-C , 26-S ) :   1.1066
B( 25-C , 29-C ) :   1.4520 B( 26-S , 27-C ) :   1.1382 B( 27-C , 28-C ) :   1.4454
B( 27-C , 32-C ) :   1.1547 B( 28-C , 29-C ) :   1.2854 B( 28-C , 30-C ) :   1.1118
B( 29-C , 76-H ) :   1.0110 B( 30-C , 31-N ) :   2.9735 B( 32-C , 33-C ) :   1.6339
B( 32-C , 77-H ) :   0.9458 B( 33-C , 34-C ) :   1.1301 B( 33-C , 78-H ) :   0.9652
B( 34-C , 35-C ) :   1.5169 B( 34-C , 38-C ) :   1.0487 B( 35-C , 36-C ) :   1.1069
B( 35-C , 79-H ) :   1.0093 B( 36-C , 37-C ) :   1.1039 B( 36-C , 41-C ) :   1.4225
B( 37-C , 38-C ) :   1.6785 B( 37-C , 39-C ) :   1.0919 B( 38-C , 80-H ) :   1.0131
B( 39-C , 40-N ) :   2.9723 B( 41-C , 42-C ) :   1.1107 B( 41-C , 45-C ) :   1.0988
B( 42-C , 43-C ) :   1.6167 B( 42-C , 81-H ) :   0.9993 B( 43-C , 44-C ) :   1.0576
B( 43-C , 48-C ) :   0.9494 B( 44-C , 45-C ) :   1.6557 B( 44-C , 82-H ) :   1.0235
B( 45-C , 46-C ) :   1.0894 B( 46-C , 47-N ) :   2.9750 B( 48-C , 49-C ) :   1.3747
B( 48-C , 59-C ) :   1.3759 B( 49-C , 50-C ) :   1.0860 B( 49-C , 52-C ) :   1.4230
B( 50-C , 51-C ) :   1.1060 B( 50-C , 83-H ) :   0.9129 B( 50-C , 84-H ) :   0.9074
B( 51-C , 85-H ) :   0.9672 B( 51-C , 86-H ) :   0.9618 B( 51-C , 87-H ) :   0.9657
B( 52-C , 53-C ) :   1.0704 B( 52-C , 55-C ) :   1.4026 B( 53-C , 54-C ) :   1.1042
B( 53-C , 88-H ) :   0.9107 B( 53-C , 89-H ) :   0.9261 B( 54-C , 90-H ) :   0.9621
B( 54-C , 91-H ) :   0.9645 B( 54-C , 92-H ) :   0.9673 B( 55-C , 56-C ) :   1.0296
B( 55-C , 58-C ) :   1.3968 B( 56-C , 57-C ) :   1.1348 B( 56-C , 93-H ) :   0.9153
B( 56-C , 94-H ) :   0.9172 B( 57-C , 95-H ) :   0.9574 B( 57-C , 96-H ) :   0.9593
B( 57-C , 97-H ) :   0.9633 B( 58-C , 59-C ) :   1.3488 B( 58-C , 98-H ) :   0.9868
B( 59-C , 99-H ) :   0.9928

-----------------------------------------------------------------------------
         ABSORPTION SPECTRUM VIA TRANSITION ELECTRIC DIPOLE MOMENTS
-----------------------------------------------------------------------------
State   Energy  Wavelength   fosc         T2         TX        TY        TZ
        (cm-1)    (nm)                  (au**2)     (au)      (au)      (au)
-----------------------------------------------------------------------------
   0   14467.5    691.2   1.231925676  28.03282  -1.32229   2.83273  -4.27318
   1   17334.4    576.9   0.143660296   2.72837   0.41715  -1.00486   1.24282
   2   18947.2    527.8   0.648325204  11.26479  -1.18949   2.15220  -2.28428
   3   21300.7    469.5   0.213730866   3.30331  -0.67342   1.25268  -1.13164
   4   23093.9    433.0   0.664042704   9.46618  -0.31933   1.06823  -2.86759
   5   23577.2    424.1   0.004414709   0.06164  -0.20568   0.10229   0.09420
   6   24749.5    404.0   0.044507092   0.59202  -0.38661   0.06886  -0.66167
   7   25224.8    396.4   0.026562985   0.34668  -0.09350  -0.00027   0.58132
   8   26843.3    372.5   0.018849619   0.23118   0.14469   0.06430  -0.45399
   9   28505.3    350.8   0.004886476   0.05643   0.12370  -0.13233  -0.15369
  10   29435.2    339.7   0.024758216   0.27690  -0.16564   0.35228  -0.35406
  11   29902.7    334.4   0.000540897   0.00595   0.04540   0.02674   0.05638
  12   30103.3    332.2   0.004185279   0.04577   0.16143   0.13354  -0.04335
  13   31769.4    314.8   0.252017986   2.61155  -0.40171   0.90462  -1.27743
  14   33343.4    299.9   0.017194451   0.16977  -0.18389   0.36787  -0.02497
  15   33951.5    294.5   0.000147514   0.00143  -0.01222  -0.01591  -0.03206
  16   34154.8    292.8   0.087996054   0.84818   0.34598  -0.84353  -0.13013
  17   34389.0    290.8   0.150654742   1.44224  -0.52767   1.07547  -0.08473
  18   35681.0    280.3   0.051532658   0.47547   0.18051  -0.48948   0.45088
  19   36124.1    276.8   0.353187161   3.21872  -0.29433   0.31205   1.74204
  20   36664.4    272.7   0.005458320   0.04901   0.00826   0.10038   0.19715
  21   36941.6    270.7   0.002633146   0.02347  -0.00460   0.15296   0.00693
  22   37620.2    265.8   0.108146620   0.94638  -0.44454   0.60113   0.62242
  23   38879.5    257.2   0.032271819   0.27326   0.14507  -0.38404   0.32362
  24   39598.5    252.5   0.075499228   0.62768   0.03922   0.16847  -0.77315
  25   39894.8    250.7   0.003030456   0.02501  -0.09427   0.06985   0.10602
  26   40027.4    249.8   0.002395959   0.01971  -0.03863   0.02354   0.13289
  27   40086.2    249.5   0.001675262   0.01376   0.05251  -0.02945  -0.10067
  28   40225.0    248.6   0.025681041   0.21018   0.03730   0.00674  -0.45689

FINAL SINGLE POINT ENERGY     -3201.308224132037

DIPOLE MOMENT
-------------
                                X             Y             Z
Electronic contribution:      7.76586     -23.90089      80.77631
Nuclear contribution   :     -7.89979      23.36789     -80.63143
                        -----------------------------------------
Total Dipole Moment    :     -0.13393      -0.53300       0.14488
                        -----------------------------------------
Magnitude (a.u.)       :      0.56835
Magnitude (Debye)      :      1.44462

Rotational constants in cm-1:     0.004565     0.000206     0.000200
Rotational constants in MHz :   136.863248     6.187319     5.997160

                             ****ORCA TERMINATED NORMALLY****
TOTAL RUN TIME: 0 days 0 hours 12 minutes 56 seconds 83 msec
