                         Program Version 4.2.0 -  RELEASE  -
|  1> # ORCA input file
|  2> # SCF done       -150.359314409716          0.000764373360
|  3> ! CAM-B3LYP def2-SVP def2/J RIJCOSX Grid4 TightSCF
|  4> %maxcore 5000
|  5> %tddft
|  6>     Mode sTDDFT
|  7>     Ethresh 5.0
|  8>     maxcore 5000
|  9> end
| 10>
| 11> %pal
| 12>   nprocs 6
| 13>   end
| 14> * xyz 0 1
| 15>    C        0.56685         3.67761        -4.38784
| 16>    C        1.19038         2.72002        -3.62856
| 17>    C        2.48255         2.21986        -3.89070
| 18>    N        3.52897         1.77469        -4.05086
| 19>    C        0.64077         2.09589        -2.48971
| 20>    N        0.27503         1.54766        -1.54891
| 21>    C        1.13513         4.34421        -5.55025
| 22>    C        0.18151         5.24973        -6.07981
| 23>    C        0.43124         6.02988        -7.18260
| 24>    C        1.68712         5.92211        -7.78898
| 25>    C        2.63472         5.01678        -7.25327
| 26>    C        2.38014         4.22198        -6.14352
| 27>    S        4.12064         5.04103        -8.15403
| 28>    C        3.45828         6.25063        -9.22164
| 29>    C        2.18998         6.61856        -8.92159
| 30>   Br        4.50456         6.91533       -10.62877
| 31>    C       -1.05650         5.18321        -5.28130
| 32>    O       -2.11318         5.71082        -5.53896
| 33>    C       -0.75775         4.23714        -4.16339
| 34>    C       -1.62403         3.94274        -3.16874
| 35>    C       -2.86360         4.66211        -2.95665
| 36>    N       -2.84073         6.00739        -2.97364
| 37>    C       -3.99031         6.60619        -2.82537
| 38>    C       -5.17050         5.87536        -2.55477
| 39>    N       -5.07820         4.54632        -2.47556
| 40>    N       -3.95979         3.94960        -2.70908
| 41>    C       -6.42482         6.54945        -2.33032
| 42>    C       -7.58965         5.96450        -2.01492
| 43>    C       -7.75845         4.49671        -1.82466
| 44>    C       -8.84848         6.77850        -1.80153
| 45>    N       -8.75944         8.16793        -2.14932
| 46>    C       -8.24252         9.10969        -1.33213
| 47>    C       -7.92469        10.36889        -1.73811
| 48>    C       -7.42981        11.36917        -0.88560
| 49>    C       -7.10325        12.63286        -1.31096
| 50>    C       -6.59181        13.70784        -0.54697
| 51>    C       -6.36902        14.84718        -1.26246
| 52>    C       -6.69452        14.73218        -2.63163
| 53>    S       -7.28959        13.13294        -2.98908
| 54>    C       -6.60024        15.68331        -3.63353
| 55>    C       -6.14651        17.01503        -3.56217
| 56>    C       -6.19445        17.67370        -4.75503
| 57>    C       -6.69125        16.89651        -5.83306
| 58>    S       -7.09111        15.28940        -5.26699
| 59>    C       -6.83883        17.34045        -7.12471
| 60>    C       -7.33073        16.63038        -8.23540
| 61>    S       -7.42647        17.44320        -9.79490
| 62>    C       -8.07476        16.08088       -10.62171
| 63>    C       -8.22102        15.02770        -9.75195
| 64>    C       -7.80257        15.33997        -8.41873
| 65>    O       -7.96785        14.26940        -7.61132
| 66>    C       -8.48082        13.29023        -8.39917
| 67>    N       -8.75601        12.04238        -7.80350
| 68>    O       -9.22403        11.18307        -8.53209
| 69>    O       -8.51501        11.89693        -6.62184
| 70>    C       -8.65980        13.67704        -9.70225
| 71>    H       -0.31832         6.70607        -7.56266
| 72>    H        3.13452         3.54662        -5.77656
| 73>    H        1.63063         7.35071        -9.47483
| 74>    H       -1.43847         3.12926        -2.48222
| 75>    H       -3.98797         7.68798        -2.87107
| 76>    H       -6.37235         7.62515        -2.43749
| 77>    H       -7.12734         4.14716        -1.01003
| 78>    H       -7.42457         3.96250        -2.71182
| 79>    H       -8.79360         4.24235        -1.61237
| 80>    H       -9.12631         6.70057        -0.74329
| 81>    H       -9.65687         6.32742        -2.38696
| 82>    H       -8.78883         8.39202        -3.13415
| 83>    H       -8.12482         8.81440        -0.29785
| 84>    H       -8.05428        10.62819        -2.78112
| 85>    H       -7.29078        11.13605         0.16204
| 86>    H       -6.40469        13.60669         0.50798
| 87>    H       -5.98410        15.76068        -0.84563
| 88>    H       -5.79844        17.45188        -2.64303
| 89>    H       -5.89051        18.69556        -4.89894
| 90>    H       -6.54603        18.36304        -7.32201
| 91>    H       -8.30066        16.14071       -11.66512
| 92>    H       -9.04916        13.06998       -10.49275
| 93> *
| 94>
| 95>                          ****END OF INPUT****

CARTESIAN COORDINATES (ANGSTROEM)
---------------------------------
  C      0.566850    3.677610   -4.387840
  C      1.190380    2.720020   -3.628560
  C      2.482550    2.219860   -3.890700
  N      3.528970    1.774690   -4.050860
  C      0.640770    2.095890   -2.489710
  N      0.275030    1.547660   -1.548910
  C      1.135130    4.344210   -5.550250
  C      0.181510    5.249730   -6.079810
  C      0.431240    6.029880   -7.182600
  C      1.687120    5.922110   -7.788980
  C      2.634720    5.016780   -7.253270
  C      2.380140    4.221980   -6.143520
  S      4.120640    5.041030   -8.154030
  C      3.458280    6.250630   -9.221640
  C      2.189980    6.618560   -8.921590
  Br     4.504560    6.915330  -10.628770
  C     -1.056500    5.183210   -5.281300
  O     -2.113180    5.710820   -5.538960
  C     -0.757750    4.237140   -4.163390
  C     -1.624030    3.942740   -3.168740
  C     -2.863600    4.662110   -2.956650
  N     -2.840730    6.007390   -2.973640
  C     -3.990310    6.606190   -2.825370
  C     -5.170500    5.875360   -2.554770
  N     -5.078200    4.546320   -2.475560
  N     -3.959790    3.949600   -2.709080
  C     -6.424820    6.549450   -2.330320
  C     -7.589650    5.964500   -2.014920
  C     -7.758450    4.496710   -1.824660
  C     -8.848480    6.778500   -1.801530
  N     -8.759440    8.167930   -2.149320
  C     -8.242520    9.109690   -1.332130
  C     -7.924690   10.368890   -1.738110
  C     -7.429810   11.369170   -0.885600
  C     -7.103250   12.632860   -1.310960
  C     -6.591810   13.707840   -0.546970
  C     -6.369020   14.847180   -1.262460
  C     -6.694520   14.732180   -2.631630
  S     -7.289590   13.132940   -2.989080
  C     -6.600240   15.683310   -3.633530
  C     -6.146510   17.015030   -3.562170
  C     -6.194450   17.673700   -4.755030
  C     -6.691250   16.896510   -5.833060
  S     -7.091110   15.289400   -5.266990
  C     -6.838830   17.340450   -7.124710
  C     -7.330730   16.630380   -8.235400
  S     -7.426470   17.443200   -9.794900
  C     -8.074760   16.080880  -10.621710
  C     -8.221020   15.027700   -9.751950
  C     -7.802570   15.339970   -8.418730
  O     -7.967850   14.269400   -7.611320
  C     -8.480820   13.290230   -8.399170
  N     -8.756010   12.042380   -7.803500
  O     -9.224030   11.183070   -8.532090
  O     -8.515010   11.896930   -6.621840
  C     -8.659800   13.677040   -9.702250
  H     -0.318320    6.706070   -7.562660
  H      3.134520    3.546620   -5.776560
  H      1.630630    7.350710   -9.474830
  H     -1.438470    3.129260   -2.482220
  H     -3.987970    7.687980   -2.871070
  H     -6.372350    7.625150   -2.437490
  H     -7.127340    4.147160   -1.010030
  H     -7.424570    3.962500   -2.711820
  H     -8.793600    4.242350   -1.612370
  H     -9.126310    6.700570   -0.743290
  H     -9.656870    6.327420   -2.386960
  H     -8.788830    8.392020   -3.134150
  H     -8.124820    8.814400   -0.297850
  H     -8.054280   10.628190   -2.781120
  H     -7.290780   11.136050    0.162040
  H     -6.404690   13.606690    0.507980
  H     -5.984100   15.760680   -0.845630
  H     -5.798440   17.451880   -2.643030
  H     -5.890510   18.695560   -4.898940
  H     -6.546030   18.363040   -7.322010
  H     -8.300660   16.140710  -11.665120
  H     -9.049160   13.069980  -10.492750

 Total Charge           Charge          ....    0
 Multiplicity           Mult            ....    1
 Number of Electrons    NEL             ....  442
 Basis Dimension        Dim             ....  928

ORBITAL ENERGIES
----------------

  NO   OCC          E(Eh)            E(eV)
   0   2.0000    -482.889366    -13140.0877
   1   2.0000     -88.980066     -2421.2707
   2   2.0000     -88.960852     -2420.7479
   3   2.0000     -88.926523     -2419.8137
   4   2.0000     -88.922850     -2419.7138
   5   2.0000     -62.567087     -1702.5370
   6   2.0000     -56.401046     -1534.7505
   7   2.0000     -56.398312     -1534.6761
   8   2.0000     -56.398284     -1534.6753
   9   2.0000     -19.296023      -525.0715
  10   2.0000     -19.237958      -523.4915
  11   2.0000     -19.234977      -523.4103
  12   2.0000     -19.222094      -523.0598
  13   2.0000     -14.648718      -398.6119
  14   2.0000     -14.451072      -393.2337
  15   2.0000     -14.449281      -393.1849
  16   2.0000     -14.442593      -393.0029
  17   2.0000     -14.433471      -392.7547
  18   2.0000     -14.422785      -392.4639
  19   2.0000     -14.422384      -392.4530
  20   2.0000     -10.378079      -282.4019
  21   2.0000     -10.373185      -282.2687
  22   2.0000     -10.363867      -282.0152
  23   2.0000     -10.353188      -281.7246
  24   2.0000     -10.352216      -281.6981
  25   2.0000     -10.349434      -281.6224
  26   2.0000     -10.332772      -281.1690
  27   2.0000     -10.332626      -281.1650
  28   2.0000     -10.331340      -281.1300
  29   2.0000     -10.330403      -281.1046
  30   2.0000     -10.326304      -280.9930
  31   2.0000     -10.324802      -280.9522
  32   2.0000     -10.323940      -280.9287
  33   2.0000     -10.321721      -280.8683
  34   2.0000     -10.319220      -280.8003
  35   2.0000     -10.315055      -280.6869
  36   2.0000     -10.313631      -280.6482
  37   2.0000     -10.311689      -280.5953
  38   2.0000     -10.311587      -280.5926
  39   2.0000     -10.306818      -280.4628
  40   2.0000     -10.306306      -280.4488
  41   2.0000     -10.302691      -280.3505
  42   2.0000     -10.301049      -280.3058
  43   2.0000     -10.300800      -280.2990
  44   2.0000     -10.298374      -280.2330
  45   2.0000     -10.297134      -280.1993
  46   2.0000     -10.296641      -280.1859
  47   2.0000     -10.295146      -280.1452
  48   2.0000     -10.286945      -279.9220
  49   2.0000     -10.284544      -279.8567
  50   2.0000     -10.283651      -279.8324
  51   2.0000     -10.277586      -279.6673
  52   2.0000     -10.277223      -279.6574
  53   2.0000     -10.274355      -279.5794
  54   2.0000     -10.272514      -279.5293
  55   2.0000     -10.269811      -279.4558
  56   2.0000     -10.268641      -279.4239
  57   2.0000     -10.264737      -279.3177
  58   2.0000     -10.263549      -279.2854
  59   2.0000     -10.257749      -279.1275
  60   2.0000      -8.796525      -239.3656
  61   2.0000      -8.076125      -219.7625
  62   2.0000      -8.055886      -219.2118
  63   2.0000      -8.022934      -218.3151
  64   2.0000      -8.019052      -218.2095
  65   2.0000      -6.632879      -180.4898
  66   2.0000      -6.618241      -180.0915
  67   2.0000      -6.618014      -180.0853
  68   2.0000      -6.045816      -164.5150
  69   2.0000      -6.041538      -164.3986
  70   2.0000      -6.037313      -164.2836
  71   2.0000      -6.025241      -163.9551
  72   2.0000      -6.020980      -163.8392
  73   2.0000      -6.018112      -163.7611
  74   2.0000      -5.992634      -163.0679
  75   2.0000      -5.988791      -162.9633
  76   2.0000      -5.988628      -162.9589
  77   2.0000      -5.984690      -162.8517
  78   2.0000      -5.983838      -162.8285
  79   2.0000      -5.979855      -162.7201
  80   2.0000      -2.748700       -74.7959
  81   2.0000      -2.744668       -74.6862
  82   2.0000      -2.744476       -74.6810
  83   2.0000      -2.732845       -74.3645
  84   2.0000      -2.732828       -74.3640
  85   2.0000      -1.318860       -35.8880
  86   2.0000      -1.218287       -33.1513
  87   2.0000      -1.147459       -31.2239
  88   2.0000      -1.136845       -30.9351
  89   2.0000      -1.134153       -30.8619
  90   2.0000      -1.046407       -28.4742
  91   2.0000      -1.031546       -28.0698
  92   2.0000      -1.028646       -27.9909
  93   2.0000      -1.019283       -27.7361
  94   2.0000      -1.000270       -27.2187
  95   2.0000      -0.995876       -27.0992
  96   2.0000      -0.982893       -26.7459
  97   2.0000      -0.977011       -26.5858
  98   2.0000      -0.959700       -26.1148
  99   2.0000      -0.955876       -26.0107
 100   2.0000      -0.946414       -25.7532
 101   2.0000      -0.926072       -25.1997
 102   2.0000      -0.915971       -24.9248
 103   2.0000      -0.913857       -24.8673
 104   2.0000      -0.897376       -24.4188
 105   2.0000      -0.891424       -24.2569
 106   2.0000      -0.888895       -24.1881
 107   2.0000      -0.882653       -24.0182
 108   2.0000      -0.864528       -23.5250
 109   2.0000      -0.859114       -23.3777
 110   2.0000      -0.838804       -22.8250
 111   2.0000      -0.834817       -22.7165
 112   2.0000      -0.827473       -22.5167
 113   2.0000      -0.816361       -22.2143
 114   2.0000      -0.808570       -22.0023
 115   2.0000      -0.801843       -21.8193
 116   2.0000      -0.788705       -21.4618
 117   2.0000      -0.784480       -21.3468
 118   2.0000      -0.772916       -21.0321
 119   2.0000      -0.767583       -20.8870
 120   2.0000      -0.764766       -20.8104
 121   2.0000      -0.749339       -20.3906
 122   2.0000      -0.742666       -20.2090
 123   2.0000      -0.718872       -19.5615
 124   2.0000      -0.707451       -19.2507
 125   2.0000      -0.697530       -18.9807
 126   2.0000      -0.697101       -18.9691
 127   2.0000      -0.693096       -18.8601
 128   2.0000      -0.679479       -18.4896
 129   2.0000      -0.669066       -18.2062
 130   2.0000      -0.664633       -18.0856
 131   2.0000      -0.659523       -17.9465
 132   2.0000      -0.653786       -17.7904
 133   2.0000      -0.642464       -17.4823
 134   2.0000      -0.634210       -17.2577
 135   2.0000      -0.633018       -17.2253
 136   2.0000      -0.630744       -17.1634
 137   2.0000      -0.621221       -16.9043
 138   2.0000      -0.616150       -16.7663
 139   2.0000      -0.615312       -16.7435
 140   2.0000      -0.611426       -16.6377
 141   2.0000      -0.607184       -16.5223
 142   2.0000      -0.605128       -16.4664
 143   2.0000      -0.598423       -16.2839
 144   2.0000      -0.594131       -16.1671
 145   2.0000      -0.585991       -15.9456
 146   2.0000      -0.579680       -15.7739
 147   2.0000      -0.571140       -15.5415
 148   2.0000      -0.565415       -15.3857
 149   2.0000      -0.561356       -15.2753
 150   2.0000      -0.559212       -15.2169
 151   2.0000      -0.554911       -15.0999
 152   2.0000      -0.553685       -15.0665
 153   2.0000      -0.549760       -14.9597
 154   2.0000      -0.544354       -14.8126
 155   2.0000      -0.540758       -14.7148
 156   2.0000      -0.535867       -14.5817
 157   2.0000      -0.529831       -14.4174
 158   2.0000      -0.525376       -14.2962
 159   2.0000      -0.520572       -14.1655
 160   2.0000      -0.517983       -14.0950
 161   2.0000      -0.513730       -13.9793
 162   2.0000      -0.513180       -13.9643
 163   2.0000      -0.511293       -13.9130
 164   2.0000      -0.509603       -13.8670
 165   2.0000      -0.504778       -13.7357
 166   2.0000      -0.501817       -13.6551
 167   2.0000      -0.499460       -13.5910
 168   2.0000      -0.497123       -13.5274
 169   2.0000      -0.484660       -13.1883
 170   2.0000      -0.481201       -13.0941
 171   2.0000      -0.480798       -13.0832
 172   2.0000      -0.476453       -12.9650
 173   2.0000      -0.474866       -12.9218
 174   2.0000      -0.469612       -12.7788
 175   2.0000      -0.463520       -12.6130
 176   2.0000      -0.462320       -12.5804
 177   2.0000      -0.460572       -12.5328
 178   2.0000      -0.460017       -12.5177
 179   2.0000      -0.454704       -12.3731
 180   2.0000      -0.453440       -12.3387
 181   2.0000      -0.452867       -12.3231
 182   2.0000      -0.451604       -12.2888
 183   2.0000      -0.449731       -12.2378
 184   2.0000      -0.447479       -12.1765
 185   2.0000      -0.444419       -12.0933
 186   2.0000      -0.434895       -11.8341
 187   2.0000      -0.434491       -11.8231
 188   2.0000      -0.431035       -11.7290
 189   2.0000      -0.430039       -11.7020
 190   2.0000      -0.427896       -11.6437
 191   2.0000      -0.422162       -11.4876
 192   2.0000      -0.419404       -11.4126
 193   2.0000      -0.415792       -11.3143
 194   2.0000      -0.415615       -11.3095
 195   2.0000      -0.409048       -11.1308
 196   2.0000      -0.406519       -11.0619
 197   2.0000      -0.403366       -10.9761
 198   2.0000      -0.397233       -10.8093
 199   2.0000      -0.394801       -10.7431
 200   2.0000      -0.388496       -10.5715
 201   2.0000      -0.384976       -10.4757
 202   2.0000      -0.378602       -10.3023
 203   2.0000      -0.376756       -10.2520
 204   2.0000      -0.375422       -10.2158
 205   2.0000      -0.373735       -10.1698
 206   2.0000      -0.371262       -10.1026
 207   2.0000      -0.364175        -9.9097
 208   2.0000      -0.341352        -9.2887
 209   2.0000      -0.340847        -9.2749
 210   2.0000      -0.339181        -9.2296
 211   2.0000      -0.322317        -8.7707
 212   2.0000      -0.320089        -8.7101
 213   2.0000      -0.310139        -8.4393
 214   2.0000      -0.305901        -8.3240
 215   2.0000      -0.305247        -8.3062
 216   2.0000      -0.298043        -8.1102
 217   2.0000      -0.296222        -8.0606
 218   2.0000      -0.294671        -8.0184
 219   2.0000      -0.252453        -6.8696
 220   2.0000      -0.188491        -5.1291
 221   0.0000      -0.097920        -2.6645
 222   0.0000      -0.064715        -1.7610
 223   0.0000      -0.063912        -1.7391
 224   0.0000      -0.049249        -1.3401
 225   0.0000      -0.029695        -0.8080

MULLIKEN ATOMIC CHARGES
-----------------------
   0 C :    0.308143
   1 C :   -0.338100
   2 C :   -0.185223
   3 N :    0.159032
   4 C :   -0.189174
   5 N :    0.165960
   6 C :    0.018101
   7 C :   -0.016550
   8 C :   -0.066006
   9 C :    0.118752
  10 C :   -0.089462
  11 C :   -0.019665
  12 S :    0.190393
  13 C :   -0.121564
  14 C :    0.037864
  15 Br:    0.029683
  16 C :    0.151155
  17 O :   -0.130502
  18 C :   -0.061608
  19 C :    0.030396
  20 C :   -0.066044
  21 N :   -0.014164
  22 C :    0.024179
  23 C :    0.025083
  24 N :   -0.095667
  25 N :   -0.033767
  26 C :    0.009144
  27 C :   -0.234347
  28 C :    0.158315
  29 C :    0.189569
  30 N :   -0.148199
  31 C :    0.059686
  32 C :   -0.031453
  33 C :   -0.002609
  34 C :   -0.044462
  35 C :    0.043489
  36 C :    0.009589
  37 C :   -0.036848
  38 S :    0.070460
  39 C :   -0.052299
  40 C :    0.037027
  41 C :    0.017598
  42 C :   -0.025814
  43 S :    0.079771
  44 C :    0.029886
  45 C :   -0.221584
  46 S :    0.133417
  47 C :   -0.150634
  48 C :    0.132913
  49 C :    0.183652
  50 O :   -0.191976
  51 C :    0.247095
  52 N :    0.273552
  53 O :   -0.259718
  54 O :   -0.236576
  55 C :   -0.085918
  56 H :   -0.006539
  57 H :   -0.005656
  58 H :    0.000368
  59 H :    0.048893
  60 H :    0.018346
  61 H :   -0.014262
  62 H :    0.036639
  63 H :    0.043662
  64 H :   -0.002324
  65 H :    0.036228
  66 H :    0.035477
  67 H :    0.131105
  68 H :    0.003810
  69 H :    0.003201
  70 H :   -0.023381
  71 H :   -0.019964
  72 H :   -0.022284
  73 H :   -0.021074
  74 H :   -0.023880
  75 H :   -0.033534
  76 H :    0.024023
  77 H :    0.007177
Sum of atomic charges:   -0.0000000

LOEWDIN ATOMIC CHARGES
----------------------
   0 C :    0.074007
   1 C :   -0.126448
   2 C :   -0.016981
   3 N :   -0.044861
   4 C :   -0.021019
   5 N :   -0.038085
   6 C :   -0.021818
   7 C :   -0.049877
   8 C :    0.024824
   9 C :   -0.029202
  10 C :   -0.141911
  11 C :   -0.007854
  12 S :    0.435087
  13 C :   -0.268622
  14 C :   -0.069870
  15 Br:    0.141310
  16 C :    0.085988
  17 O :   -0.124849
  18 C :   -0.057209
  19 C :    0.068377
  20 C :   -0.010698
  21 N :   -0.034351
  22 C :    0.042375
  23 C :   -0.017210
  24 N :   -0.023553
  25 N :   -0.043855
  26 C :   -0.082948
  27 C :    0.008729
  28 C :   -0.049903
  29 C :    0.038086
  30 N :    0.003847
  31 C :    0.048582
  32 C :   -0.123640
  33 C :   -0.030401
  34 C :   -0.178468
  35 C :   -0.025289
  36 C :   -0.054020
  37 C :   -0.164077
  38 S :    0.373796
  39 C :   -0.206764
  40 C :   -0.027270
  41 C :   -0.054718
  42 C :   -0.136231
  43 S :    0.390538
  44 C :   -0.114886
  45 C :   -0.190031
  46 S :    0.461101
  47 C :   -0.206301
  48 C :   -0.081178
  49 C :    0.000928
  50 O :   -0.002178
  51 C :    0.022624
  52 N :    0.274199
  53 O :   -0.219859
  54 O :   -0.199176
  55 C :   -0.011179
  56 H :    0.042736
  57 H :    0.041437
  58 H :    0.040229
  59 H :    0.052714
  60 H :    0.031908
  61 H :    0.029743
  62 H :    0.046620
  63 H :    0.047891
  64 H :    0.020456
  65 H :    0.040518
  66 H :    0.038619
  67 H :    0.085352
  68 H :    0.028441
  69 H :    0.022361
  70 H :    0.029617
  71 H :    0.030332
  72 H :    0.028123
  73 H :    0.028988
  74 H :    0.028007
  75 H :    0.028849
  76 H :    0.024880
  77 H :    0.044576

  Mayer bond orders larger than 0.100000
B(  0-C ,  1-C ) :   1.6571 B(  0-C ,  6-C ) :   1.0199 B(  0-C , 18-C ) :   1.0334
B(  1-C ,  2-C ) :   1.1407 B(  1-C ,  4-C ) :   1.1430 B(  2-C ,  3-N ) :   2.9698
B(  4-C ,  5-N ) :   2.9728 B(  6-C ,  7-C ) :   1.2695 B(  6-C , 11-C ) :   1.3969
B(  7-C ,  8-C ) :   1.4200 B(  7-C , 16-C ) :   0.9423 B(  8-C ,  9-C ) :   1.2510
B(  8-C , 56-H ) :   1.0168 B(  9-C , 10-C ) :   1.2982 B(  9-C , 14-C ) :   1.1635
B( 10-C , 11-C ) :   1.3414 B( 10-C , 12-S ) :   1.0871 B( 11-C , 57-H ) :   0.9795
B( 12-S , 13-C ) :   1.0861 B( 13-C , 14-C ) :   1.6164 B( 13-C , 15-Br) :   1.0228
B( 14-C , 58-H ) :   1.0010 B( 16-C , 17-O ) :   2.2468 B( 16-C , 18-C ) :   0.9133
B( 18-C , 19-C ) :   1.7780 B( 19-C , 20-C ) :   0.9917 B( 19-C , 59-H ) :   0.9366
B( 20-C , 21-N ) :   1.4263 B( 20-C , 25-N ) :   1.5415 B( 21-N , 22-C ) :   1.6346
B( 22-C , 23-C ) :   1.2225 B( 22-C , 60-H ) :   0.9795 B( 23-C , 24-N ) :   1.4859
B( 23-C , 26-C ) :   1.0819 B( 24-N , 25-N ) :   1.3194 B( 26-C , 27-C ) :   1.7947
B( 26-C , 61-H ) :   0.9474 B( 27-C , 28-C ) :   1.1118 B( 27-C , 29-C ) :   0.9967
B( 28-C , 62-H ) :   0.9279 B( 28-C , 63-H ) :   0.9221 B( 28-C , 64-H ) :   0.9464
B( 29-C , 30-N ) :   1.0558 B( 29-C , 65-H ) :   0.9222 B( 29-C , 66-H ) :   0.9343
B( 30-N , 31-C ) :   1.2119 B( 30-N , 67-H ) :   0.9371 B( 31-C , 32-C ) :   1.5903
B( 31-C , 68-H ) :   0.9712 B( 32-C , 33-C ) :   1.1753 B( 32-C , 69-H ) :   0.9621
B( 33-C , 34-C ) :   1.5735 B( 33-C , 70-H ) :   0.9819 B( 34-C , 35-C ) :   1.1528
B( 34-C , 38-S ) :   1.0118 B( 35-C , 36-C ) :   1.5792 B( 35-C , 71-H ) :   0.9976
B( 36-C , 37-C ) :   1.1962 B( 36-C , 72-H ) :   0.9940 B( 37-C , 38-S ) :   1.0669
B( 37-C , 39-C ) :   1.4851 B( 39-C , 40-C ) :   1.2032 B( 39-C , 43-S ) :   1.0209
B( 40-C , 41-C ) :   1.5761 B( 40-C , 73-H ) :   0.9927 B( 41-C , 42-C ) :   1.1520
B( 41-C , 74-H ) :   0.9989 B( 42-C , 43-S ) :   1.0580 B( 42-C , 44-C ) :   1.5801
B( 44-C , 45-C ) :   1.1593 B( 44-C , 75-H ) :   0.9418 B( 45-C , 46-S ) :   1.1369
B( 45-C , 47-C ) :   0.1079 B( 45-C , 49-C ) :   1.4228 B( 46-S , 47-C ) :   1.1637
B( 47-C , 48-C ) :   1.4332 B( 47-C , 76-H ) :   0.9767 B( 48-C , 49-C ) :   1.2307
B( 48-C , 55-C ) :   1.0657 B( 49-C , 50-O ) :   1.0827 B( 50-O , 51-C ) :   1.1253
B( 51-C , 52-N ) :   0.9216 B( 51-C , 55-C ) :   1.5656 B( 52-N , 53-O ) :   1.5246
B( 52-N , 54-O ) :   1.5114 B( 53-O , 54-O ) :   0.2759 B( 55-C , 77-H ) :   1.0252

-----------------------------------------------------------------------------
         ABSORPTION SPECTRUM VIA TRANSITION ELECTRIC DIPOLE MOMENTS
-----------------------------------------------------------------------------
State   Energy  Wavelength   fosc         T2         TX        TY        TZ
        (cm-1)    (nm)                  (au**2)     (au)      (au)      (au)
-----------------------------------------------------------------------------
   0   10881.6    919.0   0.008277109   0.25042   0.19990  -0.39693   0.23000
   1   11640.7    859.1   0.167685961   4.74234   0.18829  -0.96194   1.94462
   2   15890.6    629.3   0.896251500  18.56795  -0.03747  -2.98741   3.10514
   3   17690.1    565.3   0.006238803   0.11610   0.06776   0.14526  -0.30069
   4   20572.3    486.1   0.001567058   0.02508  -0.15580   0.01988   0.02017
   5   23069.2    433.5   0.002069577   0.02953  -0.08909   0.10474   0.10308
   6   24453.5    408.9   0.018880567   0.25419   0.13452  -0.08605  -0.47821
   7   24620.4    406.2   0.009622321   0.12867   0.29617  -0.16407   0.11843
   8   25831.3    387.1   0.012589729   0.16045   0.08293  -0.05161  -0.38847
   9   25898.0    386.1   0.006978936   0.08872  -0.18092  -0.01760  -0.23595
  10   26399.6    378.8   0.029266128   0.36496  -0.01434   0.32245   0.51067
  11   26899.6    371.8   0.238581794   2.91989   1.39588  -0.95461  -0.24523
  12   27048.7    369.7   0.320766573   3.90408  -0.78017  -0.86229   1.59746
  13   29284.7    341.5   0.570804308   6.41685   0.04158  -1.84810  -1.73195
  14   29366.0    340.5   0.273819122   3.06969  -0.11410  -1.71373  -0.34611
  15   29897.7    334.5   0.498884621   5.49335   2.13515   0.96659  -0.01357
  16   30830.7    324.4   0.055601826   0.59372   0.69085   0.06734  -0.33453
  17   31194.3    320.6   0.020616606   0.21758   0.40126   0.21235  -0.10712
  18   31897.6    313.5   0.004539792   0.04685   0.16271   0.07651  -0.12052
  19   32431.5    308.3   0.076048709   0.77197   0.67612   0.13207  -0.54533
  20   32471.3    308.0   0.010232283   0.10374  -0.23982  -0.04833   0.20950
  21   32521.3    307.5   0.033972565   0.34390  -0.26623  -0.48805   0.18663
  22   33307.3    300.2   0.633397928   6.26056   0.34717   1.48076  -1.98680
  23   34055.5    293.6   0.078407537   0.75796  -0.28945  -0.45932  -0.68059
  24   34107.2    293.2   0.004520273   0.04363  -0.17926   0.05035  -0.09467
  25   34993.9    285.8   0.016427712   0.15455  -0.35253   0.03744   0.16990
  26   35354.4    282.9   0.028718872   0.26742   0.42102   0.13713  -0.26713
  27   35480.1    281.8   0.000233775   0.00217   0.04226   0.00976  -0.01698
  28   35675.8    280.3   0.121452010   1.12074  -0.17065  -0.83805   0.62394
  29   36090.7    277.1   0.128975414   1.17649  -0.27738  -1.03813   0.14778
  30   36668.8    272.7   0.008524096   0.07653   0.25601  -0.07863  -0.06931
  31   36760.8    272.0   0.292359214   2.61823   0.17103   1.42170  -0.75349
  32   37025.4    270.1   0.014461326   0.12858  -0.22233   0.26823   0.08487
  33   37052.6    269.9   0.065841838   0.58500  -0.58061  -0.03229   0.49684
  34   37481.1    266.8   0.115826707   1.01735  -0.23494  -0.92853   0.31622
  35   38539.7    259.5   0.001362528   0.01164   0.07106   0.07668  -0.02663
  36   38804.1    257.7   0.001280131   0.01086  -0.03171  -0.08869   0.04461
  37   39184.7    255.2   0.049229502   0.41360   0.25899   0.25930  -0.52848
  38   39306.7    254.4   0.445655600   3.73257  -1.82751   0.54233   0.31407
  39   39510.4    253.1   0.015014309   0.12510  -0.24605   0.21056   0.14222
  40   39729.3    251.7   0.040702112   0.33727   0.14776   0.42819  -0.36345
  41   39980.9    250.1   0.002842566   0.02341   0.04823   0.10104  -0.10426
  42   40136.3    249.2   0.081350679   0.66727  -0.00748  -0.76369   0.28981

FINAL SINGLE POINT ENERGY     -6384.841386740736

DIPOLE MOMENT
-------------
                                X             Y             Z
Electronic contribution:    123.30673     -29.00090     -85.18288
Nuclear contribution   :   -124.00523      30.67364      84.56591
                        -----------------------------------------
Total Dipole Moment    :     -0.69850       1.67274      -0.61698
                        -----------------------------------------
Magnitude (a.u.)       :      1.91485
Magnitude (Debye)      :      4.86715

Rotational constants in cm-1:     0.001106     0.000451     0.000355
Rotational constants in MHz :    33.147797    13.535578    10.633007

                             ****ORCA TERMINATED NORMALLY****
TOTAL RUN TIME: 0 days 0 hours 8 minutes 59 seconds 647 msec
