                         Program Version 4.2.0 -  RELEASE  -
|  1> # ORCA input file
|  2> # SCF done       -217.286055249016          0.000696787591
|  3> ! CAM-B3LYP def2-SVP def2/J RIJCOSX Grid4 TightSCF
|  4> %maxcore 5000
|  5> %tddft
|  6>     Mode sTDDFT
|  7>     Ethresh 5.0
|  8>     maxcore 5000
|  9> end
| 10>
| 11> %pal
| 12>   nprocs 6
| 13>   end
| 14> * xyz 0 1
| 15>    C        1.76736         2.92111        -1.60000
| 16>    C        0.49211         2.43775        -1.45769
| 17>    C        0.06664         1.18843        -1.95630
| 18>    N       -0.33800         0.19676        -2.36757
| 19>    C       -0.50953         3.09258        -0.71311
| 20>    N       -1.33614         3.58280        -0.08550
| 21>    C        2.90787         2.18153        -2.12213
| 22>    C        4.10540         2.84095        -1.71614
| 23>    C        5.33842         2.35373        -2.04157
| 24>    C        5.43065         1.16833        -2.80445
| 25>    C        4.23698         0.51184        -3.22394
| 26>    C        2.97375         1.03758        -2.87121
| 27>    C        4.34412        -0.66787        -3.98841
| 28>    C        5.56951        -1.17796        -4.32085
| 29>    C        6.74376        -0.53130        -3.90693
| 30>    C        6.67578         0.61679        -3.16500
| 31>    C        3.76404         4.05245        -0.95758
| 32>    O        4.49828         4.82501        -0.39095
| 33>    C        2.27273         4.17032        -1.06431
| 34>    C        1.69541         5.35751        -0.76409
| 35>    C        0.38019         5.83807        -1.03683
| 36>    S       -0.35537         6.86697         0.14993
| 37>    C       -1.81754         6.97901        -0.76821
| 38>    C       -1.70440         6.29378        -1.97162
| 39>    C       -0.45737         5.66227        -2.12667
| 40>    C       -0.08564         5.01451        -3.42379
| 41>    N        1.35816         5.17980        -3.72107
| 42>    O        1.95656         4.19614        -4.08737
| 43>    O        1.82320         6.28582        -3.61647
| 44>    C       -0.85411         5.70652        -4.55588
| 45>    C       -2.34758         5.56159        -4.30794
| 46>    C       -2.78862         6.24657        -3.01237
| 47>    N       -3.93602         5.46620        -2.43397
| 48>    O       -3.84917         4.26924        -2.42153
| 49>    O       -4.86378         6.10946        -2.00403
| 50>    C       -2.94932         7.70352        -0.30710
| 51>    C       -2.96042         8.51816         0.77089
| 52>    C       -4.09284         9.25166         1.22490
| 53>    S       -4.07899         9.82239         2.86134
| 54>    C       -5.67616        10.49034         2.71436
| 55>    C       -6.17557        10.27250         1.43205
| 56>    C       -5.27790         9.60198         0.58584
| 57>    C       -5.55665         9.44021        -0.87880
| 58>    N       -4.36954         9.83564        -1.68434
| 59>    O       -3.73363        10.78631        -1.31109
| 60>    O       -4.15316         9.20343        -2.69165
| 61>    C       -6.67891        10.39499        -1.30807
| 62>    C       -7.88637        10.19176        -0.40565
| 63>    C       -7.57400        10.63564         1.02327
| 64>    N       -8.50556         9.91021         1.95296
| 65>    O       -9.10404        10.57605         2.75726
| 66>    O       -8.56813         8.71402         1.83858
| 67>    C       -6.29515        11.17602         3.78798
| 68>    C       -5.77520        11.24766         5.04076
| 69>    C       -6.38885        11.93203         6.11943
| 70>    C       -7.53898        12.69066         6.12795
| 71>    C       -7.78360        13.15871         7.45024
| 72>    C       -6.68073        12.63138         8.28345
| 73>    C       -5.85621        11.91752         7.47849
| 74>    C       -6.47845        12.84216         9.65261
| 75>    N       -6.26468        12.98779        10.77131
| 76>    C       -8.83137        13.93524         7.88193
| 77>    C       -9.14876        14.30411         9.22740
| 78>    C      -10.30323        15.04333         9.21638
| 79>    C      -10.74970        15.19417         7.84363
| 80>    C       -9.87934        14.53333         7.03439
| 81>    C       -9.95276        14.49418         5.63788
| 82>    N      -10.02966        14.49877         4.49142
| 83>    C      -10.98216        15.57814        10.35034
| 84>    O      -12.13617        16.29161        10.16902
| 85>    C      -12.52320        16.63793        11.41545
| 86>    C      -11.56025        16.10578        12.32465
| 87>    N      -10.61591        15.44990        11.58925
| 88>    C      -11.66669        16.28204        13.69667
| 89>    C      -12.77249        17.00756        14.10015
| 90>    C      -13.71876        17.52816        13.17225
| 91>    C      -13.63069        17.36469        11.80265
| 92>    O      -14.66771        18.17836        13.88912
| 93>    C      -14.27457        18.03164        15.17344
| 94>    N      -13.19512        17.37036        15.36193
| 95>    H        6.23289         2.86733        -1.72195
| 96>    H        2.08657         0.52945        -3.21480
| 97>    H        3.43751        -1.16353        -4.30290
| 98>    H        5.64106        -2.08329        -4.90481
| 99>    H        7.70228        -0.94707        -4.17916
|100>    H        7.57649         1.11909        -2.84389
|101>    H        2.34213         6.05410        -0.23733
|102>    H       -0.29158         3.93625        -3.42715
|103>    H       -0.59607         5.24909        -5.51243
|104>    H       -0.56996         6.76114        -4.58330
|105>    H       -2.58757         4.49685        -4.23616
|106>    H       -2.90078         5.98253        -5.14778
|107>    H       -3.17195         7.25780        -3.19242
|108>    H       -3.85813         7.53780        -0.85885
|109>    H       -2.06641         8.61036         1.37410
|110>    H       -5.81511         8.41038        -1.15168
|111>    H       -6.95039        10.19692        -2.34568
|112>    H       -6.32453        11.42618        -1.22847
|113>    H       -8.14844         9.13051        -0.39227
|114>    H       -8.73810        10.75454        -0.78876
|115>    H       -7.76234        11.70386         1.17259
|116>    H       -7.24021        11.66033         3.58970
|117>    H       -4.84166        10.74012         5.25209
|118>    H       -8.17830        12.89081         5.29176
|119>    H       -4.95526        11.41097         7.77303
|120>    H       -8.59328        14.02949        10.10136
|121>    H      -11.62187        15.74391         7.54271
|122>    H      -10.94598        15.88397        14.38799
|123>    H      -14.35244        17.76228        11.11054
|124>    H      -14.88348        18.47190        15.93878
|125> *
|126>
|127>                          ****END OF INPUT****

CARTESIAN COORDINATES (ANGSTROEM)
---------------------------------
  C      1.767360    2.921110   -1.600000
  C      0.492110    2.437750   -1.457690
  C      0.066640    1.188430   -1.956300
  N     -0.338000    0.196760   -2.367570
  C     -0.509530    3.092580   -0.713110
  N     -1.336140    3.582800   -0.085500
  C      2.907870    2.181530   -2.122130
  C      4.105400    2.840950   -1.716140
  C      5.338420    2.353730   -2.041570
  C      5.430650    1.168330   -2.804450
  C      4.236980    0.511840   -3.223940
  C      2.973750    1.037580   -2.871210
  C      4.344120   -0.667870   -3.988410
  C      5.569510   -1.177960   -4.320850
  C      6.743760   -0.531300   -3.906930
  C      6.675780    0.616790   -3.165000
  C      3.764040    4.052450   -0.957580
  O      4.498280    4.825010   -0.390950
  C      2.272730    4.170320   -1.064310
  C      1.695410    5.357510   -0.764090
  C      0.380190    5.838070   -1.036830
  S     -0.355370    6.866970    0.149930
  C     -1.817540    6.979010   -0.768210
  C     -1.704400    6.293780   -1.971620
  C     -0.457370    5.662270   -2.126670
  C     -0.085640    5.014510   -3.423790
  N      1.358160    5.179800   -3.721070
  O      1.956560    4.196140   -4.087370
  O      1.823200    6.285820   -3.616470
  C     -0.854110    5.706520   -4.555880
  C     -2.347580    5.561590   -4.307940
  C     -2.788620    6.246570   -3.012370
  N     -3.936020    5.466200   -2.433970
  O     -3.849170    4.269240   -2.421530
  O     -4.863780    6.109460   -2.004030
  C     -2.949320    7.703520   -0.307100
  C     -2.960420    8.518160    0.770890
  C     -4.092840    9.251660    1.224900
  S     -4.078990    9.822390    2.861340
  C     -5.676160   10.490340    2.714360
  C     -6.175570   10.272500    1.432050
  C     -5.277900    9.601980    0.585840
  C     -5.556650    9.440210   -0.878800
  N     -4.369540    9.835640   -1.684340
  O     -3.733630   10.786310   -1.311090
  O     -4.153160    9.203430   -2.691650
  C     -6.678910   10.394990   -1.308070
  C     -7.886370   10.191760   -0.405650
  C     -7.574000   10.635640    1.023270
  N     -8.505560    9.910210    1.952960
  O     -9.104040   10.576050    2.757260
  O     -8.568130    8.714020    1.838580
  C     -6.295150   11.176020    3.787980
  C     -5.775200   11.247660    5.040760
  C     -6.388850   11.932030    6.119430
  C     -7.538980   12.690660    6.127950
  C     -7.783600   13.158710    7.450240
  C     -6.680730   12.631380    8.283450
  C     -5.856210   11.917520    7.478490
  C     -6.478450   12.842160    9.652610
  N     -6.264680   12.987790   10.771310
  C     -8.831370   13.935240    7.881930
  C     -9.148760   14.304110    9.227400
  C    -10.303230   15.043330    9.216380
  C    -10.749700   15.194170    7.843630
  C     -9.879340   14.533330    7.034390
  C     -9.952760   14.494180    5.637880
  N    -10.029660   14.498770    4.491420
  C    -10.982160   15.578140   10.350340
  O    -12.136170   16.291610   10.169020
  C    -12.523200   16.637930   11.415450
  C    -11.560250   16.105780   12.324650
  N    -10.615910   15.449900   11.589250
  C    -11.666690   16.282040   13.696670
  C    -12.772490   17.007560   14.100150
  C    -13.718760   17.528160   13.172250
  C    -13.630690   17.364690   11.802650
  O    -14.667710   18.178360   13.889120
  C    -14.274570   18.031640   15.173440
  N    -13.195120   17.370360   15.361930
  H      6.232890    2.867330   -1.721950
  H      2.086570    0.529450   -3.214800
  H      3.437510   -1.163530   -4.302900
  H      5.641060   -2.083290   -4.904810
  H      7.702280   -0.947070   -4.179160
  H      7.576490    1.119090   -2.843890
  H      2.342130    6.054100   -0.237330
  H     -0.291580    3.936250   -3.427150
  H     -0.596070    5.249090   -5.512430
  H     -0.569960    6.761140   -4.583300
  H     -2.587570    4.496850   -4.236160
  H     -2.900780    5.982530   -5.147780
  H     -3.171950    7.257800   -3.192420
  H     -3.858130    7.537800   -0.858850
  H     -2.066410    8.610360    1.374100
  H     -5.815110    8.410380   -1.151680
  H     -6.950390   10.196920   -2.345680
  H     -6.324530   11.426180   -1.228470
  H     -8.148440    9.130510   -0.392270
  H     -8.738100   10.754540   -0.788760
  H     -7.762340   11.703860    1.172590
  H     -7.240210   11.660330    3.589700
  H     -4.841660   10.740120    5.252090
  H     -8.178300   12.890810    5.291760
  H     -4.955260   11.410970    7.773030
  H     -8.593280   14.029490   10.101360
  H    -11.621870   15.743910    7.542710
  H    -10.945980   15.883970   14.387990
  H    -14.352440   17.762280   11.110540
  H    -14.883480   18.471900   15.938780

 Total Charge           Charge          ....    0
 Multiplicity           Mult            ....    1
 Number of Electrons    NEL             ....  562
 Basis Dimension        Dim             .... 1278

ORBITAL ENERGIES
----------------

  NO   OCC          E(Eh)            E(eV)
   0   2.0000     -88.980447     -2421.2811
   1   2.0000     -88.980267     -2421.2762
   2   2.0000     -19.303091      -525.2638
   3   2.0000     -19.299574      -525.1681
   4   2.0000     -19.264928      -524.2253
   5   2.0000     -19.264387      -524.2106
   6   2.0000     -19.263866      -524.1964
   7   2.0000     -19.262857      -524.1690
   8   2.0000     -19.262171      -524.1503
   9   2.0000     -19.260057      -524.0928
  10   2.0000     -19.259170      -524.0687
  11   2.0000     -19.258187      -524.0419
  12   2.0000     -19.218286      -522.9561
  13   2.0000     -14.661802      -398.9679
  14   2.0000     -14.660463      -398.9315
  15   2.0000     -14.656686      -398.8287
  16   2.0000     -14.655216      -398.7887
  17   2.0000     -14.419780      -392.3822
  18   2.0000     -14.419109      -392.3639
  19   2.0000     -14.410337      -392.1252
  20   2.0000     -14.408127      -392.0651
  21   2.0000     -14.407348      -392.0439
  22   2.0000     -14.406711      -392.0265
  23   2.0000     -10.374469      -282.3036
  24   2.0000     -10.368545      -282.1425
  25   2.0000     -10.365046      -282.0472
  26   2.0000     -10.353511      -281.7334
  27   2.0000     -10.353158      -281.7238
  28   2.0000     -10.352787      -281.7137
  29   2.0000     -10.348673      -281.6017
  30   2.0000     -10.347058      -281.5578
  31   2.0000     -10.346625      -281.5460
  32   2.0000     -10.343739      -281.4675
  33   2.0000     -10.341741      -281.4131
  34   2.0000     -10.331894      -281.1451
  35   2.0000     -10.330770      -281.1146
  36   2.0000     -10.330725      -281.1133
  37   2.0000     -10.328150      -281.0432
  38   2.0000     -10.326866      -281.0083
  39   2.0000     -10.326353      -280.9943
  40   2.0000     -10.322128      -280.8794
  41   2.0000     -10.321334      -280.8578
  42   2.0000     -10.320543      -280.8363
  43   2.0000     -10.317912      -280.7647
  44   2.0000     -10.317751      -280.7603
  45   2.0000     -10.315483      -280.6986
  46   2.0000     -10.313054      -280.6325
  47   2.0000     -10.312232      -280.6101
  48   2.0000     -10.312112      -280.6068
  49   2.0000     -10.310751      -280.5698
  50   2.0000     -10.310519      -280.5635
  51   2.0000     -10.309306      -280.5305
  52   2.0000     -10.309271      -280.5295
  53   2.0000     -10.308854      -280.5182
  54   2.0000     -10.308205      -280.5005
  55   2.0000     -10.307805      -280.4896
  56   2.0000     -10.307328      -280.4767
  57   2.0000     -10.307326      -280.4766
  58   2.0000     -10.306861      -280.4639
  59   2.0000     -10.306091      -280.4430
  60   2.0000     -10.305957      -280.4394
  61   2.0000     -10.305246      -280.4200
  62   2.0000     -10.303490      -280.3722
  63   2.0000     -10.303452      -280.3712
  64   2.0000     -10.303414      -280.3702
  65   2.0000     -10.302059      -280.3333
  66   2.0000     -10.299453      -280.2624
  67   2.0000     -10.297613      -280.2123
  68   2.0000     -10.297306      -280.2039
  69   2.0000     -10.296937      -280.1939
  70   2.0000     -10.296155      -280.1726
  71   2.0000     -10.294531      -280.1284
  72   2.0000     -10.289407      -279.9890
  73   2.0000     -10.289259      -279.9850
  74   2.0000     -10.286332      -279.9053
  75   2.0000     -10.285883      -279.8931
  76   2.0000     -10.285666      -279.8872
  77   2.0000     -10.285130      -279.8726
  78   2.0000     -10.282326      -279.7963
  79   2.0000     -10.281989      -279.7871
  80   2.0000      -8.076048      -219.7605
  81   2.0000      -8.076043      -219.7603
  82   2.0000      -6.045231      -164.4991
  83   2.0000      -6.045071      -164.4948
  84   2.0000      -6.041198      -164.3894
  85   2.0000      -6.041193      -164.3892
  86   2.0000      -6.038299      -164.3105
  87   2.0000      -6.038181      -164.3073
  88   2.0000      -1.345537       -36.6139
  89   2.0000      -1.344105       -36.5750
  90   2.0000      -1.341853       -36.5137
  91   2.0000      -1.340565       -36.4786
  92   2.0000      -1.231493       -33.5106
  93   2.0000      -1.229923       -33.4679
  94   2.0000      -1.165545       -31.7161
  95   2.0000      -1.164710       -31.6934
  96   2.0000      -1.163481       -31.6599
  97   2.0000      -1.162179       -31.6245
  98   2.0000      -1.134053       -30.8592
  99   2.0000      -1.030372       -28.0378
 100   2.0000      -1.026344       -27.9282
 101   2.0000      -1.025510       -27.9055
 102   2.0000      -1.019321       -27.7371
 103   2.0000      -1.018962       -27.7274
 104   2.0000      -1.015075       -27.6216
 105   2.0000      -1.000236       -27.2178
 106   2.0000      -0.999481       -27.1973
 107   2.0000      -0.997682       -27.1483
 108   2.0000      -0.984639       -26.7934
 109   2.0000      -0.981319       -26.7030
 110   2.0000      -0.974143       -26.5078
 111   2.0000      -0.973348       -26.4861
 112   2.0000      -0.970905       -26.4197
 113   2.0000      -0.953277       -25.9400
 114   2.0000      -0.952429       -25.9169
 115   2.0000      -0.947004       -25.7693
 116   2.0000      -0.925988       -25.1974
 117   2.0000      -0.923093       -25.1186
 118   2.0000      -0.913733       -24.8639
 119   2.0000      -0.902282       -24.5523
 120   2.0000      -0.884460       -24.0674
 121   2.0000      -0.881838       -23.9960
 122   2.0000      -0.877927       -23.8896
 123   2.0000      -0.865317       -23.5465
 124   2.0000      -0.864043       -23.5118
 125   2.0000      -0.861058       -23.4306
 126   2.0000      -0.852409       -23.1952
 127   2.0000      -0.850390       -23.1403
 128   2.0000      -0.842668       -22.9302
 129   2.0000      -0.837427       -22.7875
 130   2.0000      -0.836890       -22.7729
 131   2.0000      -0.828830       -22.5536
 132   2.0000      -0.828457       -22.5434
 133   2.0000      -0.811802       -22.0902
 134   2.0000      -0.796064       -21.6620
 135   2.0000      -0.785254       -21.3679
 136   2.0000      -0.764465       -20.8022
 137   2.0000      -0.761275       -20.7153
 138   2.0000      -0.749541       -20.3961
 139   2.0000      -0.744504       -20.2590
 140   2.0000      -0.742167       -20.1954
 141   2.0000      -0.733917       -19.9709
 142   2.0000      -0.728739       -19.8300
 143   2.0000      -0.726592       -19.7716
 144   2.0000      -0.712059       -19.3761
 145   2.0000      -0.711072       -19.3493
 146   2.0000      -0.706955       -19.2372
 147   2.0000      -0.703775       -19.1507
 148   2.0000      -0.703024       -19.1303
 149   2.0000      -0.701308       -19.0836
 150   2.0000      -0.698847       -19.0166
 151   2.0000      -0.692390       -18.8409
 152   2.0000      -0.679639       -18.4939
 153   2.0000      -0.676083       -18.3972
 154   2.0000      -0.674275       -18.3480
 155   2.0000      -0.670246       -18.2383
 156   2.0000      -0.659799       -17.9540
 157   2.0000      -0.658127       -17.9086
 158   2.0000      -0.657571       -17.8934
 159   2.0000      -0.656007       -17.8509
 160   2.0000      -0.652843       -17.7648
 161   2.0000      -0.650234       -17.6938
 162   2.0000      -0.647813       -17.6279
 163   2.0000      -0.645177       -17.5561
 164   2.0000      -0.643681       -17.5154
 165   2.0000      -0.640649       -17.4329
 166   2.0000      -0.637096       -17.3363
 167   2.0000      -0.633116       -17.2280
 168   2.0000      -0.631631       -17.1876
 169   2.0000      -0.627462       -17.0741
 170   2.0000      -0.626652       -17.0521
 171   2.0000      -0.620644       -16.8886
 172   2.0000      -0.618273       -16.8241
 173   2.0000      -0.611293       -16.6341
 174   2.0000      -0.607834       -16.5400
 175   2.0000      -0.606790       -16.5116
 176   2.0000      -0.605405       -16.4739
 177   2.0000      -0.602434       -16.3931
 178   2.0000      -0.598818       -16.2947
 179   2.0000      -0.590146       -16.0587
 180   2.0000      -0.585151       -15.9228
 181   2.0000      -0.584222       -15.8975
 182   2.0000      -0.579549       -15.7703
 183   2.0000      -0.574008       -15.6195
 184   2.0000      -0.569165       -15.4878
 185   2.0000      -0.567338       -15.4381
 186   2.0000      -0.563657       -15.3379
 187   2.0000      -0.557643       -15.1742
 188   2.0000      -0.552577       -15.0364
 189   2.0000      -0.548958       -14.9379
 190   2.0000      -0.546790       -14.8789
 191   2.0000      -0.544772       -14.8240
 192   2.0000      -0.543885       -14.7999
 193   2.0000      -0.543746       -14.7961
 194   2.0000      -0.541362       -14.7312
 195   2.0000      -0.539731       -14.6868
 196   2.0000      -0.534638       -14.5482
 197   2.0000      -0.533785       -14.5250
 198   2.0000      -0.533222       -14.5097
 199   2.0000      -0.528072       -14.3696
 200   2.0000      -0.526741       -14.3334
 201   2.0000      -0.523454       -14.2439
 202   2.0000      -0.520628       -14.1670
 203   2.0000      -0.519616       -14.1395
 204   2.0000      -0.518181       -14.1004
 205   2.0000      -0.517246       -14.0750
 206   2.0000      -0.511638       -13.9224
 207   2.0000      -0.510871       -13.9015
 208   2.0000      -0.503977       -13.7139
 209   2.0000      -0.502504       -13.6738
 210   2.0000      -0.500397       -13.6165
 211   2.0000      -0.498637       -13.5686
 212   2.0000      -0.493483       -13.4283
 213   2.0000      -0.492373       -13.3982
 214   2.0000      -0.490582       -13.3494
 215   2.0000      -0.488866       -13.3027
 216   2.0000      -0.487427       -13.2636
 217   2.0000      -0.486252       -13.2316
 218   2.0000      -0.485078       -13.1996
 219   2.0000      -0.483622       -13.1600
 220   2.0000      -0.480312       -13.0699
 221   2.0000      -0.479001       -13.0343
 222   2.0000      -0.477534       -12.9944
 223   2.0000      -0.474072       -12.9001
 224   2.0000      -0.466189       -12.6856
 225   2.0000      -0.465223       -12.6594
 226   2.0000      -0.454787       -12.3754
 227   2.0000      -0.453117       -12.3299
 228   2.0000      -0.450086       -12.2475
 229   2.0000      -0.447362       -12.1733
 230   2.0000      -0.446460       -12.1488
 231   2.0000      -0.445294       -12.1171
 232   2.0000      -0.445031       -12.1099
 233   2.0000      -0.444868       -12.1055
 234   2.0000      -0.442080       -12.0296
 235   2.0000      -0.440659       -11.9909
 236   2.0000      -0.437969       -11.9177
 237   2.0000      -0.437695       -11.9103
 238   2.0000      -0.436229       -11.8704
 239   2.0000      -0.436176       -11.8690
 240   2.0000      -0.434977       -11.8363
 241   2.0000      -0.433190       -11.7877
 242   2.0000      -0.432484       -11.7685
 243   2.0000      -0.430539       -11.7156
 244   2.0000      -0.427830       -11.6418
 245   2.0000      -0.418722       -11.3940
 246   2.0000      -0.415813       -11.3149
 247   2.0000      -0.414926       -11.2907
 248   2.0000      -0.410486       -11.1699
 249   2.0000      -0.408666       -11.1204
 250   2.0000      -0.405626       -11.0376
 251   2.0000      -0.403217       -10.9721
 252   2.0000      -0.401511       -10.9257
 253   2.0000      -0.400578       -10.9003
 254   2.0000      -0.398983       -10.8569
 255   2.0000      -0.396667       -10.7938
 256   2.0000      -0.396377       -10.7860
 257   2.0000      -0.395831       -10.7711
 258   2.0000      -0.391057       -10.6412
 259   2.0000      -0.390612       -10.6291
 260   2.0000      -0.388875       -10.5818
 261   2.0000      -0.388472       -10.5709
 262   2.0000      -0.382708       -10.4140
 263   2.0000      -0.381595       -10.3837
 264   2.0000      -0.380566       -10.3557
 265   2.0000      -0.375430       -10.2160
 266   2.0000      -0.370531       -10.0827
 267   2.0000      -0.364936        -9.9304
 268   2.0000      -0.358651        -9.7594
 269   2.0000      -0.345989        -9.4148
 270   2.0000      -0.344821        -9.3830
 271   2.0000      -0.341647        -9.2967
 272   2.0000      -0.335324        -9.1246
 273   2.0000      -0.325096        -8.8463
 274   2.0000      -0.319853        -8.7037
 275   2.0000      -0.316129        -8.6023
 276   2.0000      -0.302787        -8.2392
 277   2.0000      -0.296801        -8.0764
 278   2.0000      -0.293306        -7.9813
 279   2.0000      -0.279671        -7.6102
 280   2.0000      -0.255946        -6.9646
 281   0.0000      -0.127863        -3.4793
 282   0.0000      -0.098114        -2.6698
 283   0.0000      -0.068724        -1.8701
 284   0.0000      -0.054251        -1.4762
 285   0.0000      -0.038565        -1.0494

MULLIKEN ATOMIC CHARGES
-----------------------
   0 C :    0.262025
   1 C :   -0.368868
   2 C :   -0.181062
   3 N :    0.166639
   4 C :   -0.193898
   5 N :    0.181411
   6 C :    0.079886
   7 C :    0.012911
   8 C :   -0.077323
   9 C :    0.093539
  10 C :    0.096205
  11 C :   -0.078943
  12 C :   -0.017489
  13 C :    0.035790
  14 C :    0.036084
  15 C :   -0.013634
  16 C :    0.147410
  17 O :   -0.132643
  18 C :   -0.138976
  19 C :    0.038192
  20 C :   -0.166803
  21 S :    0.178035
  22 C :   -0.060907
  23 C :   -0.045362
  24 C :    0.042585
  25 C :    0.113927
  26 N :    0.187088
  27 O :   -0.220162
  28 O :   -0.202907
  29 C :    0.054737
  30 C :    0.072869
  31 C :    0.099982
  32 N :    0.209904
  33 O :   -0.198411
  34 O :   -0.229604
  35 C :   -0.020236
  36 C :    0.035177
  37 C :   -0.115360
  38 S :    0.154269
  39 C :   -0.085170
  40 C :   -0.047970
  41 C :    0.015597
  42 C :    0.082654
  43 N :    0.192620
  44 O :   -0.197607
  45 O :   -0.236174
  46 C :    0.067230
  47 C :    0.067884
  48 C :    0.121292
  49 N :    0.193840
  50 O :   -0.213230
  51 O :   -0.211903
  52 C :    0.005038
  53 C :   -0.016596
  54 C :    0.122125
  55 C :   -0.123092
  56 C :    0.122671
  57 C :   -0.084482
  58 C :   -0.008398
  59 C :   -0.180122
  60 N :    0.145125
  61 C :    0.089792
  62 C :   -0.092900
  63 C :    0.067766
  64 C :    0.002470
  65 C :   -0.090862
  66 C :   -0.171787
  67 N :    0.128403
  68 C :    0.088088
  69 O :   -0.203392
  70 C :    0.223350
  71 C :    0.022195
  72 N :   -0.023936
  73 C :   -0.077979
  74 C :    0.002324
  75 C :    0.191684
  76 C :   -0.152952
  77 O :   -0.196038
  78 C :    0.173912
  79 N :   -0.071033
  80 H :   -0.012319
  81 H :   -0.009342
  82 H :   -0.011621
  83 H :   -0.004380
  84 H :   -0.005539
  85 H :   -0.017370
  86 H :    0.034860
  87 H :    0.054166
  88 H :    0.030269
  89 H :    0.041662
  90 H :    0.041221
  91 H :    0.029729
  92 H :    0.044982
  93 H :    0.007465
  94 H :   -0.004582
  95 H :    0.071509
  96 H :    0.031899
  97 H :    0.032847
  98 H :    0.045141
  99 H :    0.032774
 100 H :    0.040715
 101 H :    0.024688
 102 H :   -0.012388
 103 H :    0.009386
 104 H :   -0.000177
 105 H :    0.019210
 106 H :    0.005913
 107 H :   -0.016753
 108 H :   -0.013003
 109 H :    0.032526
Sum of atomic charges:   -0.0000000

LOEWDIN ATOMIC CHARGES
----------------------
   0 C :    0.064393
   1 C :   -0.142240
   2 C :   -0.020648
   3 N :   -0.046675
   4 C :   -0.021189
   5 N :   -0.042481
   6 C :   -0.018126
   7 C :   -0.055082
   8 C :    0.036317
   9 C :   -0.007797
  10 C :   -0.003485
  11 C :    0.021258
  12 C :   -0.005865
  13 C :   -0.012696
  14 C :   -0.012602
  15 C :   -0.008271
  16 C :    0.088439
  17 O :   -0.133314
  18 C :   -0.081828
  19 C :    0.033769
  20 C :   -0.171455
  21 S :    0.492417
  22 C :   -0.142236
  23 C :   -0.060880
  24 C :   -0.045608
  25 C :    0.014768
  26 N :    0.276778
  27 O :   -0.186704
  28 O :   -0.181627
  29 C :   -0.014087
  30 C :   -0.027082
  31 C :    0.020355
  32 N :    0.278608
  33 O :   -0.168838
  34 O :   -0.200038
  35 C :   -0.037371
  36 C :   -0.038649
  37 C :   -0.148164
  38 S :    0.476179
  39 C :   -0.165978
  40 C :   -0.058743
  41 C :   -0.065317
  42 C :    0.014602
  43 N :    0.279970
  44 O :   -0.177242
  45 O :   -0.201846
  46 C :   -0.014343
  47 C :   -0.023889
  48 C :    0.022026
  49 N :    0.272076
  50 O :   -0.183992
  51 O :   -0.185674
  52 C :   -0.007663
  53 C :   -0.028703
  54 C :   -0.007077
  55 C :   -0.030534
  56 C :    0.050185
  57 C :   -0.075767
  58 C :    0.055540
  59 C :   -0.034071
  60 N :   -0.053760
  61 C :    0.028400
  62 C :    0.015663
  63 C :   -0.045301
  64 C :    0.055742
  65 C :   -0.085355
  66 C :   -0.028883
  67 N :   -0.068408
  68 C :    0.061057
  69 O :   -0.011286
  70 C :    0.035849
  71 C :   -0.035523
  72 N :   -0.086642
  73 C :   -0.010118
  74 C :   -0.038552
  75 C :    0.032702
  76 C :   -0.061924
  77 O :   -0.007826
  78 C :    0.084344
  79 N :   -0.096259
  80 H :    0.039741
  81 H :    0.038255
  82 H :    0.034069
  83 H :    0.033210
  84 H :    0.032665
  85 H :    0.032016
  86 H :    0.049886
  87 H :    0.044006
  88 H :    0.037961
  89 H :    0.035745
  90 H :    0.034809
  91 H :    0.039866
  92 H :    0.040801
  93 H :    0.023358
  94 H :    0.025999
  95 H :    0.048201
  96 H :    0.038986
  97 H :    0.033190
  98 H :    0.037077
  99 H :    0.039789
 100 H :    0.044516
 101 H :    0.036261
 102 H :    0.023552
 103 H :    0.034439
 104 H :    0.037681
 105 H :    0.042951
 106 H :    0.039457
 107 H :    0.045693
 108 H :    0.043907
 109 H :    0.026191

  Mayer bond orders larger than 0.100000
B(  0-C ,  1-C ) :   1.6460 B(  0-C ,  6-C ) :   0.9986 B(  0-C , 18-C ) :   1.0293
B(  1-C ,  2-C ) :   1.1300 B(  1-C ,  4-C ) :   1.1716 B(  2-C ,  3-N ) :   2.9899
B(  4-C ,  5-N ) :   2.9997 B(  6-C ,  7-C ) :   1.2147 B(  6-C , 11-C ) :   1.4535
B(  7-C ,  8-C ) :   1.4676 B(  7-C , 16-C ) :   0.9262 B(  8-C ,  9-C ) :   1.1863
B(  8-C , 80-H ) :   1.0162 B(  9-C , 10-C ) :   1.2564 B(  9-C , 15-C ) :   1.2425
B( 10-C , 11-C ) :   1.2075 B( 10-C , 12-C ) :   1.2386 B( 11-C , 81-H ) :   0.9935
B( 12-C , 13-C ) :   1.4896 B( 12-C , 82-H ) :   0.9978 B( 13-C , 14-C ) :   1.2591
B( 13-C , 83-H ) :   0.9889 B( 14-C , 15-C ) :   1.4902 B( 14-C , 84-H ) :   0.9891
B( 15-C , 85-H ) :   0.9978 B( 16-C , 17-O ) :   2.2799 B( 16-C , 18-C ) :   0.9152
B( 18-C , 19-C ) :   1.7423 B( 19-C , 20-C ) :   1.0556 B( 19-C , 86-H ) :   0.9220
B( 20-C , 21-S ) :   1.1398 B( 20-C , 24-C ) :   1.5147 B( 21-S , 22-C ) :   1.1389
B( 22-C , 23-C ) :   1.4872 B( 22-C , 35-C ) :   1.1662 B( 23-C , 24-C ) :   1.3396
B( 23-C , 31-C ) :   1.0292 B( 24-C , 25-C ) :   0.9720 B( 25-C , 26-N ) :   0.8311
B( 25-C , 29-C ) :   1.0610 B( 25-C , 87-H ) :   0.8823 B( 26-N , 27-O ) :   1.5271
B( 26-N , 28-O ) :   1.5829 B( 27-O , 28-O ) :   0.2657 B( 29-C , 30-C ) :   1.1162
B( 29-C , 88-H ) :   0.9284 B( 29-C , 89-H ) :   0.9279 B( 30-C , 31-C ) :   1.0431
B( 30-C , 90-H ) :   0.9047 B( 30-C , 91-H ) :   0.9234 B( 31-C , 32-N ) :   0.8267
B( 31-C , 92-H ) :   0.8749 B( 32-N , 33-O ) :   1.5984 B( 32-N , 34-O ) :   1.5251
B( 33-O , 34-O ) :   0.2626 B( 35-C , 36-C ) :   1.6755 B( 35-C , 93-H ) :   0.9280
B( 36-C , 37-C ) :   1.1240 B( 36-C , 94-H ) :   0.9521 B( 37-C , 38-S ) :   1.1451
B( 37-C , 41-C ) :   1.4987 B( 38-S , 39-C ) :   1.1205 B( 39-C , 40-C ) :   1.4601
B( 39-C , 52-C ) :   1.1629 B( 40-C , 41-C ) :   1.3542 B( 40-C , 48-C ) :   1.0129
B( 41-C , 42-C ) :   0.9659 B( 42-C , 43-N ) :   0.8346 B( 42-C , 46-C ) :   1.0644
B( 42-C , 95-H ) :   0.8872 B( 43-N , 44-O ) :   1.6076 B( 43-N , 45-O ) :   1.4965
B( 44-O , 45-O ) :   0.2663 B( 46-C , 47-C ) :   1.1038 B( 46-C , 96-H ) :   0.9262
B( 46-C , 97-H ) :   0.9279 B( 47-C , 48-C ) :   1.0517 B( 47-C , 98-H ) :   0.9124
B( 47-C , 99-H ) :   0.9260 B( 48-C , 49-N ) :   0.8345 B( 48-C ,100-H ) :   0.8870
B( 49-N , 50-O ) :   1.5537 B( 49-N , 51-O ) :   1.5846 B( 50-O , 51-O ) :   0.2684
B( 52-C , 53-C ) :   1.6272 B( 52-C ,101-H ) :   0.9582 B( 53-C , 54-C ) :   1.1212
B( 53-C ,102-H ) :   0.9748 B( 54-C , 55-C ) :   1.5420 B( 54-C , 58-C ) :   1.0211
B( 55-C , 56-C ) :   1.1381 B( 55-C ,103-H ) :   0.9942 B( 56-C , 57-C ) :   1.0914
B( 56-C , 61-C ) :   1.4071 B( 57-C , 58-C ) :   1.6855 B( 57-C , 59-C ) :   1.0847
B( 58-C ,104-H ) :   1.0247 B( 59-C , 60-N ) :   2.9793 B( 61-C , 62-C ) :   1.0853
B( 61-C , 65-C ) :   1.1123 B( 62-C , 63-C ) :   1.5926 B( 62-C ,105-H ) :   1.0143
B( 63-C , 64-C ) :   1.0593 B( 63-C , 68-C ) :   0.9826 B( 64-C , 65-C ) :   1.6443
B( 64-C ,106-H ) :   1.0263 B( 65-C , 66-C ) :   1.0878 B( 66-C , 67-N ) :   2.9692
B( 68-C , 69-O ) :   1.1677 B( 68-C , 72-N ) :   1.7940 B( 69-O , 70-C ) :   1.1044
B( 70-C , 71-C ) :   1.2425 B( 70-C , 76-C ) :   1.3190 B( 71-C , 72-N ) :   1.2865
B( 71-C , 73-C ) :   1.2762 B( 73-C , 74-C ) :   1.3012 B( 73-C , 76-C ) :   0.1531
B( 73-C ,107-H ) :   1.0527 B( 74-C , 75-C ) :   1.2772 B( 74-C , 79-N ) :   1.2818
B( 75-C , 76-C ) :   1.3174 B( 75-C , 77-O ) :   1.1168 B( 76-C ,108-H ) :   1.0451
B( 77-O , 78-C ) :   1.1254 B( 78-C , 79-N ) :   1.8024 B( 78-C ,109-H ) :   0.9835

-----------------------------------------------------------------------------
         ABSORPTION SPECTRUM VIA TRANSITION ELECTRIC DIPOLE MOMENTS
-----------------------------------------------------------------------------
State   Energy  Wavelength   fosc         T2         TX        TY        TZ
        (cm-1)    (nm)                  (au**2)     (au)      (au)      (au)
-----------------------------------------------------------------------------
   0   12823.5    779.8   0.999530857  25.66056   3.00068  -2.76994  -2.99731
   1   16895.1    591.9   0.001885973   0.03675  -0.17142  -0.07055  -0.04885
   2   20030.8    499.2   1.015683128  16.69303   2.43012  -2.69456  -1.87800
   3   21793.0    458.9   0.077081123   1.16441  -0.06544   0.02859   1.07671
   4   24319.7    411.2   0.382807439   5.18201  -1.34397   0.91014   1.59605
   5   24687.8    405.1   0.006405733   0.08542  -0.17978   0.10093  -0.20716
   6   25764.5    388.1   0.028392098   0.36279   0.51198  -0.14631  -0.28153
   7   26209.0    381.5   0.188460007   2.36725  -0.74249   0.46858   1.26349
   8   27826.5    359.4   0.024125195   0.28542  -0.05914   0.52638  -0.06963
   9   28064.0    356.3   0.011503446   0.13494  -0.34459  -0.08900   0.09098
  10   28365.7    352.5   0.019335834   0.22441  -0.42762   0.00352   0.20382
  11   29327.1    341.0   0.007936781   0.08909   0.21775  -0.18587   0.08443
  12   29521.9    338.7   0.327781310   3.65524   1.13666  -1.35532  -0.72551
  13   30043.9    332.8   0.043219012   0.47358  -0.53300  -0.02463  -0.43461
  14   30392.5    329.0   0.058489375   0.63356   0.37073  -0.48553  -0.51028
  15   30663.2    326.1   0.094970020   1.01964   0.95938  -0.28484   0.13450
  16   31788.5    314.6   0.039346065   0.40748  -0.46892   0.26290   0.34421
  17   32262.7    310.0   0.013620379   0.13898  -0.11875   0.00299  -0.35337
  18   32486.2    307.8   0.029000570   0.29389  -0.39783  -0.16677  -0.32834
  19   32782.7    305.0   0.242707387   2.43732  -1.47284   0.28905   0.42955
  20   33276.4    300.5   0.107747274   1.06597  -0.86747   0.53294   0.17158
  21   33421.8    299.2   0.001116584   0.01100  -0.04021  -0.09345   0.02547
  22   33957.3    294.5   0.056205075   0.54490   0.00457  -0.21628  -0.70577
  23   33994.2    294.2   0.570849881   5.52831  -2.00668   1.07863   0.58148
  24   34671.8    288.4   0.044559250   0.42309   0.38309  -0.51718   0.09413
  25   34730.5    287.9   0.019737775   0.18710   0.05977   0.31053   0.29511
  26   35132.6    284.6   0.006174535   0.05786  -0.09408   0.02383   0.22009
  27   36155.3    276.6   0.125348192   1.14136  -0.03897  -0.00040   1.06763
  28   36511.5    273.9   0.055170018   0.49745   0.45104  -0.53119  -0.10886
  29   37065.6    269.8   0.045801350   0.40680   0.53205  -0.34793   0.05161
  30   37299.6    268.1   0.030111608   0.26577  -0.42069  -0.15610  -0.25382
  31   37961.0    263.4   0.007743131   0.06715   0.08202  -0.06183  -0.23791
  32   38275.8    261.3   0.851012228   7.31960  -1.21402   0.90353   2.24263
  33   38546.1    259.4   0.011271377   0.09627  -0.10073  -0.28830   0.05480
  34   38655.8    258.7   0.042405982   0.36115  -0.51433  -0.15090  -0.27174
  35   38872.5    257.3   0.024973586   0.21150  -0.35749   0.27600   0.08677
  36   38947.7    256.8   0.008073733   0.06824   0.25094  -0.05493   0.04752
  37   39197.0    255.1   0.058465568   0.49105  -0.63424  -0.22017  -0.20076
  38   39439.0    253.6   0.013365822   0.11157  -0.08180  -0.12821  -0.29739
  39   39537.4    252.9   0.015266144   0.12712  -0.33696  -0.11649  -0.00161
  40   40040.1    249.7   0.067323343   0.55354   0.41137   0.49195  -0.37722
  41   40298.9    248.1   0.052789084   0.43125  -0.60950  -0.23452  -0.06897

FINAL SINGLE POINT ENERGY     -4356.384965031055

DIPOLE MOMENT
-------------
                                X             Y             Z
Electronic contribution:    -12.08757      16.88442      35.73399
Nuclear contribution   :     12.70964     -16.55995     -38.68921
                        -----------------------------------------
Total Dipole Moment    :      0.62207       0.32447      -2.95522
                        -----------------------------------------
Magnitude (a.u.)       :      3.03737
Magnitude (Debye)      :      7.72037

Rotational constants in cm-1:     0.002267     0.000178     0.000170
Rotational constants in MHz :    67.970471     5.324522     5.091522

                             ****ORCA TERMINATED NORMALLY****
TOTAL RUN TIME: 0 days 0 hours 14 minutes 22 seconds 543 msec
