                         Program Version 4.2.0 -  RELEASE  -
|  1> # ORCA input file
|  2> # SCF done       -192.607154450643          0.000697072155
|  3> ! CAM-B3LYP def2-SVP def2/J RIJCOSX Grid4 TightSCF
|  4> %maxcore 5000
|  5> %tddft
|  6>     Mode sTDDFT
|  7>     Ethresh 5.0
|  8>     maxcore 5000
|  9> end
| 10>
| 11> %pal
| 12>   nprocs 6
| 13>   end
| 14> * xyz 0 1
| 15>    C        0.41304        -1.97329        -1.22107
| 16>    C       -0.84128        -2.13223        -0.69646
| 17>    C       -1.80338        -1.05264        -0.44669
| 18>    O       -1.49258         0.10599        -0.60391
| 19>    C       -3.17136        -1.49317         0.00145
| 20>    S       -1.16430        -3.80144        -0.34701
| 21>    C        0.38612        -4.25445        -0.88337
| 22>    C        1.12600        -3.19021        -1.34071
| 23>    C        2.47156        -3.31910        -1.85375
| 24>    S        3.56100        -4.45507        -1.13906
| 25>    C        4.83404        -4.01337        -2.24102
| 26>    C        4.40296        -3.02197        -3.11045
| 27>    C        3.06060        -2.64303        -2.89902
| 28>    C        2.34099        -1.71686        -3.82965
| 29>    N        0.98232        -2.24071        -4.14486
| 30>    O        0.09645        -1.43219        -4.25278
| 31>    O        0.87585        -3.42878        -4.32345
| 32>    C        3.09274        -1.64275        -5.16340
| 33>    C        4.54338        -1.26222        -4.90358
| 34>    C        5.27691        -2.36736        -4.14241
| 35>    N        6.43237        -1.75136        -3.41427
| 36>    O        6.21135        -0.77330        -2.74956
| 37>    O        7.50306        -2.29686        -3.52881
| 38>    C        6.10131        -4.65913        -2.20509
| 39>    C        6.41598        -5.60485        -1.28737
| 40>    C        7.61369        -6.34498        -1.11846
| 41>    N        8.83494        -6.22511        -1.73953
| 42>    C        9.24490        -5.29182        -2.76082
| 43>    C        8.85124        -5.76949        -4.15761
| 44>    C        9.75548        -7.19509        -1.27390
| 45>    O       10.89288        -7.28351        -1.68306
| 46>    C        9.01822        -7.94115        -0.27981
| 47>    C        7.71964        -7.39244        -0.20599
| 48>    C        6.97328        -8.14319         0.77356
| 49>    O        5.83773        -8.03445         1.18825
| 50>    N        7.87663        -9.13632         1.21937
| 51>    C        7.50012        -9.97399         2.33489
| 52>    C        8.29824        -9.65667         3.59532
| 53>    C        9.10009        -9.02376         0.59327
| 54>    C       10.25820        -9.83391         0.72100
| 55>    C       10.35488       -11.07158         1.26611
| 56>    C       11.55852       -11.82170         1.32531
| 57>    S       13.05770       -11.20034         0.70183
| 58>    C       13.90107       -12.65853         1.11571
| 59>    C       13.04024       -13.58258         1.69604
| 60>    C       11.73035       -13.10019         1.84271
| 61>    C       10.66257       -13.88210         2.54819
| 62>    N        9.95071       -13.01986         3.53224
| 63>    O        8.74357       -13.03458         3.50161
| 64>    O       10.62579       -12.39541         4.30946
| 65>    C       11.28560       -15.02857         3.35032
| 66>    C       12.22595       -15.82613         2.45994
| 67>    C       13.44040       -14.98203         2.06869
| 68>    N       14.06689       -15.62793         0.87507
| 69>    O       13.36792       -15.79701        -0.09007
| 70>    O       15.23073       -15.93524         0.96246
| 71>    C       15.29945       -12.80247         0.88655
| 72>    C       16.06668       -11.86828         0.28733
| 73>    C       17.47171       -12.02815         0.04641
| 74>    C       18.32306       -10.97915        -0.29443
| 75>    C       17.99672        -9.56275        -0.43025
| 76>    O       16.89779        -9.12068        -0.16408
| 77>    C       19.11938        -8.68334        -0.92354
| 78>    S       19.94327       -11.54487        -0.54513
| 79>    C       19.47890       -13.15952        -0.20513
| 80>    C       18.16162       -13.27164         0.09043
| 81>    H        0.79712        -1.00212        -1.47378
| 82>    H       -3.63837        -2.07958        -0.78813
| 83>    H       -3.78493        -0.62268         0.21642
| 84>    H       -3.09345        -2.11937         0.88798
| 85>    H        0.68513        -5.28419        -0.86131
| 86>    H        2.20782        -0.71291        -3.41321
| 87>    H        2.62338        -0.90071        -5.81068
| 88>    H        3.04377        -2.61785        -5.65497
| 89>    H        4.57088        -0.34974        -4.30206
| 90>    H        5.05188        -1.06738        -5.84859
| 91>    H        5.70570        -3.11427        -4.81905
| 92>    H        6.80790        -4.36746        -2.96377
| 93>    H        5.65813        -5.88488        -0.56374
| 94>    H       10.33592        -5.23893        -2.69894
| 95>    H        8.83745        -4.30156        -2.54828
| 96>    H        9.39531        -6.67798        -4.40323
| 97>    H        9.09924        -5.00379        -4.88712
| 98>    H        7.78577        -5.98314        -4.21508
| 99>    H        7.58363       -11.03215         2.07329
|100>    H        6.44136        -9.75767         2.50877
|101>    H        9.36566        -9.79055         3.43575
|102>    H        7.98323       -10.31916         4.39619
|103>    H        8.12202        -8.62807         3.90049
|104>    H       11.13924        -9.39340         0.26952
|105>    H        9.46915       -11.55691         1.64142
|106>    H        9.90362       -14.25746         1.85192
|107>    H       10.49989       -15.67757         3.73996
|108>    H       11.84068       -14.60704         4.19241
|109>    H       11.69897       -16.12047         1.54843
|110>    H       12.55457       -16.72876         2.97682
|111>    H       14.20233       -14.98033         2.85598
|112>    H       15.75825       -13.71135         1.24719
|113>    H       15.62983       -10.92906        -0.02262
|114>    H       19.46841        -9.02958        -1.89414
|115>    H       19.95521        -8.72288        -0.22768
|116>    H       18.76503        -7.65954        -1.00710
|117>    H       20.21564       -13.93767        -0.24645
|118>    H       17.68752       -14.21175         0.30707
|119> *
|120>
|121>                          ****END OF INPUT****

CARTESIAN COORDINATES (ANGSTROEM)
---------------------------------
  C      0.413040   -1.973290   -1.221070
  C     -0.841280   -2.132230   -0.696460
  C     -1.803380   -1.052640   -0.446690
  O     -1.492580    0.105990   -0.603910
  C     -3.171360   -1.493170    0.001450
  S     -1.164300   -3.801440   -0.347010
  C      0.386120   -4.254450   -0.883370
  C      1.126000   -3.190210   -1.340710
  C      2.471560   -3.319100   -1.853750
  S      3.561000   -4.455070   -1.139060
  C      4.834040   -4.013370   -2.241020
  C      4.402960   -3.021970   -3.110450
  C      3.060600   -2.643030   -2.899020
  C      2.340990   -1.716860   -3.829650
  N      0.982320   -2.240710   -4.144860
  O      0.096450   -1.432190   -4.252780
  O      0.875850   -3.428780   -4.323450
  C      3.092740   -1.642750   -5.163400
  C      4.543380   -1.262220   -4.903580
  C      5.276910   -2.367360   -4.142410
  N      6.432370   -1.751360   -3.414270
  O      6.211350   -0.773300   -2.749560
  O      7.503060   -2.296860   -3.528810
  C      6.101310   -4.659130   -2.205090
  C      6.415980   -5.604850   -1.287370
  C      7.613690   -6.344980   -1.118460
  N      8.834940   -6.225110   -1.739530
  C      9.244900   -5.291820   -2.760820
  C      8.851240   -5.769490   -4.157610
  C      9.755480   -7.195090   -1.273900
  O     10.892880   -7.283510   -1.683060
  C      9.018220   -7.941150   -0.279810
  C      7.719640   -7.392440   -0.205990
  C      6.973280   -8.143190    0.773560
  O      5.837730   -8.034450    1.188250
  N      7.876630   -9.136320    1.219370
  C      7.500120   -9.973990    2.334890
  C      8.298240   -9.656670    3.595320
  C      9.100090   -9.023760    0.593270
  C     10.258200   -9.833910    0.721000
  C     10.354880  -11.071580    1.266110
  C     11.558520  -11.821700    1.325310
  S     13.057700  -11.200340    0.701830
  C     13.901070  -12.658530    1.115710
  C     13.040240  -13.582580    1.696040
  C     11.730350  -13.100190    1.842710
  C     10.662570  -13.882100    2.548190
  N      9.950710  -13.019860    3.532240
  O      8.743570  -13.034580    3.501610
  O     10.625790  -12.395410    4.309460
  C     11.285600  -15.028570    3.350320
  C     12.225950  -15.826130    2.459940
  C     13.440400  -14.982030    2.068690
  N     14.066890  -15.627930    0.875070
  O     13.367920  -15.797010   -0.090070
  O     15.230730  -15.935240    0.962460
  C     15.299450  -12.802470    0.886550
  C     16.066680  -11.868280    0.287330
  C     17.471710  -12.028150    0.046410
  C     18.323060  -10.979150   -0.294430
  C     17.996720   -9.562750   -0.430250
  O     16.897790   -9.120680   -0.164080
  C     19.119380   -8.683340   -0.923540
  S     19.943270  -11.544870   -0.545130
  C     19.478900  -13.159520   -0.205130
  C     18.161620  -13.271640    0.090430
  H      0.797120   -1.002120   -1.473780
  H     -3.638370   -2.079580   -0.788130
  H     -3.784930   -0.622680    0.216420
  H     -3.093450   -2.119370    0.887980
  H      0.685130   -5.284190   -0.861310
  H      2.207820   -0.712910   -3.413210
  H      2.623380   -0.900710   -5.810680
  H      3.043770   -2.617850   -5.654970
  H      4.570880   -0.349740   -4.302060
  H      5.051880   -1.067380   -5.848590
  H      5.705700   -3.114270   -4.819050
  H      6.807900   -4.367460   -2.963770
  H      5.658130   -5.884880   -0.563740
  H     10.335920   -5.238930   -2.698940
  H      8.837450   -4.301560   -2.548280
  H      9.395310   -6.677980   -4.403230
  H      9.099240   -5.003790   -4.887120
  H      7.785770   -5.983140   -4.215080
  H      7.583630  -11.032150    2.073290
  H      6.441360   -9.757670    2.508770
  H      9.365660   -9.790550    3.435750
  H      7.983230  -10.319160    4.396190
  H      8.122020   -8.628070    3.900490
  H     11.139240   -9.393400    0.269520
  H      9.469150  -11.556910    1.641420
  H      9.903620  -14.257460    1.851920
  H     10.499890  -15.677570    3.739960
  H     11.840680  -14.607040    4.192410
  H     11.698970  -16.120470    1.548430
  H     12.554570  -16.728760    2.976820
  H     14.202330  -14.980330    2.855980
  H     15.758250  -13.711350    1.247190
  H     15.629830  -10.929060   -0.022620
  H     19.468410   -9.029580   -1.894140
  H     19.955210   -8.722880   -0.227680
  H     18.765030   -7.659540   -1.007100
  H     20.215640  -13.937670   -0.246450
  H     17.687520  -14.211750    0.307070

 Total Charge           Charge          ....    0
 Multiplicity           Mult            ....    1
 Number of Electrons    NEL             ....  504
 Basis Dimension        Dim             .... 1130

ORBITAL ENERGIES
----------------

  NO   OCC          E(Eh)            E(eV)
   0   2.0000     -88.970928     -2421.0220
   1   2.0000     -88.969936     -2420.9950
   2   2.0000     -88.965559     -2420.8759
   3   2.0000     -88.964391     -2420.8441
   4   2.0000     -19.260436      -524.1031
   5   2.0000     -19.260348      -524.1007
   6   2.0000     -19.260289      -524.0991
   7   2.0000     -19.260183      -524.0962
   8   2.0000     -19.258018      -524.0373
   9   2.0000     -19.257793      -524.0312
  10   2.0000     -19.249167      -523.7965
  11   2.0000     -19.247673      -523.7558
  12   2.0000     -19.200186      -522.4636
  13   2.0000     -19.199911      -522.4562
  14   2.0000     -19.181353      -521.9512
  15   2.0000     -19.181219      -521.9475
  16   2.0000     -14.656274      -398.8175
  17   2.0000     -14.655996      -398.8099
  18   2.0000     -14.653936      -398.7539
  19   2.0000     -14.646412      -398.5491
  20   2.0000     -14.444426      -393.0528
  21   2.0000     -14.443460      -393.0265
  22   2.0000     -10.365094      -282.0485
  23   2.0000     -10.364609      -282.0354
  24   2.0000     -10.359156      -281.8870
  25   2.0000     -10.359136      -281.8864
  26   2.0000     -10.350131      -281.6414
  27   2.0000     -10.349416      -281.6219
  28   2.0000     -10.348648      -281.6010
  29   2.0000     -10.344334      -281.4836
  30   2.0000     -10.332834      -281.1707
  31   2.0000     -10.332188      -281.1531
  32   2.0000     -10.320396      -280.8323
  33   2.0000     -10.317475      -280.7528
  34   2.0000     -10.317126      -280.7433
  35   2.0000     -10.315649      -280.7031
  36   2.0000     -10.309671      -280.5404
  37   2.0000     -10.306602      -280.4569
  38   2.0000     -10.305425      -280.4249
  39   2.0000     -10.304924      -280.4112
  40   2.0000     -10.304766      -280.4069
  41   2.0000     -10.304325      -280.3949
  42   2.0000     -10.302828      -280.3542
  43   2.0000     -10.302825      -280.3541
  44   2.0000     -10.301067      -280.3063
  45   2.0000     -10.299565      -280.2654
  46   2.0000     -10.298769      -280.2438
  47   2.0000     -10.298736      -280.2428
  48   2.0000     -10.298094      -280.2254
  49   2.0000     -10.297209      -280.2013
  50   2.0000     -10.297143      -280.1995
  51   2.0000     -10.295835      -280.1639
  52   2.0000     -10.293620      -280.1037
  53   2.0000     -10.292762      -280.0803
  54   2.0000     -10.290116      -280.0083
  55   2.0000     -10.289863      -280.0014
  56   2.0000     -10.287882      -279.9475
  57   2.0000     -10.286105      -279.8991
  58   2.0000     -10.280521      -279.7472
  59   2.0000     -10.279533      -279.7203
  60   2.0000     -10.267631      -279.3965
  61   2.0000     -10.266377      -279.3623
  62   2.0000     -10.255358      -279.0625
  63   2.0000     -10.253737      -279.0184
  64   2.0000     -10.252867      -278.9947
  65   2.0000     -10.246432      -278.8196
  66   2.0000      -8.066613      -219.5037
  67   2.0000      -8.065359      -219.4696
  68   2.0000      -8.060659      -219.3417
  69   2.0000      -8.060189      -219.3289
  70   2.0000      -6.035711      -164.2400
  71   2.0000      -6.034452      -164.2058
  72   2.0000      -6.031374      -164.1220
  73   2.0000      -6.030482      -164.0978
  74   2.0000      -6.029716      -164.0769
  75   2.0000      -6.029404      -164.0684
  76   2.0000      -6.029332      -164.0665
  77   2.0000      -6.027610      -164.0196
  78   2.0000      -6.025853      -163.9718
  79   2.0000      -6.025038      -163.9496
  80   2.0000      -6.022937      -163.8925
  81   2.0000      -6.022690      -163.8857
  82   2.0000      -1.340795       -36.4849
  83   2.0000      -1.340683       -36.4818
  84   2.0000      -1.338639       -36.4262
  85   2.0000      -1.330137       -36.1949
  86   2.0000      -1.162147       -31.6236
  87   2.0000      -1.161248       -31.5992
  88   2.0000      -1.159555       -31.5531
  89   2.0000      -1.150512       -31.3070
  90   2.0000      -1.123617       -30.5752
  91   2.0000      -1.118265       -30.4295
  92   2.0000      -1.117796       -30.4168
  93   2.0000      -1.116896       -30.3923
  94   2.0000      -1.053156       -28.6578
  95   2.0000      -1.043888       -28.4056
  96   2.0000      -1.018905       -27.7258
  97   2.0000      -1.015859       -27.6429
  98   2.0000      -0.993890       -27.0451
  99   2.0000      -0.989102       -26.9148
 100   2.0000      -0.965419       -26.2704
 101   2.0000      -0.963750       -26.2250
 102   2.0000      -0.944929       -25.7128
 103   2.0000      -0.941498       -25.6195
 104   2.0000      -0.919591       -25.0234
 105   2.0000      -0.912717       -24.8363
 106   2.0000      -0.907235       -24.6871
 107   2.0000      -0.894862       -24.3504
 108   2.0000      -0.875641       -23.8274
 109   2.0000      -0.864367       -23.5206
 110   2.0000      -0.859104       -23.3774
 111   2.0000      -0.856986       -23.3198
 112   2.0000      -0.856611       -23.3096
 113   2.0000      -0.847264       -23.0552
 114   2.0000      -0.845496       -23.0071
 115   2.0000      -0.833489       -22.6804
 116   2.0000      -0.830736       -22.6055
 117   2.0000      -0.829782       -22.5795
 118   2.0000      -0.812015       -22.0961
 119   2.0000      -0.809685       -22.0326
 120   2.0000      -0.807246       -21.9663
 121   2.0000      -0.806115       -21.9355
 122   2.0000      -0.780446       -21.2370
 123   2.0000      -0.764949       -20.8153
 124   2.0000      -0.749543       -20.3961
 125   2.0000      -0.740920       -20.1615
 126   2.0000      -0.738654       -20.0998
 127   2.0000      -0.725925       -19.7534
 128   2.0000      -0.715975       -19.4827
 129   2.0000      -0.711704       -19.3665
 130   2.0000      -0.707588       -19.2544
 131   2.0000      -0.700224       -19.0541
 132   2.0000      -0.696274       -18.9466
 133   2.0000      -0.692377       -18.8405
 134   2.0000      -0.690246       -18.7825
 135   2.0000      -0.688590       -18.7375
 136   2.0000      -0.679221       -18.4825
 137   2.0000      -0.673439       -18.3252
 138   2.0000      -0.658007       -17.9053
 139   2.0000      -0.654208       -17.8019
 140   2.0000      -0.651703       -17.7337
 141   2.0000      -0.651002       -17.7147
 142   2.0000      -0.649408       -17.6713
 143   2.0000      -0.647872       -17.6295
 144   2.0000      -0.643469       -17.5097
 145   2.0000      -0.642475       -17.4826
 146   2.0000      -0.639090       -17.3905
 147   2.0000      -0.636713       -17.3258
 148   2.0000      -0.633268       -17.2321
 149   2.0000      -0.625107       -17.0100
 150   2.0000      -0.622739       -16.9456
 151   2.0000      -0.616976       -16.7888
 152   2.0000      -0.614716       -16.7273
 153   2.0000      -0.612452       -16.6657
 154   2.0000      -0.605862       -16.4863
 155   2.0000      -0.601147       -16.3581
 156   2.0000      -0.597043       -16.2464
 157   2.0000      -0.595787       -16.2122
 158   2.0000      -0.592797       -16.1308
 159   2.0000      -0.586420       -15.9573
 160   2.0000      -0.580617       -15.7994
 161   2.0000      -0.577517       -15.7150
 162   2.0000      -0.574324       -15.6281
 163   2.0000      -0.571254       -15.5446
 164   2.0000      -0.569350       -15.4928
 165   2.0000      -0.561146       -15.2696
 166   2.0000      -0.556315       -15.1381
 167   2.0000      -0.553831       -15.0705
 168   2.0000      -0.538998       -14.6669
 169   2.0000      -0.538037       -14.6407
 170   2.0000      -0.536560       -14.6005
 171   2.0000      -0.534931       -14.5562
 172   2.0000      -0.531432       -14.4610
 173   2.0000      -0.530416       -14.4334
 174   2.0000      -0.526775       -14.3343
 175   2.0000      -0.523527       -14.2459
 176   2.0000      -0.523246       -14.2383
 177   2.0000      -0.522565       -14.2197
 178   2.0000      -0.521098       -14.1798
 179   2.0000      -0.520125       -14.1533
 180   2.0000      -0.518335       -14.1046
 181   2.0000      -0.516966       -14.0674
 182   2.0000      -0.512572       -13.9478
 183   2.0000      -0.508321       -13.8321
 184   2.0000      -0.506582       -13.7848
 185   2.0000      -0.504451       -13.7268
 186   2.0000      -0.501218       -13.6388
 187   2.0000      -0.497165       -13.5286
 188   2.0000      -0.494733       -13.4624
 189   2.0000      -0.492300       -13.3962
 190   2.0000      -0.490316       -13.3422
 191   2.0000      -0.487844       -13.2749
 192   2.0000      -0.486324       -13.2336
 193   2.0000      -0.482917       -13.1408
 194   2.0000      -0.482632       -13.1331
 195   2.0000      -0.475579       -12.9412
 196   2.0000      -0.474968       -12.9245
 197   2.0000      -0.473759       -12.8916
 198   2.0000      -0.471791       -12.8381
 199   2.0000      -0.469241       -12.7687
 200   2.0000      -0.468713       -12.7543
 201   2.0000      -0.459429       -12.5017
 202   2.0000      -0.456436       -12.4202
 203   2.0000      -0.456133       -12.4120
 204   2.0000      -0.455768       -12.4021
 205   2.0000      -0.450858       -12.2685
 206   2.0000      -0.447881       -12.1875
 207   2.0000      -0.447421       -12.1749
 208   2.0000      -0.446294       -12.1443
 209   2.0000      -0.444649       -12.0995
 210   2.0000      -0.439502       -11.9595
 211   2.0000      -0.438512       -11.9325
 212   2.0000      -0.435189       -11.8421
 213   2.0000      -0.433841       -11.8054
 214   2.0000      -0.432866       -11.7789
 215   2.0000      -0.431322       -11.7369
 216   2.0000      -0.429813       -11.6958
 217   2.0000      -0.426884       -11.6161
 218   2.0000      -0.422919       -11.5082
 219   2.0000      -0.421019       -11.4565
 220   2.0000      -0.415951       -11.3186
 221   2.0000      -0.413309       -11.2467
 222   2.0000      -0.408146       -11.1062
 223   2.0000      -0.403383       -10.9766
 224   2.0000      -0.397517       -10.8170
 225   2.0000      -0.396252       -10.7826
 226   2.0000      -0.395058       -10.7501
 227   2.0000      -0.394971       -10.7477
 228   2.0000      -0.393786       -10.7154
 229   2.0000      -0.389176       -10.5900
 230   2.0000      -0.387239       -10.5373
 231   2.0000      -0.384773       -10.4702
 232   2.0000      -0.383237       -10.4284
 233   2.0000      -0.380848       -10.3634
 234   2.0000      -0.380298       -10.3484
 235   2.0000      -0.378063       -10.2876
 236   2.0000      -0.371630       -10.1126
 237   2.0000      -0.364557        -9.9201
 238   2.0000      -0.339890        -9.2489
 239   2.0000      -0.338869        -9.2211
 240   2.0000      -0.333882        -9.0854
 241   2.0000      -0.332799        -9.0559
 242   2.0000      -0.326439        -8.8828
 243   2.0000      -0.324044        -8.8177
 244   2.0000      -0.322613        -8.7787
 245   2.0000      -0.322542        -8.7768
 246   2.0000      -0.318263        -8.6604
 247   2.0000      -0.314740        -8.5645
 248   2.0000      -0.307108        -8.3568
 249   2.0000      -0.285503        -7.7689
 250   2.0000      -0.266828        -7.2608
 251   2.0000      -0.225435        -6.1344
 252   0.0000      -0.090468        -2.4618
 253   0.0000      -0.055768        -1.5175
 254   0.0000      -0.033431        -0.9097
 255   0.0000      -0.032222        -0.8768
 256   0.0000      -0.031262        -0.8507

MULLIKEN ATOMIC CHARGES
-----------------------
   0 C :    0.018256
   1 C :   -0.134406
   2 C :    0.030364
   3 O :   -0.172544
   4 C :    0.014611
   5 S :    0.149193
   6 C :   -0.096308
   7 C :    0.031645
   8 C :   -0.101872
   9 S :    0.167545
  10 C :   -0.089086
  11 C :   -0.056930
  12 C :    0.026483
  13 C :    0.105452
  14 N :    0.186374
  15 O :   -0.218259
  16 O :   -0.212894
  17 C :    0.058322
  18 C :    0.064508
  19 C :    0.127286
  20 N :    0.200819
  21 O :   -0.207838
  22 O :   -0.224481
  23 C :   -0.013133
  24 C :   -0.050172
  25 C :    0.133834
  26 N :   -0.275235
  27 C :    0.093447
  28 C :    0.006092
  29 C :    0.146396
  30 O :   -0.192049
  31 C :   -0.029424
  32 C :   -0.051403
  33 C :    0.150527
  34 O :   -0.198637
  35 N :   -0.276297
  36 C :    0.090042
  37 C :   -0.001545
  38 C :    0.113854
  39 C :   -0.040607
  40 C :   -0.004001
  41 C :   -0.095297
  42 S :    0.158703
  43 C :   -0.077266
  44 C :   -0.032460
  45 C :    0.003982
  46 C :    0.132462
  47 N :    0.177317
  48 O :   -0.223758
  49 O :   -0.199269
  50 C :    0.050293
  51 C :    0.055449
  52 C :    0.132247
  53 N :    0.190893
  54 O :   -0.208480
  55 O :   -0.227229
  56 C :   -0.026257
  57 C :   -0.002167
  58 C :    0.089713
  59 C :   -0.171061
  60 C :    0.022344
  61 O :   -0.185072
  62 C :    0.018390
  63 S :    0.118798
  64 C :   -0.048309
  65 C :    0.008493
  66 H :    0.005531
  67 H :    0.048920
  68 H :    0.038070
  69 H :    0.041047
  70 H :    0.037026
  71 H :    0.043785
  72 H :    0.032441
  73 H :    0.033008
  74 H :    0.040393
  75 H :    0.027965
  76 H :    0.033055
  77 H :   -0.000298
  78 H :    0.012927
  79 H :    0.040399
  80 H :    0.037242
  81 H :    0.027481
  82 H :    0.020525
  83 H :    0.012365
  84 H :    0.032779
  85 H :    0.041338
  86 H :    0.023707
  87 H :    0.027536
  88 H :    0.016967
  89 H :    0.020829
  90 H :   -0.020088
  91 H :    0.036943
  92 H :    0.030155
  93 H :    0.037866
  94 H :    0.039546
  95 H :    0.028498
  96 H :    0.033508
  97 H :   -0.002605
  98 H :    0.023446
  99 H :    0.043220
 100 H :    0.043740
 101 H :    0.038680
 102 H :    0.035323
 103 H :    0.006348
Sum of atomic charges:   -0.0000000

LOEWDIN ATOMIC CHARGES
----------------------
   0 C :   -0.013341
   1 C :   -0.220915
   2 C :    0.065225
   3 O :   -0.144809
   4 C :   -0.085364
   5 S :    0.474979
   6 C :   -0.163846
   7 C :   -0.097899
   8 C :   -0.147264
   9 S :    0.485740
  10 C :   -0.164702
  11 C :   -0.068853
  12 C :   -0.074414
  13 C :    0.016966
  14 N :    0.273125
  15 O :   -0.187897
  16 O :   -0.193462
  17 C :   -0.015327
  18 C :   -0.025051
  19 C :    0.021568
  20 N :    0.276771
  21 O :   -0.180630
  22 O :   -0.195999
  23 C :   -0.031726
  24 C :   -0.031740
  25 C :    0.073303
  26 N :   -0.006288
  27 C :    0.034179
  28 C :   -0.063901
  29 C :    0.081019
  30 O :   -0.193615
  31 C :   -0.114160
  32 C :   -0.117059
  33 C :    0.080467
  34 O :   -0.199088
  35 N :   -0.008955
  36 C :    0.033261
  37 C :   -0.063663
  38 C :    0.073170
  39 C :   -0.027109
  40 C :   -0.031746
  41 C :   -0.162304
  42 S :    0.489975
  43 C :   -0.150514
  44 C :   -0.077061
  45 C :   -0.066126
  46 C :    0.019598
  47 N :    0.273310
  48 O :   -0.196846
  49 O :   -0.181734
  50 C :   -0.018394
  51 C :   -0.022729
  52 C :    0.021258
  53 N :    0.274951
  54 O :   -0.183638
  55 O :   -0.199706
  56 C :   -0.049837
  57 C :    0.001043
  58 C :   -0.025561
  59 C :   -0.225595
  60 C :    0.063612
  61 O :   -0.150398
  62 C :   -0.085807
  63 S :    0.452924
  64 C :   -0.161603
  65 C :   -0.051545
  66 H :    0.036532
  67 H :    0.045145
  68 H :    0.041632
  69 H :    0.037500
  70 H :    0.027800
  71 H :    0.042579
  72 H :    0.038607
  73 H :    0.033472
  74 H :    0.035139
  75 H :    0.037789
  76 H :    0.041332
  77 H :    0.028028
  78 H :    0.036754
  79 H :    0.037437
  80 H :    0.024400
  81 H :    0.031716
  82 H :    0.030152
  83 H :    0.018155
  84 H :    0.017292
  85 H :    0.036696
  86 H :    0.020775
  87 H :    0.031773
  88 H :    0.027493
  89 H :    0.040211
  90 H :    0.026842
  91 H :    0.043146
  92 H :    0.037828
  93 H :    0.034195
  94 H :    0.034330
  95 H :    0.037656
  96 H :    0.041358
  97 H :    0.024625
  98 H :    0.028471
  99 H :    0.039717
 100 H :    0.039537
 101 H :    0.041526
 102 H :    0.028393
 103 H :    0.035742

  Mayer bond orders larger than 0.100000
B(  0-C ,  1-C ) :   1.5294 B(  0-C ,  7-C ) :   1.2437 B(  0-C , 66-H ) :   1.0055
B(  1-C ,  2-C ) :   0.9555 B(  1-C ,  5-S ) :   1.1363 B(  2-C ,  3-O ) :   2.2140
B(  2-C ,  4-C ) :   1.0552 B(  4-C , 67-H ) :   0.9512 B(  4-C , 68-H ) :   0.9482
B(  4-C , 69-H ) :   0.9481 B(  5-S ,  6-C ) :   1.2024 B(  6-C ,  7-C ) :   1.5050
B(  6-C , 70-H ) :   0.9736 B(  7-C ,  8-C ) :   1.0190 B(  8-C ,  9-S ) :   1.1629
B(  8-C , 10-C ) :   0.1037 B(  8-C , 12-C ) :   1.5788 B(  9-S , 10-C ) :   1.1183
B( 10-C , 11-C ) :   1.4922 B( 10-C , 23-C ) :   1.1525 B( 11-C , 12-C ) :   1.3120
B( 11-C , 19-C ) :   1.0121 B( 12-C , 13-C ) :   0.9595 B( 13-C , 14-N ) :   0.8355
B( 13-C , 17-C ) :   1.0684 B( 13-C , 71-H ) :   0.8980 B( 14-N , 15-O ) :   1.5444
B( 14-N , 16-O ) :   1.5807 B( 15-O , 16-O ) :   0.2710 B( 17-C , 18-C ) :   1.1042
B( 17-C , 72-H ) :   0.9274 B( 17-C , 73-H ) :   0.9287 B( 18-C , 19-C ) :   1.0504
B( 18-C , 74-H ) :   0.9116 B( 18-C , 75-H ) :   0.9263 B( 19-C , 20-N ) :   0.8322
B( 19-C , 76-H ) :   0.8861 B( 20-N , 21-O ) :   1.5939 B( 20-N , 22-O ) :   1.5320
B( 21-O , 22-O ) :   0.2643 B( 23-C , 24-C ) :   1.5815 B( 23-C , 77-H ) :   0.9592
B( 24-C , 25-C ) :   1.1867 B( 24-C , 78-H ) :   0.9453 B( 25-C , 26-N ) :   1.1724
B( 25-C , 32-C ) :   1.3399 B( 26-N , 27-C ) :   0.9390 B( 26-N , 29-C ) :   1.0299
B( 27-C , 28-C ) :   1.1170 B( 27-C , 79-H ) :   0.9253 B( 27-C , 80-H ) :   0.9490
B( 28-C , 81-H ) :   0.9608 B( 28-C , 82-H ) :   0.9686 B( 28-C , 83-H ) :   0.9662
B( 29-C , 30-O ) :   2.1315 B( 29-C , 31-C ) :   0.9760 B( 31-C , 32-C ) :   1.2321
B( 31-C , 38-C ) :   1.3491 B( 32-C , 33-C ) :   0.9859 B( 33-C , 34-O ) :   2.1151
B( 33-C , 35-N ) :   1.0358 B( 35-N , 36-C ) :   0.9368 B( 35-N , 38-C ) :   1.1707
B( 36-C , 37-C ) :   1.1159 B( 36-C , 84-H ) :   0.9472 B( 36-C , 85-H ) :   0.9209
B( 37-C , 86-H ) :   0.9658 B( 37-C , 87-H ) :   0.9647 B( 37-C , 88-H ) :   0.9608
B( 38-C , 39-C ) :   1.1883 B( 39-C , 40-C ) :   1.5852 B( 39-C , 89-H ) :   0.9491
B( 40-C , 41-C ) :   1.1657 B( 40-C , 90-H ) :   0.9626 B( 41-C , 42-S ) :   1.1216
B( 41-C , 45-C ) :   1.4919 B( 42-S , 43-C ) :   1.1378 B( 43-C , 44-C ) :   1.4834
B( 43-C , 56-C ) :   1.1393 B( 44-C , 45-C ) :   1.3436 B( 44-C , 52-C ) :   0.9966
B( 45-C , 46-C ) :   0.9668 B( 46-C , 47-N ) :   0.8336 B( 46-C , 50-C ) :   1.0619
B( 46-C , 91-H ) :   0.8935 B( 47-N , 48-O ) :   1.5233 B( 47-N , 49-O ) :   1.5931
B( 48-O , 49-O ) :   0.2669 B( 50-C , 51-C ) :   1.0993 B( 50-C , 92-H ) :   0.9276
B( 50-C , 93-H ) :   0.9285 B( 51-C , 52-C ) :   1.0556 B( 51-C , 94-H ) :   0.9194
B( 51-C , 95-H ) :   0.9267 B( 52-C , 53-N ) :   0.8344 B( 52-C , 96-H ) :   0.8884
B( 53-N , 54-O ) :   1.5948 B( 53-N , 55-O ) :   1.5359 B( 54-O , 55-O ) :   0.2669
B( 56-C , 57-C ) :   1.6692 B( 56-C , 97-H ) :   0.9576 B( 57-C , 58-C ) :   1.1220
B( 57-C , 98-H ) :   0.9598 B( 58-C , 59-C ) :   1.4621 B( 58-C , 65-C ) :   1.2473
B( 59-C , 60-C ) :   0.9947 B( 59-C , 63-S ) :   1.1218 B( 60-C , 61-O ) :   2.1318
B( 60-C , 62-C ) :   1.0616 B( 62-C , 99-H ) :   0.9523 B( 62-C ,100-H ) :   0.9462
B( 62-C ,101-H ) :   0.9484 B( 63-S , 64-C ) :   1.1766 B( 64-C , 65-C ) :   1.5751
B( 64-C ,102-H ) :   0.9686 B( 65-C ,103-H ) :   0.9923

-----------------------------------------------------------------------------
         ABSORPTION SPECTRUM VIA TRANSITION ELECTRIC DIPOLE MOMENTS
-----------------------------------------------------------------------------
State   Energy  Wavelength   fosc         T2         TX        TY        TZ
        (cm-1)    (nm)                  (au**2)     (au)      (au)      (au)
-----------------------------------------------------------------------------
   0   14681.2    681.1   1.076109935  24.13077  -3.23483   3.33566  -1.59374
   1   22608.5    442.3   0.044883019   0.65356  -0.08386  -0.65121   0.47165
   2   24002.8    416.6   0.469451221   6.43879   2.43482   0.02141  -0.71414
   3   25235.1    396.3   0.013966858   0.18221  -0.35553  -0.11725   0.20508
   4   26250.2    380.9   0.031162932   0.39082  -0.02983  -0.56021   0.27586
   5   26473.7    377.7   0.005690661   0.07077   0.23860  -0.11254  -0.03420
   6   27009.2    370.2   0.173890222   2.11953  -0.90953   1.10459  -0.26864
   7   27419.1    364.7   0.162056555   1.94576   1.34128  -0.36813   0.10588
   8   28401.1    352.1   0.004603770   0.05336   0.17436  -0.14860  -0.02968
   9   29233.0    342.1   0.437690353   4.92912   2.10343   0.27953  -0.65313
  10   30220.1    330.9   0.003860643   0.04206   0.12920  -0.15911  -0.00682
  11   32069.9    311.8   0.013522311   0.13881   0.22550   0.24943  -0.16046
  12   32137.1    311.2   0.007367462   0.07547   0.08119  -0.22030  -0.14264
  13   32374.5    308.9   0.207011698   2.10508  -0.87384  -1.03881   0.51220
  14   32922.5    303.7   0.001036864   0.01037   0.01982   0.09560  -0.02892
  15   33302.8    300.3   0.002022230   0.01999   0.04138  -0.13519   0.00112
  16   33939.4    294.6   0.142263774   1.37996   1.05687   0.12006  -0.49856
  17   35235.5    283.8   0.094070848   0.87892  -0.76379   0.54217   0.03997
  18   35426.2    282.3   0.212553309   1.97523  -1.11972   0.84276   0.10592
  19   36128.2    276.8   0.031329195   0.28548   0.48569   0.16497  -0.14959
  20   36540.4    273.7   0.019309320   0.17397   0.05199  -0.41384  -0.00007
  21   36566.5    273.5   0.087265427   0.78566  -0.28963   0.80545  -0.23027
  22   37302.9    268.1   0.037043767   0.32693   0.32993   0.34201  -0.31797
  23   37976.7    263.3   0.057932328   0.50220  -0.66250  -0.02530   0.25031
  24   38391.6    260.5   0.027407688   0.23502   0.07170   0.47833  -0.03298
  25   38627.8    258.9   0.003253119   0.02773   0.07019   0.00264  -0.15097
  26   39009.2    256.4   0.054871164   0.46308  -0.40290   0.54600  -0.05126
  27   39117.5    255.6   0.193627284   1.62956  -0.68664  -0.76932   0.75249
  28   39421.4    253.7   0.065499868   0.54700   0.08639   0.71231  -0.17930

FINAL SINGLE POINT ENERGY     -4519.132212755774

DIPOLE MOMENT
-------------
                                X             Y             Z
Electronic contribution:     -5.36611       0.85084       1.22036
Nuclear contribution   :      6.52644      -2.91356      -1.58607
                        -----------------------------------------
Total Dipole Moment    :      1.16033      -2.06272      -0.36572
                        -----------------------------------------
Magnitude (a.u.)       :      2.39477
Magnitude (Debye)      :      6.08702

Rotational constants in cm-1:     0.001924     0.000305     0.000272
Rotational constants in MHz :    57.679714     9.132128     8.141298

                             ****ORCA TERMINATED NORMALLY****
TOTAL RUN TIME: 0 days 0 hours 10 minutes 3 seconds 189 msec
