                         Program Version 4.2.0 -  RELEASE  -
|  1> # ORCA input file
|  2> # SCF done       -189.491376855966          0.000892071566
|  3> ! CAM-B3LYP def2-SVP def2/J RIJCOSX Grid4 TightSCF
|  4> %maxcore 5000
|  5> %tddft
|  6>     Mode sTDDFT
|  7>     Ethresh 5.0
|  8>     maxcore 5000
|  9> end
| 10>
| 11> %pal
| 12>   nprocs 6
| 13>   end
| 14> * xyz 0 1
| 15>    C       12.88193         1.11662         3.82718
| 16>    C       12.80553         0.74111         5.14021
| 17>    F       13.75543         1.14393         5.99897
| 18>    C       11.76342        -0.05642         5.63527
| 19>    C       10.78636        -0.47627         4.77681
| 20>    C       10.81516        -0.11754         3.41272
| 21>    C       11.88428         0.69374         2.92789
| 22>    C       11.93755         1.06271         1.56342
| 23>    C       10.95320         0.63561         0.71348
| 24>    C        9.87816        -0.16248         1.20781
| 25>    C        9.80601        -0.53793         2.52024
| 26>    C        8.93787        -0.44919         0.11597
| 27>    O        7.94885        -1.14091         0.12472
| 28>    C        9.42991         0.37412        -1.03893
| 29>    C       10.76783         0.83714        -0.72053
| 30>    C       11.73934         1.18012        -1.61679
| 31>    C       11.57235         1.10621        -3.01711
| 32>    N       11.51900         0.96949        -4.15518
| 33>    C       13.05515         1.52964        -1.24350
| 34>    N       14.13384         1.81700        -0.98056
| 35>    C        8.57229         0.67061        -2.04514
| 36>    C        8.69899         1.70464        -3.01401
| 37>    N        9.55300         2.70497        -2.86876
| 38>    C        9.35073         3.52103        -3.92218
| 39>    C        8.28718         3.00671        -4.79928
| 40>    C        8.08670         3.90977        -5.94678
| 41>    O        7.28053         3.81785        -6.84563
| 42>    C        9.09978         4.95670        -5.71467
| 43>    C        9.83984         4.68390        -4.45845
| 44>    N       10.77052         5.64334        -4.23409
| 45>    C       10.66676         6.46470        -5.24723
| 46>    C        9.64266         6.09368        -6.21248
| 47>    C        7.85874         1.83526        -4.22911
| 48>    C        6.87242         0.89584        -4.65050
| 49>    C        6.08623         1.08578        -5.73163
| 50>    C        5.06539         0.16684        -6.15339
| 51>    C        3.97885         0.59190        -6.94313
| 52>    N        2.99867        -0.20218        -7.28945
| 53>    C        3.04207        -1.46857        -6.87221
| 54>    N        4.05991        -1.99426        -6.18550
| 55>    C        5.04900        -1.20257        -5.84389
| 56>    C        1.90656        -2.31130        -7.18574
| 57>    N        0.77018        -1.77704        -7.57117
| 58>    C       -0.08449        -2.80861        -7.75507
| 59>    C        0.57640        -4.09914        -7.49346
| 60>    C       -0.37472        -5.20917        -7.68447
| 61>    O       -0.17533        -6.40269        -7.59814
| 62>    C       -1.62598        -4.51001        -8.02101
| 63>    C       -1.39716        -3.04342        -8.06893
| 64>    N       -2.54874        -2.39359        -8.36984
| 65>    C       -3.45121        -3.33122        -8.49457
| 66>    C       -2.94403        -4.67925        -8.28317
| 67>    C        1.85957        -3.79441        -7.10576
| 68>    C        2.92063        -4.65084        -6.70150
| 69>    C        2.78849        -6.00113        -6.69978
| 70>    C        3.80493        -6.88960        -6.27488
| 71>    C        3.63550        -8.22370        -6.06087
| 72>    C        4.79791        -9.14694        -6.01819
| 73>    O        5.96208        -8.85586        -5.88464
| 74>    C        4.21950       -10.49422        -6.24149
| 75>    C        4.87956       -11.69263        -6.41326
| 76>    C        4.11639       -12.83730        -6.64877
| 77>    C        2.71181       -12.75107        -6.71190
| 78>    C        2.05227       -11.53465        -6.52733
| 79>    C        2.81308       -10.40339        -6.28607
| 80>    C        2.42224        -9.01787        -6.02149
| 81>    C        1.19102        -8.60727        -5.59196
| 82>    C        0.93077        -7.33459        -5.03331
| 83>    N        0.68116        -6.35350        -4.49443
| 84>    C        0.06137        -9.45219        -5.52897
| 85>    N       -0.87836       -10.10659        -5.46611
| 86>    C        1.95598       -13.92198        -6.96929
| 87>    N        1.34045       -14.86369        -7.18073
| 88>    C        4.75604       -14.08724        -6.83005
| 89>    N        5.29253       -15.08756        -6.98071
| 90>    H       13.70015         1.72875         3.48151
| 91>    H       11.75595        -0.32004         6.68094
| 92>    H        9.97408        -1.09094         5.13415
| 93>    H       12.75023         1.68562         1.22490
| 94>    H        8.98606        -1.14595         2.87210
| 95>    H        7.64518         0.10719        -2.04508
| 96>    H       11.30420         7.32927        -5.31390
| 97>    H        9.40588         6.63524        -7.10669
| 98>    H        6.75594         0.00709        -4.04531
| 99>    H        6.17943         1.99714        -6.30881
|100>    H        3.91189         1.61644        -7.28672
|101>    H        5.87067        -1.67792        -5.32298
|102>    H       -4.46903        -3.07806        -8.73618
|103>    H       -3.52521        -5.57850        -8.33489
|104>    H        3.82499        -4.17557        -6.34948
|105>    H        1.86480        -6.43417        -7.05856
|106>    H        4.81602        -6.50959        -6.17755
|107>    H        5.95694       -11.74326        -6.36839
|108>    H        0.97581       -11.50113        -6.58760
|109> *
|110>
|111>                          ****END OF INPUT****

CARTESIAN COORDINATES (ANGSTROEM)
---------------------------------
  C     12.881930    1.116620    3.827180
  C     12.805530    0.741110    5.140210
  F     13.755430    1.143930    5.998970
  C     11.763420   -0.056420    5.635270
  C     10.786360   -0.476270    4.776810
  C     10.815160   -0.117540    3.412720
  C     11.884280    0.693740    2.927890
  C     11.937550    1.062710    1.563420
  C     10.953200    0.635610    0.713480
  C      9.878160   -0.162480    1.207810
  C      9.806010   -0.537930    2.520240
  C      8.937870   -0.449190    0.115970
  O      7.948850   -1.140910    0.124720
  C      9.429910    0.374120   -1.038930
  C     10.767830    0.837140   -0.720530
  C     11.739340    1.180120   -1.616790
  C     11.572350    1.106210   -3.017110
  N     11.519000    0.969490   -4.155180
  C     13.055150    1.529640   -1.243500
  N     14.133840    1.817000   -0.980560
  C      8.572290    0.670610   -2.045140
  C      8.698990    1.704640   -3.014010
  N      9.553000    2.704970   -2.868760
  C      9.350730    3.521030   -3.922180
  C      8.287180    3.006710   -4.799280
  C      8.086700    3.909770   -5.946780
  O      7.280530    3.817850   -6.845630
  C      9.099780    4.956700   -5.714670
  C      9.839840    4.683900   -4.458450
  N     10.770520    5.643340   -4.234090
  C     10.666760    6.464700   -5.247230
  C      9.642660    6.093680   -6.212480
  C      7.858740    1.835260   -4.229110
  C      6.872420    0.895840   -4.650500
  C      6.086230    1.085780   -5.731630
  C      5.065390    0.166840   -6.153390
  C      3.978850    0.591900   -6.943130
  N      2.998670   -0.202180   -7.289450
  C      3.042070   -1.468570   -6.872210
  N      4.059910   -1.994260   -6.185500
  C      5.049000   -1.202570   -5.843890
  C      1.906560   -2.311300   -7.185740
  N      0.770180   -1.777040   -7.571170
  C     -0.084490   -2.808610   -7.755070
  C      0.576400   -4.099140   -7.493460
  C     -0.374720   -5.209170   -7.684470
  O     -0.175330   -6.402690   -7.598140
  C     -1.625980   -4.510010   -8.021010
  C     -1.397160   -3.043420   -8.068930
  N     -2.548740   -2.393590   -8.369840
  C     -3.451210   -3.331220   -8.494570
  C     -2.944030   -4.679250   -8.283170
  C      1.859570   -3.794410   -7.105760
  C      2.920630   -4.650840   -6.701500
  C      2.788490   -6.001130   -6.699780
  C      3.804930   -6.889600   -6.274880
  C      3.635500   -8.223700   -6.060870
  C      4.797910   -9.146940   -6.018190
  O      5.962080   -8.855860   -5.884640
  C      4.219500  -10.494220   -6.241490
  C      4.879560  -11.692630   -6.413260
  C      4.116390  -12.837300   -6.648770
  C      2.711810  -12.751070   -6.711900
  C      2.052270  -11.534650   -6.527330
  C      2.813080  -10.403390   -6.286070
  C      2.422240   -9.017870   -6.021490
  C      1.191020   -8.607270   -5.591960
  C      0.930770   -7.334590   -5.033310
  N      0.681160   -6.353500   -4.494430
  C      0.061370   -9.452190   -5.528970
  N     -0.878360  -10.106590   -5.466110
  C      1.955980  -13.921980   -6.969290
  N      1.340450  -14.863690   -7.180730
  C      4.756040  -14.087240   -6.830050
  N      5.292530  -15.087560   -6.980710
  H     13.700150    1.728750    3.481510
  H     11.755950   -0.320040    6.680940
  H      9.974080   -1.090940    5.134150
  H     12.750230    1.685620    1.224900
  H      8.986060   -1.145950    2.872100
  H      7.645180    0.107190   -2.045080
  H     11.304200    7.329270   -5.313900
  H      9.405880    6.635240   -7.106690
  H      6.755940    0.007090   -4.045310
  H      6.179430    1.997140   -6.308810
  H      3.911890    1.616440   -7.286720
  H      5.870670   -1.677920   -5.322980
  H     -4.469030   -3.078060   -8.736180
  H     -3.525210   -5.578500   -8.334890
  H      3.824990   -4.175570   -6.349480
  H      1.864800   -6.434170   -7.058560
  H      4.816020   -6.509590   -6.177550
  H      5.956940  -11.743260   -6.368390
  H      0.975810  -11.501130   -6.587600

 Total Charge           Charge          ....    0
 Multiplicity           Mult            ....    1
 Number of Electrons    NEL             ....  492
 Basis Dimension        Dim             .... 1145

ORBITAL ENERGIES
----------------

  NO   OCC          E(Eh)            E(eV)
   0   2.0000     -24.796671      -674.7517
   1   2.0000     -19.237766      -523.4862
   2   2.0000     -19.232472      -523.3422
   3   2.0000     -19.231691      -523.3209
   4   2.0000     -19.229048      -523.2490
   5   2.0000     -14.443109      -393.0170
   6   2.0000     -14.434910      -392.7939
   7   2.0000     -14.433174      -392.7466
   8   2.0000     -14.431142      -392.6913
   9   2.0000     -14.427554      -392.5937
  10   2.0000     -14.426964      -392.5777
  11   2.0000     -14.425106      -392.5271
  12   2.0000     -14.424503      -392.5107
  13   2.0000     -14.424279      -392.5046
  14   2.0000     -14.423962      -392.4960
  15   2.0000     -14.421693      -392.4342
  16   2.0000     -14.419957      -392.3870
  17   2.0000     -10.391112      -282.7565
  18   2.0000     -10.388222      -282.6779
  19   2.0000     -10.387408      -282.6557
  20   2.0000     -10.383353      -282.5454
  21   2.0000     -10.381544      -282.4962
  22   2.0000     -10.368612      -282.1443
  23   2.0000     -10.363903      -282.0161
  24   2.0000     -10.362964      -281.9906
  25   2.0000     -10.360562      -281.9252
  26   2.0000     -10.356718      -281.8206
  27   2.0000     -10.355424      -281.7854
  28   2.0000     -10.355331      -281.7829
  29   2.0000     -10.353814      -281.7416
  30   2.0000     -10.351916      -281.6899
  31   2.0000     -10.350223      -281.6439
  32   2.0000     -10.347368      -281.5662
  33   2.0000     -10.346194      -281.5342
  34   2.0000     -10.345625      -281.5188
  35   2.0000     -10.344538      -281.4892
  36   2.0000     -10.342296      -281.4282
  37   2.0000     -10.341849      -281.4160
  38   2.0000     -10.341366      -281.4029
  39   2.0000     -10.336481      -281.2699
  40   2.0000     -10.333357      -281.1849
  41   2.0000     -10.332661      -281.1660
  42   2.0000     -10.331631      -281.1380
  43   2.0000     -10.330610      -281.1102
  44   2.0000     -10.330292      -281.1015
  45   2.0000     -10.329864      -281.0899
  46   2.0000     -10.327895      -281.0363
  47   2.0000     -10.324525      -280.9446
  48   2.0000     -10.324173      -280.9350
  49   2.0000     -10.323996      -280.9302
  50   2.0000     -10.321868      -280.8723
  51   2.0000     -10.321562      -280.8640
  52   2.0000     -10.321320      -280.8574
  53   2.0000     -10.320934      -280.8469
  54   2.0000     -10.320298      -280.8296
  55   2.0000     -10.319500      -280.8079
  56   2.0000     -10.317827      -280.7624
  57   2.0000     -10.315699      -280.7045
  58   2.0000     -10.314172      -280.6629
  59   2.0000     -10.312683      -280.6224
  60   2.0000     -10.311249      -280.5834
  61   2.0000     -10.309392      -280.5328
  62   2.0000     -10.309392      -280.5328
  63   2.0000     -10.309323      -280.5309
  64   2.0000     -10.308602      -280.5113
  65   2.0000     -10.308032      -280.4958
  66   2.0000     -10.307496      -280.4812
  67   2.0000     -10.306705      -280.4597
  68   2.0000     -10.306211      -280.4463
  69   2.0000     -10.305632      -280.4305
  70   2.0000     -10.305201      -280.4188
  71   2.0000     -10.304481      -280.3992
  72   2.0000     -10.303555      -280.3740
  73   2.0000     -10.300034      -280.2782
  74   2.0000     -10.294018      -280.1145
  75   2.0000      -1.312449       -35.7136
  76   2.0000      -1.153098       -31.3774
  77   2.0000      -1.147710       -31.2308
  78   2.0000      -1.146353       -31.1939
  79   2.0000      -1.142891       -31.0997
  80   2.0000      -1.114143       -30.3174
  81   2.0000      -1.099953       -29.9312
  82   2.0000      -1.089493       -29.6466
  83   2.0000      -1.080023       -29.3889
  84   2.0000      -1.072629       -29.1877
  85   2.0000      -1.038408       -28.2565
  86   2.0000      -1.033210       -28.1151
  87   2.0000      -1.022658       -27.8279
  88   2.0000      -1.014851       -27.6155
  89   2.0000      -1.007209       -27.4076
  90   2.0000      -1.006883       -27.3987
  91   2.0000      -1.004966       -27.3465
  92   2.0000      -1.004193       -27.3255
  93   2.0000      -1.002100       -27.2685
  94   2.0000      -0.991095       -26.9691
  95   2.0000      -0.975409       -26.5422
  96   2.0000      -0.958588       -26.0845
  97   2.0000      -0.956316       -26.0227
  98   2.0000      -0.948184       -25.8014
  99   2.0000      -0.940724       -25.5984
 100   2.0000      -0.937566       -25.5125
 101   2.0000      -0.923173       -25.1208
 102   2.0000      -0.921189       -25.0668
 103   2.0000      -0.913373       -24.8541
 104   2.0000      -0.902805       -24.5666
 105   2.0000      -0.900350       -24.4998
 106   2.0000      -0.898328       -24.4448
 107   2.0000      -0.891576       -24.2610
 108   2.0000      -0.876786       -23.8586
 109   2.0000      -0.873900       -23.7800
 110   2.0000      -0.859389       -23.3852
 111   2.0000      -0.853227       -23.2175
 112   2.0000      -0.848103       -23.0781
 113   2.0000      -0.828002       -22.5311
 114   2.0000      -0.814104       -22.1529
 115   2.0000      -0.812343       -22.1050
 116   2.0000      -0.804240       -21.8845
 117   2.0000      -0.786121       -21.3914
 118   2.0000      -0.778963       -21.1966
 119   2.0000      -0.777543       -21.1580
 120   2.0000      -0.770134       -20.9564
 121   2.0000      -0.767225       -20.8772
 122   2.0000      -0.753128       -20.4937
 123   2.0000      -0.748976       -20.3807
 124   2.0000      -0.743575       -20.2337
 125   2.0000      -0.731669       -19.9097
 126   2.0000      -0.726736       -19.7755
 127   2.0000      -0.722333       -19.6557
 128   2.0000      -0.715612       -19.4728
 129   2.0000      -0.706291       -19.2192
 130   2.0000      -0.703276       -19.1371
 131   2.0000      -0.696279       -18.9467
 132   2.0000      -0.695193       -18.9172
 133   2.0000      -0.687756       -18.7148
 134   2.0000      -0.674372       -18.3506
 135   2.0000      -0.666791       -18.1443
 136   2.0000      -0.660039       -17.9606
 137   2.0000      -0.656215       -17.8565
 138   2.0000      -0.653068       -17.7709
 139   2.0000      -0.652043       -17.7430
 140   2.0000      -0.649051       -17.6616
 141   2.0000      -0.641891       -17.4668
 142   2.0000      -0.637226       -17.3398
 143   2.0000      -0.635231       -17.2855
 144   2.0000      -0.631693       -17.1892
 145   2.0000      -0.621254       -16.9052
 146   2.0000      -0.616500       -16.7758
 147   2.0000      -0.612634       -16.6706
 148   2.0000      -0.609803       -16.5936
 149   2.0000      -0.600487       -16.3401
 150   2.0000      -0.599631       -16.3168
 151   2.0000      -0.594590       -16.1796
 152   2.0000      -0.590725       -16.0744
 153   2.0000      -0.579727       -15.7752
 154   2.0000      -0.578079       -15.7303
 155   2.0000      -0.573408       -15.6032
 156   2.0000      -0.570981       -15.5372
 157   2.0000      -0.569500       -15.4969
 158   2.0000      -0.567963       -15.4551
 159   2.0000      -0.564904       -15.3718
 160   2.0000      -0.564129       -15.3507
 161   2.0000      -0.563188       -15.3251
 162   2.0000      -0.560496       -15.2519
 163   2.0000      -0.558037       -15.1850
 164   2.0000      -0.554152       -15.0793
 165   2.0000      -0.552276       -15.0282
 166   2.0000      -0.550332       -14.9753
 167   2.0000      -0.547391       -14.8953
 168   2.0000      -0.544746       -14.8233
 169   2.0000      -0.543648       -14.7934
 170   2.0000      -0.539030       -14.6678
 171   2.0000      -0.535650       -14.5758
 172   2.0000      -0.533240       -14.5102
 173   2.0000      -0.530670       -14.4403
 174   2.0000      -0.529335       -14.4039
 175   2.0000      -0.524568       -14.2742
 176   2.0000      -0.522522       -14.2186
 177   2.0000      -0.520420       -14.1614
 178   2.0000      -0.519536       -14.1373
 179   2.0000      -0.517417       -14.0796
 180   2.0000      -0.514229       -13.9929
 181   2.0000      -0.513197       -13.9648
 182   2.0000      -0.506504       -13.7827
 183   2.0000      -0.505253       -13.7486
 184   2.0000      -0.503985       -13.7141
 185   2.0000      -0.501581       -13.6487
 186   2.0000      -0.498725       -13.5710
 187   2.0000      -0.495496       -13.4831
 188   2.0000      -0.493594       -13.4314
 189   2.0000      -0.492517       -13.4021
 190   2.0000      -0.488385       -13.2896
 191   2.0000      -0.488106       -13.2820
 192   2.0000      -0.485246       -13.2042
 193   2.0000      -0.482244       -13.1225
 194   2.0000      -0.479138       -13.0380
 195   2.0000      -0.476917       -12.9776
 196   2.0000      -0.473040       -12.8721
 197   2.0000      -0.470129       -12.7929
 198   2.0000      -0.462466       -12.5843
 199   2.0000      -0.461962       -12.5706
 200   2.0000      -0.457499       -12.4492
 201   2.0000      -0.456757       -12.4290
 202   2.0000      -0.456294       -12.4164
 203   2.0000      -0.452618       -12.3164
 204   2.0000      -0.451270       -12.2797
 205   2.0000      -0.450776       -12.2662
 206   2.0000      -0.449242       -12.2245
 207   2.0000      -0.448791       -12.2122
 208   2.0000      -0.447102       -12.1663
 209   2.0000      -0.445788       -12.1305
 210   2.0000      -0.442357       -12.0372
 211   2.0000      -0.438491       -11.9320
 212   2.0000      -0.435804       -11.8588
 213   2.0000      -0.433027       -11.7833
 214   2.0000      -0.431732       -11.7480
 215   2.0000      -0.429202       -11.6792
 216   2.0000      -0.425355       -11.5745
 217   2.0000      -0.424759       -11.5583
 218   2.0000      -0.418439       -11.3863
 219   2.0000      -0.415227       -11.2989
 220   2.0000      -0.414763       -11.2863
 221   2.0000      -0.403005       -10.9663
 222   2.0000      -0.399392       -10.8680
 223   2.0000      -0.394712       -10.7407
 224   2.0000      -0.389014       -10.5856
 225   2.0000      -0.381715       -10.3870
 226   2.0000      -0.377496       -10.2722
 227   2.0000      -0.372272       -10.1300
 228   2.0000      -0.371818       -10.1177
 229   2.0000      -0.370282       -10.0759
 230   2.0000      -0.367279        -9.9942
 231   2.0000      -0.363109        -9.8807
 232   2.0000      -0.357235        -9.7209
 233   2.0000      -0.354367        -9.6428
 234   2.0000      -0.354058        -9.6344
 235   2.0000      -0.350313        -9.5325
 236   2.0000      -0.349495        -9.5102
 237   2.0000      -0.347713        -9.4618
 238   2.0000      -0.342051        -9.3077
 239   2.0000      -0.336730        -9.1629
 240   2.0000      -0.331554        -9.0220
 241   2.0000      -0.331067        -9.0088
 242   2.0000      -0.323983        -8.8160
 243   2.0000      -0.309770        -8.4293
 244   2.0000      -0.299665        -8.1543
 245   2.0000      -0.292047        -7.9470
 246   0.0000      -0.144230        -3.9247
 247   0.0000      -0.131149        -3.5688
 248   0.0000      -0.105774        -2.8782
 249   0.0000      -0.093644        -2.5482
 250   0.0000      -0.089413        -2.4331

MULLIKEN ATOMIC CHARGES
-----------------------
   0 C :   -0.097026
   1 C :    0.304571
   2 F :   -0.184454
   3 C :   -0.025349
   4 C :   -0.007561
   5 C :    0.098713
   6 C :    0.104576
   7 C :   -0.084919
   8 C :    0.047908
   9 C :    0.006311
  10 C :   -0.072225
  11 C :    0.134815
  12 O :   -0.129734
  13 C :   -0.064611
  14 C :    0.264883
  15 C :   -0.263358
  16 C :   -0.176943
  17 N :    0.162025
  18 C :   -0.185626
  19 N :    0.168297
  20 C :   -0.016590
  21 C :    0.032375
  22 N :   -0.043820
  23 C :    0.086402
  24 C :   -0.153801
  25 C :    0.226763
  26 O :   -0.134177
  27 C :   -0.008019
  28 C :   -0.026286
  29 N :   -0.046795
  30 C :    0.099664
  31 C :   -0.091287
  32 C :    0.065802
  33 C :   -0.024405
  34 C :    0.025929
  35 C :    0.018645
  36 C :    0.044363
  37 N :    0.006380
  38 C :   -0.151322
  39 N :   -0.052469
  40 C :    0.050219
  41 C :    0.094657
  42 N :    0.005954
  43 C :    0.078778
  44 C :   -0.154699
  45 C :    0.246493
  46 O :   -0.148860
  47 C :   -0.004835
  48 C :   -0.017147
  49 N :   -0.045277
  50 C :    0.098567
  51 C :   -0.092275
  52 C :    0.020218
  53 C :    0.007330
  54 C :    0.017864
  55 C :    0.043310
  56 C :   -0.107785
  57 C :    0.147652
  58 O :   -0.124475
  59 C :   -0.001975
  60 C :   -0.034173
  61 C :   -0.067660
  62 C :   -0.060715
  63 C :   -0.037076
  64 C :    0.041045
  65 C :    0.260555
  66 C :   -0.288678
  67 C :   -0.202670
  68 N :    0.174190
  69 C :   -0.179071
  70 N :    0.167313
  71 C :   -0.174897
  72 N :    0.199004
  73 C :   -0.174210
  74 N :    0.193502
  75 H :    0.001082
  76 H :    0.008405
  77 H :   -0.004983
  78 H :    0.001136
  79 H :   -0.006105
  80 H :    0.020805
  81 H :    0.020548
  82 H :    0.003168
  83 H :   -0.013894
  84 H :    0.021105
  85 H :    0.023930
  86 H :    0.013353
  87 H :    0.019496
  88 H :    0.006176
  89 H :    0.000525
  90 H :    0.036899
  91 H :    0.017957
  92 H :    0.018148
  93 H :    0.024431
Sum of atomic charges:    0.0000000

LOEWDIN ATOMIC CHARGES
----------------------
   0 C :   -0.040986
   1 C :    0.096783
   2 F :   -0.059035
   3 C :   -0.032977
   4 C :    0.007291
   5 C :   -0.018172
   6 C :    0.007319
   7 C :    0.013665
   8 C :   -0.014396
   9 C :   -0.065037
  10 C :    0.042098
  11 C :    0.084665
  12 O :   -0.128127
  13 C :   -0.016118
  14 C :    0.062481
  15 C :   -0.092777
  16 C :   -0.013249
  17 N :   -0.043917
  18 C :   -0.015463
  19 N :   -0.033278
  20 C :    0.023949
  21 C :    0.058247
  22 N :   -0.075528
  23 C :    0.045380
  24 C :   -0.036871
  25 C :    0.072300
  26 O :   -0.133404
  27 C :   -0.035986
  28 C :    0.043428
  29 N :   -0.090701
  30 C :    0.090730
  31 C :   -0.023272
  32 C :   -0.019555
  33 C :   -0.021145
  34 C :    0.016327
  35 C :   -0.054293
  36 C :    0.062399
  37 N :   -0.035874
  38 C :    0.010664
  39 N :   -0.060841
  40 C :    0.055010
  41 C :    0.057598
  42 N :   -0.058417
  43 C :    0.044109
  44 C :   -0.028238
  45 C :    0.079326
  46 O :   -0.136701
  47 C :   -0.034118
  48 C :    0.043556
  49 N :   -0.088233
  50 C :    0.089706
  51 C :   -0.022500
  52 C :   -0.022910
  53 C :    0.025601
  54 C :   -0.011248
  55 C :    0.077152
  56 C :   -0.089502
  57 C :    0.081627
  58 O :   -0.127766
  59 C :   -0.032081
  60 C :    0.048270
  61 C :   -0.031118
  62 C :   -0.023378
  63 C :    0.031784
  64 C :    0.007551
  65 C :    0.059966
  66 C :   -0.105207
  67 C :   -0.016994
  68 N :   -0.039396
  69 C :   -0.017034
  70 N :   -0.034891
  71 C :   -0.030969
  72 N :   -0.012830
  73 C :   -0.031927
  74 N :   -0.016416
  75 H :    0.044711
  76 H :    0.043993
  77 H :    0.037405
  78 H :    0.041125
  79 H :    0.042044
  80 H :    0.046525
  81 H :    0.028297
  82 H :    0.038074
  83 H :    0.028583
  84 H :    0.037564
  85 H :    0.034522
  86 H :    0.027747
  87 H :    0.027928
  88 H :    0.039036
  89 H :    0.031669
  90 H :    0.031150
  91 H :    0.046443
  92 H :    0.054254
  93 H :    0.052825

  Mayer bond orders larger than 0.100000
B(  0-C ,  1-C ) :   1.4389 B(  0-C ,  6-C ) :   1.2045 B(  0-C , 75-H ) :   1.0067
B(  1-C ,  2-F ) :   1.0951 B(  1-C ,  3-C ) :   1.2517 B(  3-C ,  4-C ) :   1.4652
B(  3-C , 76-H ) :   0.9925 B(  4-C ,  5-C ) :   1.2293 B(  4-C , 77-H ) :   0.9976
B(  5-C ,  6-C ) :   1.2501 B(  5-C , 10-C ) :   1.2038 B(  6-C ,  7-C ) :   1.2055
B(  7-C ,  8-C ) :   1.4608 B(  7-C , 78-H ) :   0.9950 B(  8-C ,  9-C ) :   1.2096
B(  8-C , 14-C ) :   0.9980 B(  9-C , 10-C ) :   1.4571 B(  9-C , 11-C ) :   0.9306
B( 10-C , 79-H ) :   1.0155 B( 11-C , 12-O ) :   2.2689 B( 11-C , 13-C ) :   0.9099
B( 13-C , 14-C ) :   1.0102 B( 13-C , 20-C ) :   1.7291 B( 14-C , 15-C ) :   1.7117
B( 15-C , 16-C ) :   1.1535 B( 15-C , 18-C ) :   1.1373 B( 16-C , 17-N ) :   2.9790
B( 18-C , 19-N ) :   2.9860 B( 20-C , 21-C ) :   1.0605 B( 20-C , 80-H ) :   0.9367
B( 21-C , 22-N ) :   1.5729 B( 21-C , 23-C ) :   0.1135 B( 21-C , 32-C ) :   1.0226
B( 22-N , 23-C ) :   1.3141 B( 23-C , 24-C ) :   1.0624 B( 23-C , 28-C ) :   1.4388
B( 24-C , 25-C ) :   0.8921 B( 24-C , 32-C ) :   1.5577 B( 25-C , 26-O ) :   2.1904
B( 25-C , 27-C ) :   0.9271 B( 26-O , 84-H ) :   0.1028 B( 27-C , 28-C ) :   1.0570
B( 27-C , 31-C ) :   1.6219 B( 28-C , 29-N ) :   1.3054 B( 29-N , 30-C ) :   1.6649
B( 30-C , 31-C ) :   1.0501 B( 30-C , 81-H ) :   0.9887 B( 31-C , 82-H ) :   1.0117
B( 32-C , 33-C ) :   1.1241 B( 33-C , 34-C ) :   1.7010 B( 33-C , 83-H ) :   0.9569
B( 34-C , 35-C ) :   1.0503 B( 34-C , 84-H ) :   0.9536 B( 35-C , 36-C ) :   1.2878
B( 35-C , 40-C ) :   1.3195 B( 36-C , 37-N ) :   1.5778 B( 36-C , 85-H ) :   0.9884
B( 37-N , 38-C ) :   1.5939 B( 38-C , 39-N ) :   1.5632 B( 38-C , 41-C ) :   0.9435
B( 39-N , 40-C ) :   1.5532 B( 40-C , 86-H ) :   0.9818 B( 41-C , 42-N ) :   1.6974
B( 41-C , 43-C ) :   0.1225 B( 41-C , 52-C ) :   1.0339 B( 42-N , 43-C ) :   1.3077
B( 43-C , 44-C ) :   1.0582 B( 43-C , 48-C ) :   1.4415 B( 44-C , 45-C ) :   0.8945
B( 44-C , 52-C ) :   1.5467 B( 45-C , 46-O ) :   2.1455 B( 45-C , 47-C ) :   0.9346
B( 46-O , 90-H ) :   0.1020 B( 47-C , 48-C ) :   1.0569 B( 47-C , 51-C ) :   1.6214
B( 48-C , 49-N ) :   1.3020 B( 49-N , 50-C ) :   1.6686 B( 50-C , 51-C ) :   1.0494
B( 50-C , 87-H ) :   0.9885 B( 51-C , 88-H ) :   1.0123 B( 52-C , 53-C ) :   1.1235
B( 53-C , 54-C ) :   1.6206 B( 53-C , 89-H ) :   0.9587 B( 54-C , 55-C ) :   1.1177
B( 54-C , 90-H ) :   0.9279 B( 55-C , 56-C ) :   1.6084 B( 55-C , 91-H ) :   0.9674
B( 56-C , 57-C ) :   0.9453 B( 56-C , 65-C ) :   1.0366 B( 57-C , 58-O ) :   2.2893
B( 57-C , 59-C ) :   0.8982 B( 59-C , 60-C ) :   1.3696 B( 59-C , 64-C ) :   1.3342
B( 60-C , 61-C ) :   1.3676 B( 60-C , 92-H ) :   1.0138 B( 61-C , 62-C ) :   1.4023
B( 61-C , 73-C ) :   1.0864 B( 62-C , 63-C ) :   1.3877 B( 62-C , 71-C ) :   1.0854
B( 63-C , 64-C ) :   1.3626 B( 63-C , 93-H ) :   0.9895 B( 64-C , 65-C ) :   0.9776
B( 65-C , 66-C ) :   1.6850 B( 66-C , 67-C ) :   1.1561 B( 66-C , 69-C ) :   1.1374
B( 67-C , 68-N ) :   2.9987 B( 69-C , 70-N ) :   2.9817 B( 71-C , 72-N ) :   3.0437
B( 73-C , 74-N ) :   3.0448

-----------------------------------------------------------------------------
         ABSORPTION SPECTRUM VIA TRANSITION ELECTRIC DIPOLE MOMENTS
-----------------------------------------------------------------------------
State   Energy  Wavelength   fosc         T2         TX        TY        TZ
        (cm-1)    (nm)                  (au**2)     (au)      (au)      (au)
-----------------------------------------------------------------------------
   0   16472.6    607.1   0.079920566   1.59724   0.58645   1.10122  -0.20158
   1   17593.7    568.4   0.088112661   1.64875   0.89896  -0.80324   0.44206
   2   19607.0    510.0   0.064213685   1.07818   0.53971  -0.68753   0.56053
   3   20894.3    478.6   0.001086287   0.01712   0.00384  -0.11601  -0.06036
   4   21004.4    476.1   0.023409693   0.36691  -0.43696   0.23909  -0.34470
   5   22317.4    448.1   0.609086837   8.98488   1.14585   2.76981   0.00814
   6   22628.8    441.9   0.645401664   9.38956   2.69591   0.30209   1.42492
   7   22742.0    439.7   0.047197978   0.68324  -0.36318  -0.73545  -0.10225
   8   23746.6    421.1   0.020688068   0.28681  -0.48591  -0.12658  -0.18622
   9   23783.7    420.5   0.103468961   1.43221  -0.95050  -0.28310  -0.66979
  10   24130.7    414.4   0.188900153   2.57714  -0.27797  -1.20635   1.02205
  11   24770.1    403.7   0.016150271   0.21465  -0.11015  -0.18292   0.41116
  12   24967.2    400.5   0.403760268   5.32390  -0.24924   1.37067  -1.83931
  13   25216.4    396.6   0.059518786   0.77705  -0.43826  -0.75772   0.10409
  14   25720.1    388.8   0.013440096   0.17203   0.01109  -0.41460   0.00415
  15   25970.7    385.0   0.018316954   0.23219  -0.44954  -0.15439  -0.07918
  16   26178.7    382.0   0.130702402   1.64366  -0.43912   1.17670  -0.25732
  17   26559.4    376.5   0.017281197   0.21421  -0.25979   0.38300   0.00550
  18   27022.5    370.1   0.001719642   0.02095   0.00476   0.04713   0.13677
  19   28033.5    356.7   0.312389512   3.66855  -0.30770   1.88281   0.17000
  20   28556.7    350.2   0.431110132   4.97000  -2.03140  -0.78451  -0.47745
  21   29049.0    344.2   0.001917848   0.02173  -0.13461  -0.05449  -0.02541
  22   29513.5    338.8   0.178677327   1.99308  -0.83284   0.02485  -1.13967
  23   29662.8    337.1   0.002487128   0.02760  -0.01715  -0.04015  -0.16030
  24   29813.4    335.4   0.002631645   0.02906  -0.06352   0.12823   0.09264
  25   29903.1    334.4   0.019220524   0.21160   0.35697   0.11218   0.26756
  26   30224.2    330.9   0.034655515   0.37748  -0.54931   0.27391   0.02663
  27   30663.6    326.1   0.003472599   0.03728  -0.16374   0.00290  -0.10228
  28   31011.2    322.5   0.121710088   1.29206  -0.27364   0.30812   1.05936
  29   31056.0    322.0   0.126383089   1.33973   0.96692  -0.49975   0.39377
  30   31587.6    316.6   0.046226892   0.48178   0.62554  -0.29137  -0.07473
  31   31812.7    314.3   0.031217642   0.32305   0.01889   0.13703  -0.55129
  32   32022.2    312.3   0.070077502   0.72045   0.68875   0.13461  -0.47744
  33   32136.7    311.2   0.225725658   2.31236   0.18505  -1.43324   0.47321
  34   32583.0    306.9   0.122738132   1.24012  -0.47955  -0.06263  -1.00311
  35   32749.4    305.3   0.019719399   0.19823  -0.25817  -0.06696  -0.35650
  36   33174.0    301.4   0.001619173   0.01607  -0.08127  -0.06597  -0.07150
  37   33473.4    298.7   0.005968222   0.05870   0.21137  -0.11838  -0.00226
  38   33688.8    296.8   0.107879238   1.05421  -0.71569  -0.40627  -0.61395
  39   33928.8    294.7   0.022416852   0.21751  -0.10708   0.22271   0.39553
  40   34652.2    288.6   0.363357711   3.45207   0.41106  -0.34292   1.77919
  41   35174.9    284.3   0.167601401   1.56863  -0.27255   1.22127  -0.05339
  42   35283.8    283.4   0.226539525   2.11371  -1.30640  -0.49362   0.40419
  43   35382.1    282.6   0.400572507   3.72712  -1.46394   1.12600   0.56225
  44   35656.7    280.5   0.102922984   0.95027  -0.08257  -0.41584   0.87780
  45   35754.7    279.7   0.047189576   0.43450  -0.62942   0.14684   0.12947
  46   35900.8    278.5   0.002472809   0.02268  -0.14869   0.01037  -0.02140
  47   36094.5    277.1   0.038165360   0.34810  -0.25427  -0.39367  -0.35843
  48   36340.5    275.2   0.178675170   1.61863  -0.45298  -0.58206   1.03665
  49   36527.1    273.8   0.001396202   0.01258  -0.06259   0.09298  -0.00455
  50   36584.5    273.3   0.005477221   0.04929  -0.03589   0.18641   0.11511
  51   36831.9    271.5   0.190999587   1.70720  -0.26384   0.03472   1.27921
  52   36849.8    271.4   0.108335153   0.96785  -0.52836   0.82834  -0.05045
  53   36908.0    270.9   0.171440173   1.52921  -1.19285  -0.31418  -0.08727
  54   37112.8    269.4   0.024102774   0.21381   0.36625  -0.09715   0.26500
  55   37278.9    268.2   0.028874633   0.25499   0.41706   0.16234   0.23389
  56   37296.2    268.1   0.010472808   0.09244  -0.13077  -0.00123  -0.27448
  57   37450.6    267.0   0.030573522   0.26876  -0.06755  -0.07862   0.50795
  58   37532.7    266.4   0.028267005   0.24794   0.23029   0.40408  -0.17782
  59   37694.7    265.3   0.161338819   1.40908   1.16792   0.03416   0.20947
  60   37823.5    264.4   0.042232391   0.36759   0.47529  -0.37523   0.02979
  61   37957.1    263.5   0.125983540   1.09269   0.39760   0.63066  -0.73271
  62   38090.5    262.5   0.029464205   0.25466   0.16258  -0.33111   0.34437
  63   38321.1    261.0   0.042892335   0.36848   0.56732   0.15397   0.15140
  64   38398.8    260.4   0.017028078   0.14599   0.25932   0.21017  -0.18594
  65   38554.2    259.4   0.008145270   0.06955  -0.07223  -0.05104   0.24845
  66   38592.8    259.1   0.000825715   0.00704   0.07402   0.03093   0.02466
  67   38766.0    258.0   0.013917728   0.11819   0.10844   0.13235  -0.29819
  68   39026.6    256.2   0.205034546   1.72958   0.91477   0.16464   0.93041
  69   39251.1    254.8   0.005709552   0.04789   0.04714   0.21357  -0.00737
  70   39301.6    254.4   0.074592670   0.62483   0.61164   0.50067   0.00715
  71   39737.1    251.7   0.024399595   0.20214  -0.39343  -0.16503   0.14186
  72   39852.8    250.9   0.004391755   0.03628   0.17423   0.07064  -0.03056
  73   40077.9    249.5   0.029778399   0.24461   0.07073   0.31492   0.37474
  74   40260.4    248.4   0.043359037   0.35455  -0.43170  -0.39394  -0.11401
  75   40286.9    248.2   0.042102320   0.34405   0.32676   0.47984   0.08381

FINAL SINGLE POINT ENERGY     -3274.975194938153

DIPOLE MOMENT
-------------
                                X             Y             Z
Electronic contribution:      2.09728     -11.19736       0.64152
Nuclear contribution   :     -1.24056      15.45080       0.95799
                        -----------------------------------------
Total Dipole Moment    :      0.85672       4.25344       1.59951
                        -----------------------------------------
Magnitude (a.u.)       :      4.62430
Magnitude (Debye)      :     11.75404

Rotational constants in cm-1:     0.000990     0.000329     0.000272
Rotational constants in MHz :    29.679297     9.855920     8.164094

                             ****ORCA TERMINATED NORMALLY****
TOTAL RUN TIME: 0 days 0 hours 8 minutes 51 seconds 894 msec
