                         Program Version 4.2.0 -  RELEASE  -
|  1> # ORCA input file
|  2> # SCF done       -198.388012670468          0.000979122238
|  3> ! CAM-B3LYP def2-SVP def2/J RIJCOSX Grid4 TightSCF
|  4> %maxcore 5000
|  5> %tddft
|  6>     Mode sTDDFT
|  7>     Ethresh 5.0
|  8>     maxcore 5000
|  9> end
| 10>
| 11> %pal
| 12>   nprocs 6
| 13>   end
| 14> * xyz 0 1
| 15>    C       -3.14607         5.51978         2.93710
| 16>    C       -3.56299         4.48900         3.73859
| 17>    C       -4.69567         4.55892         4.57682
| 18>    N       -5.59914         4.57164         5.28410
| 19>    C       -2.98778         3.20646         3.71141
| 20>    N       -2.59951         2.12458         3.67318
| 21>    C       -3.83973         6.77566         2.69464
| 22>    C       -3.28348         7.37801         1.52734
| 23>    C       -3.75046         8.56506         1.04359
| 24>    C       -4.79746         9.22391         1.72786
| 25>    C       -5.35196         8.63028         2.89953
| 26>    C       -4.85973         7.39193         3.37012
| 27>    C       -6.39471         9.30029         3.57180
| 28>    C       -6.86820        10.49857         3.11170
| 29>    C       -6.32208        11.08198         1.95844
| 30>    C       -5.30970        10.45792         1.28129
| 31>    C       -2.21720         6.50800         0.98459
| 32>    O       -1.74715         6.52711        -0.12109
| 33>    C       -1.96959         5.51238         2.08384
| 34>    C       -0.81988         4.85077         2.36141
| 35>    C        0.42510         4.99415         1.68156
| 36>    N        0.75062         6.06439         0.97727
| 37>    C        2.03214         5.89175         0.60312
| 38>    C        2.57274         4.62763         1.13469
| 39>    C        3.97818         4.44941         0.73279
| 40>    O        4.72852         3.53633         0.99389
| 41>    C        4.23487         5.66665        -0.06328
| 42>    C        3.02482         6.52006        -0.10784
| 43>    N        3.25763         7.63890        -0.83747
| 44>    C        4.49752         7.53088        -1.24489
| 45>    C        5.16579         6.32161        -0.80124
| 46>    C        1.55220         4.03441         1.81858
| 47>    C        1.56139         2.81031         2.56650
| 48>    C        0.50042         2.02313         2.76489
| 49>    C        0.50656         0.84891         3.66787
| 50>    S       -0.39825         1.35093         5.20257
| 51>    C       -1.29666        -0.22827         5.34383
| 52>    C       -0.71797        -1.20512         4.32203
| 53>    C       -0.26158        -0.34961         3.13524
| 54>    C       -1.85037        -2.17456         3.87388
| 55>    O       -2.43789        -2.04012         2.82979
| 56>    N       -2.12034        -3.13871         4.76930
| 57>    N        0.36840        -2.02649         4.83533
| 58>    C        1.27162        -1.72846         5.76611
| 59>    N        1.29541        -0.59177         6.44577
| 60>    C        2.40266        -0.63227         7.20106
| 61>    C        3.14194        -1.88873         6.99743
| 62>    C        4.35673        -1.92643         7.84243
| 63>    O        5.16899        -2.81828         7.93257
| 64>    C        4.29953        -0.62773         8.52528
| 65>    C        3.09724         0.12753         8.11152
| 66>    N        3.03757         1.31725         8.74837
| 67>    C        4.10235         1.34778         9.51930
| 68>    C        4.92947         0.16942         9.43120
| 69>    C        2.41142        -2.63012         6.11029
| 70>    C        2.65074        -3.96663         5.68175
| 71>    C        1.68432        -4.84642         5.31812
| 72>    C        1.96660        -6.18948         4.96684
| 73>    C        1.00816        -7.12214         4.69521
| 74>    C        1.22502        -8.52282         4.36728
| 75>    C        2.42266        -9.12398         4.08650
| 76>    C        2.56463       -10.49289         3.77183
| 77>    N        2.74928       -11.59638         3.51659
| 78>    C        3.67514        -8.47485         4.03807
| 79>    N        4.72350        -8.01408         3.95685
| 80>    C       -0.07675        -9.17887         4.34961
| 81>    C       -1.08527        -8.19855         4.57855
| 82>    C       -0.45720        -6.88594         4.77090
| 83>    O       -1.03243        -5.82783         4.95952
| 84>    C       -2.41221        -8.52267         4.61060
| 85>    C       -2.79852        -9.86716         4.41906
| 86>    C       -1.79531       -10.85472         4.19614
| 87>    C       -0.43020       -10.48912         4.16311
| 88>    C       -2.19084       -12.19498         4.01147
| 89>    C       -3.51342       -12.54497         4.04501
| 90>    C       -4.50027       -11.57203         4.26409
| 91>    C       -4.15078       -10.26148         4.44675
| 92>    H       -3.32132         9.00160         0.15427
| 93>    H       -5.29261         6.96411         4.26127
| 94>    H       -6.81309         8.84649         4.45823
| 95>    H       -7.66646        11.00415         3.63414
| 96>    H       -6.70745        12.02838         1.60977
| 97>    H       -4.88551        10.90212         0.39285
| 98>    H       -0.79504         4.19685         3.22632
| 99>    H        4.93911         8.30232        -1.85193
|100>    H        6.17740         6.04920        -1.02883
|101>    H        2.52658         2.53046         2.97044
|102>    H       -0.45436         2.24091         2.30795
|103>    H        1.52005         0.58796         3.98094
|104>    H       -2.34138        -0.02413         5.10766
|105>    H       -1.19914        -0.57953         6.36802
|106>    H       -1.16127        -0.01371         2.61529
|107>    H        0.34726        -0.92576         2.43686
|108>    H       -1.57796        -3.27931         5.60312
|109>    H       -2.77690        -3.86195         4.52344
|110>    H        0.55137        -2.85899         4.28983
|111>    H        4.29179         2.20288        10.14456
|112>    H        5.83596        -0.00164         9.97703
|113>    H        3.68037        -4.29845         5.74252
|114>    H        0.64146        -4.56921         5.35300
|115>    H        3.00993        -6.47489         4.94121
|116>    H       -3.15976        -7.76263         4.78403
|117>    H        0.30381       -11.26089         3.99532
|118>    H       -1.42763       -12.94020         3.84235
|119>    H       -3.80649       -13.57419         3.90279
|120>    H       -5.53875       -11.86615         4.28755
|121>    H       -4.90664        -9.50851         4.61567
|122> *
|123>
|124>                          ****END OF INPUT****

CARTESIAN COORDINATES (ANGSTROEM)
---------------------------------
  C     -3.146070    5.519780    2.937100
  C     -3.562990    4.489000    3.738590
  C     -4.695670    4.558920    4.576820
  N     -5.599140    4.571640    5.284100
  C     -2.987780    3.206460    3.711410
  N     -2.599510    2.124580    3.673180
  C     -3.839730    6.775660    2.694640
  C     -3.283480    7.378010    1.527340
  C     -3.750460    8.565060    1.043590
  C     -4.797460    9.223910    1.727860
  C     -5.351960    8.630280    2.899530
  C     -4.859730    7.391930    3.370120
  C     -6.394710    9.300290    3.571800
  C     -6.868200   10.498570    3.111700
  C     -6.322080   11.081980    1.958440
  C     -5.309700   10.457920    1.281290
  C     -2.217200    6.508000    0.984590
  O     -1.747150    6.527110   -0.121090
  C     -1.969590    5.512380    2.083840
  C     -0.819880    4.850770    2.361410
  C      0.425100    4.994150    1.681560
  N      0.750620    6.064390    0.977270
  C      2.032140    5.891750    0.603120
  C      2.572740    4.627630    1.134690
  C      3.978180    4.449410    0.732790
  O      4.728520    3.536330    0.993890
  C      4.234870    5.666650   -0.063280
  C      3.024820    6.520060   -0.107840
  N      3.257630    7.638900   -0.837470
  C      4.497520    7.530880   -1.244890
  C      5.165790    6.321610   -0.801240
  C      1.552200    4.034410    1.818580
  C      1.561390    2.810310    2.566500
  C      0.500420    2.023130    2.764890
  C      0.506560    0.848910    3.667870
  S     -0.398250    1.350930    5.202570
  C     -1.296660   -0.228270    5.343830
  C     -0.717970   -1.205120    4.322030
  C     -0.261580   -0.349610    3.135240
  C     -1.850370   -2.174560    3.873880
  O     -2.437890   -2.040120    2.829790
  N     -2.120340   -3.138710    4.769300
  N      0.368400   -2.026490    4.835330
  C      1.271620   -1.728460    5.766110
  N      1.295410   -0.591770    6.445770
  C      2.402660   -0.632270    7.201060
  C      3.141940   -1.888730    6.997430
  C      4.356730   -1.926430    7.842430
  O      5.168990   -2.818280    7.932570
  C      4.299530   -0.627730    8.525280
  C      3.097240    0.127530    8.111520
  N      3.037570    1.317250    8.748370
  C      4.102350    1.347780    9.519300
  C      4.929470    0.169420    9.431200
  C      2.411420   -2.630120    6.110290
  C      2.650740   -3.966630    5.681750
  C      1.684320   -4.846420    5.318120
  C      1.966600   -6.189480    4.966840
  C      1.008160   -7.122140    4.695210
  C      1.225020   -8.522820    4.367280
  C      2.422660   -9.123980    4.086500
  C      2.564630  -10.492890    3.771830
  N      2.749280  -11.596380    3.516590
  C      3.675140   -8.474850    4.038070
  N      4.723500   -8.014080    3.956850
  C     -0.076750   -9.178870    4.349610
  C     -1.085270   -8.198550    4.578550
  C     -0.457200   -6.885940    4.770900
  O     -1.032430   -5.827830    4.959520
  C     -2.412210   -8.522670    4.610600
  C     -2.798520   -9.867160    4.419060
  C     -1.795310  -10.854720    4.196140
  C     -0.430200  -10.489120    4.163110
  C     -2.190840  -12.194980    4.011470
  C     -3.513420  -12.544970    4.045010
  C     -4.500270  -11.572030    4.264090
  C     -4.150780  -10.261480    4.446750
  H     -3.321320    9.001600    0.154270
  H     -5.292610    6.964110    4.261270
  H     -6.813090    8.846490    4.458230
  H     -7.666460   11.004150    3.634140
  H     -6.707450   12.028380    1.609770
  H     -4.885510   10.902120    0.392850
  H     -0.795040    4.196850    3.226320
  H      4.939110    8.302320   -1.851930
  H      6.177400    6.049200   -1.028830
  H      2.526580    2.530460    2.970440
  H     -0.454360    2.240910    2.307950
  H      1.520050    0.587960    3.980940
  H     -2.341380   -0.024130    5.107660
  H     -1.199140   -0.579530    6.368020
  H     -1.161270   -0.013710    2.615290
  H      0.347260   -0.925760    2.436860
  H     -1.577960   -3.279310    5.603120
  H     -2.776900   -3.861950    4.523440
  H      0.551370   -2.858990    4.289830
  H      4.291790    2.202880   10.144560
  H      5.835960   -0.001640    9.977030
  H      3.680370   -4.298450    5.742520
  H      0.641460   -4.569210    5.353000
  H      3.009930   -6.474890    4.941210
  H     -3.159760   -7.762630    4.784030
  H      0.303810  -11.260890    3.995320
  H     -1.427630  -12.940200    3.842350
  H     -3.806490  -13.574190    3.902790
  H     -5.538750  -11.866150    4.287550
  H     -4.906640   -9.508510    4.615670

 Total Charge           Charge          ....    0
 Multiplicity           Mult            ....    1
 Number of Electrons    NEL             ....  522
 Basis Dimension        Dim             .... 1232

ORBITAL ENERGIES
----------------

  NO   OCC          E(Eh)            E(eV)
   0   2.0000     -88.897762     -2419.0311
   1   2.0000     -19.234013      -523.3841
   2   2.0000     -19.215621      -522.8836
   3   2.0000     -19.210475      -522.7436
   4   2.0000     -19.205439      -522.6066
   5   2.0000     -19.187263      -522.1120
   6   2.0000     -14.481327      -394.0569
   7   2.0000     -14.435452      -392.8086
   8   2.0000     -14.423484      -392.4829
   9   2.0000     -14.423147      -392.4738
  10   2.0000     -14.422460      -392.4551
  11   2.0000     -14.421887      -392.4395
  12   2.0000     -14.411210      -392.1490
  13   2.0000     -14.405500      -391.9936
  14   2.0000     -14.401556      -391.8863
  15   2.0000     -14.397408      -391.7734
  16   2.0000     -10.388366      -282.6818
  17   2.0000     -10.383854      -282.5590
  18   2.0000     -10.378676      -282.4181
  19   2.0000     -10.372043      -282.2376
  20   2.0000     -10.368515      -282.1416
  21   2.0000     -10.366739      -282.0933
  22   2.0000     -10.352428      -281.7039
  23   2.0000     -10.351410      -281.6762
  24   2.0000     -10.349044      -281.6118
  25   2.0000     -10.345497      -281.5153
  26   2.0000     -10.343669      -281.4655
  27   2.0000     -10.341451      -281.4052
  28   2.0000     -10.336983      -281.2836
  29   2.0000     -10.329978      -281.0930
  30   2.0000     -10.327617      -281.0287
  31   2.0000     -10.327105      -281.0148
  32   2.0000     -10.326451      -280.9970
  33   2.0000     -10.325462      -280.9701
  34   2.0000     -10.324281      -280.9380
  35   2.0000     -10.324129      -280.9338
  36   2.0000     -10.323475      -280.9160
  37   2.0000     -10.321841      -280.8716
  38   2.0000     -10.318349      -280.7766
  39   2.0000     -10.318130      -280.7706
  40   2.0000     -10.317115      -280.7430
  41   2.0000     -10.313325      -280.6398
  42   2.0000     -10.313014      -280.6314
  43   2.0000     -10.312013      -280.6041
  44   2.0000     -10.311746      -280.5969
  45   2.0000     -10.307983      -280.4945
  46   2.0000     -10.307250      -280.4745
  47   2.0000     -10.306912      -280.4653
  48   2.0000     -10.306559      -280.4557
  49   2.0000     -10.306245      -280.4472
  50   2.0000     -10.305181      -280.4182
  51   2.0000     -10.303447      -280.3710
  52   2.0000     -10.301118      -280.3077
  53   2.0000     -10.299794      -280.2716
  54   2.0000     -10.299488      -280.2633
  55   2.0000     -10.299213      -280.2558
  56   2.0000     -10.299171      -280.2547
  57   2.0000     -10.297433      -280.2074
  58   2.0000     -10.297217      -280.2015
  59   2.0000     -10.294496      -280.1275
  60   2.0000     -10.293932      -280.1121
  61   2.0000     -10.293504      -280.1005
  62   2.0000     -10.292925      -280.0847
  63   2.0000     -10.292075      -280.0616
  64   2.0000     -10.291118      -280.0355
  65   2.0000     -10.290178      -280.0100
  66   2.0000     -10.288054      -279.9522
  67   2.0000     -10.287530      -279.9379
  68   2.0000     -10.287054      -279.9250
  69   2.0000     -10.286691      -279.9151
  70   2.0000     -10.286538      -279.9109
  71   2.0000     -10.283647      -279.8323
  72   2.0000     -10.282853      -279.8106
  73   2.0000     -10.282151      -279.7916
  74   2.0000     -10.280147      -279.7370
  75   2.0000     -10.278257      -279.6856
  76   2.0000     -10.274753      -279.5903
  77   2.0000      -7.992769      -217.4943
  78   2.0000      -5.963746      -162.2818
  79   2.0000      -5.959506      -162.1664
  80   2.0000      -5.951404      -161.9459
  81   2.0000      -1.146138       -31.1880
  82   2.0000      -1.132629       -30.8204
  83   2.0000      -1.131554       -30.7911
  84   2.0000      -1.126000       -30.6400
  85   2.0000      -1.120123       -30.4801
  86   2.0000      -1.107177       -30.1278
  87   2.0000      -1.077927       -29.3319
  88   2.0000      -1.060617       -28.8609
  89   2.0000      -1.059950       -28.8427
  90   2.0000      -1.042534       -28.3688
  91   2.0000      -1.026324       -27.9277
  92   2.0000      -1.024186       -27.8695
  93   2.0000      -1.007375       -27.4121
  94   2.0000      -1.002579       -27.2816
  95   2.0000      -1.000968       -27.2377
  96   2.0000      -1.000159       -27.2157
  97   2.0000      -0.993745       -27.0412
  98   2.0000      -0.980725       -26.6869
  99   2.0000      -0.975143       -26.5350
 100   2.0000      -0.952291       -25.9131
 101   2.0000      -0.945341       -25.7240
 102   2.0000      -0.937217       -25.5030
 103   2.0000      -0.933173       -25.3929
 104   2.0000      -0.927565       -25.2403
 105   2.0000      -0.926922       -25.2228
 106   2.0000      -0.913538       -24.8586
 107   2.0000      -0.906572       -24.6691
 108   2.0000      -0.901781       -24.5387
 109   2.0000      -0.890405       -24.2292
 110   2.0000      -0.884896       -24.0792
 111   2.0000      -0.883255       -24.0346
 112   2.0000      -0.875826       -23.8324
 113   2.0000      -0.863694       -23.5023
 114   2.0000      -0.855595       -23.2819
 115   2.0000      -0.851916       -23.1818
 116   2.0000      -0.843663       -22.9572
 117   2.0000      -0.837079       -22.7781
 118   2.0000      -0.830080       -22.5876
 119   2.0000      -0.824032       -22.4230
 120   2.0000      -0.813056       -22.1244
 121   2.0000      -0.809967       -22.0403
 122   2.0000      -0.800219       -21.7751
 123   2.0000      -0.771972       -21.0064
 124   2.0000      -0.765200       -20.8221
 125   2.0000      -0.764060       -20.7911
 126   2.0000      -0.759858       -20.6768
 127   2.0000      -0.758605       -20.6427
 128   2.0000      -0.751814       -20.4579
 129   2.0000      -0.732182       -19.9237
 130   2.0000      -0.725714       -19.7477
 131   2.0000      -0.720182       -19.5971
 132   2.0000      -0.713159       -19.4060
 133   2.0000      -0.706208       -19.2169
 134   2.0000      -0.705472       -19.1969
 135   2.0000      -0.703456       -19.1420
 136   2.0000      -0.700516       -19.0620
 137   2.0000      -0.699245       -19.0274
 138   2.0000      -0.687136       -18.6979
 139   2.0000      -0.684281       -18.6202
 140   2.0000      -0.682706       -18.5774
 141   2.0000      -0.673686       -18.3319
 142   2.0000      -0.673433       -18.3251
 143   2.0000      -0.657175       -17.8827
 144   2.0000      -0.654002       -17.7963
 145   2.0000      -0.650522       -17.7016
 146   2.0000      -0.642117       -17.4729
 147   2.0000      -0.639193       -17.3933
 148   2.0000      -0.637141       -17.3375
 149   2.0000      -0.635289       -17.2871
 150   2.0000      -0.631276       -17.1779
 151   2.0000      -0.622025       -16.9262
 152   2.0000      -0.615539       -16.7497
 153   2.0000      -0.614690       -16.7266
 154   2.0000      -0.609100       -16.5745
 155   2.0000      -0.606978       -16.5167
 156   2.0000      -0.604615       -16.4524
 157   2.0000      -0.602081       -16.3835
 158   2.0000      -0.598355       -16.2821
 159   2.0000      -0.592043       -16.1103
 160   2.0000      -0.591577       -16.0976
 161   2.0000      -0.576739       -15.6939
 162   2.0000      -0.574946       -15.6451
 163   2.0000      -0.564055       -15.3487
 164   2.0000      -0.560780       -15.2596
 165   2.0000      -0.560653       -15.2561
 166   2.0000      -0.555958       -15.1284
 167   2.0000      -0.554566       -15.0905
 168   2.0000      -0.552054       -15.0222
 169   2.0000      -0.551228       -14.9997
 170   2.0000      -0.547864       -14.9081
 171   2.0000      -0.547795       -14.9063
 172   2.0000      -0.544951       -14.8289
 173   2.0000      -0.539956       -14.6929
 174   2.0000      -0.538240       -14.6463
 175   2.0000      -0.536301       -14.5935
 176   2.0000      -0.534771       -14.5518
 177   2.0000      -0.533750       -14.5241
 178   2.0000      -0.531894       -14.4736
 179   2.0000      -0.529370       -14.4049
 180   2.0000      -0.523372       -14.2417
 181   2.0000      -0.522618       -14.2212
 182   2.0000      -0.522217       -14.2102
 183   2.0000      -0.518375       -14.1057
 184   2.0000      -0.517145       -14.0722
 185   2.0000      -0.514736       -14.0067
 186   2.0000      -0.513267       -13.9667
 187   2.0000      -0.511144       -13.9089
 188   2.0000      -0.510131       -13.8814
 189   2.0000      -0.507251       -13.8030
 190   2.0000      -0.505667       -13.7599
 191   2.0000      -0.503061       -13.6890
 192   2.0000      -0.500505       -13.6194
 193   2.0000      -0.499565       -13.5939
 194   2.0000      -0.496743       -13.5171
 195   2.0000      -0.496178       -13.5017
 196   2.0000      -0.494458       -13.4549
 197   2.0000      -0.491891       -13.3850
 198   2.0000      -0.489485       -13.3196
 199   2.0000      -0.485991       -13.2245
 200   2.0000      -0.481447       -13.1008
 201   2.0000      -0.478957       -13.0331
 202   2.0000      -0.475517       -12.9395
 203   2.0000      -0.471500       -12.8302
 204   2.0000      -0.470351       -12.7989
 205   2.0000      -0.468490       -12.7483
 206   2.0000      -0.467972       -12.7342
 207   2.0000      -0.466872       -12.7042
 208   2.0000      -0.463038       -12.5999
 209   2.0000      -0.460554       -12.5323
 210   2.0000      -0.457986       -12.4624
 211   2.0000      -0.455321       -12.3899
 212   2.0000      -0.454434       -12.3658
 213   2.0000      -0.452294       -12.3076
 214   2.0000      -0.451416       -12.2837
 215   2.0000      -0.448980       -12.2174
 216   2.0000      -0.447870       -12.1872
 217   2.0000      -0.445582       -12.1249
 218   2.0000      -0.442627       -12.0445
 219   2.0000      -0.441658       -12.0181
 220   2.0000      -0.440941       -11.9986
 221   2.0000      -0.438937       -11.9441
 222   2.0000      -0.435381       -11.8473
 223   2.0000      -0.432884       -11.7794
 224   2.0000      -0.432460       -11.7678
 225   2.0000      -0.430475       -11.7138
 226   2.0000      -0.427725       -11.6390
 227   2.0000      -0.426753       -11.6125
 228   2.0000      -0.422496       -11.4967
 229   2.0000      -0.416485       -11.3331
 230   2.0000      -0.413926       -11.2635
 231   2.0000      -0.405572       -11.0362
 232   2.0000      -0.404507       -11.0072
 233   2.0000      -0.400172       -10.8892
 234   2.0000      -0.387298       -10.5389
 235   2.0000      -0.385429       -10.4880
 236   2.0000      -0.380588       -10.3563
 237   2.0000      -0.370335       -10.0773
 238   2.0000      -0.365941        -9.9578
 239   2.0000      -0.364112        -9.9080
 240   2.0000      -0.359284        -9.7766
 241   2.0000      -0.353840        -9.6285
 242   2.0000      -0.352957        -9.6045
 243   2.0000      -0.352640        -9.5958
 244   2.0000      -0.348851        -9.4927
 245   2.0000      -0.347924        -9.4675
 246   2.0000      -0.334307        -9.0970
 247   2.0000      -0.333090        -9.0638
 248   2.0000      -0.332480        -9.0472
 249   2.0000      -0.328613        -8.9420
 250   2.0000      -0.327507        -8.9119
 251   2.0000      -0.325485        -8.8569
 252   2.0000      -0.323959        -8.8154
 253   2.0000      -0.319885        -8.7045
 254   2.0000      -0.309458        -8.4208
 255   2.0000      -0.309114        -8.4114
 256   2.0000      -0.300069        -8.1653
 257   2.0000      -0.296475        -8.0675
 258   2.0000      -0.295464        -8.0400
 259   2.0000      -0.287652        -7.8274
 260   2.0000      -0.249772        -6.7966
 261   0.0000      -0.125327        -3.4103
 262   0.0000      -0.115948        -3.1551
 263   0.0000      -0.084094        -2.2883
 264   0.0000      -0.075963        -2.0671
 265   0.0000      -0.069152        -1.8817

MULLIKEN ATOMIC CHARGES
-----------------------
   0 C :    0.243299
   1 C :   -0.309134
   2 C :   -0.180255
   3 N :    0.156954
   4 C :   -0.162503
   5 N :    0.150644
   6 C :    0.062280
   7 C :    0.004222
   8 C :   -0.073517
   9 C :    0.091017
  10 C :    0.093289
  11 C :   -0.079986
  12 C :   -0.014945
  13 C :    0.033645
  14 C :    0.037639
  15 C :   -0.012202
  16 C :    0.152689
  17 O :   -0.097825
  18 C :   -0.041270
  19 C :   -0.068326
  20 C :    0.021797
  21 N :   -0.010384
  22 C :    0.066980
  23 C :   -0.128433
  24 C :    0.205693
  25 O :   -0.126946
  26 C :   -0.042560
  27 C :   -0.008279
  28 N :   -0.055467
  29 C :    0.092569
  30 C :   -0.088465
  31 C :    0.025337
  32 C :   -0.006699
  33 C :   -0.001141
  34 C :   -0.117846
  35 S :   -0.006801
  36 C :    0.096669
  37 C :   -0.228491
  38 C :    0.197134
  39 C :    0.030038
  40 O :   -0.193119
  41 N :   -0.040361
  42 N :   -0.032633
  43 C :   -0.026388
  44 N :   -0.062395
  45 C :    0.079877
  46 C :   -0.112373
  47 C :    0.200218
  48 O :   -0.126695
  49 C :   -0.045882
  50 C :   -0.046682
  51 N :   -0.057419
  52 C :    0.082846
  53 C :   -0.089485
  54 C :    0.013841
  55 C :    0.003804
  56 C :   -0.038418
  57 C :   -0.030291
  58 C :   -0.067150
  59 C :    0.326487
  60 C :   -0.339906
  61 C :   -0.181440
  62 N :    0.155690
  63 C :   -0.198675
  64 N :    0.157231
  65 C :    0.046882
  66 C :   -0.001018
  67 C :    0.161289
  68 O :   -0.184646
  69 C :   -0.074510
  70 C :    0.095470
  71 C :    0.094823
  72 C :   -0.077547
  73 C :   -0.018441
  74 C :    0.038695
  75 C :    0.036596
  76 C :   -0.015761
  77 H :   -0.006510
  78 H :   -0.005722
  79 H :   -0.010812
  80 H :   -0.003329
  81 H :   -0.004118
  82 H :   -0.015550
  83 H :    0.047540
  84 H :    0.011968
  85 H :   -0.003198
  86 H :    0.014230
  87 H :    0.025502
  88 H :    0.031595
  89 H :    0.063015
  90 H :    0.043888
  91 H :    0.048517
  92 H :    0.008941
  93 H :    0.131139
  94 H :    0.137178
  95 H :    0.144519
  96 H :    0.003861
  97 H :   -0.010621
  98 H :    0.037582
  99 H :    0.003391
 100 H :    0.022258
 101 H :   -0.018154
 102 H :   -0.006320
 103 H :   -0.005271
 104 H :   -0.001492
 105 H :   -0.001637
 106 H :   -0.015324
Sum of atomic charges:   -0.0000000

LOEWDIN ATOMIC CHARGES
----------------------
   0 C :    0.067400
   1 C :   -0.121429
   2 C :   -0.016476
   3 N :   -0.043009
   4 C :   -0.018852
   5 N :   -0.048092
   6 C :   -0.025301
   7 C :   -0.052158
   8 C :    0.033274
   9 C :   -0.006174
  10 C :   -0.005558
  11 C :    0.017964
  12 C :   -0.005809
  13 C :   -0.012814
  14 C :   -0.010928
  15 C :   -0.008328
  16 C :    0.080581
  17 O :   -0.094582
  18 C :   -0.018711
  19 C :    0.024175
  20 C :    0.060858
  21 N :   -0.070758
  22 C :    0.043629
  23 C :   -0.050888
  24 C :    0.064779
  25 O :   -0.138584
  26 C :   -0.037475
  27 C :    0.036425
  28 N :   -0.095646
  29 C :    0.081301
  30 C :   -0.033899
  31 C :   -0.019036
  32 C :   -0.039304
  33 C :   -0.014637
  34 C :   -0.109687
  35 S :    0.288910
  36 C :   -0.114273
  37 C :   -0.024610
  38 C :   -0.020671
  39 C :    0.049548
  40 O :   -0.191771
  41 N :    0.017340
  42 N :    0.049179
  43 C :    0.091434
  44 N :   -0.145374
  45 C :    0.051389
  46 C :   -0.004127
  47 C :    0.060334
  48 O :   -0.139425
  49 C :   -0.048974
  50 C :    0.000338
  51 N :   -0.095463
  52 C :    0.061096
  53 C :   -0.043748
  54 C :   -0.061185
  55 C :    0.041462
  56 C :   -0.049131
  57 C :    0.072833
  58 C :   -0.086454
  59 C :    0.073235
  60 C :   -0.131119
  61 C :   -0.017075
  62 N :   -0.047276
  63 C :   -0.022569
  64 N :   -0.042932
  65 C :   -0.024592
  66 C :   -0.058495
  67 C :    0.094250
  68 O :   -0.166813
  69 C :    0.034510
  70 C :   -0.008368
  71 C :   -0.004102
  72 C :    0.021867
  73 C :   -0.004224
  74 C :   -0.009449
  75 C :   -0.009670
  76 C :   -0.008501
  77 H :    0.041335
  78 H :    0.038786
  79 H :    0.034247
  80 H :    0.033547
  81 H :    0.033225
  82 H :    0.032820
  83 H :    0.049214
  84 H :    0.024629
  85 H :    0.035195
  86 H :    0.040448
  87 H :    0.026449
  88 H :    0.017631
  89 H :    0.029213
  90 H :    0.023098
  91 H :    0.042692
  92 H :    0.028037
  93 H :    0.070382
  94 H :    0.083636
  95 H :    0.089088
  96 H :    0.021474
  97 H :    0.032615
  98 H :    0.051092
  99 H :    0.020941
 100 H :    0.046056
 101 H :    0.036977
 102 H :    0.040053
 103 H :    0.036126
 104 H :    0.034679
 105 H :    0.034249
 106 H :    0.032479

  Mayer bond orders larger than 0.100000
B(  0-C ,  1-C ) :   1.6591 B(  0-C ,  6-C ) :   1.0083 B(  0-C , 18-C ) :   1.0195
B(  1-C ,  2-C ) :   1.1289 B(  1-C ,  4-C ) :   1.1563 B(  2-C ,  3-N ) :   2.9870
B(  4-C ,  5-N ) :   2.8896 B(  6-C ,  7-C ) :   1.2111 B(  6-C , 11-C ) :   1.4457
B(  7-C ,  8-C ) :   1.4776 B(  7-C , 16-C ) :   0.9143 B(  8-C ,  9-C ) :   1.1913
B(  8-C , 77-H ) :   1.0146 B(  9-C , 10-C ) :   1.2554 B(  9-C , 15-C ) :   1.2448
B( 10-C , 11-C ) :   1.2134 B( 10-C , 12-C ) :   1.2377 B( 11-C , 78-H ) :   0.9934
B( 12-C , 13-C ) :   1.4922 B( 12-C , 79-H ) :   0.9976 B( 13-C , 14-C ) :   1.2584
B( 13-C , 80-H ) :   0.9888 B( 14-C , 15-C ) :   1.4915 B( 14-C , 81-H ) :   0.9884
B( 15-C , 82-H ) :   0.9978 B( 16-C , 17-O ) :   2.3064 B( 16-C , 18-C ) :   0.8879
B( 18-C , 19-C ) :   1.7227 B( 19-C , 20-C ) :   1.0887 B( 19-C , 83-H ) :   0.9394
B( 20-C , 21-N ) :   1.6134 B( 20-C , 22-C ) :   0.1119 B( 20-C , 31-C ) :   1.0256
B( 21-N , 22-C ) :   1.3410 B( 22-C , 23-C ) :   1.0385 B( 22-C , 27-C ) :   1.4307
B( 23-C , 24-C ) :   0.8920 B( 23-C , 31-C ) :   1.5912 B( 24-C , 25-O ) :   2.2985
B( 24-C , 26-C ) :   0.8909 B( 26-C , 27-C ) :   1.0467 B( 26-C , 30-C ) :   1.6297
B( 27-C , 28-N ) :   1.3006 B( 28-N , 29-C ) :   1.6661 B( 29-C , 30-C ) :   1.0594
B( 29-C , 84-H ) :   0.9887 B( 30-C , 85-H ) :   1.0093 B( 31-C , 32-C ) :   1.0871
B( 32-C , 33-C ) :   1.7532 B( 32-C , 86-H ) :   0.9652 B( 33-C , 34-C ) :   0.9939
B( 33-C , 87-H ) :   0.9720 B( 34-C , 35-S ) :   1.0201 B( 34-C , 38-C ) :   0.9890
B( 34-C , 88-H ) :   0.9170 B( 35-S , 36-C ) :   1.0094 B( 36-C , 37-C ) :   1.0167
B( 36-C , 89-H ) :   0.9277 B( 36-C , 90-H ) :   0.9147 B( 37-C , 38-C ) :   1.0392
B( 37-C , 39-C ) :   0.8436 B( 37-C , 42-N ) :   0.8969 B( 38-C , 91-H ) :   0.9110
B( 38-C , 92-H ) :   0.9305 B( 39-C , 40-O ) :   2.1718 B( 39-C , 41-N ) :   1.3018
B( 41-N , 93-H ) :   0.9392 B( 41-N , 94-H ) :   0.9341 B( 42-N , 43-C ) :   1.3698
B( 42-N , 95-H ) :   0.8946 B( 43-C , 44-N ) :   1.4674 B( 43-C , 45-C ) :   0.1245
B( 43-C , 54-C ) :   0.9584 B( 44-N , 45-C ) :   1.3990 B( 45-C , 46-C ) :   1.0448
B( 45-C , 50-C ) :   1.3757 B( 46-C , 47-C ) :   0.8789 B( 46-C , 54-C ) :   1.5998
B( 47-C , 48-O ) :   2.2871 B( 47-C , 49-C ) :   0.9128 B( 49-C , 50-C ) :   1.0686
B( 49-C , 53-C ) :   1.5677 B( 50-C , 51-N ) :   1.3467 B( 51-N , 52-C ) :   1.6202
B( 52-C , 53-C ) :   1.1145 B( 52-C , 96-H ) :   0.9897 B( 53-C , 97-H ) :   1.0109
B( 54-C , 55-C ) :   1.0724 B( 55-C , 56-C ) :   1.5786 B( 55-C , 98-H ) :   0.9745
B( 56-C , 57-C ) :   1.1585 B( 56-C , 99-H ) :   0.9632 B( 57-C , 58-C ) :   1.5636
B( 57-C ,100-H ) :   0.9664 B( 58-C , 59-C ) :   1.0454 B( 58-C , 67-C ) :   0.9534
B( 59-C , 60-C ) :   1.6452 B( 59-C , 65-C ) :   0.9927 B( 60-C , 61-C ) :   1.1434
B( 60-C , 63-C ) :   1.1432 B( 61-C , 62-N ) :   2.9652 B( 63-C , 64-N ) :   2.9705
B( 65-C , 66-C ) :   1.2125 B( 65-C , 72-C ) :   1.4526 B( 66-C , 67-C ) :   0.9597
B( 66-C , 69-C ) :   1.4623 B( 67-C , 68-O ) :   2.1375 B( 69-C , 70-C ) :   1.1893
B( 69-C ,101-H ) :   1.0139 B( 70-C , 71-C ) :   1.2514 B( 70-C , 76-C ) :   1.2426
B( 71-C , 72-C ) :   1.2086 B( 71-C , 73-C ) :   1.2406 B( 72-C ,102-H ) :   0.9879
B( 73-C , 74-C ) :   1.4905 B( 73-C ,103-H ) :   0.9967 B( 74-C , 75-C ) :   1.2584
B( 74-C ,104-H ) :   0.9887 B( 75-C , 76-C ) :   1.4912 B( 75-C ,105-H ) :   0.9891
B( 76-C ,106-H ) :   0.9970

-----------------------------------------------------------------------------
         ABSORPTION SPECTRUM VIA TRANSITION ELECTRIC DIPOLE MOMENTS
-----------------------------------------------------------------------------
State   Energy  Wavelength   fosc         T2         TX        TY        TZ
        (cm-1)    (nm)                  (au**2)     (au)      (au)      (au)
-----------------------------------------------------------------------------
   0   12028.6    831.3   0.100978685   2.76369   0.33742   1.27539  -1.01154
   1   13010.8    768.6   0.001505801   0.03810  -0.08749   0.14126   0.10244
   2   17159.6    582.8   0.012005881   0.23034   0.40487  -0.24387   0.08334
   3   19628.5    509.5   0.005639339   0.09458   0.24678  -0.10064  -0.15348
   4   20194.9    495.2   0.003503344   0.05711  -0.07045  -0.21799  -0.06804
   5   21391.4    467.5   0.053308991   0.82042  -0.51295   0.74652  -0.00373
   6   21477.6    465.6   0.004568404   0.07003  -0.23142   0.10647   0.07166
   7   21907.7    456.5   0.881660253  13.24889  -1.03952  -3.07110  -1.65427
   8   22458.7    445.3   0.061257428   0.89795  -0.87897  -0.23574   0.26417
   9   23444.7    426.5   0.031680223   0.44485  -0.04060  -0.66035  -0.08455
  10   23754.4    421.0   0.169298822   2.34631  -0.02088  -1.50203  -0.29964
  11   24081.8    415.3   0.004891253   0.06687  -0.16192   0.19611   0.04678
  12   24323.2    411.1   0.357606392   4.84016   2.02787   0.26232  -0.81185
  13   24806.6    403.1   0.094571081   1.25507   1.03334   0.04761  -0.43013
  14   24867.1    402.1   0.350055867   4.63434  -2.02027  -0.03619   0.74267
  15   25451.0    392.9   0.116297278   1.50432  -0.62587  -1.04602  -0.13579
  16   25504.1    392.1   0.056285749   0.72655  -0.83461   0.07281   0.15708
  17   26504.2    377.3   0.153867283   1.91121  -0.56802  -1.21622  -0.33071
  18   26728.4    374.1   0.181820097   2.23947  -1.29360   0.66366   0.35441
  19   27024.8    370.0   0.003074255   0.03745  -0.10796  -0.01562  -0.15985
  20   27509.9    363.5   0.003333588   0.03989   0.12921   0.14489  -0.04696
  21   27860.4    358.9   0.002247295   0.02656  -0.04455   0.12867   0.08952
  22   28038.4    356.7   0.077485083   0.90979   0.25887  -0.86463   0.30853
  23   28185.4    354.8   0.036140523   0.42213   0.25842  -0.57532   0.15607
  24   28540.1    350.4   0.045548675   0.52541   0.34653  -0.55686   0.30860
  25   28730.8    348.1   0.134309701   1.53899  -0.26903   0.90919  -0.79999
  26   28848.9    346.6   0.005008250   0.05715   0.02403   0.18019  -0.15526
  27   29346.9    340.8   0.005060143   0.05676   0.00387   0.23583   0.03366
  28   29535.3    338.6   0.035370289   0.39425   0.15208  -0.46038   0.39896
  29   30264.9    330.4   0.248923811   2.70772   0.59952   0.65817   1.38388
  30   30628.4    326.5   0.116327168   1.25035  -0.54512  -0.08042   0.97300
  31   30840.7    324.2   0.214066807   2.28507  -1.18654  -0.59709  -0.72158
  32   31181.6    320.7   0.001948959   0.02058  -0.00336   0.12776  -0.06515
  33   31218.6    320.3   0.042100843   0.44397   0.56979   0.22485   0.26220
  34   31412.7    318.3   0.859551417   9.00827  -2.59966  -1.36934  -0.61232
  35   31501.1    317.4   0.022097289   0.23093  -0.25656  -0.06000  -0.40189
  36   31588.4    316.6   0.237469898   2.47489  -0.14651   1.55646   0.17569
  37   32198.4    310.6   0.000506116   0.00517  -0.05236  -0.04685   0.01545
  38   32438.0    308.3   0.012574605   0.12762  -0.23056  -0.01344  -0.27254
  39   32539.6    307.3   0.003065042   0.03101   0.00025  -0.17554   0.01405
  40   32602.5    306.7   0.005897406   0.05955   0.01718   0.23530  -0.06236
  41   32771.0    305.1   0.458190442   4.60290   1.94514   0.90467   0.03030
  42   33197.6    301.2   0.000489809   0.00486  -0.06612  -0.00680   0.02096
  43   33280.1    300.5   0.014470139   0.14314  -0.35776   0.08897   0.08505
  44   33679.2    296.9   0.076244818   0.74529   0.26220  -0.77440   0.27720
  45   33860.0    295.3   0.002404784   0.02338   0.05849   0.13902  -0.02518
  46   33916.4    294.8   0.016704912   0.16215  -0.23249  -0.32823   0.01897
  47   34073.3    293.5   0.038530297   0.37227  -0.04171  -0.57228   0.20744
  48   34142.8    292.9   0.002326100   0.02243  -0.00086  -0.13694   0.06062
  49   34378.6    290.9   0.023184581   0.22202   0.24423   0.40293  -0.00428
  50   34657.2    288.5   0.065521172   0.62239  -0.17390  -0.76889  -0.03089
  51   34715.5    288.1   0.001219901   0.01157   0.07944   0.07237  -0.00450
  52   35231.3    283.8   0.009435787   0.08817   0.26605   0.02643  -0.12919
  53   35294.7    283.3   0.078404252   0.73132   0.76014   0.12187  -0.37236
  54   35506.4    281.6   0.001429532   0.01325   0.03881   0.01537   0.10729
  55   35713.3    280.0   0.009424257   0.08687  -0.16417  -0.09488   0.22566
  56   35750.1    279.7   0.215792939   1.98717  -1.37530   0.00405   0.30938
  57   36338.1    275.2   0.142056114   1.28698   0.14117   0.96097  -0.58617
  58   36604.5    273.2   0.001543035   0.01388   0.07096   0.07981   0.04974
  59   36701.3    272.5   0.075565715   0.67783   0.80480   0.04218   0.16837
  60   36926.8    270.8   0.001477014   0.01317   0.01494   0.10794  -0.03597
  61   36962.1    270.5   0.045466630   0.40496   0.18515  -0.49104  -0.35994
  62   36994.3    270.3   0.264218401   2.35128   0.34384  -1.38043   0.57224
  63   37076.7    269.7   0.037052227   0.32899   0.43428  -0.32629  -0.18421
  64   37182.3    268.9   0.080344223   0.71137   0.61230  -0.35430  -0.45927
  65   37317.9    268.0   0.010655813   0.09400   0.21820  -0.15765  -0.14676
  66   37565.7    266.2   0.009230925   0.08090   0.04870  -0.25660   0.11260
  67   37635.7    265.7   0.032465758   0.28399   0.03781  -0.50084   0.17811
  68   37832.3    264.3   0.015671079   0.13637   0.12595  -0.33580  -0.08800
  69   37870.4    264.1   0.029251516   0.25429   0.10851  -0.44853   0.20330
  70   37911.3    263.8   0.072695396   0.63127   0.47492  -0.60780  -0.19051
  71   38002.8    263.1   0.122568654   1.06179   0.16557  -0.91277   0.44859
  72   38058.9    262.8   0.063534614   0.54958  -0.52401   0.44129   0.28330
  73   38192.0    261.8   0.060179770   0.51874   0.15073  -0.66649   0.22763
  74   38493.0    259.8   0.273098530   2.33568  -0.38912   1.40615  -0.45499
  75   38560.3    259.3   0.057204284   0.48839   0.35481   0.46068  -0.38765
  76   38570.6    259.3   0.039262566   0.33512   0.06350   0.50733  -0.27149
  77   38884.9    257.2   0.000038493   0.00033   0.01745  -0.00460  -0.00050
  78   39600.7    252.5   0.020101033   0.16711   0.24656   0.23039   0.23072
  79   39624.2    252.4   0.208121752   1.72915   0.72790   0.82865   0.71600
  80   39835.7    251.0   0.128976923   1.06590  -0.96137   0.35455   0.12634
  81   39920.3    250.5   0.012073906   0.09957   0.28874  -0.04746   0.11809
  82   39998.5    250.0   0.002316598   0.01907   0.11997  -0.02399   0.06403
  83   40039.5    249.8   0.014901732   0.12252  -0.02022  -0.32025  -0.13984

FINAL SINGLE POINT ENERGY     -3659.944695400929

DIPOLE MOMENT
-------------
                                X             Y             Z
Electronic contribution:     21.51433       7.53024      -1.83091
Nuclear contribution   :    -24.37483      -7.24837       2.36286
                        -----------------------------------------
Total Dipole Moment    :     -2.86050       0.28186       0.53195
                        -----------------------------------------
Magnitude (a.u.)       :      2.92317
Magnitude (Debye)      :      7.43010

Rotational constants in cm-1:     0.001153     0.000340     0.000304
Rotational constants in MHz :    34.566736    10.203477     9.122222

                             ****ORCA TERMINATED NORMALLY****
TOTAL RUN TIME: 0 days 0 hours 12 minutes 48 seconds 404 msec
