                         Program Version 4.2.0 -  RELEASE  -
|  1> # ORCA input file
|  2> # SCF done       -190.936696459340          0.000616364981
|  3> ! CAM-B3LYP def2-SVP def2/J RIJCOSX Grid4 TightSCF
|  4> %maxcore 5000
|  5> %tddft
|  6>     Mode sTDDFT
|  7>     Ethresh 5.0
|  8>     maxcore 5000
|  9> end
| 10>
| 11> %pal
| 12>   nprocs 6
| 13>   end
| 14> * xyz 0 1
| 15>    C       -0.42357        -0.39274        -2.69660
| 16>    C       -0.06710         0.89906        -2.92907
| 17>    C        1.09035         1.62614        -2.33204
| 18>    F        1.69576         0.90133        -1.38610
| 19>    F        2.02742         1.93232        -3.24587
| 20>    F        0.72730         2.78700        -1.76362
| 21>    S       -1.10830         1.70160        -4.04814
| 22>    C       -2.05883         0.26223        -4.20132
| 23>    C       -3.14727         0.27730        -5.07752
| 24>    N       -4.03174         0.32146        -5.80798
| 25>    C       -1.58078        -0.78653        -3.42057
| 26>    C       -2.15259        -2.09922        -3.33116
| 27>    C       -1.57271        -3.19161        -2.73477
| 28>    C       -2.44240        -4.31580        -2.87320
| 29>    C       -3.64237        -3.82085        -3.57224
| 30>    C       -3.45850        -2.50265        -3.84104
| 31>    C       -4.82296        -4.53535        -3.81896
| 32>    N       -5.82146        -5.07489        -3.98934
| 33>    C       -2.20960        -5.60760        -2.46084
| 34>    C       -2.99846        -6.75688        -2.73612
| 35>    C       -2.43648        -7.85752        -2.10841
| 36>    C       -1.24329        -7.40466        -1.40658
| 37>    C       -1.08430        -6.07444        -1.63208
| 38>    C       -0.03874        -5.29447        -1.12362
| 39>    N        0.83016        -4.67713        -0.69619
| 40>    C       -2.96885        -9.16523        -2.19994
| 41>    N       -2.65863       -10.24662        -1.41672
| 42>    C       -1.76639       -10.29891        -0.28933
| 43>    C       -3.39753       -11.38855        -1.78107
| 44>    O       -3.29607       -12.45801        -1.21431
| 45>    C       -4.21239       -10.95219        -2.89499
| 46>    C       -3.93652        -9.59549        -3.12531
| 47>    C       -4.71043        -9.16693        -4.28248
| 48>    O       -4.76986        -8.11676        -4.87662
| 49>    N       -5.43889       -10.31469        -4.64742
| 50>    C       -6.36105       -10.30241        -5.75223
| 51>    C       -5.16170       -11.38624        -3.84419
| 52>    C       -5.76216       -12.64698        -4.00503
| 53>    C       -5.46695       -13.69022        -3.16598
| 54>    C       -5.93877       -15.01553        -3.21064
| 55>    C       -6.48234       -15.80815        -4.22890
| 56>    N       -6.94879       -15.47436        -5.51480
| 57>    O       -7.05696       -16.38602        -6.31448
| 58>    O       -7.23834       -14.31488        -5.76815
| 59>    C       -6.45405       -17.18185        -3.81931
| 60>    C       -5.90729       -17.27325        -2.57679
| 61>    C       -5.61565       -15.95289        -2.11011
| 62>    C       -5.25598       -15.59798        -0.82892
| 63>    C       -5.53931       -14.35475        -0.16451
| 64>    C       -5.17578       -14.46623         1.13348
| 65>    C       -4.59751       -15.77642         1.34984
| 66>    N       -3.96333       -16.08741         2.57206
| 67>    O       -3.51919       -17.20820         2.74389
| 68>    O       -3.87921       -15.18724         3.38816
| 69>    C       -4.64368       -16.49655         0.17257
| 70>    C       -4.08462       -17.76568        -0.17966
| 71>    C       -4.06568       -18.86792         0.59603
| 72>    C       -3.47638       -20.11591         0.18453
| 73>    C       -3.75469       -21.33328         0.78540
| 74>    C       -4.73197       -21.57405         1.88372
| 75>    F       -5.94246       -21.05247         1.60293
| 76>    F       -4.92345       -22.88077         2.10767
| 77>    F       -4.35538       -21.03473         3.05179
| 78>    S       -2.88873       -22.65297         0.11282
| 79>    C       -2.11537       -21.57512        -1.00769
| 80>    C       -1.18244       -22.05261        -1.93749
| 81>    N       -0.41894       -22.43183        -2.70387
| 82>    C       -2.52701       -20.27931        -0.85512
| 83>    H        0.10854        -1.03738        -2.02102
| 84>    H       -0.60376        -3.23426        -2.27932
| 85>    H       -4.16053        -1.85232        -4.32612
| 86>    H       -3.87692        -6.76351        -3.35094
| 87>    H       -0.57182        -8.01595        -0.83654
| 88>    H       -1.97002        -9.48392         0.40542
| 89>    H       -0.72301       -10.26755        -0.60918
| 90>    H       -1.94519       -11.25251         0.20964
| 91>    H       -6.32753        -9.30248        -6.18421
| 92>    H       -7.37587       -10.51470        -5.41324
| 93>    H       -6.07500       -11.03543        -6.50738
| 94>    H       -6.47865       -12.76883        -4.80255
| 95>    H       -4.76713       -13.49431        -2.36395
| 96>    H       -6.82735       -17.98312        -4.42925
| 97>    H       -5.83106       -18.16476        -1.98554
| 98>    H       -6.05887       -13.52840        -0.60677
| 99>    H       -5.27681       -13.73576         1.91318
|100>    H       -3.69217       -17.81873        -1.18732
|101>    H       -4.53152       -18.85414         1.56852
|102>    H       -2.13962       -19.47331        -1.45097
|103> *
|104>
|105>                          ****END OF INPUT****

CARTESIAN COORDINATES (ANGSTROEM)
---------------------------------
  C     -0.423570   -0.392740   -2.696600
  C     -0.067100    0.899060   -2.929070
  C      1.090350    1.626140   -2.332040
  F      1.695760    0.901330   -1.386100
  F      2.027420    1.932320   -3.245870
  F      0.727300    2.787000   -1.763620
  S     -1.108300    1.701600   -4.048140
  C     -2.058830    0.262230   -4.201320
  C     -3.147270    0.277300   -5.077520
  N     -4.031740    0.321460   -5.807980
  C     -1.580780   -0.786530   -3.420570
  C     -2.152590   -2.099220   -3.331160
  C     -1.572710   -3.191610   -2.734770
  C     -2.442400   -4.315800   -2.873200
  C     -3.642370   -3.820850   -3.572240
  C     -3.458500   -2.502650   -3.841040
  C     -4.822960   -4.535350   -3.818960
  N     -5.821460   -5.074890   -3.989340
  C     -2.209600   -5.607600   -2.460840
  C     -2.998460   -6.756880   -2.736120
  C     -2.436480   -7.857520   -2.108410
  C     -1.243290   -7.404660   -1.406580
  C     -1.084300   -6.074440   -1.632080
  C     -0.038740   -5.294470   -1.123620
  N      0.830160   -4.677130   -0.696190
  C     -2.968850   -9.165230   -2.199940
  N     -2.658630  -10.246620   -1.416720
  C     -1.766390  -10.298910   -0.289330
  C     -3.397530  -11.388550   -1.781070
  O     -3.296070  -12.458010   -1.214310
  C     -4.212390  -10.952190   -2.894990
  C     -3.936520   -9.595490   -3.125310
  C     -4.710430   -9.166930   -4.282480
  O     -4.769860   -8.116760   -4.876620
  N     -5.438890  -10.314690   -4.647420
  C     -6.361050  -10.302410   -5.752230
  C     -5.161700  -11.386240   -3.844190
  C     -5.762160  -12.646980   -4.005030
  C     -5.466950  -13.690220   -3.165980
  C     -5.938770  -15.015530   -3.210640
  C     -6.482340  -15.808150   -4.228900
  N     -6.948790  -15.474360   -5.514800
  O     -7.056960  -16.386020   -6.314480
  O     -7.238340  -14.314880   -5.768150
  C     -6.454050  -17.181850   -3.819310
  C     -5.907290  -17.273250   -2.576790
  C     -5.615650  -15.952890   -2.110110
  C     -5.255980  -15.597980   -0.828920
  C     -5.539310  -14.354750   -0.164510
  C     -5.175780  -14.466230    1.133480
  C     -4.597510  -15.776420    1.349840
  N     -3.963330  -16.087410    2.572060
  O     -3.519190  -17.208200    2.743890
  O     -3.879210  -15.187240    3.388160
  C     -4.643680  -16.496550    0.172570
  C     -4.084620  -17.765680   -0.179660
  C     -4.065680  -18.867920    0.596030
  C     -3.476380  -20.115910    0.184530
  C     -3.754690  -21.333280    0.785400
  C     -4.731970  -21.574050    1.883720
  F     -5.942460  -21.052470    1.602930
  F     -4.923450  -22.880770    2.107670
  F     -4.355380  -21.034730    3.051790
  S     -2.888730  -22.652970    0.112820
  C     -2.115370  -21.575120   -1.007690
  C     -1.182440  -22.052610   -1.937490
  N     -0.418940  -22.431830   -2.703870
  C     -2.527010  -20.279310   -0.855120
  H      0.108540   -1.037380   -2.021020
  H     -0.603760   -3.234260   -2.279320
  H     -4.160530   -1.852320   -4.326120
  H     -3.876920   -6.763510   -3.350940
  H     -0.571820   -8.015950   -0.836540
  H     -1.970020   -9.483920    0.405420
  H     -0.723010  -10.267550   -0.609180
  H     -1.945190  -11.252510    0.209640
  H     -6.327530   -9.302480   -6.184210
  H     -7.375870  -10.514700   -5.413240
  H     -6.075000  -11.035430   -6.507380
  H     -6.478650  -12.768830   -4.802550
  H     -4.767130  -13.494310   -2.363950
  H     -6.827350  -17.983120   -4.429250
  H     -5.831060  -18.164760   -1.985540
  H     -6.058870  -13.528400   -0.606770
  H     -5.276810  -13.735760    1.913180
  H     -3.692170  -17.818730   -1.187320
  H     -4.531520  -18.854140    1.568520
  H     -2.139620  -19.473310   -1.450970

 Total Charge           Charge          ....    0
 Multiplicity           Mult            ....    1
 Number of Electrons    NEL             ....  486
 Basis Dimension        Dim             .... 1060

ORBITAL ENERGIES
----------------

  NO   OCC          E(Eh)            E(eV)
   0   2.0000     -89.008155     -2422.0350
   1   2.0000     -89.005813     -2421.9713
   2   2.0000     -24.818672      -675.3504
   3   2.0000     -24.818613      -675.3488
   4   2.0000     -24.813787      -675.2175
   5   2.0000     -24.812217      -675.1747
   6   2.0000     -24.811760      -675.1623
   7   2.0000     -24.811737      -675.1617
   8   2.0000     -19.251901      -523.8708
   9   2.0000     -19.249811      -523.8140
  10   2.0000     -19.244791      -523.6774
  11   2.0000     -19.244169      -523.6605
  12   2.0000     -19.217963      -522.9473
  13   2.0000     -19.211472      -522.7707
  14   2.0000     -14.659732      -398.9116
  15   2.0000     -14.653801      -398.7502
  16   2.0000     -14.481903      -394.0726
  17   2.0000     -14.474495      -393.8710
  18   2.0000     -14.434389      -392.7797
  19   2.0000     -14.426192      -392.5566
  20   2.0000     -14.424215      -392.5028
  21   2.0000     -14.411500      -392.1569
  22   2.0000     -10.542159      -286.8667
  23   2.0000     -10.540631      -286.8251
  24   2.0000     -10.399349      -282.9807
  25   2.0000     -10.394603      -282.8515
  26   2.0000     -10.364981      -282.0455
  27   2.0000     -10.363982      -282.0183
  28   2.0000     -10.360984      -281.9367
  29   2.0000     -10.358002      -281.8556
  30   2.0000     -10.348190      -281.5886
  31   2.0000     -10.344718      -281.4941
  32   2.0000     -10.343197      -281.4527
  33   2.0000     -10.340025      -281.3664
  34   2.0000     -10.339761      -281.3592
  35   2.0000     -10.337297      -281.2922
  36   2.0000     -10.336918      -281.2818
  37   2.0000     -10.336662      -281.2749
  38   2.0000     -10.335871      -281.2534
  39   2.0000     -10.335721      -281.2493
  40   2.0000     -10.334426      -281.2140
  41   2.0000     -10.332111      -281.1510
  42   2.0000     -10.329744      -281.0866
  43   2.0000     -10.328023      -281.0398
  44   2.0000     -10.327533      -281.0264
  45   2.0000     -10.327118      -281.0152
  46   2.0000     -10.326490      -280.9981
  47   2.0000     -10.326165      -280.9892
  48   2.0000     -10.325600      -280.9739
  49   2.0000     -10.325234      -280.9639
  50   2.0000     -10.324030      -280.9311
  51   2.0000     -10.322967      -280.9022
  52   2.0000     -10.322020      -280.8764
  53   2.0000     -10.318660      -280.7850
  54   2.0000     -10.314714      -280.6777
  55   2.0000     -10.314237      -280.6647
  56   2.0000     -10.312021      -280.6044
  57   2.0000     -10.310593      -280.5655
  58   2.0000     -10.310348      -280.5588
  59   2.0000     -10.309636      -280.5394
  60   2.0000     -10.308395      -280.5057
  61   2.0000     -10.303147      -280.3629
  62   2.0000     -10.302334      -280.3408
  63   2.0000     -10.301417      -280.3158
  64   2.0000     -10.298434      -280.2346
  65   2.0000     -10.292404      -280.0705
  66   2.0000     -10.289790      -279.9994
  67   2.0000     -10.289261      -279.9850
  68   2.0000      -8.103457      -220.5063
  69   2.0000      -8.100956      -220.4382
  70   2.0000      -6.072817      -165.2497
  71   2.0000      -6.070318      -165.1818
  72   2.0000      -6.068480      -165.1317
  73   2.0000      -6.065876      -165.0609
  74   2.0000      -6.065498      -165.0506
  75   2.0000      -6.063139      -164.9864
  76   2.0000      -1.406203       -38.2647
  77   2.0000      -1.405295       -38.2400
  78   2.0000      -1.330273       -36.1986
  79   2.0000      -1.324989       -36.0548
  80   2.0000      -1.310298       -35.6550
  81   2.0000      -1.309618       -35.6365
  82   2.0000      -1.304708       -35.5029
  83   2.0000      -1.303217       -35.4623
  84   2.0000      -1.158733       -31.5307
  85   2.0000      -1.150484       -31.3063
  86   2.0000      -1.146964       -31.2105
  87   2.0000      -1.142105       -31.0783
  88   2.0000      -1.088342       -29.6153
  89   2.0000      -1.078504       -29.3476
  90   2.0000      -1.043191       -28.3867
  91   2.0000      -1.035706       -28.1830
  92   2.0000      -1.029101       -28.0033
  93   2.0000      -1.027245       -27.9528
  94   2.0000      -1.013051       -27.5665
  95   2.0000      -1.010395       -27.4943
  96   2.0000      -1.006323       -27.3834
  97   2.0000      -1.004386       -27.3307
  98   2.0000      -0.998235       -27.1634
  99   2.0000      -0.988764       -26.9056
 100   2.0000      -0.944458       -25.7000
 101   2.0000      -0.931079       -25.3359
 102   2.0000      -0.927517       -25.2390
 103   2.0000      -0.920759       -25.0551
 104   2.0000      -0.917878       -24.9767
 105   2.0000      -0.899545       -24.4779
 106   2.0000      -0.898615       -24.4526
 107   2.0000      -0.893797       -24.3215
 108   2.0000      -0.890095       -24.2207
 109   2.0000      -0.874868       -23.8064
 110   2.0000      -0.873099       -23.7582
 111   2.0000      -0.864357       -23.5204
 112   2.0000      -0.855835       -23.2885
 113   2.0000      -0.850807       -23.1516
 114   2.0000      -0.830949       -22.6113
 115   2.0000      -0.824916       -22.4471
 116   2.0000      -0.813925       -22.1480
 117   2.0000      -0.811743       -22.0887
 118   2.0000      -0.799317       -21.7505
 119   2.0000      -0.786760       -21.4088
 120   2.0000      -0.786329       -21.3971
 121   2.0000      -0.772362       -21.0170
 122   2.0000      -0.753398       -20.5010
 123   2.0000      -0.752017       -20.4634
 124   2.0000      -0.738735       -20.1020
 125   2.0000      -0.736318       -20.0362
 126   2.0000      -0.729149       -19.8412
 127   2.0000      -0.728226       -19.8160
 128   2.0000      -0.724808       -19.7230
 129   2.0000      -0.709221       -19.2989
 130   2.0000      -0.698844       -19.0165
 131   2.0000      -0.697369       -18.9764
 132   2.0000      -0.690556       -18.7910
 133   2.0000      -0.688033       -18.7223
 134   2.0000      -0.687902       -18.7188
 135   2.0000      -0.686752       -18.6875
 136   2.0000      -0.682482       -18.5713
 137   2.0000      -0.681527       -18.5453
 138   2.0000      -0.679958       -18.5026
 139   2.0000      -0.678709       -18.4686
 140   2.0000      -0.667953       -18.1759
 141   2.0000      -0.655734       -17.8434
 142   2.0000      -0.653484       -17.7822
 143   2.0000      -0.640484       -17.4285
 144   2.0000      -0.637988       -17.3605
 145   2.0000      -0.634180       -17.2569
 146   2.0000      -0.631789       -17.1918
 147   2.0000      -0.630472       -17.1560
 148   2.0000      -0.620400       -16.8819
 149   2.0000      -0.616244       -16.7688
 150   2.0000      -0.609441       -16.5837
 151   2.0000      -0.606127       -16.4936
 152   2.0000      -0.603765       -16.4293
 153   2.0000      -0.599003       -16.2997
 154   2.0000      -0.594522       -16.1778
 155   2.0000      -0.593823       -16.1587
 156   2.0000      -0.588857       -16.0236
 157   2.0000      -0.585111       -15.9217
 158   2.0000      -0.581616       -15.8266
 159   2.0000      -0.575005       -15.6467
 160   2.0000      -0.572958       -15.5910
 161   2.0000      -0.568467       -15.4688
 162   2.0000      -0.564672       -15.3655
 163   2.0000      -0.564590       -15.3633
 164   2.0000      -0.563736       -15.3400
 165   2.0000      -0.563042       -15.3212
 166   2.0000      -0.555031       -15.1032
 167   2.0000      -0.552659       -15.0386
 168   2.0000      -0.548196       -14.9172
 169   2.0000      -0.546567       -14.8729
 170   2.0000      -0.543080       -14.7780
 171   2.0000      -0.541727       -14.7411
 172   2.0000      -0.537451       -14.6248
 173   2.0000      -0.536699       -14.6043
 174   2.0000      -0.535459       -14.5706
 175   2.0000      -0.534079       -14.5330
 176   2.0000      -0.532088       -14.4788
 177   2.0000      -0.530723       -14.4417
 178   2.0000      -0.522209       -14.2100
 179   2.0000      -0.519265       -14.1299
 180   2.0000      -0.518806       -14.1174
 181   2.0000      -0.515791       -14.0354
 182   2.0000      -0.514327       -13.9955
 183   2.0000      -0.514088       -13.9891
 184   2.0000      -0.512960       -13.9584
 185   2.0000      -0.511747       -13.9253
 186   2.0000      -0.506995       -13.7960
 187   2.0000      -0.504620       -13.7314
 188   2.0000      -0.502837       -13.6829
 189   2.0000      -0.500388       -13.6162
 190   2.0000      -0.499741       -13.5987
 191   2.0000      -0.499222       -13.5845
 192   2.0000      -0.498527       -13.5656
 193   2.0000      -0.497023       -13.5247
 194   2.0000      -0.496549       -13.5118
 195   2.0000      -0.491223       -13.3669
 196   2.0000      -0.490542       -13.3483
 197   2.0000      -0.487883       -13.2760
 198   2.0000      -0.487493       -13.2654
 199   2.0000      -0.485231       -13.2038
 200   2.0000      -0.484089       -13.1727
 201   2.0000      -0.475957       -12.9515
 202   2.0000      -0.473835       -12.8937
 203   2.0000      -0.470035       -12.7903
 204   2.0000      -0.468056       -12.7364
 205   2.0000      -0.462934       -12.5971
 206   2.0000      -0.460562       -12.5325
 207   2.0000      -0.459473       -12.5029
 208   2.0000      -0.457518       -12.4497
 209   2.0000      -0.456843       -12.4313
 210   2.0000      -0.453406       -12.3378
 211   2.0000      -0.453098       -12.3294
 212   2.0000      -0.451931       -12.2977
 213   2.0000      -0.447991       -12.1904
 214   2.0000      -0.439858       -11.9691
 215   2.0000      -0.438864       -11.9421
 216   2.0000      -0.430977       -11.7275
 217   2.0000      -0.428183       -11.6514
 218   2.0000      -0.427039       -11.6203
 219   2.0000      -0.425544       -11.5796
 220   2.0000      -0.411030       -11.1847
 221   2.0000      -0.406673       -11.0661
 222   2.0000      -0.399272       -10.8647
 223   2.0000      -0.395558       -10.7637
 224   2.0000      -0.390900       -10.6369
 225   2.0000      -0.386393       -10.5143
 226   2.0000      -0.383746       -10.4423
 227   2.0000      -0.383120       -10.4252
 228   2.0000      -0.377371       -10.2688
 229   2.0000      -0.371485       -10.1086
 230   2.0000      -0.370066       -10.0700
 231   2.0000      -0.356846        -9.7103
 232   2.0000      -0.355551        -9.6750
 233   2.0000      -0.354768        -9.6537
 234   2.0000      -0.348569        -9.4850
 235   2.0000      -0.342433        -9.3181
 236   2.0000      -0.341264        -9.2863
 237   2.0000      -0.340151        -9.2560
 238   2.0000      -0.328370        -8.9354
 239   2.0000      -0.315362        -8.5814
 240   2.0000      -0.307271        -8.3613
 241   2.0000      -0.294034        -8.0011
 242   2.0000      -0.252718        -6.8768
 243   0.0000      -0.154636        -4.2079
 244   0.0000      -0.135426        -3.6851
 245   0.0000      -0.087642        -2.3849
 246   0.0000      -0.058759        -1.5989
 247   0.0000      -0.057362        -1.5609

MULLIKEN ATOMIC CHARGES
-----------------------
   0 C :   -0.036602
   1 C :   -0.202645
   2 C :    0.552365
   3 F :   -0.145575
   4 F :   -0.155926
   5 F :   -0.156423
   6 S :    0.265908
   7 C :   -0.317767
   8 C :   -0.202929
   9 N :    0.150707
  10 C :    0.274137
  11 C :    0.052832
  12 C :   -0.118827
  13 C :    0.108997
  14 C :   -0.079867
  15 C :   -0.010054
  16 C :   -0.187819
  17 N :    0.161575
  18 C :    0.123196
  19 C :   -0.109161
  20 C :    0.042058
  21 C :   -0.028319
  22 C :   -0.090619
  23 C :   -0.182517
  24 N :    0.142774
  25 C :    0.162308
  26 N :   -0.268116
  27 C :    0.112965
  28 C :    0.168398
  29 O :   -0.198351
  30 C :   -0.076761
  31 C :   -0.073190
  32 C :    0.165692
  33 O :   -0.166976
  34 N :   -0.267522
  35 C :    0.113914
  36 C :    0.156137
  37 C :   -0.013221
  38 C :   -0.089444
  39 C :    0.098239
  40 C :    0.067982
  41 N :    0.275509
  42 O :   -0.239405
  43 O :   -0.253988
  44 C :    0.029608
  45 C :   -0.008644
  46 C :    0.004945
  47 C :    0.041949
  48 C :    0.037511
  49 C :    0.017646
  50 C :    0.076879
  51 N :    0.261927
  52 O :   -0.244958
  53 O :   -0.241795
  54 C :    0.059419
  55 C :   -0.090550
  56 C :    0.067363
  57 C :    0.094724
  58 C :   -0.276881
  59 C :    0.546756
  60 F :   -0.164409
  61 F :   -0.154436
  62 F :   -0.149622
  63 S :    0.264272
  64 C :   -0.250157
  65 C :   -0.129833
  66 N :    0.136664
  67 C :    0.052381
  68 H :    0.024367
  69 H :    0.000961
  70 H :    0.017709
  71 H :    0.032920
  72 H :   -0.011056
  73 H :    0.043177
  74 H :    0.047120
  75 H :    0.065614
  76 H :    0.068625
  77 H :    0.046353
  78 H :    0.048561
  79 H :    0.003312
  80 H :    0.034540
  81 H :    0.009888
  82 H :    0.006361
  83 H :   -0.001779
  84 H :    0.005790
  85 H :    0.015222
  86 H :    0.024827
  87 H :    0.013064
Sum of atomic charges:   -0.0000000

LOEWDIN ATOMIC CHARGES
----------------------
   0 C :   -0.013204
   1 C :   -0.220636
   2 C :    0.149113
   3 F :   -0.046078
   4 F :   -0.059802
   5 F :   -0.058645
   6 S :    0.524170
   7 C :   -0.208856
   8 C :   -0.057877
   9 N :   -0.033065
  10 C :   -0.021630
  11 C :   -0.007519
  12 C :   -0.019867
  13 C :    0.050861
  14 C :   -0.073311
  15 C :    0.053847
  16 C :   -0.035459
  17 N :   -0.041166
  18 C :    0.031474
  19 C :    0.020490
  20 C :   -0.038127
  21 C :    0.046686
  22 C :   -0.078053
  23 C :   -0.031149
  24 N :   -0.059869
  25 C :    0.074348
  26 N :   -0.002824
  27 C :    0.029716
  28 C :    0.080720
  29 O :   -0.187229
  30 C :   -0.111075
  31 C :   -0.098345
  32 C :    0.083337
  33 O :   -0.161744
  34 N :    0.001189
  35 C :    0.032302
  36 C :    0.077392
  37 C :   -0.012465
  38 C :    0.013722
  39 C :    0.005588
  40 C :   -0.040356
  41 N :    0.286320
  42 O :   -0.203655
  43 O :   -0.214134
  44 C :    0.020899
  45 C :   -0.041314
  46 C :    0.035332
  47 C :    0.050188
  48 C :   -0.029275
  49 C :    0.019436
  50 C :   -0.035085
  51 N :    0.283060
  52 O :   -0.204102
  53 O :   -0.207097
  54 C :    0.010282
  55 C :   -0.030063
  56 C :    0.022377
  57 C :   -0.041676
  58 C :   -0.229999
  59 C :    0.150611
  60 F :   -0.061869
  61 F :   -0.055383
  62 F :   -0.050481
  63 S :    0.526795
  64 C :   -0.207872
  65 C :   -0.054356
  66 N :   -0.032227
  67 C :   -0.002291
  68 H :    0.047266
  69 H :    0.033425
  70 H :    0.043135
  71 H :    0.039719
  72 H :    0.035988
  73 H :    0.030736
  74 H :    0.027994
  75 H :    0.044541
  76 H :    0.045792
  77 H :    0.032684
  78 H :    0.033220
  79 H :    0.031510
  80 H :    0.040799
  81 H :    0.040355
  82 H :    0.033363
  83 H :    0.031357
  84 H :    0.038210
  85 H :    0.033530
  86 H :    0.032387
  87 H :    0.042963

  Mayer bond orders larger than 0.100000
B(  0-C ,  1-C ) :   1.5948 B(  0-C , 10-C ) :   1.2089 B(  0-C , 68-H ) :   1.0025
B(  1-C ,  2-C ) :   0.9390 B(  1-C ,  6-S ) :   1.1270 B(  1-C ,  7-C ) :   0.1169
B(  2-C ,  3-F ) :   1.1831 B(  2-C ,  4-F ) :   1.1851 B(  2-C ,  5-F ) :   1.1804
B(  6-S ,  7-C ) :   1.1667 B(  7-C ,  8-C ) :   1.2375 B(  7-C , 10-C ) :   1.4688
B(  8-C ,  9-N ) :   2.9537 B( 10-C , 11-C ) :   1.0014 B( 11-C , 12-C ) :   1.5931
B( 11-C , 15-C ) :   1.0499 B( 12-C , 13-C ) :   1.1051 B( 12-C , 69-H ) :   0.9992
B( 13-C , 14-C ) :   1.1101 B( 13-C , 18-C ) :   1.3954 B( 14-C , 15-C ) :   1.6761
B( 14-C , 16-C ) :   1.0837 B( 15-C , 70-H ) :   1.0098 B( 16-C , 17-N ) :   2.9901
B( 18-C , 19-C ) :   1.1215 B( 18-C , 22-C ) :   1.1006 B( 19-C , 20-C ) :   1.5260
B( 19-C , 71-H ) :   0.9868 B( 20-C , 21-C ) :   1.0267 B( 20-C , 25-C ) :   1.0662
B( 21-C , 22-C ) :   1.6633 B( 21-C , 72-H ) :   1.0267 B( 22-C , 23-C ) :   1.0831
B( 23-C , 24-N ) :   2.9749 B( 25-C , 26-N ) :   1.2027 B( 25-C , 31-C ) :   1.3461
B( 26-N , 27-C ) :   0.9579 B( 26-N , 28-C ) :   1.0523 B( 27-C , 73-H ) :   0.9707
B( 27-C , 74-H ) :   0.9699 B( 27-C , 75-H ) :   0.9462 B( 28-C , 29-O ) :   2.0209
B( 28-C , 30-C ) :   0.9940 B( 29-O , 80-H ) :   0.1086 B( 30-C , 31-C ) :   1.2953
B( 30-C , 36-C ) :   1.2594 B( 31-C , 32-C ) :   0.9647 B( 32-C , 33-O ) :   2.1023
B( 32-C , 34-N ) :   1.0441 B( 34-N , 35-C ) :   0.9539 B( 34-N , 36-C ) :   1.1866
B( 35-C , 76-H ) :   0.9510 B( 35-C , 77-H ) :   0.9723 B( 35-C , 78-H ) :   0.9714
B( 36-C , 37-C ) :   1.1768 B( 37-C , 38-C ) :   1.5283 B( 37-C , 79-H ) :   0.9507
B( 38-C , 39-C ) :   1.1836 B( 38-C , 80-H ) :   0.9400 B( 39-C , 40-C ) :   1.4515
B( 39-C , 46-C ) :   1.0146 B( 40-C , 41-N ) :   0.9532 B( 40-C , 44-C ) :   1.1571
B( 41-N , 42-O ) :   1.5428 B( 41-N , 43-O ) :   1.4664 B( 42-O , 43-O ) :   0.2551
B( 44-C , 45-C ) :   1.5481 B( 44-C , 81-H ) :   1.0075 B( 45-C , 46-C ) :   1.1338
B( 45-C , 82-H ) :   1.0033 B( 46-C , 47-C ) :   1.5153 B( 47-C , 48-C ) :   1.1117
B( 47-C , 54-C ) :   1.0353 B( 48-C , 49-C ) :   1.6061 B( 48-C , 83-H ) :   1.0016
B( 49-C , 50-C ) :   1.1064 B( 49-C , 84-H ) :   1.0081 B( 50-C , 51-N ) :   0.9413
B( 50-C , 54-C ) :   1.5722 B( 51-N , 52-O ) :   1.5077 B( 51-N , 53-O ) :   1.5407
B( 52-O , 53-O ) :   0.2628 B( 54-C , 55-C ) :   1.0860 B( 55-C , 56-C ) :   1.7200
B( 55-C , 85-H ) :   0.9451 B( 56-C , 57-C ) :   1.0931 B( 56-C , 86-H ) :   0.9455
B( 57-C , 58-C ) :   1.4951 B( 57-C , 67-C ) :   1.2394 B( 58-C , 59-C ) :   0.9524
B( 58-C , 63-S ) :   1.1553 B( 58-C , 64-C ) :   0.1103 B( 59-C , 60-F ) :   1.1556
B( 59-C , 61-F ) :   1.1671 B( 59-C , 62-F ) :   1.1689 B( 63-S , 64-C ) :   1.1457
B( 64-C , 65-C ) :   1.1532 B( 64-C , 67-C ) :   1.5584 B( 65-C , 66-N ) :   3.0267
B( 67-C , 87-H ) :   0.9952

-----------------------------------------------------------------------------
         ABSORPTION SPECTRUM VIA TRANSITION ELECTRIC DIPOLE MOMENTS
-----------------------------------------------------------------------------
State   Energy  Wavelength   fosc         T2         TX        TY        TZ
        (cm-1)    (nm)                  (au**2)     (au)      (au)      (au)
-----------------------------------------------------------------------------
   0    6226.9   1605.9   0.367536584  19.43133   1.11517   4.25154  -0.33483
   1   10305.3    970.4   0.044802784   1.43127  -0.26979  -1.11249  -0.34764
   2   12821.5    779.9   0.030492317   0.78294   0.55418  -0.59192   0.35420
   3   16239.7    615.8   0.048992648   0.99318  -0.19212   0.92976  -0.30302
   4   17573.3    569.0   0.040128602   0.75176  -0.29494   0.47174  -0.66501
   5   19476.2    513.4   0.181533227   3.06851   1.25241   0.82806   0.90239
   6   20236.0    494.2   0.013483076   0.21935  -0.30114  -0.26924  -0.23702
   7   22556.3    443.3   0.001722380   0.02514  -0.00310   0.11150  -0.11268
   8   23040.1    434.0   0.032837126   0.46920   0.04900  -0.60350  -0.32028
   9   23886.7    418.6   0.008202371   0.11305   0.15313  -0.25900   0.15005
  10   24269.6    412.0   0.103414589   1.40280   0.09780   1.01130   0.60870
  11   25059.4    399.1   0.336299166   4.41805   0.25738  -1.73821   1.15344
  12   25451.0    392.9   0.275947599   3.56942  -0.33240  -1.85981  -0.00419
  13   25698.4    389.1   0.028050413   0.35934   0.31953  -0.02980   0.50631
  14   26337.5    379.7   0.195174428   2.43963  -0.13027   1.51917  -0.33881
  15   26492.9    377.5   0.123146528   1.53027  -0.40689   0.80221  -0.84922
  16   26685.7    374.7   0.008147297   0.10051  -0.02067  -0.21284  -0.23406
  17   27271.6    366.7   0.032550235   0.39293  -0.22790  -0.58066  -0.06189
  18   27503.6    363.6   0.007469594   0.08941   0.03738   0.27971  -0.09886
  19   27959.9    357.7   0.160945687   1.89504   0.73689  -0.09544   1.15885
  20   28626.1    349.3   0.076245413   0.87685   0.31042  -0.37150   0.80155
  21   29222.8    342.2   0.127543585   1.43685   0.08444   0.74028   0.93900
  22   29376.1    340.4   0.025272157   0.28322  -0.25207  -0.08724  -0.46051
  23   29666.5    337.1   0.211400747   2.34593   0.01318   1.44716  -0.50147
  24   31166.9    320.9   0.067138629   0.70918   0.07759   0.78393  -0.29768
  25   31365.3    318.8   0.024210190   0.25411  -0.12333   0.48111   0.08620
  26   31488.5    317.6   0.011322749   0.11838   0.03900   0.31191   0.13990
  27   31767.4    314.8   0.034555643   0.35811   0.18622  -0.09779   0.56024
  28   31878.2    313.7   0.080719380   0.83360   0.27691   0.20969   0.84437
  29   32157.6    311.0   0.085798407   0.87836  -0.35129  -0.74982  -0.43899
  30   32348.4    309.1   0.094781510   0.96460  -0.42752  -0.78150  -0.41362
  31   32678.9    306.0   0.060487470   0.60936  -0.07566  -0.77422  -0.06500
  32   32994.0    303.1   0.005882934   0.05870  -0.04347   0.02836  -0.23665
  33   33718.6    296.6   0.013151733   0.12841  -0.12013  -0.21758   0.25814
  34   33822.6    295.7   0.002388563   0.02325   0.04896   0.12589  -0.07074
  35   33894.4    295.0   0.134595383   1.30731   0.36793  -0.27794   1.04627
  36   34264.0    291.9   0.234417611   2.25231  -0.31584  -1.18013  -0.87169
  37   34481.3    290.0   0.128655602   1.22835   0.05705   0.69880   0.85835
  38   34741.2    287.8   0.046178610   0.43759   0.10301  -0.62526   0.18983
  39   34951.6    286.1   0.006526417   0.06147  -0.13444   0.10858  -0.17779
  40   35474.5    281.9   0.163536844   1.51766  -0.38877   1.12816  -0.30623
  41   35645.9    280.5   0.101363932   0.93616   0.42266   0.24594   0.83489
  42   35924.3    278.4   0.038280698   0.35081  -0.09936  -0.47652   0.33744
  43   36244.1    275.9   0.017849285   0.16213   0.26068  -0.27112   0.14377
  44   36393.0    274.8   0.026460819   0.23936  -0.30546  -0.31928  -0.21005
  45   36692.2    272.5   0.099496292   0.89271  -0.03887   0.79843  -0.50369
  46   36878.4    271.2   0.140387885   1.25324  -0.07922  -1.07648   0.29690
  47   37422.1    267.2   0.200506285   1.76391  -0.11559  -1.28281   0.32393
  48   37658.8    265.5   0.077615955   0.67852   0.01203  -0.18570   0.80243
  49   37868.4    264.1   0.044855895   0.38996   0.24854   0.48500   0.30490
  50   38079.5    262.6   0.005473512   0.04732   0.03000   0.17613   0.12410
  51   38344.4    260.8   0.006449098   0.05537   0.11261   0.19883  -0.05620
  52   38716.7    258.3   0.029599231   0.25169  -0.07247   0.45831   0.19075
  53   39310.2    254.4   0.154694954   1.29553   0.26652  -0.79731   0.76733
  54   39807.9    251.2   0.029480442   0.24380  -0.19130   0.25104   0.37972
  55   39877.7    250.8   0.048104894   0.39713  -0.10135   0.55432   0.28212
  56   40064.3    249.6   0.002915226   0.02395   0.10622  -0.01274  -0.11185

FINAL SINGLE POINT ENERGY     -4045.229196506994

DIPOLE MOMENT
-------------
                                X             Y             Z
Electronic contribution:     20.33561      16.73802      16.88499
Nuclear contribution   :    -20.36158     -16.49524     -16.42664
                        -----------------------------------------
Total Dipole Moment    :     -0.02597       0.24278       0.45835
                        -----------------------------------------
Magnitude (a.u.)       :      0.51933
Magnitude (Debye)      :      1.32002

Rotational constants in cm-1:     0.002247     0.000260     0.000245
Rotational constants in MHz :    67.354992     7.802924     7.332786

                             ****ORCA TERMINATED NORMALLY****
TOTAL RUN TIME: 0 days 0 hours 9 minutes 21 seconds 210 msec
