                         Program Version 4.2.0 -  RELEASE  -
|  1> # ORCA input file
|  2> # SCF done       -218.726765638801          0.000446712633
|  3> ! CAM-B3LYP def2-SVP def2/J RIJCOSX Grid4 TightSCF
|  4> %maxcore 5000
|  5> %tddft
|  6>     Mode sTDDFT
|  7>     Ethresh 5.0
|  8>     maxcore 5000
|  9> end
| 10>
| 11> %pal
| 12>   nprocs 6
| 13>   end
| 14> * xyz 0 1
| 15>    C        0.66047         0.58990        -3.42881
| 16>    C       -0.37561         0.05822        -4.15072
| 17>    C       -0.22089        -0.96275        -5.11271
| 18>    N       -0.16373        -1.78818        -5.90832
| 19>    C       -1.73752         0.40200        -4.01283
| 20>    N       -2.86577         0.60619        -3.94689
| 21>    C        2.04542         0.14253        -3.48997
| 22>    C        2.77189         0.78880        -2.45088
| 23>    C        4.10263         0.56034        -2.24845
| 24>    C        4.78285        -0.33954        -3.09860
| 25>    C        4.06486        -0.98547        -4.14652
| 26>    C        2.68617        -0.73113        -4.32851
| 27>    C        4.75469        -1.87855        -4.99151
| 28>    C        6.08884        -2.12348        -4.81135
| 29>    C        6.79465        -1.48682        -3.77950
| 30>    C        6.15550        -0.61422        -2.94101
| 31>    C        1.87639         1.68497        -1.70171
| 32>    O        2.18000         2.34010        -0.72699
| 33>    C        0.56823         1.62365        -2.40607
| 34>    C       -0.50429         2.45841        -2.27644
| 35>    C       -0.78022         3.48053        -1.33879
| 36>    S       -2.17425         4.49285        -1.65679
| 37>    C       -1.93964         5.39382        -0.20058
| 38>    C       -0.82050         4.90645         0.49688
| 39>    C       -0.18104         3.84148        -0.14540
| 40>    C       -0.34268         5.42167         1.71412
| 41>    N        0.07514         5.82164         2.70568
| 42>    C       -2.82489         6.45384         0.10539
| 43>    C       -2.81753         7.16833         1.26396
| 44>    C       -3.71548         8.23451         1.50200
| 45>    N       -3.74555         8.95599         2.67333
| 46>    C       -2.87411         8.78764         3.81230
| 47>    C       -1.49735         9.40347         3.57747
| 48>    C       -4.72875         9.96253         2.64859
| 49>    O       -4.94803        10.72575         3.56556
| 50>    C       -5.33910         9.81928         1.34543
| 51>    C       -4.70393         8.75797         0.66531
| 52>    C       -5.33885         8.63529        -0.62776
| 53>    O       -5.14752         7.87466        -1.55624
| 54>    N       -6.31492         9.65402        -0.64952
| 55>    C       -7.23513         9.74125        -1.75930
| 56>    C       -8.63685         9.26993        -1.38238
| 57>    C       -6.32476        10.36372         0.52784
| 58>    C       -7.13438        11.44839         0.95216
| 59>    C       -7.98533        12.22836         0.24373
| 60>    C       -8.78665        13.26285         0.81313
| 61>    S       -9.25456        14.59996        -0.17841
| 62>    C      -10.14489        15.34447         1.11264
| 63>    C      -10.07027        14.56560         2.26374
| 64>    C       -9.31646        13.39144         2.09221
| 65>    C       -9.23155        12.33393         3.15110
| 66>    N       -9.50971        10.98493         2.57675
| 67>    O      -10.28739        10.91913         1.65718
| 68>    O       -8.97522        10.04790         3.11044
| 69>    C      -10.29216        12.56516         4.23390
| 70>    C      -10.19424        14.00753         4.70882
| 71>    C      -10.65273        14.94943         3.58786
| 72>    N      -10.18452        16.31237         3.99384
| 73>    O       -9.08615        16.64905         3.63775
| 74>    O      -10.93199        16.94479         4.69489
| 75>    C      -10.78746        16.57277         0.79114
| 76>    C      -11.73829        17.24301         1.48752
| 77>    C      -12.31066        18.49033         1.11005
| 78>    C      -12.44136        19.07755        -0.11524
| 79>    C      -12.99254        20.41148        -0.31727
| 80>    C      -13.08909        21.40180         0.62345
| 81>    C      -13.60597        22.68846         0.36072
| 82>    N      -14.01988        23.74897         0.21337
| 83>    C      -12.65764        21.30843         1.96478
| 84>    N      -12.31986        21.32943         3.06179
| 85>    C      -13.33969        20.54841        -1.72511
| 86>    C      -12.92888        19.36786        -2.40487
| 87>    C      -12.30690        18.43415        -1.45166
| 88>    O      -11.83067        17.35258        -1.72650
| 89>    C      -13.11535        19.20474        -3.74771
| 90>    C      -13.73545        20.23661        -4.48633
| 91>    C      -14.15617        21.41954        -3.81221
| 92>    C      -13.94937        21.55900        -2.42077
| 93>    C      -14.77684        22.44185        -4.55864
| 94>    C      -14.97174        22.30506        -5.90605
| 95>    C      -14.55670        21.14021        -6.56882
| 96>    C      -13.95150        20.12825        -5.87428
| 97>    H        4.62936         1.06197        -1.45024
| 98>    H        2.17319        -1.23073        -5.13475
| 99>    H        4.20679        -2.36740        -5.78360
|100>    H        6.60802        -2.80973        -5.46341
|101>    H        7.84721        -1.69109        -3.65246
|102>    H        6.69352        -0.12104        -2.14473
|103>    H       -1.28230         2.35605        -3.02462
|104>    H        0.69484         3.35451         0.24386
|105>    H       -3.55792         6.69226        -0.65529
|106>    H       -2.11293         6.92437         2.04343
|107>    H       -2.78495         7.72509         4.05350
|108>    H       -3.36771         9.29877         4.64363
|109>    H       -0.98595         8.91875         2.74927
|110>    H       -0.89059         9.28788         4.47070
|111>    H       -1.59563        10.46356         3.35610
|112>    H       -6.82240         9.08249        -2.52971
|113>    H       -7.24908        10.76076        -2.15366
|114>    H       -8.59964         8.23931        -1.03829
|115>    H       -9.28463         9.32087        -2.25301
|116>    H       -9.06902         9.88026        -0.59305
|117>    H       -6.96072        11.67192         1.99587
|118>    H       -8.06207        12.13566        -0.82838
|119>    H       -8.24238        12.28376         3.61897
|120>    H      -10.12313        11.87829         5.06382
|121>    H      -11.28639        12.37764         3.82036
|122>    H       -9.15662        14.22977         4.97091
|123>    H      -10.81447        14.16497         5.59176
|124>    H      -11.74714        14.97980         3.55597
|125>    H      -10.47258        16.98580        -0.15584
|126>    H      -12.08913        16.87940         2.44177
|127>    H      -12.73725        19.03253         1.94713
|128>    H      -12.79197        18.29937        -4.23971
|129>    H      -14.28567        22.46311        -1.93888
|130>    H      -15.09315        23.33734        -4.04418
|131>    H      -15.44685        23.09430        -6.46912
|132>    H      -14.71911        21.04889        -7.63236
|133>    H      -13.62977        19.22908        -6.37913
|134> *
|135>
|136>                          ****END OF INPUT****

CARTESIAN COORDINATES (ANGSTROEM)
---------------------------------
  C      0.660470    0.589900   -3.428810
  C     -0.375610    0.058220   -4.150720
  C     -0.220890   -0.962750   -5.112710
  N     -0.163730   -1.788180   -5.908320
  C     -1.737520    0.402000   -4.012830
  N     -2.865770    0.606190   -3.946890
  C      2.045420    0.142530   -3.489970
  C      2.771890    0.788800   -2.450880
  C      4.102630    0.560340   -2.248450
  C      4.782850   -0.339540   -3.098600
  C      4.064860   -0.985470   -4.146520
  C      2.686170   -0.731130   -4.328510
  C      4.754690   -1.878550   -4.991510
  C      6.088840   -2.123480   -4.811350
  C      6.794650   -1.486820   -3.779500
  C      6.155500   -0.614220   -2.941010
  C      1.876390    1.684970   -1.701710
  O      2.180000    2.340100   -0.726990
  C      0.568230    1.623650   -2.406070
  C     -0.504290    2.458410   -2.276440
  C     -0.780220    3.480530   -1.338790
  S     -2.174250    4.492850   -1.656790
  C     -1.939640    5.393820   -0.200580
  C     -0.820500    4.906450    0.496880
  C     -0.181040    3.841480   -0.145400
  C     -0.342680    5.421670    1.714120
  N      0.075140    5.821640    2.705680
  C     -2.824890    6.453840    0.105390
  C     -2.817530    7.168330    1.263960
  C     -3.715480    8.234510    1.502000
  N     -3.745550    8.955990    2.673330
  C     -2.874110    8.787640    3.812300
  C     -1.497350    9.403470    3.577470
  C     -4.728750    9.962530    2.648590
  O     -4.948030   10.725750    3.565560
  C     -5.339100    9.819280    1.345430
  C     -4.703930    8.757970    0.665310
  C     -5.338850    8.635290   -0.627760
  O     -5.147520    7.874660   -1.556240
  N     -6.314920    9.654020   -0.649520
  C     -7.235130    9.741250   -1.759300
  C     -8.636850    9.269930   -1.382380
  C     -6.324760   10.363720    0.527840
  C     -7.134380   11.448390    0.952160
  C     -7.985330   12.228360    0.243730
  C     -8.786650   13.262850    0.813130
  S     -9.254560   14.599960   -0.178410
  C    -10.144890   15.344470    1.112640
  C    -10.070270   14.565600    2.263740
  C     -9.316460   13.391440    2.092210
  C     -9.231550   12.333930    3.151100
  N     -9.509710   10.984930    2.576750
  O    -10.287390   10.919130    1.657180
  O     -8.975220   10.047900    3.110440
  C    -10.292160   12.565160    4.233900
  C    -10.194240   14.007530    4.708820
  C    -10.652730   14.949430    3.587860
  N    -10.184520   16.312370    3.993840
  O     -9.086150   16.649050    3.637750
  O    -10.931990   16.944790    4.694890
  C    -10.787460   16.572770    0.791140
  C    -11.738290   17.243010    1.487520
  C    -12.310660   18.490330    1.110050
  C    -12.441360   19.077550   -0.115240
  C    -12.992540   20.411480   -0.317270
  C    -13.089090   21.401800    0.623450
  C    -13.605970   22.688460    0.360720
  N    -14.019880   23.748970    0.213370
  C    -12.657640   21.308430    1.964780
  N    -12.319860   21.329430    3.061790
  C    -13.339690   20.548410   -1.725110
  C    -12.928880   19.367860   -2.404870
  C    -12.306900   18.434150   -1.451660
  O    -11.830670   17.352580   -1.726500
  C    -13.115350   19.204740   -3.747710
  C    -13.735450   20.236610   -4.486330
  C    -14.156170   21.419540   -3.812210
  C    -13.949370   21.559000   -2.420770
  C    -14.776840   22.441850   -4.558640
  C    -14.971740   22.305060   -5.906050
  C    -14.556700   21.140210   -6.568820
  C    -13.951500   20.128250   -5.874280
  H      4.629360    1.061970   -1.450240
  H      2.173190   -1.230730   -5.134750
  H      4.206790   -2.367400   -5.783600
  H      6.608020   -2.809730   -5.463410
  H      7.847210   -1.691090   -3.652460
  H      6.693520   -0.121040   -2.144730
  H     -1.282300    2.356050   -3.024620
  H      0.694840    3.354510    0.243860
  H     -3.557920    6.692260   -0.655290
  H     -2.112930    6.924370    2.043430
  H     -2.784950    7.725090    4.053500
  H     -3.367710    9.298770    4.643630
  H     -0.985950    8.918750    2.749270
  H     -0.890590    9.287880    4.470700
  H     -1.595630   10.463560    3.356100
  H     -6.822400    9.082490   -2.529710
  H     -7.249080   10.760760   -2.153660
  H     -8.599640    8.239310   -1.038290
  H     -9.284630    9.320870   -2.253010
  H     -9.069020    9.880260   -0.593050
  H     -6.960720   11.671920    1.995870
  H     -8.062070   12.135660   -0.828380
  H     -8.242380   12.283760    3.618970
  H    -10.123130   11.878290    5.063820
  H    -11.286390   12.377640    3.820360
  H     -9.156620   14.229770    4.970910
  H    -10.814470   14.164970    5.591760
  H    -11.747140   14.979800    3.555970
  H    -10.472580   16.985800   -0.155840
  H    -12.089130   16.879400    2.441770
  H    -12.737250   19.032530    1.947130
  H    -12.791970   18.299370   -4.239710
  H    -14.285670   22.463110   -1.938880
  H    -15.093150   23.337340   -4.044180
  H    -15.446850   23.094300   -6.469120
  H    -14.719110   21.048890   -7.632360
  H    -13.629770   19.229080   -6.379130

 Total Charge           Charge          ....    0
 Multiplicity           Mult            ....    1
 Number of Electrons    NEL             ....  574
 Basis Dimension        Dim             .... 1341

ORBITAL ENERGIES
----------------

  NO   OCC          E(Eh)            E(eV)
   0   2.0000     -88.987908     -2421.4841
   1   2.0000     -88.980995     -2421.2960
   2   2.0000     -19.258910      -524.0616
   3   2.0000     -19.257736      -524.0296
   4   2.0000     -19.256645      -524.0000
   5   2.0000     -19.256177      -523.9872
   6   2.0000     -19.225395      -523.1496
   7   2.0000     -19.219490      -522.9889
   8   2.0000     -19.200804      -522.4804
   9   2.0000     -19.196001      -522.3498
  10   2.0000     -14.656105      -398.8129
  11   2.0000     -14.654352      -398.7652
  12   2.0000     -14.460765      -393.4974
  13   2.0000     -14.458572      -393.4378
  14   2.0000     -14.420531      -392.4026
  15   2.0000     -14.420078      -392.3903
  16   2.0000     -14.418080      -392.3359
  17   2.0000     -14.413324      -392.2065
  18   2.0000     -14.411946      -392.1690
  19   2.0000     -10.382708      -282.5279
  20   2.0000     -10.379424      -282.4385
  21   2.0000     -10.376532      -282.3598
  22   2.0000     -10.371075      -282.2113
  23   2.0000     -10.353655      -281.7373
  24   2.0000     -10.352648      -281.7099
  25   2.0000     -10.348604      -281.5998
  26   2.0000     -10.346947      -281.5547
  27   2.0000     -10.346900      -281.5535
  28   2.0000     -10.345507      -281.5155
  29   2.0000     -10.345256      -281.5087
  30   2.0000     -10.340910      -281.3905
  31   2.0000     -10.338604      -281.3277
  32   2.0000     -10.332989      -281.1749
  33   2.0000     -10.331681      -281.1393
  34   2.0000     -10.330712      -281.1130
  35   2.0000     -10.328780      -281.0604
  36   2.0000     -10.327686      -281.0306
  37   2.0000     -10.322629      -280.8930
  38   2.0000     -10.321613      -280.8654
  39   2.0000     -10.320810      -280.8435
  40   2.0000     -10.318532      -280.7815
  41   2.0000     -10.316045      -280.7139
  42   2.0000     -10.315507      -280.6992
  43   2.0000     -10.314367      -280.6682
  44   2.0000     -10.312719      -280.6234
  45   2.0000     -10.312643      -280.6213
  46   2.0000     -10.311648      -280.5942
  47   2.0000     -10.311514      -280.5906
  48   2.0000     -10.311188      -280.5817
  49   2.0000     -10.310651      -280.5671
  50   2.0000     -10.309901      -280.5467
  51   2.0000     -10.309186      -280.5272
  52   2.0000     -10.308433      -280.5067
  53   2.0000     -10.308217      -280.5008
  54   2.0000     -10.306795      -280.4621
  55   2.0000     -10.306224      -280.4466
  56   2.0000     -10.304983      -280.4128
  57   2.0000     -10.302443      -280.3437
  58   2.0000     -10.301403      -280.3154
  59   2.0000     -10.301178      -280.3093
  60   2.0000     -10.300854      -280.3005
  61   2.0000     -10.300721      -280.2969
  62   2.0000     -10.300543      -280.2920
  63   2.0000     -10.298225      -280.2290
  64   2.0000     -10.297921      -280.2207
  65   2.0000     -10.297398      -280.2065
  66   2.0000     -10.296583      -280.1843
  67   2.0000     -10.296578      -280.1841
  68   2.0000     -10.292928      -280.0848
  69   2.0000     -10.289860      -280.0013
  70   2.0000     -10.289349      -279.9874
  71   2.0000     -10.289088      -279.9803
  72   2.0000     -10.289077      -279.9800
  73   2.0000     -10.288558      -279.9659
  74   2.0000     -10.287255      -279.9304
  75   2.0000     -10.286762      -279.9170
  76   2.0000     -10.286352      -279.9059
  77   2.0000     -10.285808      -279.8911
  78   2.0000     -10.270450      -279.4731
  79   2.0000     -10.268966      -279.4328
  80   2.0000     -10.261045      -279.2172
  81   2.0000     -10.260517      -279.2029
  82   2.0000      -8.083428      -219.9613
  83   2.0000      -8.076856      -219.7824
  84   2.0000      -6.052466      -164.6960
  85   2.0000      -6.048369      -164.5845
  86   2.0000      -6.045899      -164.5173
  87   2.0000      -6.045837      -164.5156
  88   2.0000      -6.041863      -164.4074
  89   2.0000      -6.039281      -164.3372
  90   2.0000      -1.339910       -36.4608
  91   2.0000      -1.338598       -36.4251
  92   2.0000      -1.160315       -31.5738
  93   2.0000      -1.160180       -31.5701
  94   2.0000      -1.140610       -31.0376
  95   2.0000      -1.140321       -31.0297
  96   2.0000      -1.134580       -30.8735
  97   2.0000      -1.132925       -30.8284
  98   2.0000      -1.070182       -29.1211
  99   2.0000      -1.061305       -28.8796
 100   2.0000      -1.026177       -27.9237
 101   2.0000      -1.025962       -27.9179
 102   2.0000      -1.022027       -27.8108
 103   2.0000      -1.016556       -27.6619
 104   2.0000      -1.003005       -27.2932
 105   2.0000      -0.999515       -27.1982
 106   2.0000      -0.997619       -27.1466
 107   2.0000      -0.997216       -27.1356
 108   2.0000      -0.991096       -26.9691
 109   2.0000      -0.975815       -26.5533
 110   2.0000      -0.974186       -26.5090
 111   2.0000      -0.971586       -26.4382
 112   2.0000      -0.951218       -25.8840
 113   2.0000      -0.937818       -25.5193
 114   2.0000      -0.933041       -25.3893
 115   2.0000      -0.930288       -25.3144
 116   2.0000      -0.925215       -25.1764
 117   2.0000      -0.920027       -25.0352
 118   2.0000      -0.913084       -24.8463
 119   2.0000      -0.907372       -24.6909
 120   2.0000      -0.891140       -24.2491
 121   2.0000      -0.888752       -24.1842
 122   2.0000      -0.884447       -24.0670
 123   2.0000      -0.881084       -23.9755
 124   2.0000      -0.878615       -23.9083
 125   2.0000      -0.872487       -23.7416
 126   2.0000      -0.866283       -23.5728
 127   2.0000      -0.863640       -23.5009
 128   2.0000      -0.848353       -23.0849
 129   2.0000      -0.840942       -22.8832
 130   2.0000      -0.832093       -22.6424
 131   2.0000      -0.831839       -22.6355
 132   2.0000      -0.828448       -22.5432
 133   2.0000      -0.822271       -22.3751
 134   2.0000      -0.810017       -22.0417
 135   2.0000      -0.801429       -21.8080
 136   2.0000      -0.782279       -21.2869
 137   2.0000      -0.773147       -21.0384
 138   2.0000      -0.766793       -20.8655
 139   2.0000      -0.762096       -20.7377
 140   2.0000      -0.761507       -20.7216
 141   2.0000      -0.747523       -20.3411
 142   2.0000      -0.740056       -20.1379
 143   2.0000      -0.737179       -20.0597
 144   2.0000      -0.728610       -19.8265
 145   2.0000      -0.720334       -19.6013
 146   2.0000      -0.710044       -19.3213
 147   2.0000      -0.707805       -19.2604
 148   2.0000      -0.706147       -19.2153
 149   2.0000      -0.704409       -19.1679
 150   2.0000      -0.703025       -19.1303
 151   2.0000      -0.699921       -19.0458
 152   2.0000      -0.697965       -18.9926
 153   2.0000      -0.691467       -18.8158
 154   2.0000      -0.683922       -18.6105
 155   2.0000      -0.680193       -18.5090
 156   2.0000      -0.676008       -18.3951
 157   2.0000      -0.669234       -18.2108
 158   2.0000      -0.666766       -18.1436
 159   2.0000      -0.664546       -18.0832
 160   2.0000      -0.654411       -17.8074
 161   2.0000      -0.650630       -17.7045
 162   2.0000      -0.644801       -17.5459
 163   2.0000      -0.640482       -17.4284
 164   2.0000      -0.640435       -17.4271
 165   2.0000      -0.633721       -17.2444
 166   2.0000      -0.630366       -17.1531
 167   2.0000      -0.626082       -17.0366
 168   2.0000      -0.621353       -16.9079
 169   2.0000      -0.615146       -16.7390
 170   2.0000      -0.611097       -16.6288
 171   2.0000      -0.609640       -16.5892
 172   2.0000      -0.608235       -16.5509
 173   2.0000      -0.607162       -16.5217
 174   2.0000      -0.605088       -16.4653
 175   2.0000      -0.600028       -16.3276
 176   2.0000      -0.593661       -16.1543
 177   2.0000      -0.590323       -16.0635
 178   2.0000      -0.589614       -16.0442
 179   2.0000      -0.584344       -15.9008
 180   2.0000      -0.580881       -15.8066
 181   2.0000      -0.575029       -15.6473
 182   2.0000      -0.570993       -15.5375
 183   2.0000      -0.564616       -15.3640
 184   2.0000      -0.562821       -15.3151
 185   2.0000      -0.559756       -15.2317
 186   2.0000      -0.555826       -15.1248
 187   2.0000      -0.550132       -14.9698
 188   2.0000      -0.547240       -14.8912
 189   2.0000      -0.546650       -14.8751
 190   2.0000      -0.543942       -14.8014
 191   2.0000      -0.542924       -14.7737
 192   2.0000      -0.540415       -14.7055
 193   2.0000      -0.538422       -14.6512
 194   2.0000      -0.537014       -14.6129
 195   2.0000      -0.535759       -14.5788
 196   2.0000      -0.535208       -14.5638
 197   2.0000      -0.532401       -14.4874
 198   2.0000      -0.527673       -14.3587
 199   2.0000      -0.526948       -14.3390
 200   2.0000      -0.524147       -14.2628
 201   2.0000      -0.522960       -14.2305
 202   2.0000      -0.521809       -14.1991
 203   2.0000      -0.520516       -14.1640
 204   2.0000      -0.519353       -14.1323
 205   2.0000      -0.517821       -14.0906
 206   2.0000      -0.516011       -14.0414
 207   2.0000      -0.514612       -14.0033
 208   2.0000      -0.512974       -13.9587
 209   2.0000      -0.508669       -13.8416
 210   2.0000      -0.507303       -13.8044
 211   2.0000      -0.504803       -13.7364
 212   2.0000      -0.502621       -13.6770
 213   2.0000      -0.499764       -13.5993
 214   2.0000      -0.495618       -13.4865
 215   2.0000      -0.491188       -13.3659
 216   2.0000      -0.490794       -13.3552
 217   2.0000      -0.488588       -13.2952
 218   2.0000      -0.487099       -13.2546
 219   2.0000      -0.485831       -13.2201
 220   2.0000      -0.483370       -13.1532
 221   2.0000      -0.479649       -13.0519
 222   2.0000      -0.477640       -12.9972
 223   2.0000      -0.472338       -12.8530
 224   2.0000      -0.469402       -12.7731
 225   2.0000      -0.469116       -12.7653
 226   2.0000      -0.468764       -12.7557
 227   2.0000      -0.465120       -12.6566
 228   2.0000      -0.462287       -12.5795
 229   2.0000      -0.456175       -12.4132
 230   2.0000      -0.454752       -12.3744
 231   2.0000      -0.452759       -12.3202
 232   2.0000      -0.452160       -12.3039
 233   2.0000      -0.450815       -12.2673
 234   2.0000      -0.449285       -12.2257
 235   2.0000      -0.447729       -12.1833
 236   2.0000      -0.446564       -12.1516
 237   2.0000      -0.445950       -12.1349
 238   2.0000      -0.445164       -12.1135
 239   2.0000      -0.443895       -12.0790
 240   2.0000      -0.443495       -12.0681
 241   2.0000      -0.442491       -12.0408
 242   2.0000      -0.440913       -11.9978
 243   2.0000      -0.439129       -11.9493
 244   2.0000      -0.437565       -11.9068
 245   2.0000      -0.437242       -11.8980
 246   2.0000      -0.437189       -11.8965
 247   2.0000      -0.432958       -11.7814
 248   2.0000      -0.431499       -11.7417
 249   2.0000      -0.430268       -11.7082
 250   2.0000      -0.427935       -11.6447
 251   2.0000      -0.426297       -11.6001
 252   2.0000      -0.423562       -11.5257
 253   2.0000      -0.423224       -11.5165
 254   2.0000      -0.421666       -11.4741
 255   2.0000      -0.416995       -11.3470
 256   2.0000      -0.416337       -11.3291
 257   2.0000      -0.414897       -11.2899
 258   2.0000      -0.409730       -11.1493
 259   2.0000      -0.405907       -11.0453
 260   2.0000      -0.401001       -10.9118
 261   2.0000      -0.396133       -10.7793
 262   2.0000      -0.393057       -10.6956
 263   2.0000      -0.392444       -10.6790
 264   2.0000      -0.391433       -10.6514
 265   2.0000      -0.386026       -10.5043
 266   2.0000      -0.383048       -10.4233
 267   2.0000      -0.382403       -10.4057
 268   2.0000      -0.379419       -10.3245
 269   2.0000      -0.377399       -10.2695
 270   2.0000      -0.368317       -10.0224
 271   2.0000      -0.355716        -9.6795
 272   2.0000      -0.352666        -9.5965
 273   2.0000      -0.347004        -9.4425
 274   2.0000      -0.345917        -9.4129
 275   2.0000      -0.343726        -9.3533
 276   2.0000      -0.342094        -9.3089
 277   2.0000      -0.338755        -9.2180
 278   2.0000      -0.329938        -8.9781
 279   2.0000      -0.322160        -8.7664
 280   2.0000      -0.321464        -8.7475
 281   2.0000      -0.316667        -8.6169
 282   2.0000      -0.303449        -8.2573
 283   2.0000      -0.296580        -8.0704
 284   2.0000      -0.292698        -7.9647
 285   2.0000      -0.281518        -7.6605
 286   2.0000      -0.242304        -6.5934
 287   0.0000      -0.117006        -3.1839
 288   0.0000      -0.099022        -2.6945
 289   0.0000      -0.081782        -2.2254
 290   0.0000      -0.062961        -1.7133
 291   0.0000      -0.059371        -1.6156

MULLIKEN ATOMIC CHARGES
-----------------------
   0 C :    0.297739
   1 C :   -0.342640
   2 C :   -0.181505
   3 N :    0.150563
   4 C :   -0.203387
   5 N :    0.161520
   6 C :    0.049347
   7 C :   -0.002281
   8 C :   -0.080247
   9 C :    0.099241
  10 C :    0.095688
  11 C :   -0.081101
  12 C :   -0.019204
  13 C :    0.036416
  14 C :    0.035950
  15 C :   -0.015976
  16 C :    0.161961
  17 O :   -0.154204
  18 C :   -0.084606
  19 C :    0.055593
  20 C :   -0.112086
  21 S :    0.201818
  22 C :   -0.053702
  23 C :   -0.091977
  24 C :    0.044268
  25 C :   -0.155634
  26 N :    0.121993
  27 C :    0.057272
  28 C :   -0.029922
  29 C :    0.142713
  30 N :   -0.262252
  31 C :    0.093914
  32 C :    0.006872
  33 C :    0.155511
  34 O :   -0.196981
  35 C :   -0.032489
  36 C :   -0.060636
  37 C :    0.165451
  38 O :   -0.205945
  39 N :   -0.260080
  40 C :    0.093710
  41 C :   -0.008340
  42 C :    0.105751
  43 C :   -0.037226
  44 C :    0.037055
  45 C :   -0.123053
  46 S :    0.189399
  47 C :   -0.151612
  48 C :   -0.007610
  49 C :    0.002903
  50 C :    0.079827
  51 N :    0.186927
  52 O :   -0.208669
  53 O :   -0.214228
  54 C :    0.076784
  55 C :    0.084031
  56 C :    0.076395
  57 N :    0.188893
  58 O :   -0.202269
  59 O :   -0.220509
  60 C :    0.126148
  61 C :   -0.021489
  62 C :   -0.012819
  63 C :   -0.086434
  64 C :    0.299197
  65 C :   -0.343545
  66 C :   -0.180244
  67 N :    0.147228
  68 C :   -0.214138
  69 N :    0.174772
  70 C :    0.049670
  71 C :   -0.001860
  72 C :    0.154187
  73 O :   -0.160833
  74 C :   -0.083110
  75 C :    0.099209
  76 C :    0.096956
  77 C :   -0.084061
  78 C :   -0.019416
  79 C :    0.037897
  80 C :    0.035184
  81 C :   -0.016650
  82 H :   -0.010915
  83 H :   -0.005809
  84 H :   -0.007724
  85 H :   -0.002953
  86 H :   -0.002801
  87 H :   -0.016059
  88 H :    0.018925
  89 H :    0.027079
  90 H :    0.009604
  91 H :   -0.009007
  92 H :    0.035169
  93 H :    0.041745
  94 H :    0.019483
  95 H :    0.030804
  96 H :    0.024855
  97 H :    0.046248
  98 H :    0.024270
  99 H :    0.026965
 100 H :    0.023308
 101 H :    0.032830
 102 H :    0.009925
 103 H :   -0.007839
 104 H :    0.067041
 105 H :    0.039048
 106 H :    0.029847
 107 H :    0.033018
 108 H :    0.038035
 109 H :    0.050767
 110 H :    0.017286
 111 H :   -0.011373
 112 H :    0.036023
 113 H :   -0.015147
 114 H :   -0.007424
 115 H :   -0.008981
 116 H :   -0.004327
 117 H :   -0.004332
 118 H :   -0.018567
Sum of atomic charges:    0.0000000

LOEWDIN ATOMIC CHARGES
----------------------
   0 C :    0.075466
   1 C :   -0.137505
   2 C :   -0.016926
   3 N :   -0.050895
   4 C :   -0.026693
   5 N :   -0.047617
   6 C :   -0.026535
   7 C :   -0.056126
   8 C :    0.033867
   9 C :   -0.007999
  10 C :   -0.005552
  11 C :    0.020383
  12 C :   -0.005057
  13 C :   -0.011962
  14 C :   -0.011245
  15 C :   -0.008880
  16 C :    0.088685
  17 O :   -0.139713
  18 C :   -0.084913
  19 C :    0.045565
  20 C :   -0.178905
  21 S :    0.503243
  22 C :   -0.126835
  23 C :   -0.108252
  24 C :    0.022014
  25 C :   -0.023089
  26 N :   -0.056054
  27 C :   -0.004514
  28 C :   -0.018793
  29 C :    0.078564
  30 N :    0.000260
  31 C :    0.036617
  32 C :   -0.059079
  33 C :    0.081241
  34 O :   -0.196671
  35 C :   -0.104216
  36 C :   -0.116623
  37 C :    0.084617
  38 O :   -0.194733
  39 N :   -0.000982
  40 C :    0.034538
  41 C :   -0.063255
  42 C :    0.071864
  43 C :   -0.029542
  44 C :   -0.029460
  45 C :   -0.154995
  46 S :    0.501191
  47 C :   -0.165018
  48 C :   -0.054070
  49 C :   -0.063901
  50 C :    0.013547
  51 N :    0.274347
  52 O :   -0.193034
  53 O :   -0.183736
  54 C :   -0.013980
  55 C :   -0.014356
  56 C :    0.013449
  57 N :    0.270613
  58 O :   -0.182971
  59 O :   -0.192313
  60 C :    0.023887
  61 C :   -0.053185
  62 C :    0.071581
  63 C :   -0.089794
  64 C :    0.073893
  65 C :   -0.136247
  66 C :   -0.016341
  67 N :   -0.053423
  68 C :   -0.029266
  69 N :   -0.042642
  70 C :   -0.025899
  71 C :   -0.055777
  72 C :    0.084792
  73 O :   -0.147023
  74 C :    0.031595
  75 C :   -0.008744
  76 C :   -0.005801
  77 C :    0.019154
  78 C :   -0.005220
  79 C :   -0.013088
  80 C :   -0.012628
  81 C :   -0.009951
  82 H :    0.039592
  83 H :    0.039434
  84 H :    0.035184
  85 H :    0.033872
  86 H :    0.033585
  87 H :    0.032440
  88 H :    0.044912
  89 H :    0.043198
  90 H :    0.038597
  91 H :    0.037577
  92 H :    0.027432
  93 H :    0.037808
  94 H :    0.023559
  95 H :    0.034782
  96 H :    0.029951
  97 H :    0.037928
  98 H :    0.019103
  99 H :    0.032510
 100 H :    0.031608
 101 H :    0.023130
 102 H :    0.043160
 103 H :    0.031993
 104 H :    0.048467
 105 H :    0.041384
 106 H :    0.033916
 107 H :    0.036520
 108 H :    0.041333
 109 H :    0.043306
 110 H :    0.035377
 111 H :    0.025288
 112 H :    0.050282
 113 H :    0.038015
 114 H :    0.039106
 115 H :    0.034923
 116 H :    0.033361
 117 H :    0.032940
 118 H :    0.031481

  Mayer bond orders larger than 0.100000
B(  0-C ,  1-C ) :   1.6362 B(  0-C ,  6-C ) :   0.9884 B(  0-C , 18-C ) :   1.0647
B(  1-C ,  2-C ) :   1.1472 B(  1-C ,  4-C ) :   1.1367 B(  2-C ,  3-N ) :   2.9682
B(  4-C ,  5-N ) :   2.9911 B(  6-C ,  7-C ) :   1.2147 B(  6-C , 11-C ) :   1.4493
B(  7-C ,  8-C ) :   1.4676 B(  7-C , 16-C ) :   0.9568 B(  8-C ,  9-C ) :   1.1802
B(  8-C , 82-H ) :   1.0169 B(  9-C , 10-C ) :   1.2557 B(  9-C , 15-C ) :   1.2428
B( 10-C , 11-C ) :   1.2061 B( 10-C , 12-C ) :   1.2399 B( 11-C , 83-H ) :   0.9905
B( 12-C , 13-C ) :   1.4890 B( 12-C , 84-H ) :   0.9978 B( 13-C , 14-C ) :   1.2599
B( 13-C , 85-H ) :   0.9889 B( 14-C , 15-C ) :   1.4894 B( 14-C , 86-H ) :   0.9883
B( 15-C , 87-H ) :   0.9981 B( 16-C , 17-O ) :   2.1728 B( 16-C , 18-C ) :   0.9328
B( 18-C , 19-C ) :   1.6251 B( 19-C , 20-C ) :   1.1812 B( 19-C , 88-H ) :   0.9189
B( 20-C , 21-S ) :   1.1083 B( 20-C , 24-C ) :   1.4294 B( 21-S , 22-C ) :   1.1855
B( 22-C , 23-C ) :   1.3800 B( 22-C , 27-C ) :   1.1607 B( 23-C , 24-C ) :   1.3190
B( 23-C , 25-C ) :   1.1209 B( 24-C , 89-H ) :   0.9816 B( 25-C , 26-N ) :   2.9662
B( 27-C , 28-C ) :   1.6009 B( 27-C , 90-H ) :   0.9239 B( 28-C , 29-C ) :   1.1728
B( 28-C , 91-H ) :   0.9485 B( 29-C , 30-N ) :   1.1673 B( 29-C , 36-C ) :   1.3250
B( 30-N , 31-C ) :   0.9370 B( 30-N , 33-C ) :   1.0457 B( 31-C , 32-C ) :   1.1224
B( 31-C , 92-H ) :   0.9487 B( 31-C , 93-H ) :   0.9274 B( 32-C , 94-H ) :   0.9673
B( 32-C , 95-H ) :   0.9675 B( 32-C , 96-H ) :   0.9630 B( 33-C , 34-O ) :   2.1184
B( 33-C , 35-C ) :   0.9724 B( 35-C , 36-C ) :   1.2516 B( 35-C , 42-C ) :   1.3533
B( 36-C , 37-C ) :   0.9855 B( 37-C , 38-O ) :   2.0228 B( 37-C , 39-N ) :   1.0624
B( 38-O , 90-H ) :   0.1135 B( 39-N , 40-C ) :   0.9392 B( 39-N , 42-C ) :   1.1690
B( 40-C , 41-C ) :   1.1149 B( 40-C , 97-H ) :   0.9243 B( 40-C , 98-H ) :   0.9504
B( 41-C , 99-H ) :   0.9617 B( 41-C ,100-H ) :   0.9661 B( 41-C ,101-H ) :   0.9631
B( 42-C , 43-C ) :   1.2011 B( 43-C , 44-C ) :   1.6057 B( 43-C ,102-H ) :   0.9365
B( 44-C , 45-C ) :   1.1026 B( 44-C ,103-H ) :   0.9554 B( 45-C , 46-S ) :   1.1606
B( 45-C , 49-C ) :   1.4880 B( 46-S , 47-C ) :   1.1496 B( 47-C , 48-C ) :   1.4625
B( 47-C , 60-C ) :   1.1671 B( 48-C , 49-C ) :   1.3703 B( 48-C , 56-C ) :   0.9640
B( 49-C , 50-C ) :   0.9523 B( 50-C , 51-N ) :   0.8321 B( 50-C , 54-C ) :   1.0714
B( 50-C ,104-H ) :   0.8955 B( 51-N , 52-O ) :   1.5733 B( 51-N , 53-O ) :   1.5525
B( 52-O , 53-O ) :   0.2695 B( 54-C , 55-C ) :   1.0978 B( 54-C ,105-H ) :   0.9253
B( 54-C ,106-H ) :   0.9266 B( 55-C , 56-C ) :   1.0732 B( 55-C ,107-H ) :   0.9209
B( 55-C ,108-H ) :   0.9247 B( 56-C , 57-N ) :   0.8398 B( 56-C ,109-H ) :   0.8971
B( 57-N , 58-O ) :   1.6009 B( 57-N , 59-O ) :   1.5357 B( 58-O , 59-O ) :   0.2735
B( 60-C , 61-C ) :   1.6500 B( 60-C ,110-H ) :   0.9159 B( 61-C , 62-C ) :   1.2053
B( 61-C ,111-H ) :   0.9471 B( 62-C , 63-C ) :   1.6056 B( 62-C ,112-H ) :   0.9428
B( 63-C , 64-C ) :   1.0574 B( 63-C , 72-C ) :   0.9400 B( 64-C , 65-C ) :   1.6441
B( 64-C , 70-C ) :   0.9888 B( 65-C , 66-C ) :   1.1455 B( 65-C , 68-C ) :   1.1355
B( 66-C , 67-N ) :   2.9667 B( 68-C , 69-N ) :   3.0054 B( 70-C , 71-C ) :   1.2122
B( 70-C , 77-C ) :   1.4510 B( 71-C , 72-C ) :   0.9534 B( 71-C , 74-C ) :   1.4685
B( 72-C , 73-O ) :   2.1875 B( 74-C , 75-C ) :   1.1816 B( 74-C ,113-H ) :   1.0159
B( 75-C , 76-C ) :   1.2543 B( 75-C , 81-C ) :   1.2435 B( 76-C , 77-C ) :   1.2058
B( 76-C , 78-C ) :   1.2412 B( 77-C ,114-H ) :   0.9899 B( 78-C , 79-C ) :   1.4902
B( 78-C ,115-H ) :   0.9969 B( 79-C , 80-C ) :   1.2588 B( 79-C ,116-H ) :   0.9881
B( 80-C , 81-C ) :   1.4903 B( 80-C ,117-H ) :   0.9890 B( 81-C ,118-H ) :   0.9972

-----------------------------------------------------------------------------
         ABSORPTION SPECTRUM VIA TRANSITION ELECTRIC DIPOLE MOMENTS
-----------------------------------------------------------------------------
State   Energy  Wavelength   fosc         T2         TX        TY        TZ
        (cm-1)    (nm)                  (au**2)     (au)      (au)      (au)
-----------------------------------------------------------------------------
   0   12981.2    770.3   1.464647618  37.14447  -3.92403   4.65884   0.20417
   1   19026.9    525.6   0.298808304   5.17010   1.12125  -1.52367   1.26148
   2   22254.4    449.3   0.427150112   6.31887  -0.65297   2.28431   0.82122
   3   23097.1    433.0   0.128535820   1.83207   0.57950  -0.32281   1.17985
   4   23929.8    417.9   0.544313674   7.48834   1.14181  -2.21030  -1.13983
   5   25322.9    394.9   0.017084997   0.22211   0.36180  -0.24372  -0.17836
   6   25806.8    387.5   0.321701072   4.10387  -1.30335   1.34162   0.77795
   7   26031.3    384.2   0.097502063   1.23308  -0.71136   0.76163  -0.38336
   8   26447.0    378.1   0.014002868   0.17431   0.27360  -0.28563   0.13368
   9   26658.2    375.1   0.028950102   0.35752  -0.20640   0.18380   0.53022
  10   27560.8    362.8   0.018516342   0.22118   0.29080  -0.35602  -0.09929
  11   27676.7    361.3   0.003276908   0.03898   0.04026  -0.17164  -0.08887
  12   27850.1    359.1   0.048208433   0.56986   0.14505  -0.73722   0.07298
  13   28305.7    353.3   0.086749851   1.00895   0.74580  -0.49549  -0.45522
  14   28809.3    347.1   0.121627735   1.38987  -0.61785   0.79590  -0.61210
  15   28961.8    345.3   0.049837149   0.56650  -0.60006   0.15701   0.42635
  16   29236.8    342.0   0.119625273   1.34700  -0.76989   0.30771  -0.81215
  17   29402.3    340.1   0.018270912   0.20458  -0.11028   0.01559   0.43837
  18   30765.8    325.0   0.050376104   0.53905  -0.63787  -0.09344  -0.35135
  19   31315.8    319.3   0.008691186   0.09137  -0.07757   0.06005   0.28591
  20   31353.8    318.9   0.001907926   0.02003   0.05443  -0.04743  -0.12174
  21   32555.6    307.2   0.244112179   2.46853  -0.54018  -0.13243  -1.46942
  22   32708.5    305.7   0.279571821   2.81390  -0.40842   0.13191   1.62163
  23   32811.5    304.8   0.682196661   6.84478   2.49467  -0.76519   0.18947
  24   33541.5    298.1   0.055035757   0.54018   0.17624   0.29472   0.64982
  25   33636.5    297.3   0.056548676   0.55346   0.35903  -0.36741   0.53812
  26   33820.8    295.7   0.044310103   0.43132  -0.14342  -0.14113  -0.62516
  27   34150.8    292.8   0.004971639   0.04793  -0.06921   0.18153   0.10092
  28   34608.1    288.9   0.069301252   0.65923   0.52332  -0.57800  -0.22647
  29   34912.9    286.4   0.150091079   1.41529   0.04935   0.46538   1.09374
  30   35034.6    285.4   0.099002338   0.93030   0.05078   0.13101   0.95423
  31   35539.5    281.4   0.086882485   0.80481   0.23126  -0.27535  -0.82190
  32   35614.2    280.8   0.055577076   0.51375  -0.61773   0.07816  -0.35503
  33   35841.7    279.0   0.061131155   0.56150   0.08537   0.35612  -0.65375
  34   35979.2    277.9   0.010875147   0.09951  -0.15504  -0.27064  -0.04719
  35   36256.4    275.8   0.026118147   0.23716   0.11312  -0.47144  -0.04591
  36   36371.2    274.9   0.002192415   0.01984  -0.13276   0.04420  -0.01632
  37   36818.4    271.6   0.079596529   0.71171  -0.81777  -0.18518   0.09314
  38   37209.0    268.8   0.114792511   1.01564   0.26122  -0.64103  -0.73245
  39   37374.0    267.6   0.144452921   1.27243   0.36622  -0.00904   1.06688
  40   37765.7    264.8   0.214461297   1.86951   0.86399   0.29475   1.01791
  41   38166.7    262.0   0.078563342   0.67766  -0.02002   0.38831   0.72559
  42   38490.7    259.8   0.168087652   1.43766  -0.94025  -0.33152  -0.66609
  43   38842.8    257.4   0.058343986   0.49449   0.60499  -0.35189  -0.06825
  44   39103.8    255.7   0.002131115   0.01794   0.07714   0.10929   0.00681
  45   39131.7    255.5   0.020279193   0.17061  -0.29057  -0.29352   0.00462
  46   39296.0    254.5   0.016377763   0.13721   0.07532  -0.36010  -0.04320
  47   39345.2    254.2   0.212643642   1.77925   0.57073  -0.95151  -0.74037
  48   39502.5    253.1   0.035951013   0.29961   0.33429  -0.28817  -0.32376
  49   39669.3    252.1   0.026073746   0.21638   0.43856   0.06548   0.14058
  50   39922.8    250.5   0.144546394   1.19196   0.33886  -1.02098  -0.18638
  51   40120.0    249.3   0.063703434   0.52273  -0.19945   0.44352   0.53502

FINAL SINGLE POINT ENERGY     -4309.036326904427

DIPOLE MOMENT
-------------
                                X             Y             Z
Electronic contribution:      1.01346      -4.60469      -6.81351
Nuclear contribution   :      0.12130       3.33624       4.87878
                        -----------------------------------------
Total Dipole Moment    :      1.13476      -1.26846      -1.93472
                        -----------------------------------------
Magnitude (a.u.)       :      2.57678
Magnitude (Debye)      :      6.54967

Rotational constants in cm-1:     0.001554     0.000159     0.000150
Rotational constants in MHz :    46.582441     4.773900     4.490400

                             ****ORCA TERMINATED NORMALLY****
TOTAL RUN TIME: 0 days 0 hours 13 minutes 25 seconds 293 msec
