                         Program Version 4.2.0 -  RELEASE  -
|  1> # ORCA input file
|  2> # SCF done       -227.671920885078          0.000863120716
|  3> ! CAM-B3LYP def2-SVP def2/J RIJCOSX Grid4 TightSCF
|  4> %maxcore 5000
|  5> %tddft
|  6>     Mode sTDDFT
|  7>     Ethresh 5.0
|  8>     maxcore 5000
|  9> end
| 10>
| 11> %pal
| 12>   nprocs 6
| 13>   end
| 14> * xyz 0 1
| 15>    C       -7.65020         2.29092        -3.03738
| 16>    C       -7.17249         2.71700        -4.24433
| 17>    F       -7.59883         3.87426        -4.76814
| 18>    C       -6.22778         1.94778        -4.95362
| 19>    F       -5.77628         2.39019        -6.13572
| 20>    C       -5.77501         0.76263        -4.44597
| 21>    C       -6.24850         0.29507        -3.20423
| 22>    C       -7.20221         1.07295        -2.48523
| 23>    C       -7.68827         0.62670        -1.23663
| 24>    C       -7.23270        -0.55953        -0.71979
| 25>    C       -6.28170        -1.32949        -1.44554
| 26>    C       -5.79908        -0.92649        -2.65657
| 27>    C       -5.94858        -2.54723        -0.68606
| 28>    O       -5.34082        -3.51648        -1.07967
| 29>    C       -6.71247        -2.42967         0.60137
| 30>    C       -7.54631        -1.24154         0.53068
| 31>    C       -8.42465        -0.80762         1.48471
| 32>    C       -9.18078         0.38055         1.38577
| 33>    N       -9.82768         1.32792         1.36050
| 34>    C       -8.71726        -1.49189         2.68479
| 35>    N       -9.01830        -1.99922         3.66888
| 36>    C       -6.61042        -3.33453         1.59919
| 37>    C       -5.53311        -4.28194         1.63287
| 38>    S       -5.74421        -5.96155         1.95731
| 39>    C       -4.03443        -6.24397         1.81257
| 40>    C       -3.33685        -5.06742         1.58983
| 41>    C       -4.20262        -3.97105         1.46774
| 42>    S       -3.63734        -2.27095         1.51125
| 43>    O       -3.97339        -1.78389         2.81948
| 44>    O       -4.11864        -1.48995         0.39737
| 45>    C       -1.83483        -2.43166         1.36658
| 46>    C       -1.40382        -3.60598         2.21945
| 47>    C       -1.84681        -4.93200         1.59847
| 48>    C       -3.58447        -7.58844         2.03805
| 49>    N       -2.63027        -8.27733         1.33011
| 50>    C       -2.04358        -7.89785         0.06270
| 51>    C       -0.51926        -7.85685         0.12111
| 52>    C       -2.48228        -9.60239         1.82054
| 53>    O       -1.73789       -10.41959         1.32264
| 54>    C       -3.39609        -9.67197         2.93415
| 55>    C       -4.07668        -8.43292         3.01902
| 56>    C       -5.00241        -8.51205         4.12826
| 57>    O       -5.79258        -7.71296         4.57890
| 58>    N       -4.82709        -9.81742         4.63876
| 59>    C       -5.57713       -10.22267         5.80640
| 60>    C       -4.71785       -10.22803         7.06728
| 61>    C       -3.87158       -10.51536         3.93724
| 62>    C       -3.40225       -11.84375         4.10578
| 63>    C       -3.83768       -12.79836         4.96496
| 64>    C       -3.30153       -14.10517         5.03780
| 65>    S       -1.95206       -14.66722         4.09914
| 66>    C       -2.05829       -16.25814         4.81272
| 67>    C       -3.10695       -16.33332         5.72599
| 68>    C       -3.76949       -15.11359         5.86061
| 69>    S       -5.16014       -14.88412         6.96326
| 70>    O       -6.35796       -15.00928         6.17722
| 71>    O       -4.99178       -13.66285         7.70286
| 72>    C       -4.99721       -16.32030         8.05532
| 73>    C       -4.80830       -17.52209         7.15295
| 74>    C       -3.41074       -17.55055         6.53595
| 75>    C       -1.19988       -17.31452         4.41626
| 76>    C        0.07343       -17.22863         3.94884
| 77>    C        0.66560       -18.34490         3.16123
| 78>    O        0.22593       -19.46529         3.05123
| 79>    C        1.85937       -17.76324         2.51352
| 80>    C        2.69647       -18.32612         1.59371
| 81>    C        3.77517       -17.56485         1.08983
| 82>    C        3.96322       -16.22761         1.54681
| 83>    C        5.03713       -15.47287         1.03366
| 84>    C        5.88645       -16.02039         0.11352
| 85>    C        5.70116       -17.34352        -0.33585
| 86>    C        4.66808       -18.10063         0.14137
| 87>    F        6.54878       -17.85403        -1.23844
| 88>    F        6.90693       -15.30200        -0.37179
| 89>    C        3.08575       -15.67327         2.50654
| 90>    C        2.05317       -16.43285         2.98679
| 91>    C        1.03796       -16.15019         3.99528
| 92>    C        1.13514       -15.21078         4.98843
| 93>    C        0.28360       -15.20938         6.11178
| 94>    N       -0.36171       -15.24192         7.06102
| 95>    C        2.14987       -14.23489         5.04825
| 96>    N        2.95262       -13.41867         5.12877
| 97>    H       -8.37221         2.89198        -2.50696
| 98>    H       -5.05239         0.18589        -5.00171
| 99>    H       -8.40919         1.23742        -0.71744
|100>    H       -5.07645        -1.52896        -3.18479
|101>    H       -7.31361        -3.36318         2.42077
|102>    H       -1.42021        -1.48887         1.71417
|103>    H       -1.61986        -2.56905         0.31026
|104>    H       -1.84607        -3.49185         3.21178
|105>    H       -0.31698        -3.60842         2.32879
|106>    H       -1.42260        -5.76174         2.16655
|107>    H       -1.45866        -4.98548         0.57673
|108>    H       -2.46487        -6.93673        -0.23481
|109>    H       -2.33920        -8.65148        -0.67622
|110>    H       -0.16687        -7.16754         0.88319
|111>    H       -0.12723        -7.54649        -0.84346
|112>    H       -0.14014        -8.84882         0.34935
|113>    H       -6.03855       -11.19769         5.63564
|114>    H       -6.37319        -9.47912         5.91206
|115>    H       -3.83975       -10.85693         6.94532
|116>    H       -5.29697       -10.61881         7.89826
|117>    H       -4.39459        -9.21677         7.30296
|118>    H       -2.60195       -12.09495         3.41749
|119>    H       -4.63804       -12.62489         5.66532
|120>    H       -5.91176       -16.37613         8.63952
|121>    H       -4.14607       -16.12874         8.70266
|122>    H       -5.56223       -17.47025         6.36348
|123>    H       -4.96638       -18.44533         7.71427
|124>    H       -3.30631       -18.43948         5.90893
|125>    H       -2.66043       -17.62827         7.33027
|126>    H       -1.63055       -18.31171         4.41367
|127>    H        2.53920       -19.33874         1.25481
|128>    H        5.19510       -14.45999         1.36958
|129>    H        4.53991       -19.11145        -0.21293
|130>    H        3.24356       -14.65749         2.83271
|131> *
|132>
|133>                          ****END OF INPUT****

CARTESIAN COORDINATES (ANGSTROEM)
---------------------------------
  C     -7.650200    2.290920   -3.037380
  C     -7.172490    2.717000   -4.244330
  F     -7.598830    3.874260   -4.768140
  C     -6.227780    1.947780   -4.953620
  F     -5.776280    2.390190   -6.135720
  C     -5.775010    0.762630   -4.445970
  C     -6.248500    0.295070   -3.204230
  C     -7.202210    1.072950   -2.485230
  C     -7.688270    0.626700   -1.236630
  C     -7.232700   -0.559530   -0.719790
  C     -6.281700   -1.329490   -1.445540
  C     -5.799080   -0.926490   -2.656570
  C     -5.948580   -2.547230   -0.686060
  O     -5.340820   -3.516480   -1.079670
  C     -6.712470   -2.429670    0.601370
  C     -7.546310   -1.241540    0.530680
  C     -8.424650   -0.807620    1.484710
  C     -9.180780    0.380550    1.385770
  N     -9.827680    1.327920    1.360500
  C     -8.717260   -1.491890    2.684790
  N     -9.018300   -1.999220    3.668880
  C     -6.610420   -3.334530    1.599190
  C     -5.533110   -4.281940    1.632870
  S     -5.744210   -5.961550    1.957310
  C     -4.034430   -6.243970    1.812570
  C     -3.336850   -5.067420    1.589830
  C     -4.202620   -3.971050    1.467740
  S     -3.637340   -2.270950    1.511250
  O     -3.973390   -1.783890    2.819480
  O     -4.118640   -1.489950    0.397370
  C     -1.834830   -2.431660    1.366580
  C     -1.403820   -3.605980    2.219450
  C     -1.846810   -4.932000    1.598470
  C     -3.584470   -7.588440    2.038050
  N     -2.630270   -8.277330    1.330110
  C     -2.043580   -7.897850    0.062700
  C     -0.519260   -7.856850    0.121110
  C     -2.482280   -9.602390    1.820540
  O     -1.737890  -10.419590    1.322640
  C     -3.396090   -9.671970    2.934150
  C     -4.076680   -8.432920    3.019020
  C     -5.002410   -8.512050    4.128260
  O     -5.792580   -7.712960    4.578900
  N     -4.827090   -9.817420    4.638760
  C     -5.577130  -10.222670    5.806400
  C     -4.717850  -10.228030    7.067280
  C     -3.871580  -10.515360    3.937240
  C     -3.402250  -11.843750    4.105780
  C     -3.837680  -12.798360    4.964960
  C     -3.301530  -14.105170    5.037800
  S     -1.952060  -14.667220    4.099140
  C     -2.058290  -16.258140    4.812720
  C     -3.106950  -16.333320    5.725990
  C     -3.769490  -15.113590    5.860610
  S     -5.160140  -14.884120    6.963260
  O     -6.357960  -15.009280    6.177220
  O     -4.991780  -13.662850    7.702860
  C     -4.997210  -16.320300    8.055320
  C     -4.808300  -17.522090    7.152950
  C     -3.410740  -17.550550    6.535950
  C     -1.199880  -17.314520    4.416260
  C      0.073430  -17.228630    3.948840
  C      0.665600  -18.344900    3.161230
  O      0.225930  -19.465290    3.051230
  C      1.859370  -17.763240    2.513520
  C      2.696470  -18.326120    1.593710
  C      3.775170  -17.564850    1.089830
  C      3.963220  -16.227610    1.546810
  C      5.037130  -15.472870    1.033660
  C      5.886450  -16.020390    0.113520
  C      5.701160  -17.343520   -0.335850
  C      4.668080  -18.100630    0.141370
  F      6.548780  -17.854030   -1.238440
  F      6.906930  -15.302000   -0.371790
  C      3.085750  -15.673270    2.506540
  C      2.053170  -16.432850    2.986790
  C      1.037960  -16.150190    3.995280
  C      1.135140  -15.210780    4.988430
  C      0.283600  -15.209380    6.111780
  N     -0.361710  -15.241920    7.061020
  C      2.149870  -14.234890    5.048250
  N      2.952620  -13.418670    5.128770
  H     -8.372210    2.891980   -2.506960
  H     -5.052390    0.185890   -5.001710
  H     -8.409190    1.237420   -0.717440
  H     -5.076450   -1.528960   -3.184790
  H     -7.313610   -3.363180    2.420770
  H     -1.420210   -1.488870    1.714170
  H     -1.619860   -2.569050    0.310260
  H     -1.846070   -3.491850    3.211780
  H     -0.316980   -3.608420    2.328790
  H     -1.422600   -5.761740    2.166550
  H     -1.458660   -4.985480    0.576730
  H     -2.464870   -6.936730   -0.234810
  H     -2.339200   -8.651480   -0.676220
  H     -0.166870   -7.167540    0.883190
  H     -0.127230   -7.546490   -0.843460
  H     -0.140140   -8.848820    0.349350
  H     -6.038550  -11.197690    5.635640
  H     -6.373190   -9.479120    5.912060
  H     -3.839750  -10.856930    6.945320
  H     -5.296970  -10.618810    7.898260
  H     -4.394590   -9.216770    7.302960
  H     -2.601950  -12.094950    3.417490
  H     -4.638040  -12.624890    5.665320
  H     -5.911760  -16.376130    8.639520
  H     -4.146070  -16.128740    8.702660
  H     -5.562230  -17.470250    6.363480
  H     -4.966380  -18.445330    7.714270
  H     -3.306310  -18.439480    5.908930
  H     -2.660430  -17.628270    7.330270
  H     -1.630550  -18.311710    4.413670
  H      2.539200  -19.338740    1.254810
  H      5.195100  -14.459990    1.369580
  H      4.539910  -19.111450   -0.212930
  H      3.243560  -14.657490    2.832710

 Total Charge           Charge          ....    0
 Multiplicity           Mult            ....    1
 Number of Electrons    NEL             ....  600
 Basis Dimension        Dim             .... 1334

ORBITAL ENERGIES
----------------

  NO   OCC          E(Eh)            E(eV)
   0   2.0000     -89.153703     -2425.9956
   1   2.0000     -89.153067     -2425.9783
   2   2.0000     -88.987772     -2421.4804
   3   2.0000     -88.983298     -2421.3586
   4   2.0000     -24.803753      -674.9444
   5   2.0000     -24.803094      -674.9265
   6   2.0000     -24.795779      -674.7274
   7   2.0000     -24.794230      -674.6853
   8   2.0000     -19.225800      -523.1606
   9   2.0000     -19.209282      -522.7111
  10   2.0000     -19.207122      -522.6524
  11   2.0000     -19.205359      -522.6044
  12   2.0000     -19.201807      -522.5077
  13   2.0000     -19.201091      -522.4883
  14   2.0000     -19.198804      -522.4260
  15   2.0000     -19.192492      -522.2542
  16   2.0000     -14.465890      -393.6369
  17   2.0000     -14.457022      -393.3956
  18   2.0000     -14.425544      -392.5390
  19   2.0000     -14.425037      -392.5252
  20   2.0000     -14.416503      -392.2930
  21   2.0000     -14.416118      -392.2825
  22   2.0000     -10.387342      -282.6539
  23   2.0000     -10.386871      -282.6411
  24   2.0000     -10.383952      -282.5617
  25   2.0000     -10.378493      -282.4131
  26   2.0000     -10.378283      -282.4074
  27   2.0000     -10.377297      -282.3806
  28   2.0000     -10.377202      -282.3780
  29   2.0000     -10.368577      -282.1433
  30   2.0000     -10.357050      -281.8297
  31   2.0000     -10.353920      -281.7445
  32   2.0000     -10.351570      -281.6806
  33   2.0000     -10.348430      -281.5951
  34   2.0000     -10.345499      -281.5153
  35   2.0000     -10.343754      -281.4678
  36   2.0000     -10.341356      -281.4026
  37   2.0000     -10.334058      -281.2040
  38   2.0000     -10.332945      -281.1737
  39   2.0000     -10.331847      -281.1439
  40   2.0000     -10.329348      -281.0758
  41   2.0000     -10.327716      -281.0314
  42   2.0000     -10.327057      -281.0135
  43   2.0000     -10.323931      -280.9285
  44   2.0000     -10.320313      -280.8300
  45   2.0000     -10.318640      -280.7845
  46   2.0000     -10.318635      -280.7843
  47   2.0000     -10.318480      -280.7801
  48   2.0000     -10.318343      -280.7764
  49   2.0000     -10.317657      -280.7577
  50   2.0000     -10.317438      -280.7518
  51   2.0000     -10.317045      -280.7411
  52   2.0000     -10.316184      -280.7176
  53   2.0000     -10.316082      -280.7149
  54   2.0000     -10.315829      -280.7080
  55   2.0000     -10.311846      -280.5996
  56   2.0000     -10.310333      -280.5584
  57   2.0000     -10.310286      -280.5572
  58   2.0000     -10.309739      -280.5423
  59   2.0000     -10.308752      -280.5154
  60   2.0000     -10.308113      -280.4980
  61   2.0000     -10.307119      -280.4710
  62   2.0000     -10.306799      -280.4623
  63   2.0000     -10.306383      -280.4509
  64   2.0000     -10.306339      -280.4497
  65   2.0000     -10.306292      -280.4485
  66   2.0000     -10.305292      -280.4213
  67   2.0000     -10.303807      -280.3808
  68   2.0000     -10.303027      -280.3596
  69   2.0000     -10.302919      -280.3567
  70   2.0000     -10.302324      -280.3405
  71   2.0000     -10.301943      -280.3301
  72   2.0000     -10.301488      -280.3177
  73   2.0000     -10.298632      -280.2400
  74   2.0000     -10.297718      -280.2151
  75   2.0000     -10.297067      -280.1974
  76   2.0000     -10.296331      -280.1774
  77   2.0000     -10.288253      -279.9576
  78   2.0000     -10.270964      -279.4871
  79   2.0000     -10.269710      -279.4530
  80   2.0000     -10.265229      -279.3311
  81   2.0000     -10.252199      -278.9765
  82   2.0000      -8.218798      -223.6449
  83   2.0000      -8.218279      -223.6307
  84   2.0000      -8.082440      -219.9344
  85   2.0000      -8.078289      -219.8214
  86   2.0000      -6.187882      -168.3808
  87   2.0000      -6.187630      -168.3740
  88   2.0000      -6.187305      -168.3651
  89   2.0000      -6.187091      -168.3593
  90   2.0000      -6.186731      -168.3495
  91   2.0000      -6.186243      -168.3362
  92   2.0000      -6.051686      -164.6747
  93   2.0000      -6.047717      -164.5667
  94   2.0000      -6.047503      -164.5609
  95   2.0000      -6.044480      -164.4787
  96   2.0000      -6.043213      -164.4442
  97   2.0000      -6.040587      -164.3727
  98   2.0000      -1.326505       -36.0960
  99   2.0000      -1.317742       -35.8576
 100   2.0000      -1.311619       -35.6910
 101   2.0000      -1.302881       -35.4532
 102   2.0000      -1.211721       -32.9726
 103   2.0000      -1.211384       -32.9634
 104   2.0000      -1.141326       -31.0570
 105   2.0000      -1.141147       -31.0522
 106   2.0000      -1.131987       -30.8029
 107   2.0000      -1.128406       -30.7055
 108   2.0000      -1.088506       -29.6198
 109   2.0000      -1.087678       -29.5972
 110   2.0000      -1.072622       -29.1875
 111   2.0000      -1.060333       -28.8531
 112   2.0000      -1.032688       -28.1009
 113   2.0000      -1.021840       -27.8057
 114   2.0000      -1.019857       -27.7517
 115   2.0000      -1.016147       -27.6508
 116   2.0000      -1.011795       -27.5323
 117   2.0000      -1.003144       -27.2969
 118   2.0000      -1.001589       -27.2546
 119   2.0000      -0.994612       -27.0648
 120   2.0000      -0.989549       -26.9270
 121   2.0000      -0.979099       -26.6426
 122   2.0000      -0.950037       -25.8518
 123   2.0000      -0.946450       -25.7542
 124   2.0000      -0.943589       -25.6764
 125   2.0000      -0.935656       -25.4605
 126   2.0000      -0.930422       -25.3181
 127   2.0000      -0.928509       -25.2660
 128   2.0000      -0.914314       -24.8797
 129   2.0000      -0.910099       -24.7651
 130   2.0000      -0.899974       -24.4895
 131   2.0000      -0.893980       -24.3264
 132   2.0000      -0.891632       -24.2625
 133   2.0000      -0.887273       -24.1439
 134   2.0000      -0.878789       -23.9131
 135   2.0000      -0.871366       -23.7111
 136   2.0000      -0.868251       -23.6263
 137   2.0000      -0.860358       -23.4115
 138   2.0000      -0.859697       -23.3935
 139   2.0000      -0.847642       -23.0655
 140   2.0000      -0.837593       -22.7921
 141   2.0000      -0.836771       -22.7697
 142   2.0000      -0.831087       -22.6150
 143   2.0000      -0.822212       -22.3735
 144   2.0000      -0.816995       -22.2316
 145   2.0000      -0.808219       -21.9927
 146   2.0000      -0.783837       -21.3293
 147   2.0000      -0.774351       -21.0712
 148   2.0000      -0.769491       -20.9389
 149   2.0000      -0.765393       -20.8274
 150   2.0000      -0.760988       -20.7075
 151   2.0000      -0.748549       -20.3691
 152   2.0000      -0.743234       -20.2244
 153   2.0000      -0.740766       -20.1573
 154   2.0000      -0.738659       -20.0999
 155   2.0000      -0.726700       -19.7745
 156   2.0000      -0.724377       -19.7113
 157   2.0000      -0.721331       -19.6284
 158   2.0000      -0.719863       -19.5885
 159   2.0000      -0.714798       -19.4506
 160   2.0000      -0.711067       -19.3491
 161   2.0000      -0.697390       -18.9769
 162   2.0000      -0.693952       -18.8834
 163   2.0000      -0.691326       -18.8119
 164   2.0000      -0.688781       -18.7427
 165   2.0000      -0.682364       -18.5681
 166   2.0000      -0.670667       -18.2498
 167   2.0000      -0.667174       -18.1547
 168   2.0000      -0.661471       -17.9995
 169   2.0000      -0.658049       -17.9064
 170   2.0000      -0.654032       -17.7971
 171   2.0000      -0.649424       -17.6717
 172   2.0000      -0.648974       -17.6595
 173   2.0000      -0.644233       -17.5305
 174   2.0000      -0.639786       -17.4095
 175   2.0000      -0.632961       -17.2237
 176   2.0000      -0.629635       -17.1332
 177   2.0000      -0.623339       -16.9619
 178   2.0000      -0.617773       -16.8104
 179   2.0000      -0.611937       -16.6516
 180   2.0000      -0.604998       -16.4628
 181   2.0000      -0.602173       -16.3859
 182   2.0000      -0.598834       -16.2951
 183   2.0000      -0.594992       -16.1906
 184   2.0000      -0.592050       -16.1105
 185   2.0000      -0.590999       -16.0819
 186   2.0000      -0.589691       -16.0463
 187   2.0000      -0.588155       -16.0045
 188   2.0000      -0.583122       -15.8676
 189   2.0000      -0.582335       -15.8461
 190   2.0000      -0.579376       -15.7656
 191   2.0000      -0.576664       -15.6918
 192   2.0000      -0.575217       -15.6525
 193   2.0000      -0.572917       -15.5899
 194   2.0000      -0.565124       -15.3778
 195   2.0000      -0.564519       -15.3614
 196   2.0000      -0.560451       -15.2506
 197   2.0000      -0.559526       -15.2255
 198   2.0000      -0.556192       -15.1348
 199   2.0000      -0.555614       -15.1190
 200   2.0000      -0.552532       -15.0352
 201   2.0000      -0.550652       -14.9840
 202   2.0000      -0.550007       -14.9664
 203   2.0000      -0.548582       -14.9277
 204   2.0000      -0.546433       -14.8692
 205   2.0000      -0.544105       -14.8058
 206   2.0000      -0.543969       -14.8022
 207   2.0000      -0.540235       -14.7005
 208   2.0000      -0.540073       -14.6961
 209   2.0000      -0.539023       -14.6676
 210   2.0000      -0.536185       -14.5903
 211   2.0000      -0.535651       -14.5758
 212   2.0000      -0.531313       -14.4578
 213   2.0000      -0.530316       -14.4306
 214   2.0000      -0.528172       -14.3723
 215   2.0000      -0.527691       -14.3592
 216   2.0000      -0.525807       -14.3079
 217   2.0000      -0.522126       -14.2078
 218   2.0000      -0.521019       -14.1777
 219   2.0000      -0.518447       -14.1077
 220   2.0000      -0.517691       -14.0871
 221   2.0000      -0.514278       -13.9942
 222   2.0000      -0.513496       -13.9729
 223   2.0000      -0.512577       -13.9479
 224   2.0000      -0.510638       -13.8952
 225   2.0000      -0.509518       -13.8647
 226   2.0000      -0.507275       -13.8037
 227   2.0000      -0.503445       -13.6994
 228   2.0000      -0.501963       -13.6591
 229   2.0000      -0.497872       -13.5478
 230   2.0000      -0.494804       -13.4643
 231   2.0000      -0.493715       -13.4347
 232   2.0000      -0.489271       -13.3137
 233   2.0000      -0.487397       -13.2627
 234   2.0000      -0.482073       -13.1179
 235   2.0000      -0.480760       -13.0822
 236   2.0000      -0.477517       -12.9939
 237   2.0000      -0.476346       -12.9620
 238   2.0000      -0.475304       -12.9337
 239   2.0000      -0.471167       -12.8211
 240   2.0000      -0.468425       -12.7465
 241   2.0000      -0.466457       -12.6929
 242   2.0000      -0.465112       -12.6563
 243   2.0000      -0.463138       -12.6026
 244   2.0000      -0.462136       -12.5754
 245   2.0000      -0.461038       -12.5455
 246   2.0000      -0.460023       -12.5179
 247   2.0000      -0.459752       -12.5105
 248   2.0000      -0.458880       -12.4868
 249   2.0000      -0.456095       -12.4110
 250   2.0000      -0.452559       -12.3148
 251   2.0000      -0.451864       -12.2958
 252   2.0000      -0.450067       -12.2469
 253   2.0000      -0.448609       -12.2073
 254   2.0000      -0.447194       -12.1688
 255   2.0000      -0.444624       -12.0988
 256   2.0000      -0.443939       -12.0802
 257   2.0000      -0.443555       -12.0697
 258   2.0000      -0.440387       -11.9835
 259   2.0000      -0.439419       -11.9572
 260   2.0000      -0.436887       -11.8883
 261   2.0000      -0.436461       -11.8767
 262   2.0000      -0.434779       -11.8309
 263   2.0000      -0.430926       -11.7261
 264   2.0000      -0.430150       -11.7050
 265   2.0000      -0.427451       -11.6315
 266   2.0000      -0.425279       -11.5724
 267   2.0000      -0.422855       -11.5065
 268   2.0000      -0.418469       -11.3871
 269   2.0000      -0.417372       -11.3573
 270   2.0000      -0.413835       -11.2610
 271   2.0000      -0.410650       -11.1744
 272   2.0000      -0.410461       -11.1692
 273   2.0000      -0.409106       -11.1323
 274   2.0000      -0.402340       -10.9482
 275   2.0000      -0.400098       -10.8872
 276   2.0000      -0.396223       -10.7818
 277   2.0000      -0.393460       -10.7066
 278   2.0000      -0.383441       -10.4340
 279   2.0000      -0.382591       -10.4108
 280   2.0000      -0.380493       -10.3537
 281   2.0000      -0.378691       -10.3047
 282   2.0000      -0.367209        -9.9923
 283   2.0000      -0.365701        -9.9512
 284   2.0000      -0.356186        -9.6923
 285   2.0000      -0.354647        -9.6504
 286   2.0000      -0.349552        -9.5118
 287   2.0000      -0.344951        -9.3866
 288   2.0000      -0.342179        -9.3112
 289   2.0000      -0.341884        -9.3031
 290   2.0000      -0.336587        -9.1590
 291   2.0000      -0.328413        -8.9366
 292   2.0000      -0.323851        -8.8124
 293   2.0000      -0.322860        -8.7855
 294   2.0000      -0.314433        -8.5562
 295   2.0000      -0.309012        -8.4086
 296   2.0000      -0.304507        -8.2861
 297   2.0000      -0.297452        -8.0941
 298   2.0000      -0.294668        -8.0183
 299   2.0000      -0.247369        -6.7313
 300   0.0000      -0.116173        -3.1612
 301   0.0000      -0.096949        -2.6381
 302   0.0000      -0.078997        -2.1496
 303   0.0000      -0.064523        -1.7558
 304   0.0000      -0.050802        -1.3824

MULLIKEN ATOMIC CHARGES
-----------------------
   0 C :   -0.109044
   1 C :    0.240556
   2 F :   -0.171831
   3 C :    0.238671
   4 F :   -0.172865
   5 C :   -0.107765
   6 C :    0.117185
   7 C :    0.116196
   8 C :   -0.091949
   9 C :    0.057634
  10 C :    0.035002
  11 C :   -0.083127
  12 C :    0.167760
  13 O :   -0.150228
  14 C :   -0.093442
  15 C :    0.325243
  16 C :   -0.333907
  17 C :   -0.182831
  18 N :    0.152809
  19 C :   -0.192694
  20 N :    0.165862
  21 C :   -0.000812
  22 C :   -0.112057
  23 S :    0.270634
  24 C :   -0.239794
  25 C :   -0.017864
  26 C :   -0.045016
  27 S :    0.744786
  28 O :   -0.448425
  29 O :   -0.457329
  30 C :   -0.002813
  31 C :   -0.029584
  32 C :    0.107210
  33 C :    0.111853
  34 N :   -0.271475
  35 C :    0.123174
  36 C :   -0.010185
  37 C :    0.159032
  38 O :   -0.193448
  39 C :   -0.044872
  40 C :   -0.061169
  41 C :    0.145657
  42 O :   -0.184614
  43 N :   -0.271130
  44 C :    0.086206
  45 C :    0.011581
  46 C :    0.126777
  47 C :   -0.035800
  48 C :    0.004178
  49 C :   -0.077677
  50 S :    0.185693
  51 C :   -0.177963
  52 C :    0.033032
  53 C :   -0.042153
  54 S :    0.731320
  55 O :   -0.456473
  56 O :   -0.450986
  57 C :   -0.015035
  58 C :   -0.033070
  59 C :    0.113435
  60 C :    0.027851
  61 C :   -0.134368
  62 C :    0.145346
  63 O :   -0.139188
  64 C :    0.007238
  65 C :   -0.077356
  66 C :    0.110613
  67 C :    0.111312
  68 C :   -0.102948
  69 C :    0.242418
  70 C :    0.237165
  71 C :   -0.101815
  72 F :   -0.170410
  73 F :   -0.169843
  74 C :   -0.076517
  75 C :    0.040409
  76 C :    0.245701
  77 C :   -0.319322
  78 C :   -0.185112
  79 N :    0.160320
  80 C :   -0.173148
  81 N :    0.159116
  82 H :    0.007347
  83 H :   -0.003009
  84 H :   -0.007136
  85 H :   -0.017796
  86 H :    0.048663
  87 H :    0.074515
  88 H :    0.054435
  89 H :    0.054702
  90 H :    0.032816
  91 H :    0.036752
  92 H :    0.027856
  93 H :    0.031198
  94 H :    0.029598
  95 H :    0.004392
  96 H :    0.016464
  97 H :    0.049831
  98 H :    0.038414
  99 H :    0.045741
 100 H :    0.023732
 101 H :    0.034205
 102 H :    0.019529
 103 H :    0.012213
 104 H :    0.018219
 105 H :    0.073847
 106 H :    0.067764
 107 H :    0.051975
 108 H :    0.032125
 109 H :    0.028821
 110 H :    0.047020
 111 H :    0.027424
 112 H :   -0.007283
 113 H :    0.006331
 114 H :    0.001005
 115 H :   -0.001228
Sum of atomic charges:   -0.0000000

LOEWDIN ATOMIC CHARGES
----------------------
   0 C :   -0.028998
   1 C :    0.064833
   2 F :   -0.050182
   3 C :    0.067504
   4 F :   -0.050808
   5 C :   -0.035165
   6 C :   -0.005909
   7 C :   -0.006779
   8 C :    0.018027
   9 C :   -0.018294
  10 C :   -0.039190
  11 C :    0.029977
  12 C :    0.079406
  13 O :   -0.150620
  14 C :   -0.061008
  15 C :    0.076719
  16 C :   -0.122370
  17 C :   -0.015483
  18 N :   -0.047030
  19 C :   -0.018914
  20 N :   -0.039108
  21 C :    0.028992
  22 C :   -0.159075
  23 S :    0.546854
  24 C :   -0.187026
  25 C :   -0.048206
  26 C :   -0.204952
  27 S :    1.181644
  28 O :   -0.503021
  29 O :   -0.484727
  30 C :   -0.130129
  31 C :   -0.041825
  32 C :   -0.027932
  33 C :    0.051655
  34 N :   -0.005859
  35 C :    0.041976
  36 C :   -0.063486
  37 C :    0.082935
  38 O :   -0.190478
  39 C :   -0.111970
  40 C :   -0.129707
  41 C :    0.076975
  42 O :   -0.187701
  43 N :   -0.002655
  44 C :    0.035191
  45 C :   -0.059612
  46 C :    0.076727
  47 C :   -0.015384
  48 C :   -0.022349
  49 C :   -0.132540
  50 S :    0.489565
  51 C :   -0.183030
  52 C :   -0.020270
  53 C :   -0.212294
  54 S :    1.170918
  55 O :   -0.509086
  56 O :   -0.503302
  57 C :   -0.129959
  58 C :   -0.046645
  59 C :   -0.024618
  60 C :    0.047698
  61 C :   -0.091704
  62 C :    0.083579
  63 O :   -0.139568
  64 C :   -0.054897
  65 C :    0.032508
  66 C :   -0.008913
  67 C :   -0.004820
  68 C :   -0.029441
  69 C :    0.068219
  70 C :    0.067970
  71 C :   -0.032084
  72 F :   -0.048034
  73 F :   -0.047642
  74 C :    0.016318
  75 C :   -0.020081
  76 C :    0.060811
  77 C :   -0.137462
  78 C :   -0.024592
  79 N :   -0.053800
  80 C :   -0.019599
  81 N :   -0.045881
  82 H :    0.047498
  83 H :    0.043653
  84 H :    0.039464
  85 H :    0.038210
  86 H :    0.050912
  87 H :    0.046704
  88 H :    0.033990
  89 H :    0.036179
  90 H :    0.038458
  91 H :    0.038564
  92 H :    0.036005
  93 H :    0.028368
  94 H :    0.033272
  95 H :    0.018212
  96 H :    0.028945
  97 H :    0.033955
  98 H :    0.025670
  99 H :    0.038709
 100 H :    0.023289
 101 H :    0.036970
 102 H :    0.028174
 103 H :    0.040200
 104 H :    0.033447
 105 H :    0.046323
 106 H :    0.038961
 107 H :    0.033582
 108 H :    0.038959
 109 H :    0.041306
 110 H :    0.047192
 111 H :    0.049097
 112 H :    0.041374
 113 H :    0.047595
 114 H :    0.045423
 115 H :    0.040550

  Mayer bond orders larger than 0.100000
B(  0-C ,  1-C ) :   1.4463 B(  0-C ,  5-C ) :   0.1091 B(  0-C ,  7-C ) :   1.1831
B(  0-C , 82-H ) :   1.0065 B(  1-C ,  2-F ) :   1.1344 B(  1-C ,  3-C ) :   1.1876
B(  3-C ,  4-F ) :   1.1323 B(  3-C ,  5-C ) :   1.4465 B(  5-C ,  6-C ) :   1.1887
B(  5-C , 83-H ) :   1.0065 B(  6-C ,  7-C ) :   1.2525 B(  6-C , 11-C ) :   1.1923
B(  7-C ,  8-C ) :   1.2284 B(  8-C ,  9-C ) :   1.4326 B(  8-C , 84-H ) :   0.9877
B(  9-C , 10-C ) :   1.2319 B(  9-C , 15-C ) :   1.0018 B( 10-C , 11-C ) :   1.4785
B( 10-C , 12-C ) :   0.9262 B( 11-C , 85-H ) :   1.0164 B( 12-C , 13-O ) :   2.2450
B( 12-C , 14-C ) :   0.8962 B( 14-C , 15-C ) :   1.0543 B( 14-C , 21-C ) :   1.7366
B( 15-C , 16-C ) :   1.6555 B( 16-C , 17-C ) :   1.1417 B( 16-C , 19-C ) :   1.1428
B( 17-C , 18-N ) :   2.9627 B( 19-C , 20-N ) :   2.9732 B( 21-C , 22-C ) :   1.0304
B( 21-C , 86-H ) :   0.9299 B( 22-C , 23-S ) :   1.1946 B( 22-C , 24-C ) :   0.1226
B( 22-C , 26-C ) :   1.5692 B( 23-S , 24-C ) :   1.1718 B( 24-C , 25-C ) :   1.5130
B( 24-C , 33-C ) :   1.0539 B( 25-C , 26-C ) :   1.3165 B( 25-C , 32-C ) :   1.0637
B( 26-C , 27-S ) :   0.8139 B( 27-S , 28-O ) :   1.7169 B( 27-S , 29-O ) :   1.6520
B( 27-S , 30-C ) :   0.8760 B( 30-C , 31-C ) :   1.0329 B( 30-C , 87-H ) :   0.9303
B( 30-C , 88-H ) :   0.9338 B( 31-C , 32-C ) :   1.0731 B( 31-C , 89-H ) :   0.9465
B( 31-C , 90-H ) :   0.9317 B( 32-C , 91-H ) :   0.9068 B( 32-C , 92-H ) :   0.9103
B( 33-C , 34-N ) :   1.2146 B( 33-C , 40-C ) :   1.4138 B( 34-N , 35-C ) :   0.9377
B( 34-N , 37-C ) :   1.0128 B( 35-C , 36-C ) :   1.1055 B( 35-C , 93-H ) :   0.9504
B( 35-C , 94-H ) :   0.9410 B( 36-C , 95-H ) :   0.9662 B( 36-C , 96-H ) :   0.9642
B( 36-C , 97-H ) :   0.9608 B( 37-C , 38-O ) :   2.1104 B( 37-C , 39-C ) :   0.9929
B( 39-C , 40-C ) :   1.2182 B( 39-C , 46-C ) :   1.3494 B( 40-C , 41-C ) :   0.9564
B( 41-C , 42-O ) :   2.1497 B( 41-C , 43-N ) :   1.0356 B( 43-N , 44-C ) :   0.9289
B( 43-N , 46-C ) :   1.1768 B( 44-C , 45-C ) :   1.1197 B( 44-C , 98-H ) :   0.9508
B( 44-C , 99-H ) :   0.9213 B( 45-C ,100-H ) :   0.9682 B( 45-C ,101-H ) :   0.9660
B( 45-C ,102-H ) :   0.9609 B( 46-C , 47-C ) :   1.1916 B( 47-C , 48-C ) :   1.5535
B( 47-C ,103-H ) :   0.9520 B( 48-C , 49-C ) :   1.1796 B( 48-C ,104-H ) :   0.9521
B( 49-C , 50-S ) :   1.1528 B( 49-C , 53-C ) :   1.5208 B( 50-S , 51-C ) :   1.1105
B( 51-C , 52-C ) :   1.4560 B( 51-C , 60-C ) :   1.1160 B( 52-C , 53-C ) :   1.3360
B( 52-C , 59-C ) :   1.0726 B( 53-C , 54-S ) :   0.8087 B( 54-S , 55-O ) :   1.7018
B( 54-S , 56-O ) :   1.6917 B( 54-S , 57-C ) :   0.8770 B( 57-C , 58-C ) :   1.0183
B( 57-C ,105-H ) :   0.9320 B( 57-C ,106-H ) :   0.9360 B( 58-C , 59-C ) :   1.0855
B( 58-C ,107-H ) :   0.9470 B( 58-C ,108-H ) :   0.9307 B( 59-C ,109-H ) :   0.9011
B( 59-C ,110-H ) :   0.9094 B( 60-C , 61-C ) :   1.6745 B( 60-C ,111-H ) :   0.9366
B( 61-C , 62-C ) :   0.9354 B( 61-C , 76-C ) :   1.0352 B( 62-C , 63-O ) :   2.2724
B( 62-C , 64-C ) :   0.9208 B( 64-C , 65-C ) :   1.4761 B( 64-C , 75-C ) :   1.2166
B( 65-C , 66-C ) :   1.1976 B( 65-C ,112-H ) :   1.0149 B( 66-C , 67-C ) :   1.2530
B( 66-C , 71-C ) :   1.1938 B( 67-C , 68-C ) :   1.1906 B( 67-C , 74-C ) :   1.2150
B( 68-C , 69-C ) :   1.4423 B( 68-C , 71-C ) :   0.1085 B( 68-C ,113-H ) :   1.0062
B( 69-C , 70-C ) :   1.1918 B( 69-C , 73-F ) :   1.1351 B( 70-C , 71-C ) :   1.4446
B( 70-C , 72-F ) :   1.1347 B( 71-C ,114-H ) :   1.0061 B( 74-C , 75-C ) :   1.4598
B( 74-C ,115-H ) :   0.9936 B( 75-C , 76-C ) :   1.0024 B( 76-C , 77-C ) :   1.6612
B( 77-C , 78-C ) :   1.1619 B( 77-C , 80-C ) :   1.1330 B( 78-C , 79-N ) :   3.0009
B( 80-C , 81-N ) :   2.9902

-----------------------------------------------------------------------------
         ABSORPTION SPECTRUM VIA TRANSITION ELECTRIC DIPOLE MOMENTS
-----------------------------------------------------------------------------
State   Energy  Wavelength   fosc         T2         TX        TY        TZ
        (cm-1)    (nm)                  (au**2)     (au)      (au)      (au)
-----------------------------------------------------------------------------
   0   13793.1    725.0   0.778477980  18.58060  -1.61035   3.76363  -1.34999
   1   18979.3    526.9   0.169348533   2.93750   0.19987   1.39151  -0.98044
   2   22460.9    445.2   0.327897509   4.80603  -1.96172  -0.28694   0.93560
   3   23375.8    427.8   0.127935615   1.80177  -0.93037   0.91694  -0.30888
   4   24802.1    403.2   0.147500288   1.95785  -0.93269   1.04295  -0.01389
   5   25874.1    386.5   0.072543052   0.92301   0.67191  -0.46297  -0.50715
   6   26293.6    380.3   0.024723261   0.30955   0.30785  -0.15534  -0.43664
   7   26401.5    378.8   0.027247255   0.33976  -0.16046  -0.31230   0.46527
   8   27239.7    367.1   0.195962128   2.36834  -1.07031   0.55197   0.95818
   9   27741.6    360.5   0.016130940   0.19143   0.24731   0.12307  -0.33929
  10   27831.4    359.3   0.029398973   0.34775  -0.21379   0.43434   0.33674
  11   28373.1    352.4   0.137401624   1.59426  -0.85177   0.57874   0.73062
  12   28885.4    346.2   0.225259338   2.56732   0.31640  -1.39608   0.71984
  13   29023.0    344.6   0.061319114   0.69555   0.53796   0.13317  -0.62323
  14   29569.3    338.2   0.200195255   2.22889   0.12931  -1.37125   0.57605
  15   30033.2    333.0   0.078054398   0.85560   0.09004  -0.61251  -0.68726
  16   30858.8    324.1   0.040553160   0.43263  -0.01893   0.59571  -0.27822
  17   31386.7    318.6   0.093092412   0.97644   0.87318  -0.46230  -0.01627
  18   31490.1    317.6   0.103494724   1.08198  -0.09303   0.91742  -0.48131
  19   31565.2    316.8   0.046528596   0.48527   0.00357   0.69659  -0.00466
  20   32726.3    305.6   0.090507930   0.91047   0.14103   0.47274  -0.81676
  21   33226.0    301.0   0.076223870   0.75525   0.04545  -0.72184  -0.48180
  22   33298.0    300.3   0.442146400   4.37143  -1.18263   0.89682   1.47260
  23   33896.6    295.0   0.029346137   0.28502  -0.39687   0.13453   0.33078
  24   34254.9    291.9   0.442136842   4.24922  -0.83473  -0.67364   1.76030
  25   34374.6    290.9   0.021057795   0.20167   0.39221  -0.10774  -0.19036
  26   34541.0    289.5   0.144090740   1.37334  -0.92529  -0.21811   0.68527
  27   34775.5    287.6   0.190927647   1.80747   0.19214   0.78873  -1.07166
  28   34958.0    286.1   0.097549034   0.91865  -0.72048   0.21035   0.59608
  29   35394.4    282.5   0.159701203   1.48542  -0.04418   0.89067  -0.83077
  30   35621.1    280.7   0.066380122   0.61349  -0.12461  -0.15220   0.75815
  31   35928.8    278.3   0.031074521   0.28473   0.23169   0.22691  -0.42375
  32   36042.2    277.5   0.115322997   1.05337  -0.32109  -0.11449   0.96807
  33   36357.6    275.0   0.045030018   0.40774   0.35611  -0.00430  -0.53001
  34   36479.9    274.1   0.127228986   1.14818  -0.80003   0.00339   0.71282
  35   36563.1    273.5   0.043752003   0.39394   0.29428   0.53245  -0.15441
  36   36724.6    272.3   0.171890704   1.54089  -1.00072  -0.04024   0.73336
  37   37532.0    266.4   0.003161314   0.02773  -0.08483   0.08778  -0.11326
  38   37796.9    264.6   0.055079535   0.47974  -0.22746   0.64343  -0.11832
  39   37914.6    263.8   0.007747273   0.06727  -0.14211   0.17976  -0.12149
  40   38223.9    261.6   0.251705240   2.16787  -0.08882  -1.33651  -0.61133
  41   38395.2    260.4   0.012717825   0.10905   0.12935  -0.26125  -0.15513
  42   38881.1    257.2   0.037743293   0.31958   0.36467  -0.26570  -0.34058
  43   39000.2    256.4   0.051393534   0.43383  -0.33091   0.53998   0.18095
  44   39337.3    254.2   0.084925213   0.71074   0.07964  -0.80482  -0.23803
  45   39724.3    251.7   0.016380056   0.13575   0.22200  -0.14023  -0.25846
  46   39783.6    251.4   0.013040158   0.10791  -0.00465  -0.27721   0.17618
  47   40218.2    248.6   0.166341809   1.36162  -0.73034   0.19520   0.88888

FINAL SINGLE POINT ENERGY     -5224.161588283247

DIPOLE MOMENT
-------------
                                X             Y             Z
Electronic contribution:      6.63700      27.88878     -45.13100
Nuclear contribution   :     -3.92269     -31.39116      43.75596
                        -----------------------------------------
Total Dipole Moment    :      2.71431      -3.50238      -1.37504
                        -----------------------------------------
Magnitude (a.u.)       :      4.63949
Magnitude (Debye)      :     11.79265

Rotational constants in cm-1:     0.001084     0.000230     0.000199
Rotational constants in MHz :    32.493264     6.888194     5.952447

                             ****ORCA TERMINATED NORMALLY****
TOTAL RUN TIME: 0 days 0 hours 13 minutes 32 seconds 962 msec
