                         Program Version 4.2.0 -  RELEASE  -
|  1> # ORCA input file
|  2> # SCF done       -212.060454312432          0.000259730365
|  3> ! CAM-B3LYP def2-SVP def2/J RIJCOSX Grid4 TightSCF
|  4> %maxcore 5000
|  5> %tddft
|  6>     Mode sTDDFT
|  7>     Ethresh 5.0
|  8>     maxcore 5000
|  9> end
| 10>
| 11> %pal
| 12>   nprocs 6
| 13>   end
| 14> * xyz 0 1
| 15>    C       -3.22268         2.10342        -2.30847
| 16>    C       -2.79236         2.25533        -3.59659
| 17>    F       -2.74312         3.47351        -4.15080
| 18>    C       -2.39600         1.13690        -4.35768
| 19>    F       -1.97971         1.31634        -5.61828
| 20>    C       -2.43578        -0.11867        -3.81952
| 21>    C       -2.87580        -0.30816        -2.49501
| 22>    C       -3.27524         0.82195        -1.72355
| 23>    C       -3.71611         0.65673        -0.39074
| 24>    C       -3.75465        -0.60039         0.15381
| 25>    C       -3.36225        -1.72242        -0.62651
| 26>    C       -2.93294        -1.59503        -1.91608
| 27>    C       -3.50021        -2.95814         0.16930
| 28>    O       -3.28923        -4.08376        -0.21954
| 29>    C       -4.04273        -2.52011         1.48682
| 30>    C       -4.14665        -1.07251         1.47755
| 31>    C       -4.47041        -0.27539         2.54449
| 32>    C       -4.76241        -0.74010         3.84469
| 33>    N       -4.99451        -1.04160         4.92792
| 34>    C       -4.52580         1.13333         2.48813
| 35>    N       -4.59563         2.27888         2.50136
| 36>    C       -4.56091        -3.34819         2.44103
| 37>    C       -4.37998        -4.75009         2.54750
| 38>    C       -3.32890        -5.53065         2.11796
| 39>    C       -3.57550        -6.88804         2.48341
| 40>    C       -4.87752        -6.90146         3.16965
| 41>    C       -5.33120        -5.62203         3.22772
| 42>    C       -5.58949        -8.01998         3.62399
| 43>    N       -6.23597        -8.90120         3.97518
| 44>    C       -2.75998        -7.96755         2.22746
| 45>    C       -2.98095        -9.32620         2.57430
| 46>    C       -1.96838       -10.10431         2.03881
| 47>    C       -1.04184        -9.21231         1.35205
| 48>    C       -1.49043        -7.93707         1.47564
| 49>    C       -0.81206        -6.81671         0.97852
| 50>    N       -0.19466        -5.93790         0.57189
| 51>    C       -1.89747       -11.51184         2.17380
| 52>    N       -1.12478       -12.37686         1.43582
| 53>    C       -0.24640       -12.06468         0.34053
| 54>    C       -1.34082       -13.71741         1.79966
| 55>    O       -0.78081       -14.65435         1.26451
| 56>    C       -2.31116       -13.64978         2.86775
| 57>    C       -2.63467       -12.29275         3.07328
| 58>    C       -3.57273       -12.21709         4.17748
| 59>    O       -4.09714       -11.28941         4.74715
| 60>    N       -3.78204       -13.56703         4.53952
| 61>    C       -4.68829       -13.92092         5.59780
| 62>    C       -3.04407       -14.42898         3.77402
| 63>    C       -3.08525       -15.83506         3.91341
| 64>    C       -2.32975       -16.65578         3.13307
| 65>    C       -2.34638       -18.07006         3.17610
| 66>    S       -1.31327       -18.96039         2.09514
| 67>    C       -1.90692       -20.48292         2.66761
| 68>    C       -2.86603       -20.28438         3.67220
| 69>    C       -3.10222       -18.93400         3.95079
| 70>    C       -3.54143       -21.30626         4.36292
| 71>    N       -4.10526       -22.10407         4.96473
| 72>    C       -1.44258       -21.67676         2.06594
| 73>    C       -1.93748       -22.91843         2.30615
| 74>    C       -1.51358       -24.06272         1.59050
| 75>    C       -2.17407       -25.25097         1.51875
| 76>    C       -1.47311       -26.47396         1.03828
| 77>    O       -0.40436       -26.51948         0.47583
| 78>    C       -2.33770       -27.59856         1.44680
| 79>    C       -2.10770       -28.93942         1.33200
| 80>    C       -3.07883       -29.84654         1.81105
| 81>    C       -4.26849       -29.34289         2.41351
| 82>    C       -5.23173       -30.25318         2.89323
| 83>    C       -5.02600       -31.59914         2.77562
| 84>    C       -3.84971       -32.09597         2.17803
| 85>    C       -2.89523       -31.23913         1.70613
| 86>    F       -3.67494       -33.41981         2.07663
| 87>    F       -5.94352       -32.46254         3.22815
| 88>    C       -4.48018       -27.94901         2.51721
| 89>    C       -3.53323       -27.08768         2.03046
| 90>    C       -3.50483       -25.62847         1.94867
| 91>    C       -4.60057       -24.81044         2.03659
| 92>    C       -4.62130       -23.45093         1.65828
| 93>    N       -4.71397       -22.36206         1.30691
| 94>    C       -5.88679       -25.26644         2.39859
| 95>    N       -6.94782       -25.58867         2.69268
| 96>    H       -3.52050         2.97041        -1.73967
| 97>    H       -2.12903        -0.96477        -4.41422
| 98>    H       -4.01727         1.53052         0.16408
| 99>    H       -2.63805        -2.46499        -2.48277
|100>    H       -5.21406        -2.91609         3.19097
|101>    H       -2.44076        -5.18790         1.62823
|102>    H       -6.25431        -5.28995         3.66639
|103>    H       -3.80992        -9.68436         3.15251
|104>    H       -0.12867        -9.49825         0.86833
|105>    H        0.67411       -11.59444         0.69236
|106>    H       -0.74251       -11.41940        -0.38501
|107>    H        0.01048       -13.01311        -0.13376
|108>    H       -5.10022       -12.98810         5.98385
|109>    H       -4.16740       -14.44378         6.40211
|110>    H       -5.50336       -14.54305         5.22362
|111>    H       -3.75149       -16.24452         4.65836
|112>    H       -1.66439       -16.21283         2.40275
|113>    H       -3.81229       -18.60919         4.69006
|114>    H       -0.68850       -21.55292         1.29885
|115>    H       -2.69995       -23.05040         3.05862
|116>    H       -0.55794       -24.02004         1.07881
|117>    H       -1.19795       -29.30291         0.87892
|118>    H       -6.13907       -29.88984         3.34989
|119>    H       -2.00065       -31.63493         1.25143
|120>    H       -5.38496       -27.59641         2.98573
|121> *
|122>
|123>                          ****END OF INPUT****

CARTESIAN COORDINATES (ANGSTROEM)
---------------------------------
  C     -3.222680    2.103420   -2.308470
  C     -2.792360    2.255330   -3.596590
  F     -2.743120    3.473510   -4.150800
  C     -2.396000    1.136900   -4.357680
  F     -1.979710    1.316340   -5.618280
  C     -2.435780   -0.118670   -3.819520
  C     -2.875800   -0.308160   -2.495010
  C     -3.275240    0.821950   -1.723550
  C     -3.716110    0.656730   -0.390740
  C     -3.754650   -0.600390    0.153810
  C     -3.362250   -1.722420   -0.626510
  C     -2.932940   -1.595030   -1.916080
  C     -3.500210   -2.958140    0.169300
  O     -3.289230   -4.083760   -0.219540
  C     -4.042730   -2.520110    1.486820
  C     -4.146650   -1.072510    1.477550
  C     -4.470410   -0.275390    2.544490
  C     -4.762410   -0.740100    3.844690
  N     -4.994510   -1.041600    4.927920
  C     -4.525800    1.133330    2.488130
  N     -4.595630    2.278880    2.501360
  C     -4.560910   -3.348190    2.441030
  C     -4.379980   -4.750090    2.547500
  C     -3.328900   -5.530650    2.117960
  C     -3.575500   -6.888040    2.483410
  C     -4.877520   -6.901460    3.169650
  C     -5.331200   -5.622030    3.227720
  C     -5.589490   -8.019980    3.623990
  N     -6.235970   -8.901200    3.975180
  C     -2.759980   -7.967550    2.227460
  C     -2.980950   -9.326200    2.574300
  C     -1.968380  -10.104310    2.038810
  C     -1.041840   -9.212310    1.352050
  C     -1.490430   -7.937070    1.475640
  C     -0.812060   -6.816710    0.978520
  N     -0.194660   -5.937900    0.571890
  C     -1.897470  -11.511840    2.173800
  N     -1.124780  -12.376860    1.435820
  C     -0.246400  -12.064680    0.340530
  C     -1.340820  -13.717410    1.799660
  O     -0.780810  -14.654350    1.264510
  C     -2.311160  -13.649780    2.867750
  C     -2.634670  -12.292750    3.073280
  C     -3.572730  -12.217090    4.177480
  O     -4.097140  -11.289410    4.747150
  N     -3.782040  -13.567030    4.539520
  C     -4.688290  -13.920920    5.597800
  C     -3.044070  -14.428980    3.774020
  C     -3.085250  -15.835060    3.913410
  C     -2.329750  -16.655780    3.133070
  C     -2.346380  -18.070060    3.176100
  S     -1.313270  -18.960390    2.095140
  C     -1.906920  -20.482920    2.667610
  C     -2.866030  -20.284380    3.672200
  C     -3.102220  -18.934000    3.950790
  C     -3.541430  -21.306260    4.362920
  N     -4.105260  -22.104070    4.964730
  C     -1.442580  -21.676760    2.065940
  C     -1.937480  -22.918430    2.306150
  C     -1.513580  -24.062720    1.590500
  C     -2.174070  -25.250970    1.518750
  C     -1.473110  -26.473960    1.038280
  O     -0.404360  -26.519480    0.475830
  C     -2.337700  -27.598560    1.446800
  C     -2.107700  -28.939420    1.332000
  C     -3.078830  -29.846540    1.811050
  C     -4.268490  -29.342890    2.413510
  C     -5.231730  -30.253180    2.893230
  C     -5.026000  -31.599140    2.775620
  C     -3.849710  -32.095970    2.178030
  C     -2.895230  -31.239130    1.706130
  F     -3.674940  -33.419810    2.076630
  F     -5.943520  -32.462540    3.228150
  C     -4.480180  -27.949010    2.517210
  C     -3.533230  -27.087680    2.030460
  C     -3.504830  -25.628470    1.948670
  C     -4.600570  -24.810440    2.036590
  C     -4.621300  -23.450930    1.658280
  N     -4.713970  -22.362060    1.306910
  C     -5.886790  -25.266440    2.398590
  N     -6.947820  -25.588670    2.692680
  H     -3.520500    2.970410   -1.739670
  H     -2.129030   -0.964770   -4.414220
  H     -4.017270    1.530520    0.164080
  H     -2.638050   -2.464990   -2.482770
  H     -5.214060   -2.916090    3.190970
  H     -2.440760   -5.187900    1.628230
  H     -6.254310   -5.289950    3.666390
  H     -3.809920   -9.684360    3.152510
  H     -0.128670   -9.498250    0.868330
  H      0.674110  -11.594440    0.692360
  H     -0.742510  -11.419400   -0.385010
  H      0.010480  -13.013110   -0.133760
  H     -5.100220  -12.988100    5.983850
  H     -4.167400  -14.443780    6.402110
  H     -5.503360  -14.543050    5.223620
  H     -3.751490  -16.244520    4.658360
  H     -1.664390  -16.212830    2.402750
  H     -3.812290  -18.609190    4.690060
  H     -0.688500  -21.552920    1.298850
  H     -2.699950  -23.050400    3.058620
  H     -0.557940  -24.020040    1.078810
  H     -1.197950  -29.302910    0.878920
  H     -6.139070  -29.889840    3.349890
  H     -2.000650  -31.634930    1.251430
  H     -5.384960  -27.596410    2.985730

 Total Charge           Charge          ....    0
 Multiplicity           Mult            ....    1
 Number of Electrons    NEL             ....  550
 Basis Dimension        Dim             .... 1263

ORBITAL ENERGIES
----------------

  NO   OCC          E(Eh)            E(eV)
   0   2.0000     -88.995687     -2421.6958
   1   2.0000     -24.801919      -674.8945
   2   2.0000     -24.801218      -674.8755
   3   2.0000     -24.800177      -674.8471
   4   2.0000     -24.799411      -674.8263
   5   2.0000     -19.223804      -523.1063
   6   2.0000     -19.222847      -523.0803
   7   2.0000     -19.211343      -522.7672
   8   2.0000     -19.205883      -522.6186
   9   2.0000     -14.473631      -393.8475
  10   2.0000     -14.473110      -393.8333
  11   2.0000     -14.425444      -392.5363
  12   2.0000     -14.422405      -392.4536
  13   2.0000     -14.422328      -392.4515
  14   2.0000     -14.420887      -392.4123
  15   2.0000     -14.420592      -392.4043
  16   2.0000     -14.415322      -392.2609
  17   2.0000     -14.403569      -391.9410
  18   2.0000     -10.392897      -282.8051
  19   2.0000     -10.389305      -282.7073
  20   2.0000     -10.385502      -282.6039
  21   2.0000     -10.384905      -282.5876
  22   2.0000     -10.383783      -282.5571
  23   2.0000     -10.383084      -282.5381
  24   2.0000     -10.374864      -282.3144
  25   2.0000     -10.374626      -282.3079
  26   2.0000     -10.362330      -281.9733
  27   2.0000     -10.354625      -281.7637
  28   2.0000     -10.353951      -281.7453
  29   2.0000     -10.349934      -281.6360
  30   2.0000     -10.349767      -281.6315
  31   2.0000     -10.349353      -281.6202
  32   2.0000     -10.346622      -281.5459
  33   2.0000     -10.338962      -281.3375
  34   2.0000     -10.338328      -281.3202
  35   2.0000     -10.332962      -281.1742
  36   2.0000     -10.328179      -281.0440
  37   2.0000     -10.326639      -281.0021
  38   2.0000     -10.326038      -280.9858
  39   2.0000     -10.325937      -280.9830
  40   2.0000     -10.325138      -280.9613
  41   2.0000     -10.324971      -280.9568
  42   2.0000     -10.324630      -280.9475
  43   2.0000     -10.324163      -280.9348
  44   2.0000     -10.323210      -280.9088
  45   2.0000     -10.323007      -280.9033
  46   2.0000     -10.321575      -280.8643
  47   2.0000     -10.320622      -280.8384
  48   2.0000     -10.320587      -280.8374
  49   2.0000     -10.320029      -280.8223
  50   2.0000     -10.319816      -280.8165
  51   2.0000     -10.319043      -280.7954
  52   2.0000     -10.316891      -280.7369
  53   2.0000     -10.315649      -280.7031
  54   2.0000     -10.315324      -280.6942
  55   2.0000     -10.315007      -280.6856
  56   2.0000     -10.313905      -280.6556
  57   2.0000     -10.313225      -280.6371
  58   2.0000     -10.312940      -280.6294
  59   2.0000     -10.312394      -280.6145
  60   2.0000     -10.311071      -280.5785
  61   2.0000     -10.310871      -280.5731
  62   2.0000     -10.309843      -280.5451
  63   2.0000     -10.309297      -280.5302
  64   2.0000     -10.308881      -280.5189
  65   2.0000     -10.308153      -280.4991
  66   2.0000     -10.307361      -280.4776
  67   2.0000     -10.305601      -280.4297
  68   2.0000     -10.305456      -280.4257
  69   2.0000     -10.305248      -280.4200
  70   2.0000     -10.304923      -280.4112
  71   2.0000     -10.304750      -280.4065
  72   2.0000     -10.304274      -280.3935
  73   2.0000     -10.303137      -280.3626
  74   2.0000     -10.302549      -280.3466
  75   2.0000     -10.300150      -280.2813
  76   2.0000     -10.299544      -280.2648
  77   2.0000     -10.296229      -280.1746
  78   2.0000     -10.291499      -280.0459
  79   2.0000     -10.285495      -279.8825
  80   2.0000     -10.279530      -279.7202
  81   2.0000      -8.091202      -220.1728
  82   2.0000      -6.060260      -164.9080
  83   2.0000      -6.056124      -164.7955
  84   2.0000      -6.053728      -164.7303
  85   2.0000      -1.324738       -36.0479
  86   2.0000      -1.322789       -35.9949
  87   2.0000      -1.309824       -35.6421
  88   2.0000      -1.307903       -35.5899
  89   2.0000      -1.152662       -31.3655
  90   2.0000      -1.144909       -31.1546
  91   2.0000      -1.139153       -30.9979
  92   2.0000      -1.139066       -30.9956
  93   2.0000      -1.082521       -29.4569
  94   2.0000      -1.073109       -29.2008
  95   2.0000      -1.032589       -28.0982
  96   2.0000      -1.026558       -27.9341
  97   2.0000      -1.024801       -27.8863
  98   2.0000      -1.022181       -27.8150
  99   2.0000      -1.009776       -27.4774
 100   2.0000      -1.007936       -27.4273
 101   2.0000      -1.004838       -27.3430
 102   2.0000      -1.004082       -27.3225
 103   2.0000      -1.000742       -27.2316
 104   2.0000      -0.999114       -27.1873
 105   2.0000      -0.990217       -26.9452
 106   2.0000      -0.987595       -26.8738
 107   2.0000      -0.985653       -26.8210
 108   2.0000      -0.980568       -26.6826
 109   2.0000      -0.950905       -25.8754
 110   2.0000      -0.940960       -25.6048
 111   2.0000      -0.936313       -25.4784
 112   2.0000      -0.935934       -25.4681
 113   2.0000      -0.925249       -25.1773
 114   2.0000      -0.912741       -24.8370
 115   2.0000      -0.904785       -24.6205
 116   2.0000      -0.897295       -24.4166
 117   2.0000      -0.896860       -24.4048
 118   2.0000      -0.893325       -24.3086
 119   2.0000      -0.889150       -24.1950
 120   2.0000      -0.884930       -24.0802
 121   2.0000      -0.880017       -23.9465
 122   2.0000      -0.865410       -23.5490
 123   2.0000      -0.857289       -23.3280
 124   2.0000      -0.846473       -23.0337
 125   2.0000      -0.845318       -23.0023
 126   2.0000      -0.844665       -22.9845
 127   2.0000      -0.842471       -22.9248
 128   2.0000      -0.824177       -22.4270
 129   2.0000      -0.813772       -22.1439
 130   2.0000      -0.799690       -21.7607
 131   2.0000      -0.790146       -21.5010
 132   2.0000      -0.780741       -21.2450
 133   2.0000      -0.773857       -21.0577
 134   2.0000      -0.772906       -21.0319
 135   2.0000      -0.771191       -20.9852
 136   2.0000      -0.754602       -20.5338
 137   2.0000      -0.743375       -20.2283
 138   2.0000      -0.739879       -20.1331
 139   2.0000      -0.730199       -19.8697
 140   2.0000      -0.725428       -19.7399
 141   2.0000      -0.723359       -19.6836
 142   2.0000      -0.723043       -19.6750
 143   2.0000      -0.709279       -19.3005
 144   2.0000      -0.707337       -19.2476
 145   2.0000      -0.699180       -19.0257
 146   2.0000      -0.697276       -18.9738
 147   2.0000      -0.692857       -18.8536
 148   2.0000      -0.689816       -18.7708
 149   2.0000      -0.688007       -18.7216
 150   2.0000      -0.683784       -18.6067
 151   2.0000      -0.675831       -18.3903
 152   2.0000      -0.667732       -18.1699
 153   2.0000      -0.661040       -17.9878
 154   2.0000      -0.659665       -17.9504
 155   2.0000      -0.650320       -17.6961
 156   2.0000      -0.648188       -17.6381
 157   2.0000      -0.647047       -17.6070
 158   2.0000      -0.644201       -17.5296
 159   2.0000      -0.641896       -17.4669
 160   2.0000      -0.636737       -17.3265
 161   2.0000      -0.633333       -17.2339
 162   2.0000      -0.620730       -16.8909
 163   2.0000      -0.615081       -16.7372
 164   2.0000      -0.613537       -16.6952
 165   2.0000      -0.603970       -16.4349
 166   2.0000      -0.598317       -16.2810
 167   2.0000      -0.597041       -16.2463
 168   2.0000      -0.590175       -16.0595
 169   2.0000      -0.589184       -16.0325
 170   2.0000      -0.587961       -15.9992
 171   2.0000      -0.587299       -15.9812
 172   2.0000      -0.585111       -15.9217
 173   2.0000      -0.582397       -15.8478
 174   2.0000      -0.579228       -15.7616
 175   2.0000      -0.576452       -15.6861
 176   2.0000      -0.571342       -15.5470
 177   2.0000      -0.569065       -15.4850
 178   2.0000      -0.565474       -15.3873
 179   2.0000      -0.559459       -15.2237
 180   2.0000      -0.558174       -15.1887
 181   2.0000      -0.556699       -15.1486
 182   2.0000      -0.554809       -15.0971
 183   2.0000      -0.551089       -14.9959
 184   2.0000      -0.550727       -14.9861
 185   2.0000      -0.548867       -14.9354
 186   2.0000      -0.545078       -14.8323
 187   2.0000      -0.542256       -14.7555
 188   2.0000      -0.541706       -14.7406
 189   2.0000      -0.537545       -14.6273
 190   2.0000      -0.536265       -14.5925
 191   2.0000      -0.535097       -14.5607
 192   2.0000      -0.533010       -14.5039
 193   2.0000      -0.531717       -14.4688
 194   2.0000      -0.531322       -14.4580
 195   2.0000      -0.529543       -14.4096
 196   2.0000      -0.527251       -14.3472
 197   2.0000      -0.525262       -14.2931
 198   2.0000      -0.525025       -14.2866
 199   2.0000      -0.522617       -14.2211
 200   2.0000      -0.521675       -14.1955
 201   2.0000      -0.516906       -14.0657
 202   2.0000      -0.515467       -14.0266
 203   2.0000      -0.510695       -13.8967
 204   2.0000      -0.507920       -13.8212
 205   2.0000      -0.506979       -13.7956
 206   2.0000      -0.503684       -13.7059
 207   2.0000      -0.501672       -13.6512
 208   2.0000      -0.500715       -13.6251
 209   2.0000      -0.497909       -13.5488
 210   2.0000      -0.497815       -13.5462
 211   2.0000      -0.493465       -13.4279
 212   2.0000      -0.490740       -13.3537
 213   2.0000      -0.488975       -13.3057
 214   2.0000      -0.488163       -13.2836
 215   2.0000      -0.485736       -13.2175
 216   2.0000      -0.485609       -13.2141
 217   2.0000      -0.484382       -13.1807
 218   2.0000      -0.481880       -13.1126
 219   2.0000      -0.477814       -13.0020
 220   2.0000      -0.476029       -12.9534
 221   2.0000      -0.472067       -12.8456
 222   2.0000      -0.471623       -12.8335
 223   2.0000      -0.469892       -12.7864
 224   2.0000      -0.467619       -12.7246
 225   2.0000      -0.466468       -12.6932
 226   2.0000      -0.464895       -12.6504
 227   2.0000      -0.459244       -12.4967
 228   2.0000      -0.458516       -12.4768
 229   2.0000      -0.453971       -12.3532
 230   2.0000      -0.453686       -12.3454
 231   2.0000      -0.451837       -12.2951
 232   2.0000      -0.450613       -12.2618
 233   2.0000      -0.449818       -12.2402
 234   2.0000      -0.449364       -12.2278
 235   2.0000      -0.448395       -12.2015
 236   2.0000      -0.447857       -12.1868
 237   2.0000      -0.444126       -12.0853
 238   2.0000      -0.443071       -12.0566
 239   2.0000      -0.436115       -11.8673
 240   2.0000      -0.433714       -11.8020
 241   2.0000      -0.433647       -11.8001
 242   2.0000      -0.432134       -11.7590
 243   2.0000      -0.431007       -11.7283
 244   2.0000      -0.430058       -11.7025
 245   2.0000      -0.427877       -11.6431
 246   2.0000      -0.426507       -11.6058
 247   2.0000      -0.421035       -11.4570
 248   2.0000      -0.420723       -11.4485
 249   2.0000      -0.417827       -11.3696
 250   2.0000      -0.414294       -11.2735
 251   2.0000      -0.412957       -11.2371
 252   2.0000      -0.404750       -11.0138
 253   2.0000      -0.400050       -10.8859
 254   2.0000      -0.398439       -10.8421
 255   2.0000      -0.391167       -10.6442
 256   2.0000      -0.387559       -10.5460
 257   2.0000      -0.374507       -10.1908
 258   2.0000      -0.366104        -9.9622
 259   2.0000      -0.362621        -9.8674
 260   2.0000      -0.355279        -9.6676
 261   2.0000      -0.350378        -9.5343
 262   2.0000      -0.348812        -9.4916
 263   2.0000      -0.346335        -9.4243
 264   2.0000      -0.339891        -9.2489
 265   2.0000      -0.335374        -9.1260
 266   2.0000      -0.333820        -9.0837
 267   2.0000      -0.322266        -8.7693
 268   2.0000      -0.322036        -8.7631
 269   2.0000      -0.320409        -8.7188
 270   2.0000      -0.306983        -8.3534
 271   2.0000      -0.305700        -8.3185
 272   2.0000      -0.293943        -7.9986
 273   2.0000      -0.290466        -7.9040
 274   2.0000      -0.248639        -6.7658
 275   0.0000      -0.143936        -3.9167
 276   0.0000      -0.115137        -3.1330
 277   0.0000      -0.088782        -2.4159
 278   0.0000      -0.080725        -2.1966
 279   0.0000      -0.065070        -1.7706

MULLIKEN ATOMIC CHARGES
-----------------------
   0 C :   -0.108215
   1 C :    0.244052
   2 F :   -0.170629
   3 C :    0.238525
   4 F :   -0.170289
   5 C :   -0.102410
   6 C :    0.115528
   7 C :    0.114549
   8 C :   -0.083625
   9 C :    0.053573
  10 C :   -0.008347
  11 C :   -0.075416
  12 C :    0.150197
  13 O :   -0.134118
  14 C :   -0.082406
  15 C :    0.302360
  16 C :   -0.337287
  17 C :   -0.199244
  18 N :    0.165717
  19 C :   -0.181690
  20 N :    0.149470
  21 C :   -0.016957
  22 C :    0.079737
  23 C :   -0.026559
  24 C :    0.072908
  25 C :   -0.080839
  26 C :   -0.000879
  27 C :   -0.186294
  28 N :    0.149603
  29 C :    0.132595
  30 C :   -0.123285
  31 C :    0.056101
  32 C :   -0.036087
  33 C :   -0.083223
  34 C :   -0.172975
  35 N :    0.143559
  36 C :    0.145193
  37 N :   -0.266614
  38 C :    0.114651
  39 C :    0.164342
  40 O :   -0.211208
  41 C :   -0.080835
  42 C :   -0.053178
  43 C :    0.154280
  44 O :   -0.156548
  45 N :   -0.270046
  46 C :    0.112307
  47 C :    0.153644
  48 C :   -0.033068
  49 C :    0.094036
  50 C :   -0.083667
  51 S :    0.200022
  52 C :   -0.055849
  53 C :   -0.049028
  54 C :    0.024213
  55 C :   -0.166514
  56 N :    0.125209
  57 C :    0.054990
  58 C :    0.003866
  59 C :    0.022659
  60 C :   -0.104425
  61 C :    0.143671
  62 O :   -0.135480
  63 C :    0.004385
  64 C :   -0.081346
  65 C :    0.116115
  66 C :    0.113137
  67 C :   -0.106113
  68 C :    0.243120
  69 C :    0.238332
  70 C :   -0.104784
  71 F :   -0.170720
  72 F :   -0.169053
  73 C :   -0.080001
  74 C :    0.040442
  75 C :    0.278393
  76 C :   -0.311428
  77 C :   -0.206606
  78 N :    0.162327
  79 C :   -0.173817
  80 N :    0.156075
  81 H :    0.008304
  82 H :    0.000094
  83 H :   -0.005809
  84 H :   -0.007184
  85 H :    0.027245
  86 H :    0.017089
  87 H :    0.004272
  88 H :    0.028206
  89 H :   -0.011679
  90 H :    0.044238
  91 H :    0.041296
  92 H :    0.062743
  93 H :    0.073422
  94 H :    0.038125
  95 H :    0.041181
  96 H :   -0.026214
  97 H :    0.014489
  98 H :    0.004321
  99 H :    0.002880
 100 H :    0.039905
 101 H :    0.020134
 102 H :   -0.007717
 103 H :    0.007299
 104 H :    0.000795
 105 H :   -0.000217
Sum of atomic charges:   -0.0000000

LOEWDIN ATOMIC CHARGES
----------------------
   0 C :   -0.029117
   1 C :    0.067639
   2 F :   -0.048168
   3 C :    0.068359
   4 F :   -0.048411
   5 C :   -0.032104
   6 C :   -0.007734
   7 C :   -0.005669
   8 C :    0.017981
   9 C :   -0.023532
  10 C :   -0.051988
  11 C :    0.033632
  12 C :    0.084603
  13 O :   -0.125203
  14 C :   -0.078398
  15 C :    0.072859
  16 C :   -0.132540
  17 C :   -0.024568
  18 N :   -0.045470
  19 C :   -0.017008
  20 N :   -0.048782
  21 C :    0.070466
  22 C :   -0.041687
  23 C :    0.044232
  24 C :    0.033525
  25 C :   -0.085510
  26 C :    0.058951
  27 C :   -0.037162
  28 N :   -0.049949
  29 C :    0.046819
  30 C :    0.001698
  31 C :   -0.025546
  32 C :    0.046306
  33 C :   -0.071489
  34 C :   -0.032088
  35 N :   -0.053131
  36 C :    0.061646
  37 N :   -0.004064
  38 C :    0.029039
  39 C :    0.077665
  40 O :   -0.203836
  41 C :   -0.125053
  42 C :   -0.091214
  43 C :    0.085426
  44 O :   -0.154199
  45 N :   -0.004648
  46 C :    0.029587
  47 C :    0.090279
  48 C :   -0.045700
  49 C :    0.023201
  50 C :   -0.169489
  51 S :    0.503758
  52 C :   -0.137603
  53 C :   -0.087762
  54 C :   -0.003710
  55 C :   -0.023248
  56 N :   -0.048200
  57 C :   -0.003836
  58 C :   -0.006889
  59 C :    0.063939
  60 C :   -0.078154
  61 C :    0.082217
  62 O :   -0.137556
  63 C :   -0.055166
  64 C :    0.032001
  65 C :   -0.008756
  66 C :   -0.004901
  67 C :   -0.028986
  68 C :    0.067856
  69 C :    0.068065
  70 C :   -0.032637
  71 F :   -0.048093
  72 F :   -0.047230
  73 C :    0.016704
  74 C :   -0.020189
  75 C :    0.068363
  76 C :   -0.124588
  77 C :   -0.017929
  78 N :   -0.049037
  79 C :   -0.015629
  80 N :   -0.043134
  81 H :    0.047993
  82 H :    0.045424
  83 H :    0.040031
  84 H :    0.041783
  85 H :    0.047685
  86 H :    0.037025
  87 H :    0.039582
  88 H :    0.039076
  89 H :    0.035696
  90 H :    0.026448
  91 H :    0.029798
  92 H :    0.043412
  93 H :    0.047690
  94 H :    0.028260
  95 H :    0.029591
  96 H :    0.031005
  97 H :    0.038718
  98 H :    0.041587
  99 H :    0.037519
 100 H :    0.039437
 101 H :    0.046833
 102 H :    0.041181
 103 H :    0.048021
 104 H :    0.045274
 105 H :    0.040803

  Mayer bond orders larger than 0.100000
B(  0-C ,  1-C ) :   1.4412 B(  0-C ,  5-C ) :   0.1087 B(  0-C ,  7-C ) :   1.1872
B(  0-C , 81-H ) :   1.0068 B(  1-C ,  2-F ) :   1.1347 B(  1-C ,  3-C ) :   1.1908
B(  3-C ,  4-F ) :   1.1351 B(  3-C ,  5-C ) :   1.4439 B(  5-C ,  6-C ) :   1.1909
B(  5-C , 82-H ) :   1.0069 B(  6-C ,  7-C ) :   1.2561 B(  6-C , 11-C ) :   1.1893
B(  7-C ,  8-C ) :   1.2192 B(  8-C ,  9-C ) :   1.4462 B(  8-C , 83-H ) :   0.9896
B(  9-C , 10-C ) :   1.2196 B(  9-C , 15-C ) :   0.9892 B( 10-C , 11-C ) :   1.4727
B( 10-C , 12-C ) :   0.9399 B( 11-C , 84-H ) :   1.0160 B( 12-C , 13-O ) :   2.2289
B( 12-C , 14-C ) :   0.9338 B( 14-C , 15-C ) :   1.0555 B( 14-C , 21-C ) :   1.6038
B( 15-C , 16-C ) :   1.6469 B( 16-C , 17-C ) :   1.1386 B( 16-C , 19-C ) :   1.1437
B( 17-C , 18-N ) :   2.9914 B( 19-C , 20-N ) :   2.9642 B( 21-C , 22-C ) :   1.1222
B( 21-C , 85-H ) :   0.9457 B( 22-C , 23-C ) :   1.5345 B( 22-C , 26-C ) :   1.0328
B( 23-C , 24-C ) :   1.1247 B( 23-C , 86-H ) :   0.9867 B( 24-C , 25-C ) :   1.1113
B( 24-C , 29-C ) :   1.3945 B( 25-C , 26-C ) :   1.6639 B( 25-C , 27-C ) :   1.0834
B( 26-C , 87-H ) :   1.0238 B( 27-C , 28-N ) :   2.9901 B( 29-C , 30-C ) :   1.1273
B( 29-C , 33-C ) :   1.0859 B( 30-C , 31-C ) :   1.5294 B( 30-C , 88-H ) :   0.9923
B( 31-C , 32-C ) :   1.0156 B( 31-C , 36-C ) :   1.0699 B( 32-C , 33-C ) :   1.6817
B( 32-C , 89-H ) :   1.0264 B( 33-C , 34-C ) :   1.0792 B( 34-C , 35-N ) :   2.9703
B( 36-C , 37-N ) :   1.1908 B( 36-C , 42-C ) :   1.3637 B( 37-N , 38-C ) :   0.9612
B( 37-N , 39-C ) :   1.0595 B( 38-C , 90-H ) :   0.9700 B( 38-C , 91-H ) :   0.9705
B( 38-C , 92-H ) :   0.9453 B( 39-C , 40-O ) :   2.0163 B( 39-C , 41-C ) :   1.0027
B( 40-O , 97-H ) :   0.1229 B( 41-C , 42-C ) :   1.2743 B( 41-C , 47-C ) :   1.2809
B( 42-C , 43-C ) :   0.9655 B( 43-C , 44-O ) :   2.1201 B( 43-C , 45-N ) :   1.0280
B( 45-N , 46-C ) :   0.9594 B( 45-N , 47-C ) :   1.1887 B( 46-C , 93-H ) :   0.9506
B( 46-C , 94-H ) :   0.9729 B( 46-C , 95-H ) :   0.9720 B( 47-C , 48-C ) :   1.1895
B( 48-C , 49-C ) :   1.6002 B( 48-C , 96-H ) :   0.9649 B( 49-C , 50-C ) :   1.1367
B( 49-C , 97-H ) :   0.9287 B( 50-C , 51-S ) :   1.1372 B( 50-C , 54-C ) :   1.4304
B( 51-S , 52-C ) :   1.1527 B( 52-C , 53-C ) :   1.4134 B( 52-C , 57-C ) :   1.1439
B( 53-C , 54-C ) :   1.3423 B( 53-C , 55-C ) :   1.1152 B( 54-C , 98-H ) :   0.9985
B( 55-C , 56-N ) :   2.9585 B( 57-C , 58-C ) :   1.6690 B( 57-C , 99-H ) :   0.9577
B( 58-C , 59-C ) :   1.1251 B( 58-C ,100-H ) :   0.9398 B( 59-C , 60-C ) :   1.6331
B( 59-C ,101-H ) :   0.9605 B( 60-C , 61-C ) :   0.9344 B( 60-C , 75-C ) :   1.0333
B( 61-C , 62-O ) :   2.2796 B( 61-C , 63-C ) :   0.9215 B( 63-C , 64-C ) :   1.4726
B( 63-C , 74-C ) :   1.2178 B( 64-C , 65-C ) :   1.1974 B( 64-C ,102-H ) :   1.0157
B( 65-C , 66-C ) :   1.2529 B( 65-C , 70-C ) :   1.1914 B( 66-C , 67-C ) :   1.1901
B( 66-C , 73-C ) :   1.2167 B( 67-C , 68-C ) :   1.4420 B( 67-C , 70-C ) :   0.1087
B( 67-C ,103-H ) :   1.0066 B( 68-C , 69-C ) :   1.1906 B( 68-C , 72-F ) :   1.1367
B( 69-C , 70-C ) :   1.4450 B( 69-C , 71-F ) :   1.1343 B( 70-C ,104-H ) :   1.0066
B( 73-C , 74-C ) :   1.4568 B( 73-C ,105-H ) :   0.9915 B( 74-C , 75-C ) :   1.0005
B( 75-C , 76-C ) :   1.6526 B( 76-C , 77-C ) :   1.1606 B( 76-C , 79-C ) :   1.1356
B( 77-C , 78-N ) :   2.9867 B( 79-C , 80-N ) :   2.9813

-----------------------------------------------------------------------------
         ABSORPTION SPECTRUM VIA TRANSITION ELECTRIC DIPOLE MOMENTS
-----------------------------------------------------------------------------
State   Energy  Wavelength   fosc         T2         TX        TY        TZ
        (cm-1)    (nm)                  (au**2)     (au)      (au)      (au)
-----------------------------------------------------------------------------
   0    8011.6   1248.2   0.682174065  28.03180  -0.44786   5.24234  -0.59086
   1   14674.4    681.5   0.015494010   0.34760   0.39773  -0.43163  -0.05572
   2   16194.6    617.5   0.602158528  12.24098  -0.66431  -3.43505   0.00969
   3   19425.8    514.8   0.054218724   0.91885  -0.11669  -0.89492   0.32305
   4   20958.9    477.1   0.549838397   8.63658  -0.15436  -2.82750  -0.78614
   5   21686.9    461.1   0.049793882   0.75588   0.27298  -0.77159  -0.29328
   6   22073.6    453.0   0.050167533   0.74821  -0.18250  -0.28906   0.79457
   7   22814.4    438.3   0.118719261   1.71312  -0.19529   1.28106  -0.18401
   8   23696.9    422.0   0.001116451   0.01551  -0.10698   0.04067   0.04911
   9   24027.6    416.2   0.122293480   1.67559   0.12916  -1.15254   0.57495
  10   24541.1    407.5   0.144495417   1.93837   0.57515  -1.23338  -0.29385
  11   24804.1    403.2   0.032523474   0.43167   0.55820   0.34648   0.00581
  12   25304.3    395.2   0.063862180   0.83085   0.16690   0.89609   0.00386
  13   25400.7    393.7   0.245628321   3.18352   0.29949   1.74480  -0.22249
  14   26184.9    381.9   0.237141891   2.98149  -0.75449   1.45347  -0.54742
  15   27051.0    369.7   0.006540571   0.07960  -0.10821   0.25723   0.04151
  16   27362.4    365.5   0.192468759   2.31569   0.26880  -1.49721  -0.04236
  17   28240.3    354.1   0.010019316   0.11680  -0.21164   0.03566   0.26597
  18   28903.5    346.0   0.346643780   3.94829   0.62027  -1.88618  -0.07675
  19   28988.3    345.0   0.131966326   1.49870  -0.41964   0.54754   1.01134
  20   29771.3    335.9   0.000642727   0.00711  -0.03174   0.07800   0.00396
  21   30017.0    333.1   0.025410557   0.27869  -0.03157  -0.52209  -0.07156
  22   30262.8    330.4   0.107241449   1.16662   0.04813  -1.07005   0.13892
  23   30737.2    325.3   0.133247809   1.42716  -0.37925   1.07952  -0.34346
  24   30773.9    325.0   0.141137710   1.50986  -0.28217  -0.43604   1.11360
  25   31175.6    320.8   0.004525425   0.04779   0.07089   0.19098  -0.07931
  26   31632.0    316.1   0.007945381   0.08269   0.19985  -0.11352  -0.17282
  27   31896.1    313.5   0.130031972   1.34211   0.65011  -0.24857  -0.92611
  28   31985.4    312.6   0.084382802   0.86852   0.26873   0.34434  -0.82324
  29   32539.2    307.3   0.123378034   1.24826  -0.41832   1.01689   0.19798
  30   32988.7    303.1   0.094242850   0.94050   0.85395  -0.28971  -0.35685
  31   33138.1    301.8   0.274630562   2.72833   0.11208   1.63086  -0.23681
  32   33399.2    299.4   0.039528186   0.38962   0.46435   0.04022  -0.41519
  33   33653.1    297.1   0.006693154   0.06548   0.20484   0.06134  -0.14055
  34   33995.3    294.2   0.211243778   2.04569  -0.60370   1.29491   0.06659
  35   34167.9    292.7   0.006568370   0.06329   0.09479  -0.20977  -0.10149
  36   34212.2    292.3   0.011358355   0.10930  -0.03276   0.27555  -0.17971
  37   34570.1    289.3   0.138551398   1.31943  -0.01375  -1.14550   0.08404
  38   34753.3    287.7   0.007899375   0.07483   0.22718  -0.14815  -0.03566
  39   35017.3    285.6   0.202137172   1.90038  -0.40884  -0.63604   1.15268
  40   35144.9    284.5   0.200455271   1.87772   0.26247   1.23185  -0.53980
  41   35266.5    283.6   0.324502884   3.02922  -0.41477   0.31347   1.66100
  42   35446.2    282.1   0.076643388   0.71184  -0.19597  -0.19929   0.79606
  43   35674.1    280.3   0.115534954   1.06619   0.51023   0.72011  -0.53601
  44   35915.7    278.4   0.171921244   1.57587  -0.26796   0.46747   1.13382
  45   36382.1    274.9   0.039225524   0.35494  -0.23707  -0.19661   0.50998
  46   36765.5    272.0   0.024049145   0.21535  -0.04964  -0.36993   0.27575
  47   37060.3    269.8   0.026051024   0.23142   0.41462   0.22174  -0.10165
  48   37359.1    267.7   0.162047128   1.42798  -0.64506   0.66413   0.75551
  49   37505.9    266.6   0.009778865   0.08584  -0.16137   0.01925  -0.24377
  50   37623.8    265.8   0.040647200   0.35567  -0.04037   0.59449   0.02491
  51   37923.4    263.7   0.028018635   0.24323   0.34617  -0.33397   0.10892
  52   38345.7    260.8   0.006744835   0.05791  -0.15639   0.14184   0.11546
  53   38625.9    258.9   0.023369851   0.19918  -0.11063  -0.36537   0.23119
  54   38714.8    258.3   0.083528100   0.71028   0.07055  -0.74721   0.38338
  55   39006.6    256.4   0.008031097   0.06778  -0.02002  -0.24001  -0.09887
  56   39068.0    256.0   0.226645330   1.90986  -1.10648   0.73295   0.38516
  57   39171.7    255.3   0.048391385   0.40670   0.27459  -0.53066  -0.22293
  58   39230.5    254.9   0.054253308   0.45528  -0.11977  -0.64108  -0.17306
  59   39804.2    251.2   0.045826965   0.37903   0.51438   0.06306  -0.33235
  60   39883.0    250.7   0.016447031   0.13576  -0.18618   0.31537  -0.04051
  61   39985.5    250.1   0.040033214   0.32960   0.24244   0.41532  -0.31359
  62   40101.4    249.4   0.065179921   0.53509   0.30669  -0.58766  -0.30934

FINAL SINGLE POINT ENERGY     -4002.214474078627

DIPOLE MOMENT
-------------
                                X             Y             Z
Electronic contribution:     -6.19220      -2.53554     -16.85687
Nuclear contribution   :      8.19798       0.07313      15.82209
                        -----------------------------------------
Total Dipole Moment    :      2.00577      -2.46241      -1.03477
                        -----------------------------------------
Magnitude (a.u.)       :      3.34026
Magnitude (Debye)      :      8.49027

Rotational constants in cm-1:     0.002420     0.000126     0.000123
Rotational constants in MHz :    72.536826     3.773552     3.682802

                             ****ORCA TERMINATED NORMALLY****
TOTAL RUN TIME: 0 days 0 hours 39 minutes 20 seconds 612 msec
