                         Program Version 4.2.0 -  RELEASE  -
|  1> # ORCA input file
|  2> # SCF done       -184.157485919210          0.000848780637
|  3> ! CAM-B3LYP def2-SVP def2/J RIJCOSX Grid4 TightSCF
|  4> %maxcore 5000
|  5> %tddft
|  6>     Mode sTDDFT
|  7>     Ethresh 5.0
|  8>     maxcore 5000
|  9> end
| 10>
| 11> %pal
| 12>   nprocs 6
| 13>   end
| 14> * xyz 0 1
| 15>    C        6.25662        -6.25893        -0.76977
| 16>    C        5.17583        -6.99194        -0.39444
| 17>    C        4.81634        -8.41322        -0.22332
| 18>    O        5.48210        -9.40771        -0.34527
| 19>    N        3.46674        -8.39194         0.11530
| 20>    C        2.69600        -9.58726         0.35363
| 21>    C        2.90703        -7.12192         0.15797
| 22>    O        1.73091        -6.90163         0.32020
| 23>    C        4.03099        -6.20534        -0.09948
| 24>    C        4.24946        -4.85600        -0.23704
| 25>    S        5.88838        -4.57557        -0.78115
| 26>    C        3.35752        -3.77088         0.02634
| 27>    C        2.34369        -3.88777         1.00070
| 28>    C        1.28351        -2.91512         1.12334
| 29>    N        0.21995        -3.20975         1.88834
| 30>    C        0.21136        -4.31740         2.58421
| 31>    C        1.38088        -5.14939         2.64402
| 32>    N        2.39434        -4.91796         1.85475
| 33>    C        1.45821        -6.22497         3.56304
| 34>    N        1.49658        -7.10276         4.29742
| 35>    C       -0.94233        -4.66079         3.33176
| 36>    N       -1.85519        -4.96436         3.95347
| 37>    C        1.30653        -1.71685         0.38205
| 38>    C        2.42294        -1.52837        -0.45850
| 39>    C        3.41796        -2.55262        -0.66473
| 40>    N        4.33137        -2.18236        -1.56618
| 41>    S        3.98896        -0.69891        -2.06403
| 42>    N        2.69156        -0.43413        -1.17315
| 43>    C        0.24369        -0.75639         0.26694
| 44>    N       -0.52271        -0.19802         1.24359
| 45>    C       -0.44974        -0.40216         2.67291
| 46>    C       -1.69675        -1.10987         3.19340
| 47>    C       -1.40274         0.77632         0.71650
| 48>    O       -2.13615         1.45359         1.40389
| 49>    C       -1.16493         0.74568        -0.71037
| 50>    C       -0.13903        -0.19277        -0.95168
| 51>    C        0.06006        -0.29131        -2.38412
| 52>    O        0.79172        -0.97500        -3.06859
| 53>    N       -0.85940         0.63092        -2.91718
| 54>    C       -0.92272         0.87663        -4.33755
| 55>    C       -0.15188         2.13458        -4.73023
| 56>    C       -1.58807         1.26681        -1.93893
| 57>    C       -2.55437         2.26149        -2.19749
| 58>    C       -3.18678         2.94927        -1.20263
| 59>    C       -4.11103         3.99661        -1.41610
| 60>    C       -4.63831         4.81073        -0.43135
| 61>    C       -5.47568         5.79343        -1.02856
| 62>    C       -5.46791         5.50622        -2.47740
| 63>    C       -4.64791         4.44673        -2.69476
| 64>    C       -6.16971         6.18684        -3.47906
| 65>    N       -6.72978         6.71484        -4.33177
| 66>    C       -6.12076         6.84208        -0.41453
| 67>    C       -6.90824         7.85670        -1.03727
| 68>    C       -7.31798         8.75533        -0.08189
| 69>    C       -6.80190         8.31852         1.20974
| 70>    C       -6.09094         7.17668         1.02172
| 71>    C       -5.44016         6.46160         2.03426
| 72>    N       -4.91448         5.89517         2.88387
| 73>    C       -8.09469         9.92514        -0.29897
| 74>    C       -8.50283        10.91240         0.57038
| 75>    C       -8.38205        11.25479         1.99791
| 76>    O       -7.82315        10.68577         2.90310
| 77>    N       -9.07123        12.45398         2.14005
| 78>    C       -9.18699        13.13889         3.40383
| 79>    C       -9.62519        12.94101         0.96145
| 80>    O      -10.24499        13.96754         0.86209
| 81>    C       -9.25985        11.93849        -0.05679
| 82>    C       -9.44095        11.75227        -1.39008
| 83>    S       -8.67991        10.30183        -1.91480
| 84>    H        7.23510        -6.59790        -1.04651
| 85>    H        3.33556       -10.44286         0.14520
| 86>    H        1.82233        -9.60012        -0.29864
| 87>    H        2.36138        -9.61608         1.39172
| 88>    H       -0.37479         0.58498         3.14102
| 89>    H        0.45011        -0.97446         2.89864
| 90>    H       -2.57181        -0.49176         3.01366
| 91>    H       -1.60355        -1.28017         4.26204
| 92>    H       -1.82679        -2.06669         2.69606
| 93>    H       -1.96775         0.94278        -4.65238
| 94>    H       -0.46788         0.00429        -4.81518
| 95>    H       -0.55804         3.01369        -4.23457
| 96>    H       -0.20830         2.28056        -5.80537
| 97>    H        0.89275         2.03126        -4.44713
| 98>    H       -2.76503         2.49548        -3.23080
| 99>    H       -2.95609         2.71796        -0.17091
|100>    H       -4.43074         4.73213         0.61779
|101>    H       -4.44137         4.00359        -3.65118
|102>    H       -7.13014         7.90919        -2.08537
|103>    H       -6.96708         8.83368         2.13730
|104>    H       -8.28415        12.95701         3.98511
|105>    H      -10.05084        12.77183         3.96169
|106>    H       -9.31094        14.20285         3.20906
|107>    H       -9.96712        12.36946        -2.09084
|108> *
|109>
|110>                          ****END OF INPUT****

CARTESIAN COORDINATES (ANGSTROEM)
---------------------------------
  C      6.256620   -6.258930   -0.769770
  C      5.175830   -6.991940   -0.394440
  C      4.816340   -8.413220   -0.223320
  O      5.482100   -9.407710   -0.345270
  N      3.466740   -8.391940    0.115300
  C      2.696000   -9.587260    0.353630
  C      2.907030   -7.121920    0.157970
  O      1.730910   -6.901630    0.320200
  C      4.030990   -6.205340   -0.099480
  C      4.249460   -4.856000   -0.237040
  S      5.888380   -4.575570   -0.781150
  C      3.357520   -3.770880    0.026340
  C      2.343690   -3.887770    1.000700
  C      1.283510   -2.915120    1.123340
  N      0.219950   -3.209750    1.888340
  C      0.211360   -4.317400    2.584210
  C      1.380880   -5.149390    2.644020
  N      2.394340   -4.917960    1.854750
  C      1.458210   -6.224970    3.563040
  N      1.496580   -7.102760    4.297420
  C     -0.942330   -4.660790    3.331760
  N     -1.855190   -4.964360    3.953470
  C      1.306530   -1.716850    0.382050
  C      2.422940   -1.528370   -0.458500
  C      3.417960   -2.552620   -0.664730
  N      4.331370   -2.182360   -1.566180
  S      3.988960   -0.698910   -2.064030
  N      2.691560   -0.434130   -1.173150
  C      0.243690   -0.756390    0.266940
  N     -0.522710   -0.198020    1.243590
  C     -0.449740   -0.402160    2.672910
  C     -1.696750   -1.109870    3.193400
  C     -1.402740    0.776320    0.716500
  O     -2.136150    1.453590    1.403890
  C     -1.164930    0.745680   -0.710370
  C     -0.139030   -0.192770   -0.951680
  C      0.060060   -0.291310   -2.384120
  O      0.791720   -0.975000   -3.068590
  N     -0.859400    0.630920   -2.917180
  C     -0.922720    0.876630   -4.337550
  C     -0.151880    2.134580   -4.730230
  C     -1.588070    1.266810   -1.938930
  C     -2.554370    2.261490   -2.197490
  C     -3.186780    2.949270   -1.202630
  C     -4.111030    3.996610   -1.416100
  C     -4.638310    4.810730   -0.431350
  C     -5.475680    5.793430   -1.028560
  C     -5.467910    5.506220   -2.477400
  C     -4.647910    4.446730   -2.694760
  C     -6.169710    6.186840   -3.479060
  N     -6.729780    6.714840   -4.331770
  C     -6.120760    6.842080   -0.414530
  C     -6.908240    7.856700   -1.037270
  C     -7.317980    8.755330   -0.081890
  C     -6.801900    8.318520    1.209740
  C     -6.090940    7.176680    1.021720
  C     -5.440160    6.461600    2.034260
  N     -4.914480    5.895170    2.883870
  C     -8.094690    9.925140   -0.298970
  C     -8.502830   10.912400    0.570380
  C     -8.382050   11.254790    1.997910
  O     -7.823150   10.685770    2.903100
  N     -9.071230   12.453980    2.140050
  C     -9.186990   13.138890    3.403830
  C     -9.625190   12.941010    0.961450
  O    -10.244990   13.967540    0.862090
  C     -9.259850   11.938490   -0.056790
  C     -9.440950   11.752270   -1.390080
  S     -8.679910   10.301830   -1.914800
  H      7.235100   -6.597900   -1.046510
  H      3.335560  -10.442860    0.145200
  H      1.822330   -9.600120   -0.298640
  H      2.361380   -9.616080    1.391720
  H     -0.374790    0.584980    3.141020
  H      0.450110   -0.974460    2.898640
  H     -2.571810   -0.491760    3.013660
  H     -1.603550   -1.280170    4.262040
  H     -1.826790   -2.066690    2.696060
  H     -1.967750    0.942780   -4.652380
  H     -0.467880    0.004290   -4.815180
  H     -0.558040    3.013690   -4.234570
  H     -0.208300    2.280560   -5.805370
  H      0.892750    2.031260   -4.447130
  H     -2.765030    2.495480   -3.230800
  H     -2.956090    2.717960   -0.170910
  H     -4.430740    4.732130    0.617790
  H     -4.441370    4.003590   -3.651180
  H     -7.130140    7.909190   -2.085370
  H     -6.967080    8.833680    2.137300
  H     -8.284150   12.957010    3.985110
  H    -10.050840   12.771830    3.961690
  H     -9.310940   14.202850    3.209060
  H     -9.967120   12.369460   -2.090840

 Total Charge           Charge          ....    0
 Multiplicity           Mult            ....    1
 Number of Electrons    NEL             ....  492
 Basis Dimension        Dim             .... 1098

ORBITAL ENERGIES
----------------

  NO   OCC          E(Eh)            E(eV)
   0   2.0000     -89.052461     -2423.2407
   1   2.0000     -88.988896     -2421.5110
   2   2.0000     -88.982419     -2421.3347
   3   2.0000     -19.223581      -523.1002
   4   2.0000     -19.216722      -522.9136
   5   2.0000     -19.213130      -522.8158
   6   2.0000     -19.209979      -522.7301
   7   2.0000     -19.202213      -522.5188
   8   2.0000     -19.201544      -522.5006
   9   2.0000     -14.466197      -393.6452
  10   2.0000     -14.465449      -393.6249
  11   2.0000     -14.465020      -393.6132
  12   2.0000     -14.464327      -393.5944
  13   2.0000     -14.462905      -393.5557
  14   2.0000     -14.458005      -393.4223
  15   2.0000     -14.457669      -393.4132
  16   2.0000     -14.456944      -393.3935
  17   2.0000     -14.432323      -392.7235
  18   2.0000     -14.429305      -392.6413
  19   2.0000     -14.418111      -392.3367
  20   2.0000     -14.408148      -392.0656
  21   2.0000     -10.407128      -283.1923
  22   2.0000     -10.400874      -283.0222
  23   2.0000     -10.396481      -282.9026
  24   2.0000     -10.394300      -282.8433
  25   2.0000     -10.385692      -282.6090
  26   2.0000     -10.385457      -282.6027
  27   2.0000     -10.382929      -282.5338
  28   2.0000     -10.381410      -282.4925
  29   2.0000     -10.358775      -281.8766
  30   2.0000     -10.355306      -281.7822
  31   2.0000     -10.354419      -281.7581
  32   2.0000     -10.354095      -281.7493
  33   2.0000     -10.350612      -281.6545
  34   2.0000     -10.350029      -281.6386
  35   2.0000     -10.344285      -281.4823
  36   2.0000     -10.337274      -281.2915
  37   2.0000     -10.333790      -281.1967
  38   2.0000     -10.332068      -281.1499
  39   2.0000     -10.331154      -281.1250
  40   2.0000     -10.330868      -281.1172
  41   2.0000     -10.330822      -281.1160
  42   2.0000     -10.325934      -280.9830
  43   2.0000     -10.325612      -280.9742
  44   2.0000     -10.325179      -280.9624
  45   2.0000     -10.322926      -280.9011
  46   2.0000     -10.320068      -280.8233
  47   2.0000     -10.319996      -280.8214
  48   2.0000     -10.318622      -280.7840
  49   2.0000     -10.318300      -280.7752
  50   2.0000     -10.317878      -280.7637
  51   2.0000     -10.309847      -280.5452
  52   2.0000     -10.309559      -280.5374
  53   2.0000     -10.309230      -280.5284
  54   2.0000     -10.308771      -280.5159
  55   2.0000     -10.308112      -280.4980
  56   2.0000     -10.307830      -280.4903
  57   2.0000     -10.307570      -280.4832
  58   2.0000     -10.306985      -280.4673
  59   2.0000     -10.303723      -280.3785
  60   2.0000     -10.301064      -280.3062
  61   2.0000     -10.300755      -280.2978
  62   2.0000     -10.296061      -280.1701
  63   2.0000     -10.295917      -280.1661
  64   2.0000     -10.295187      -280.1463
  65   2.0000     -10.276185      -279.6292
  66   2.0000     -10.275744      -279.6172
  67   2.0000     -10.273465      -279.5552
  68   2.0000     -10.247155      -278.8393
  69   2.0000      -8.143391      -221.5929
  70   2.0000      -8.084115      -219.9800
  71   2.0000      -8.077419      -219.7977
  72   2.0000      -6.114281      -166.3781
  73   2.0000      -6.106651      -166.1704
  74   2.0000      -6.106462      -166.1653
  75   2.0000      -6.053515      -164.7245
  76   2.0000      -6.048901      -164.5990
  77   2.0000      -6.046813      -164.5421
  78   2.0000      -6.046466      -164.5327
  79   2.0000      -6.042132      -164.4148
  80   2.0000      -6.039791      -164.3511
  81   2.0000      -1.167719       -31.7753
  82   2.0000      -1.158899       -31.5352
  83   2.0000      -1.150481       -31.3062
  84   2.0000      -1.143932       -31.1280
  85   2.0000      -1.143472       -31.1155
  86   2.0000      -1.138025       -30.9672
  87   2.0000      -1.135591       -30.9010
  88   2.0000      -1.124804       -30.6075
  89   2.0000      -1.075721       -29.2719
  90   2.0000      -1.067458       -29.0470
  91   2.0000      -1.058469       -28.8024
  92   2.0000      -1.051073       -28.6011
  93   2.0000      -1.049844       -28.5677
  94   2.0000      -1.025194       -27.8970
  95   2.0000      -1.016768       -27.6677
  96   2.0000      -1.013948       -27.5909
  97   2.0000      -1.011061       -27.5124
  98   2.0000      -1.003943       -27.3187
  99   2.0000      -1.002482       -27.2789
 100   2.0000      -0.998767       -27.1778
 101   2.0000      -0.992438       -27.0056
 102   2.0000      -0.983403       -26.7597
 103   2.0000      -0.981305       -26.7027
 104   2.0000      -0.938833       -25.5469
 105   2.0000      -0.924552       -25.1583
 106   2.0000      -0.912655       -24.8346
 107   2.0000      -0.911385       -24.8000
 108   2.0000      -0.902788       -24.5661
 109   2.0000      -0.890740       -24.2383
 110   2.0000      -0.890149       -24.2222
 111   2.0000      -0.879995       -23.9459
 112   2.0000      -0.866471       -23.5779
 113   2.0000      -0.858813       -23.3695
 114   2.0000      -0.854472       -23.2514
 115   2.0000      -0.838513       -22.8171
 116   2.0000      -0.833405       -22.6781
 117   2.0000      -0.825237       -22.4558
 118   2.0000      -0.821623       -22.3575
 119   2.0000      -0.807481       -21.9727
 120   2.0000      -0.806054       -21.9338
 121   2.0000      -0.798869       -21.7383
 122   2.0000      -0.790463       -21.5096
 123   2.0000      -0.774143       -21.0655
 124   2.0000      -0.764981       -20.8162
 125   2.0000      -0.757864       -20.6225
 126   2.0000      -0.751785       -20.4571
 127   2.0000      -0.743703       -20.2372
 128   2.0000      -0.734319       -19.9818
 129   2.0000      -0.724124       -19.7044
 130   2.0000      -0.721456       -19.6318
 131   2.0000      -0.716521       -19.4975
 132   2.0000      -0.714240       -19.4355
 133   2.0000      -0.707929       -19.2637
 134   2.0000      -0.697554       -18.9814
 135   2.0000      -0.691416       -18.8144
 136   2.0000      -0.687025       -18.6949
 137   2.0000      -0.685949       -18.6656
 138   2.0000      -0.678250       -18.4561
 139   2.0000      -0.677391       -18.4328
 140   2.0000      -0.670049       -18.2329
 141   2.0000      -0.660281       -17.9672
 142   2.0000      -0.657864       -17.9014
 143   2.0000      -0.648766       -17.6538
 144   2.0000      -0.647634       -17.6230
 145   2.0000      -0.634289       -17.2599
 146   2.0000      -0.627392       -17.0722
 147   2.0000      -0.622896       -16.9499
 148   2.0000      -0.608885       -16.5686
 149   2.0000      -0.604970       -16.4621
 150   2.0000      -0.598086       -16.2748
 151   2.0000      -0.590636       -16.0720
 152   2.0000      -0.586957       -15.9719
 153   2.0000      -0.584269       -15.8988
 154   2.0000      -0.580769       -15.8035
 155   2.0000      -0.577877       -15.7248
 156   2.0000      -0.576089       -15.6762
 157   2.0000      -0.573458       -15.6046
 158   2.0000      -0.567715       -15.4483
 159   2.0000      -0.566008       -15.4019
 160   2.0000      -0.565121       -15.3777
 161   2.0000      -0.563614       -15.3367
 162   2.0000      -0.560235       -15.2448
 163   2.0000      -0.553889       -15.0721
 164   2.0000      -0.547851       -14.9078
 165   2.0000      -0.543454       -14.7881
 166   2.0000      -0.542500       -14.7622
 167   2.0000      -0.537679       -14.6310
 168   2.0000      -0.531937       -14.4748
 169   2.0000      -0.531291       -14.4572
 170   2.0000      -0.529564       -14.4102
 171   2.0000      -0.529413       -14.4061
 172   2.0000      -0.525347       -14.2954
 173   2.0000      -0.521737       -14.1972
 174   2.0000      -0.520702       -14.1690
 175   2.0000      -0.519140       -14.1265
 176   2.0000      -0.518493       -14.1089
 177   2.0000      -0.514752       -14.0071
 178   2.0000      -0.512945       -13.9579
 179   2.0000      -0.512185       -13.9373
 180   2.0000      -0.509703       -13.8697
 181   2.0000      -0.506742       -13.7892
 182   2.0000      -0.505833       -13.7644
 183   2.0000      -0.497229       -13.5303
 184   2.0000      -0.495060       -13.4713
 185   2.0000      -0.494989       -13.4693
 186   2.0000      -0.490331       -13.3426
 187   2.0000      -0.489763       -13.3271
 188   2.0000      -0.489091       -13.3088
 189   2.0000      -0.487867       -13.2755
 190   2.0000      -0.483498       -13.1566
 191   2.0000      -0.481898       -13.1131
 192   2.0000      -0.480025       -13.0621
 193   2.0000      -0.478610       -13.0236
 194   2.0000      -0.475331       -12.9344
 195   2.0000      -0.473823       -12.8934
 196   2.0000      -0.473174       -12.8757
 197   2.0000      -0.471138       -12.8203
 198   2.0000      -0.468999       -12.7621
 199   2.0000      -0.466897       -12.7049
 200   2.0000      -0.463217       -12.6048
 201   2.0000      -0.459012       -12.4904
 202   2.0000      -0.457316       -12.4442
 203   2.0000      -0.455306       -12.3895
 204   2.0000      -0.454748       -12.3743
 205   2.0000      -0.453683       -12.3453
 206   2.0000      -0.449897       -12.2423
 207   2.0000      -0.449039       -12.2190
 208   2.0000      -0.446474       -12.1492
 209   2.0000      -0.444598       -12.0981
 210   2.0000      -0.442552       -12.0425
 211   2.0000      -0.440255       -11.9799
 212   2.0000      -0.436983       -11.8909
 213   2.0000      -0.436632       -11.8814
 214   2.0000      -0.435031       -11.8378
 215   2.0000      -0.431397       -11.7389
 216   2.0000      -0.425749       -11.5852
 217   2.0000      -0.423477       -11.5234
 218   2.0000      -0.421661       -11.4740
 219   2.0000      -0.419588       -11.4176
 220   2.0000      -0.414472       -11.2784
 221   2.0000      -0.411521       -11.1981
 222   2.0000      -0.406608       -11.0644
 223   2.0000      -0.401995       -10.9388
 224   2.0000      -0.391493       -10.6531
 225   2.0000      -0.386220       -10.5096
 226   2.0000      -0.373615       -10.1666
 227   2.0000      -0.366777        -9.9805
 228   2.0000      -0.363993        -9.9048
 229   2.0000      -0.362640        -9.8679
 230   2.0000      -0.360917        -9.8210
 231   2.0000      -0.358222        -9.7477
 232   2.0000      -0.354624        -9.6498
 233   2.0000      -0.353811        -9.6277
 234   2.0000      -0.350243        -9.5306
 235   2.0000      -0.348344        -9.4789
 236   2.0000      -0.345240        -9.3945
 237   2.0000      -0.341690        -9.2979
 238   2.0000      -0.341247        -9.2858
 239   2.0000      -0.330712        -8.9991
 240   2.0000      -0.330640        -8.9972
 241   2.0000      -0.324407        -8.8276
 242   2.0000      -0.311542        -8.4775
 243   2.0000      -0.299831        -8.1588
 244   2.0000      -0.292374        -7.9559
 245   2.0000      -0.245968        -6.6931
 246   0.0000      -0.139775        -3.8035
 247   0.0000      -0.122938        -3.3453
 248   0.0000      -0.070636        -1.9221
 249   0.0000      -0.053534        -1.4567
 250   0.0000      -0.040209        -1.0941

MULLIKEN ATOMIC CHARGES
-----------------------
   0 C :   -0.119631
   1 C :   -0.006853
   2 C :    0.200607
   3 O :   -0.148486
   4 N :   -0.310679
   5 C :    0.137771
   6 C :    0.196114
   7 O :   -0.179933
   8 C :    0.074551
   9 C :   -0.264905
  10 S :    0.205374
  11 C :    0.113758
  12 C :   -0.078056
  13 C :   -0.033857
  14 N :    0.046701
  15 C :   -0.111877
  16 C :   -0.110234
  17 N :    0.055811
  18 C :   -0.209462
  19 N :    0.233833
  20 C :   -0.212060
  21 N :    0.236482
  22 C :    0.075257
  23 C :   -0.021093
  24 C :    0.009167
  25 N :   -0.286024
  26 S :    0.569858
  27 N :   -0.242600
  28 C :    0.046573
  29 N :   -0.240565
  30 C :    0.147975
  31 C :   -0.017271
  32 C :    0.169153
  33 O :   -0.192717
  34 C :   -0.076055
  35 C :   -0.027876
  36 C :    0.134311
  37 O :   -0.198026
  38 N :   -0.260345
  39 C :    0.099391
  40 C :    0.001830
  41 C :    0.154017
  42 C :   -0.030537
  43 C :    0.022022
  44 C :    0.099867
  45 C :   -0.090996
  46 C :    0.112847
  47 C :   -0.096547
  48 C :   -0.006320
  49 C :   -0.173458
  50 N :    0.134762
  51 C :    0.117757
  52 C :   -0.138557
  53 C :    0.101817
  54 C :   -0.003522
  55 C :   -0.094095
  56 C :   -0.180636
  57 N :    0.147139
  58 C :   -0.145561
  59 C :    0.006425
  60 C :    0.203885
  61 O :   -0.165813
  62 N :   -0.312293
  63 C :    0.134514
  64 C :    0.195420
  65 O :   -0.146932
  66 C :    0.006183
  67 C :   -0.111227
  68 S :    0.173412
  69 H :    0.043670
  70 H :    0.051903
  71 H :    0.039729
  72 H :    0.045999
  73 H :    0.029232
  74 H :    0.010309
  75 H :    0.038886
  76 H :    0.019652
  77 H :    0.031049
  78 H :    0.024738
  79 H :    0.045250
  80 H :    0.016467
  81 H :    0.028031
  82 H :    0.027060
  83 H :   -0.030598
  84 H :    0.020771
  85 H :    0.020709
  86 H :   -0.000403
  87 H :    0.010121
  88 H :    0.016606
  89 H :    0.048874
  90 H :    0.042485
  91 H :    0.051309
  92 H :    0.048665
Sum of atomic charges:   -0.0000000

LOEWDIN ATOMIC CHARGES
----------------------
   0 C :   -0.134966
   1 C :   -0.096786
   2 C :    0.088194
   3 O :   -0.154227
   4 N :   -0.035697
   5 C :    0.036889
   6 C :    0.091020
   7 O :   -0.171830
   8 C :   -0.074007
   9 C :   -0.139960
  10 S :    0.498629
  11 C :   -0.031005
  12 C :    0.002649
  13 C :   -0.003027
  14 N :   -0.000890
  15 C :   -0.016788
  16 C :   -0.020108
  17 N :    0.019319
  18 C :   -0.033516
  19 N :   -0.007579
  20 C :   -0.036104
  21 N :   -0.000139
  22 C :   -0.031780
  23 C :   -0.030816
  24 C :   -0.043493
  25 N :   -0.300201
  26 S :    0.707978
  27 N :   -0.257467
  28 C :    0.079933
  29 N :    0.016711
  30 C :    0.042354
  31 C :   -0.062319
  32 C :    0.083845
  33 O :   -0.182821
  34 C :   -0.116683
  35 C :   -0.099889
  36 C :    0.082421
  37 O :   -0.199861
  38 N :   -0.000675
  39 C :    0.036432
  40 C :   -0.061158
  41 C :    0.083992
  42 C :   -0.043177
  43 C :    0.043377
  44 C :   -0.023062
  45 C :    0.001089
  46 C :    0.032684
  47 C :   -0.077200
  48 C :    0.051862
  49 C :   -0.030881
  50 N :   -0.061557
  51 C :    0.043814
  52 C :   -0.028218
  53 C :   -0.028796
  54 C :    0.064268
  55 C :   -0.083109
  56 C :   -0.031163
  57 N :   -0.054976
  58 C :   -0.133110
  59 C :   -0.087772
  60 C :    0.093756
  61 O :   -0.158787
  62 N :   -0.037205
  63 C :    0.037567
  64 C :    0.086915
  65 O :   -0.152777
  66 C :   -0.095779
  67 C :   -0.129645
  68 S :    0.484774
  69 H :    0.036989
  70 H :    0.037688
  71 H :    0.033441
  72 H :    0.035273
  73 H :    0.032170
  74 H :    0.020991
  75 H :    0.030713
  76 H :    0.029836
  77 H :    0.021236
  78 H :    0.023231
  79 H :    0.038620
  80 H :    0.022035
  81 H :    0.032128
  82 H :    0.031429
  83 H :    0.027349
  84 H :    0.044673
  85 H :    0.042443
  86 H :    0.034824
  87 H :    0.030136
  88 H :    0.038446
  89 H :    0.037035
  90 H :    0.032443
  91 H :    0.037899
  92 H :    0.039505

  Mayer bond orders larger than 0.100000
B(  0-C ,  1-C ) :   1.5587 B(  0-C , 10-S ) :   1.1754 B(  0-C , 69-H ) :   0.9699
B(  1-C ,  2-C ) :   0.8832 B(  1-C ,  8-C ) :   1.2596 B(  2-C ,  3-O ) :   2.2390
B(  2-C ,  4-N ) :   1.0566 B(  4-N ,  5-C ) :   0.9395 B(  4-N ,  6-C ) :   1.0848
B(  5-C , 70-H ) :   0.9608 B(  5-C , 71-H ) :   0.9712 B(  5-C , 72-H ) :   0.9779
B(  6-C ,  7-O ) :   2.1575 B(  6-C ,  8-C ) :   0.8899 B(  8-C ,  9-C ) :   1.5166
B(  9-C , 10-S ) :   1.1692 B(  9-C , 11-C ) :   1.1250 B( 11-C , 12-C ) :   1.2917
B( 11-C , 22-C ) :   0.1307 B( 11-C , 24-C ) :   1.2241 B( 12-C , 13-C ) :   1.0964
B( 12-C , 17-N ) :   1.4335 B( 13-C , 14-N ) :   1.4418 B( 13-C , 22-C ) :   1.2775
B( 14-N , 15-C ) :   1.7310 B( 15-C , 16-C ) :   1.1803 B( 15-C , 20-C ) :   1.1528
B( 16-C , 17-N ) :   1.7139 B( 16-C , 18-C ) :   1.1574 B( 18-C , 19-N ) :   3.0491
B( 20-C , 21-N ) :   3.0333 B( 22-C , 23-C ) :   1.2693 B( 22-C , 28-C ) :   1.0013
B( 23-C , 24-C ) :   1.1003 B( 23-C , 27-N ) :   1.5119 B( 24-C , 25-N ) :   1.5006
B( 25-N , 26-S ) :   1.2895 B( 25-N , 27-N ) :   0.1494 B( 26-S , 27-N ) :   1.3141
B( 28-C , 29-N ) :   1.2539 B( 28-C , 35-C ) :   1.3997 B( 29-N , 30-C ) :   0.9314
B( 29-N , 32-C ) :   1.0384 B( 30-C , 31-C ) :   1.1096 B( 30-C , 73-H ) :   0.9373
B( 30-C , 74-H ) :   0.9468 B( 31-C , 75-H ) :   0.9608 B( 31-C , 76-H ) :   0.9661
B( 31-C , 77-H ) :   0.9622 B( 32-C , 33-O ) :   2.0307 B( 32-C , 34-C ) :   0.9898
B( 33-O , 84-H ) :   0.1073 B( 34-C , 35-C ) :   1.2628 B( 34-C , 41-C ) :   1.3170
B( 35-C , 36-C ) :   0.9574 B( 36-C , 37-O ) :   2.1303 B( 36-C , 38-N ) :   1.0432
B( 38-N , 39-C ) :   0.9454 B( 38-N , 41-C ) :   1.1639 B( 39-C , 40-C ) :   1.1193
B( 39-C , 78-H ) :   0.9501 B( 39-C , 79-H ) :   0.9271 B( 40-C , 80-H ) :   0.9686
B( 40-C , 81-H ) :   0.9683 B( 40-C , 82-H ) :   0.9636 B( 41-C , 42-C ) :   1.1706
B( 42-C , 43-C ) :   1.5432 B( 42-C , 83-H ) :   0.9634 B( 43-C , 44-C ) :   1.1302
B( 43-C , 84-H ) :   0.9595 B( 44-C , 45-C ) :   1.4998 B( 44-C , 48-C ) :   1.0358
B( 45-C , 46-C ) :   1.1137 B( 45-C , 85-H ) :   1.0112 B( 46-C , 47-C ) :   1.0998
B( 46-C , 51-C ) :   1.4084 B( 47-C , 48-C ) :   1.6903 B( 47-C , 49-C ) :   1.0905
B( 48-C , 86-H ) :   1.0143 B( 49-C , 50-N ) :   2.9635 B( 51-C , 52-C ) :   1.1226
B( 51-C , 55-C ) :   1.1069 B( 52-C , 53-C ) :   1.5507 B( 52-C , 87-H ) :   0.9936
B( 53-C , 54-C ) :   1.0661 B( 53-C , 58-C ) :   1.1127 B( 54-C , 55-C ) :   1.6566
B( 54-C , 88-H ) :   1.0027 B( 55-C , 56-C ) :   1.0913 B( 56-C , 57-N ) :   2.9722
B( 58-C , 59-C ) :   1.5202 B( 58-C , 68-S ) :   1.1557 B( 59-C , 60-C ) :   0.8945
B( 59-C , 66-C ) :   1.2434 B( 60-C , 61-O ) :   2.1287 B( 60-C , 62-N ) :   1.0907
B( 62-N , 63-C ) :   0.9371 B( 62-N , 64-C ) :   1.0560 B( 63-C , 89-H ) :   0.9665
B( 63-C , 90-H ) :   0.9819 B( 63-C , 91-H ) :   0.9646 B( 64-C , 65-O ) :   2.2468
B( 64-C , 66-C ) :   0.8816 B( 66-C , 67-C ) :   1.5738 B( 67-C , 68-S ) :   1.1735
B( 67-C , 92-H ) :   0.9699

-----------------------------------------------------------------------------
         ABSORPTION SPECTRUM VIA TRANSITION ELECTRIC DIPOLE MOMENTS
-----------------------------------------------------------------------------
State   Energy  Wavelength   fosc         T2         TX        TY        TZ
        (cm-1)    (nm)                  (au**2)     (au)      (au)      (au)
-----------------------------------------------------------------------------
   0    8451.8   1183.2   0.626912813  24.41946  -3.06852   3.82782  -0.59286
   1   12106.8    826.0   0.098767927   2.68573  -0.84721   1.32725   0.45429
   2   16371.4    610.8   0.095748154   1.92540   0.58521  -1.04735  -0.69713
   3   19444.3    514.3   0.067210091   1.13794   0.67845  -0.70197   0.42998
   4   19702.3    507.6   0.191789133   3.20467  -1.06914   1.22477   0.74935
   5   21928.1    456.0   0.224741318   3.37409   0.88518  -1.16113   1.11459
   6   22592.0    442.6   0.002005966   0.02923  -0.01735  -0.02262   0.16858
   7   24663.2    405.5   0.069124904   0.92270   0.34036  -0.89729  -0.04150
   8   24912.9    401.4   0.561416270   7.41884   1.57740  -2.05474  -0.84184
   9   25333.7    394.7   0.035046190   0.45543   0.14668  -0.60060  -0.27054
  10   25618.6    390.3   0.023076050   0.29654   0.46781  -0.27057   0.06694
  11   25820.3    387.3   0.015999522   0.20400  -0.22259   0.39285   0.01091
  12   26325.2    379.9   0.230626296   2.88411  -0.73242   1.30217   0.80747
  13   26923.1    371.4   0.009188627   0.11236  -0.13844  -0.08334   0.29368
  14   27283.0    366.5   0.009815937   0.11844   0.27291   0.05653  -0.20191
  15   27419.5    364.7   0.008795075   0.10560   0.23860   0.11599  -0.18765
  16   27645.8    361.7   0.010925876   0.13011  -0.03379  -0.17994   0.31078
  17   28052.5    356.5   0.001890223   0.02218  -0.02687   0.09135   0.11453
  18   29073.0    344.0   0.021953806   0.24860   0.04456  -0.25149  -0.42821
  19   29192.2    342.6   0.046216462   0.52120  -0.53238   0.32163   0.36651
  20   29590.3    337.9   0.161394661   1.79562   0.79215   0.54917  -0.93088
  21   30305.4    330.0   0.136187559   1.47942   0.60169   0.62939  -0.84927
  22   30658.3    326.2   0.000502269   0.00539   0.02998  -0.02535   0.06206
  23   31061.2    321.9   0.116125505   1.23079  -0.15665   1.07619  -0.21925
  24   31145.8    321.1   0.000241070   0.00255   0.04133   0.02857   0.00486
  25   31540.9    317.0   0.001627776   0.01699  -0.07824   0.02729   0.10062
  26   31819.3    314.3   0.022161914   0.22929  -0.36974   0.00414   0.30425
  27   32297.7    309.6   0.004476072   0.04562   0.16729  -0.12270  -0.05083
  28   33353.4    299.8   0.304781911   3.00832   1.13094  -1.28769  -0.26674
  29   33803.9    295.8   0.128625451   1.25267  -0.34597   1.06348   0.04451
  30   33927.4    294.7   0.182689062   1.77271   0.29417  -1.20952   0.47248
  31   34127.9    293.0   0.014348869   0.13842  -0.20189   0.31102  -0.03032
  32   34229.2    292.1   0.014687492   0.14126   0.14189  -0.13325  -0.32152
  33   34277.4    291.7   0.011326949   0.10879  -0.03672   0.32109  -0.06588
  34   34508.6    289.8   0.020069008   0.19146  -0.32366   0.02824   0.29310
  35   34660.4    288.5   0.010757874   0.10218  -0.15482   0.08783  -0.26551
  36   35340.7    283.0   0.000572241   0.00533   0.05292  -0.04968   0.00790
  37   35343.5    282.9   0.015836283   0.14751  -0.20954   0.18704   0.26195
  38   35450.4    282.1   0.202174784   1.87751   0.82081  -0.44971  -1.00077
  39   35749.1    279.7   0.159731014   1.47096   0.64834   0.79725  -0.64422
  40   36459.1    274.3   0.001070772   0.00967   0.05647  -0.03481  -0.07258
  41   36698.6    272.5   0.077100023   0.69164  -0.55264   0.54885   0.29154
  42   36888.5    271.1   0.037861956   0.33790   0.20864   0.11314  -0.53063
  43   36969.1    270.5   0.024142630   0.21499  -0.19849   0.24965   0.33655
  44   37092.7    269.6   0.130043983   1.15419  -0.30860   1.02634   0.07466
  45   37417.5    267.3   0.174612582   1.53630  -0.59535   0.97085   0.48920
  46   37792.6    264.6   0.184275247   1.60522  -0.73662  -0.30559   0.98449
  47   38202.8    261.8   0.231956066   1.99888  -0.73868  -0.66891   1.00290
  48   38257.3    261.4   0.039604712   0.34081  -0.23098   0.51332  -0.15478
  49   38592.2    259.1   0.076730577   0.65455  -0.03472   0.51329  -0.62440
  50   38678.9    258.5   0.025037201   0.21310  -0.22735   0.01210   0.40158
  51   38771.5    257.9   0.018634842   0.15823   0.33633  -0.11238  -0.18022
  52   39587.0    252.6   0.000813931   0.00677  -0.06050  -0.05503   0.00896
  53   39659.3    252.1   0.093459720   0.77581   0.69688  -0.41638   0.34176
  54   39774.3    251.4   0.012602792   0.10431   0.09917  -0.22302  -0.21152
  55   40171.0    248.9   0.030850936   0.25283  -0.26306  -0.41086   0.12177
  56   40243.8    248.5   0.012201046   0.09981  -0.18154   0.16734   0.19710
  57   40293.1    248.2   0.030643006   0.25037   0.18217  -0.05664  -0.46257

FINAL SINGLE POINT ENERGY     -4142.426364321554

DIPOLE MOMENT
-------------
                                X             Y             Z
Electronic contribution:     21.72183     -16.21907       0.81021
Nuclear contribution   :    -20.43869      18.55107      -3.56064
                        -----------------------------------------
Total Dipole Moment    :      1.28314       2.33200      -2.75044
                        -----------------------------------------
Magnitude (a.u.)       :      3.82748
Magnitude (Debye)      :      9.72867

Rotational constants in cm-1:     0.002785     0.000267     0.000255
Rotational constants in MHz :    83.505854     8.018700     7.630662

                             ****ORCA TERMINATED NORMALLY****
TOTAL RUN TIME: 0 days 0 hours 9 minutes 38 seconds 931 msec
