                         Program Version 4.2.0 -  RELEASE  -
|  1> # ORCA input file
|  2> # SCF done       -182.849786512645          0.000171443113
|  3> ! CAM-B3LYP def2-SVP def2/J RIJCOSX Grid4 TightSCF
|  4> %maxcore 5000
|  5> %tddft
|  6>     Mode sTDDFT
|  7>     Ethresh 5.0
|  8>     maxcore 5000
|  9> end
| 10>
| 11> %pal
| 12>   nprocs 6
| 13>   end
| 14> * xyz 0 1
| 15>    C        7.08500         1.03022         7.32013
| 16>    C        5.95961         1.40112         8.20959
| 17>    N        7.96030         0.17758         7.71345
| 18>    N        8.95285        -0.26226         6.90020
| 19>    C        8.84381        -0.13558         5.41607
| 20>    C        8.25932         1.19869         5.12613
| 21>    C        7.27038         1.68739         6.04522
| 22>    N        6.85807         2.84504         5.59588
| 23>    O        7.53963         3.07605         4.47156
| 24>    N        8.39821         2.08241         4.18333
| 25>    C        7.82421        -1.21442         5.00272
| 26>    C       10.18925        -0.46098         4.84568
| 27>    C       11.34170        -0.57241         5.69547
| 28>    N       11.35507        -0.25240         6.96735
| 29>    O       10.15090         0.25747         7.46995
| 30>    O       12.27363        -0.24993         7.75388
| 31>    C       12.45166        -1.03855         4.90554
| 32>    C       11.98893        -1.21604         3.65046
| 33>    C       10.57127        -0.87353         3.59166
| 34>    C        9.81423        -0.94195         2.37074
| 35>    C        8.99149         0.04312         1.85500
| 36>    C        8.53877        -0.34258         0.57857
| 37>    C        9.06566        -1.58659         0.27834
| 38>    N        8.82131        -2.26799        -0.91374
| 39>    O        8.06815        -1.75258        -1.72099
| 40>    O        9.37274        -3.35361        -1.11527
| 41>    C        9.86634        -2.02520         1.40693
| 42>    C       10.39965        -3.28833         1.49209
| 43>    C       11.04535        -3.93901         2.54182
| 44>    C       11.56959        -5.20252         2.38164
| 45>    S       12.35797        -6.01176         3.72519
| 46>    C       12.76574        -7.45906         2.79887
| 47>    C       12.28091        -7.29680         1.46791
| 48>    C       11.62994        -6.06074         1.25016
| 49>    N       11.21800        -6.01732        -0.04019
| 50>    C       11.58229        -7.18868        -0.64854
| 51>    C       11.29996        -7.46207        -1.99595
| 52>    N       11.08490        -7.71342        -3.09351
| 53>    C       12.24395        -8.00604         0.25632
| 54>    C       13.44524        -8.47488         3.41665
| 55>    C       13.85503        -9.66709         2.80721
| 56>    C       14.53947       -10.67503         3.44482
| 57>    C       14.98290       -11.88691         2.82455
| 58>    C       15.63748       -12.65982         3.74656
| 59>    C       15.60964       -11.91596         5.02401
| 60>    C       14.95583       -10.73909         4.82894
| 61>    C       16.14665       -12.32813         6.24789
| 62>    N       16.57119       -12.63354         7.27130
| 63>    C       16.25143       -13.93154         3.55684
| 64>    C       16.93869       -14.68052         4.47038
| 65>    C       17.40732       -15.89360         3.84439
| 66>    C       16.95001       -15.84434         2.46824
| 67>    C       16.26331       -14.68673         2.28706
| 68>    C       15.66998       -14.30172         1.07811
| 69>    N       15.19638       -14.01884         0.07049
| 70>    C       18.12861       -16.85722         4.46458
| 71>    C       18.61169       -18.07049         3.83440
| 72>    C       18.40113       -19.42809         4.48284
| 73>    C       17.68088       -19.53260         5.80369
| 74>    N       19.71369       -18.77199         4.47625
| 75>    N       20.75808       -19.19330         3.72176
| 76>    C       20.71984       -20.24201         2.98876
| 77>    C       19.48745       -20.99716         2.86760
| 78>    C       18.32117       -20.58172         3.59566
| 79>    N       17.36866       -21.43401         3.34720
| 80>    O       17.89129       -22.33796         2.49683
| 81>    N       19.17359       -22.07933         2.20917
| 82>    C       21.93953       -20.69150         2.27164
| 83>    H        6.09638         0.94591         9.18533
| 84>    H        5.01780         1.06508         7.77696
| 85>    H        5.91283         2.48491         8.29602
| 86>    H        6.85867        -1.04178         5.47282
| 87>    H        8.19193        -2.18947         5.31078
| 88>    H        7.70375        -1.20019         3.92305
| 89>    H       13.44327        -1.18157         5.28528
| 90>    H       12.55472        -1.52231         2.79146
| 91>    H        8.78183         0.98190         2.33100
| 92>    H        7.90325         0.23292        -0.06775
| 93>    H       10.25756        -3.87461         0.59957
| 94>    H       11.14425        -3.46753         3.50787
| 95>    H       10.71752        -5.27889        -0.51879
| 96>    H       12.63182        -8.97835         0.03199
| 97>    H       13.68619        -8.32972         4.46059
| 98>    H       13.62870        -9.81150         1.76126
| 99>    H       14.81992       -12.12487         1.79176
|100>    H       14.77742        -9.99008         5.57693
|101>    H       17.12662       -14.43109         5.49587
|102>    H       17.11864       -16.59812         1.72247
|103>    H       18.37507       -16.73248         5.50913
|104>    H       18.61172       -18.07384         2.74513
|105>    H       18.10638       -18.83444         6.51794
|106>    H       17.78193       -20.54183         6.19710
|107>    H       16.62234       -19.31927         5.67137
|108>    H       22.75151       -19.99483         2.45495
|109>    H       21.73405       -20.75824         1.20473
|110>    H       22.21935       -21.68644         2.61417
|111> *
|112>
|113>                          ****END OF INPUT****

CARTESIAN COORDINATES (ANGSTROEM)
---------------------------------
  C      7.085000    1.030220    7.320130
  C      5.959610    1.401120    8.209590
  N      7.960300    0.177580    7.713450
  N      8.952850   -0.262260    6.900200
  C      8.843810   -0.135580    5.416070
  C      8.259320    1.198690    5.126130
  C      7.270380    1.687390    6.045220
  N      6.858070    2.845040    5.595880
  O      7.539630    3.076050    4.471560
  N      8.398210    2.082410    4.183330
  C      7.824210   -1.214420    5.002720
  C     10.189250   -0.460980    4.845680
  C     11.341700   -0.572410    5.695470
  N     11.355070   -0.252400    6.967350
  O     10.150900    0.257470    7.469950
  O     12.273630   -0.249930    7.753880
  C     12.451660   -1.038550    4.905540
  C     11.988930   -1.216040    3.650460
  C     10.571270   -0.873530    3.591660
  C      9.814230   -0.941950    2.370740
  C      8.991490    0.043120    1.855000
  C      8.538770   -0.342580    0.578570
  C      9.065660   -1.586590    0.278340
  N      8.821310   -2.267990   -0.913740
  O      8.068150   -1.752580   -1.720990
  O      9.372740   -3.353610   -1.115270
  C      9.866340   -2.025200    1.406930
  C     10.399650   -3.288330    1.492090
  C     11.045350   -3.939010    2.541820
  C     11.569590   -5.202520    2.381640
  S     12.357970   -6.011760    3.725190
  C     12.765740   -7.459060    2.798870
  C     12.280910   -7.296800    1.467910
  C     11.629940   -6.060740    1.250160
  N     11.218000   -6.017320   -0.040190
  C     11.582290   -7.188680   -0.648540
  C     11.299960   -7.462070   -1.995950
  N     11.084900   -7.713420   -3.093510
  C     12.243950   -8.006040    0.256320
  C     13.445240   -8.474880    3.416650
  C     13.855030   -9.667090    2.807210
  C     14.539470  -10.675030    3.444820
  C     14.982900  -11.886910    2.824550
  C     15.637480  -12.659820    3.746560
  C     15.609640  -11.915960    5.024010
  C     14.955830  -10.739090    4.828940
  C     16.146650  -12.328130    6.247890
  N     16.571190  -12.633540    7.271300
  C     16.251430  -13.931540    3.556840
  C     16.938690  -14.680520    4.470380
  C     17.407320  -15.893600    3.844390
  C     16.950010  -15.844340    2.468240
  C     16.263310  -14.686730    2.287060
  C     15.669980  -14.301720    1.078110
  N     15.196380  -14.018840    0.070490
  C     18.128610  -16.857220    4.464580
  C     18.611690  -18.070490    3.834400
  C     18.401130  -19.428090    4.482840
  C     17.680880  -19.532600    5.803690
  N     19.713690  -18.771990    4.476250
  N     20.758080  -19.193300    3.721760
  C     20.719840  -20.242010    2.988760
  C     19.487450  -20.997160    2.867600
  C     18.321170  -20.581720    3.595660
  N     17.368660  -21.434010    3.347200
  O     17.891290  -22.337960    2.496830
  N     19.173590  -22.079330    2.209170
  C     21.939530  -20.691500    2.271640
  H      6.096380    0.945910    9.185330
  H      5.017800    1.065080    7.776960
  H      5.912830    2.484910    8.296020
  H      6.858670   -1.041780    5.472820
  H      8.191930   -2.189470    5.310780
  H      7.703750   -1.200190    3.923050
  H     13.443270   -1.181570    5.285280
  H     12.554720   -1.522310    2.791460
  H      8.781830    0.981900    2.331000
  H      7.903250    0.232920   -0.067750
  H     10.257560   -3.874610    0.599570
  H     11.144250   -3.467530    3.507870
  H     10.717520   -5.278890   -0.518790
  H     12.631820   -8.978350    0.031990
  H     13.686190   -8.329720    4.460590
  H     13.628700   -9.811500    1.761260
  H     14.819920  -12.124870    1.791760
  H     14.777420   -9.990080    5.576930
  H     17.126620  -14.431090    5.495870
  H     17.118640  -16.598120    1.722470
  H     18.375070  -16.732480    5.509130
  H     18.611720  -18.073840    2.745130
  H     18.106380  -18.834440    6.517940
  H     17.781930  -20.541830    6.197100
  H     16.622340  -19.319270    5.671370
  H     22.751510  -19.994830    2.454950
  H     21.734050  -20.758240    1.204730
  H     22.219350  -21.686440    2.614170

 Total Charge           Charge          ....    0
 Multiplicity           Mult            ....    1
 Number of Electrons    NEL             ....  472
 Basis Dimension        Dim             .... 1096

ORBITAL ENERGIES
----------------

  NO   OCC          E(Eh)            E(eV)
   0   2.0000     -88.983664     -2421.3686
   1   2.0000     -19.365317      -526.9571
   2   2.0000     -19.353733      -526.6419
   3   2.0000     -19.334100      -526.1076
   4   2.0000     -19.266160      -524.2589
   5   2.0000     -19.236012      -523.4385
   6   2.0000     -19.234736      -523.4038
   7   2.0000     -14.654958      -398.7817
   8   2.0000     -14.645535      -398.5253
   9   2.0000     -14.533247      -395.4697
  10   2.0000     -14.516401      -395.0113
  11   2.0000     -14.506453      -394.7407
  12   2.0000     -14.502437      -394.6314
  13   2.0000     -14.496783      -394.4775
  14   2.0000     -14.491735      -394.3401
  15   2.0000     -14.468342      -393.7036
  16   2.0000     -14.468240      -393.7008
  17   2.0000     -14.454346      -393.3227
  18   2.0000     -14.428308      -392.6142
  19   2.0000     -14.409280      -392.0964
  20   2.0000     -14.406934      -392.0326
  21   2.0000     -10.370315      -282.1906
  22   2.0000     -10.368977      -282.1542
  23   2.0000     -10.363735      -282.0116
  24   2.0000     -10.363191      -281.9968
  25   2.0000     -10.356910      -281.8259
  26   2.0000     -10.354053      -281.7481
  27   2.0000     -10.350531      -281.6523
  28   2.0000     -10.349095      -281.6132
  29   2.0000     -10.347110      -281.5592
  30   2.0000     -10.347055      -281.5577
  31   2.0000     -10.344939      -281.5001
  32   2.0000     -10.342075      -281.4222
  33   2.0000     -10.339290      -281.3464
  34   2.0000     -10.336937      -281.2824
  35   2.0000     -10.326875      -281.0085
  36   2.0000     -10.321131      -280.8523
  37   2.0000     -10.320668      -280.8396
  38   2.0000     -10.319857      -280.8176
  39   2.0000     -10.318857      -280.7904
  40   2.0000     -10.316210      -280.7183
  41   2.0000     -10.315455      -280.6978
  42   2.0000     -10.314307      -280.6666
  43   2.0000     -10.314012      -280.6585
  44   2.0000     -10.311793      -280.5981
  45   2.0000     -10.310988      -280.5762
  46   2.0000     -10.310241      -280.5559
  47   2.0000     -10.308104      -280.4978
  48   2.0000     -10.305498      -280.4269
  49   2.0000     -10.304607      -280.4026
  50   2.0000     -10.302814      -280.3538
  51   2.0000     -10.300211      -280.2830
  52   2.0000     -10.299591      -280.2661
  53   2.0000     -10.299542      -280.2648
  54   2.0000     -10.298582      -280.2387
  55   2.0000     -10.297259      -280.2027
  56   2.0000     -10.296341      -280.1777
  57   2.0000     -10.295806      -280.1631
  58   2.0000     -10.295153      -280.1453
  59   2.0000     -10.291863      -280.0558
  60   2.0000     -10.290535      -280.0197
  61   2.0000     -10.290118      -280.0083
  62   2.0000     -10.288822      -279.9731
  63   2.0000     -10.283610      -279.8313
  64   2.0000     -10.279972      -279.7322
  65   2.0000     -10.277679      -279.6699
  66   2.0000     -10.277235      -279.6578
  67   2.0000     -10.274242      -279.5763
  68   2.0000      -8.079795      -219.8624
  69   2.0000      -6.049681      -164.6202
  70   2.0000      -6.045487      -164.5061
  71   2.0000      -6.040484      -164.3699
  72   2.0000      -1.326208       -36.0880
  73   2.0000      -1.321948       -35.9720
  74   2.0000      -1.311028       -35.6749
  75   2.0000      -1.309316       -35.6283
  76   2.0000      -1.218429       -33.1551
  77   2.0000      -1.153435       -31.3866
  78   2.0000      -1.133406       -30.8416
  79   2.0000      -1.127224       -30.6733
  80   2.0000      -1.108499       -30.1638
  81   2.0000      -1.035066       -28.1656
  82   2.0000      -1.028882       -27.9973
  83   2.0000      -1.022024       -27.8107
  84   2.0000      -1.016512       -27.6607
  85   2.0000      -1.009275       -27.4638
  86   2.0000      -1.006364       -27.3846
  87   2.0000      -1.005504       -27.3612
  88   2.0000      -0.998321       -27.1657
  89   2.0000      -0.997026       -27.1305
  90   2.0000      -0.992736       -27.0137
  91   2.0000      -0.986587       -26.8464
  92   2.0000      -0.982226       -26.7277
  93   2.0000      -0.976755       -26.5789
  94   2.0000      -0.974769       -26.5248
  95   2.0000      -0.950048       -25.8521
  96   2.0000      -0.935098       -25.4453
  97   2.0000      -0.919268       -25.0146
  98   2.0000      -0.905993       -24.6533
  99   2.0000      -0.899640       -24.4804
 100   2.0000      -0.897142       -24.4125
 101   2.0000      -0.886635       -24.1266
 102   2.0000      -0.877248       -23.8711
 103   2.0000      -0.870220       -23.6799
 104   2.0000      -0.864804       -23.5325
 105   2.0000      -0.845894       -23.0179
 106   2.0000      -0.841080       -22.8870
 107   2.0000      -0.837980       -22.8026
 108   2.0000      -0.833538       -22.6817
 109   2.0000      -0.824558       -22.4374
 110   2.0000      -0.815898       -22.2017
 111   2.0000      -0.797308       -21.6959
 112   2.0000      -0.790423       -21.5085
 113   2.0000      -0.789217       -21.4757
 114   2.0000      -0.784929       -21.3590
 115   2.0000      -0.778270       -21.1778
 116   2.0000      -0.769209       -20.9312
 117   2.0000      -0.767345       -20.8805
 118   2.0000      -0.762082       -20.7373
 119   2.0000      -0.748916       -20.3790
 120   2.0000      -0.745081       -20.2747
 121   2.0000      -0.735901       -20.0249
 122   2.0000      -0.730132       -19.8679
 123   2.0000      -0.725561       -19.7435
 124   2.0000      -0.720079       -19.5944
 125   2.0000      -0.710522       -19.3343
 126   2.0000      -0.706428       -19.2229
 127   2.0000      -0.687768       -18.7151
 128   2.0000      -0.676050       -18.3962
 129   2.0000      -0.671014       -18.2592
 130   2.0000      -0.666662       -18.1408
 131   2.0000      -0.665092       -18.0981
 132   2.0000      -0.663166       -18.0457
 133   2.0000      -0.657810       -17.8999
 134   2.0000      -0.655148       -17.8275
 135   2.0000      -0.651717       -17.7341
 136   2.0000      -0.648366       -17.6429
 137   2.0000      -0.644743       -17.5444
 138   2.0000      -0.641842       -17.4654
 139   2.0000      -0.633473       -17.2377
 140   2.0000      -0.630456       -17.1556
 141   2.0000      -0.628119       -17.0920
 142   2.0000      -0.625267       -17.0144
 143   2.0000      -0.623363       -16.9626
 144   2.0000      -0.621507       -16.9121
 145   2.0000      -0.618649       -16.8343
 146   2.0000      -0.612876       -16.6772
 147   2.0000      -0.605945       -16.4886
 148   2.0000      -0.592358       -16.1189
 149   2.0000      -0.585231       -15.9249
 150   2.0000      -0.581380       -15.8201
 151   2.0000      -0.576663       -15.6918
 152   2.0000      -0.575919       -15.6715
 153   2.0000      -0.570556       -15.5256
 154   2.0000      -0.565644       -15.3920
 155   2.0000      -0.561918       -15.2906
 156   2.0000      -0.559124       -15.2145
 157   2.0000      -0.550529       -14.9806
 158   2.0000      -0.549982       -14.9658
 159   2.0000      -0.547626       -14.9016
 160   2.0000      -0.543675       -14.7941
 161   2.0000      -0.542836       -14.7713
 162   2.0000      -0.542191       -14.7538
 163   2.0000      -0.540001       -14.6942
 164   2.0000      -0.533165       -14.5081
 165   2.0000      -0.529190       -14.4000
 166   2.0000      -0.528260       -14.3747
 167   2.0000      -0.523390       -14.2422
 168   2.0000      -0.520584       -14.1658
 169   2.0000      -0.516773       -14.0621
 170   2.0000      -0.514675       -14.0050
 171   2.0000      -0.514031       -13.9875
 172   2.0000      -0.512124       -13.9356
 173   2.0000      -0.508212       -13.8291
 174   2.0000      -0.505152       -13.7459
 175   2.0000      -0.501295       -13.6409
 176   2.0000      -0.499855       -13.6017
 177   2.0000      -0.497148       -13.5281
 178   2.0000      -0.494708       -13.4617
 179   2.0000      -0.492016       -13.3884
 180   2.0000      -0.491734       -13.3808
 181   2.0000      -0.487739       -13.2721
 182   2.0000      -0.486976       -13.2513
 183   2.0000      -0.484273       -13.1777
 184   2.0000      -0.484191       -13.1755
 185   2.0000      -0.481338       -13.0979
 186   2.0000      -0.479324       -13.0431
 187   2.0000      -0.477464       -12.9925
 188   2.0000      -0.472250       -12.8506
 189   2.0000      -0.467913       -12.7326
 190   2.0000      -0.463812       -12.6210
 191   2.0000      -0.461280       -12.5521
 192   2.0000      -0.458623       -12.4798
 193   2.0000      -0.457930       -12.4609
 194   2.0000      -0.455470       -12.3940
 195   2.0000      -0.454981       -12.3807
 196   2.0000      -0.452045       -12.3008
 197   2.0000      -0.451180       -12.2772
 198   2.0000      -0.446852       -12.1594
 199   2.0000      -0.444424       -12.0934
 200   2.0000      -0.439716       -11.9653
 201   2.0000      -0.438961       -11.9447
 202   2.0000      -0.436489       -11.8775
 203   2.0000      -0.433406       -11.7936
 204   2.0000      -0.432265       -11.7625
 205   2.0000      -0.429256       -11.6806
 206   2.0000      -0.428179       -11.6513
 207   2.0000      -0.427183       -11.6242
 208   2.0000      -0.422500       -11.4968
 209   2.0000      -0.418539       -11.3890
 210   2.0000      -0.414246       -11.2722
 211   2.0000      -0.413006       -11.2385
 212   2.0000      -0.410292       -11.1646
 213   2.0000      -0.406477       -11.0608
 214   2.0000      -0.406081       -11.0500
 215   2.0000      -0.399258       -10.8644
 216   2.0000      -0.396286       -10.7835
 217   2.0000      -0.393575       -10.7097
 218   2.0000      -0.387442       -10.5428
 219   2.0000      -0.385554       -10.4915
 220   2.0000      -0.383260       -10.4290
 221   2.0000      -0.379224       -10.3192
 222   2.0000      -0.373912       -10.1747
 223   2.0000      -0.362056        -9.8520
 224   2.0000      -0.360221        -9.8021
 225   2.0000      -0.349488        -9.5101
 226   2.0000      -0.336130        -9.1466
 227   2.0000      -0.333967        -9.0877
 228   2.0000      -0.323031        -8.7901
 229   2.0000      -0.320762        -8.7284
 230   2.0000      -0.314907        -8.5690
 231   2.0000      -0.308623        -8.3981
 232   2.0000      -0.301823        -8.2130
 233   2.0000      -0.287634        -7.8269
 234   2.0000      -0.281566        -7.6618
 235   2.0000      -0.258146        -7.0245
 236   0.0000      -0.126830        -3.4512
 237   0.0000      -0.087370        -2.3775
 238   0.0000      -0.074603        -2.0301
 239   0.0000      -0.066859        -1.8193
 240   0.0000      -0.051073        -1.3898

MULLIKEN ATOMIC CHARGES
-----------------------
   0 C :   -0.195296
   1 C :    0.116603
   2 N :    0.023142
   3 N :   -0.091467
   4 C :   -0.062517
   5 C :   -0.001009
   6 C :   -0.030707
   7 N :    0.075441
   8 O :   -0.116307
   9 N :    0.061639
  10 C :    0.149901
  11 C :    0.020419
  12 C :    0.004985
  13 N :    0.332612
  14 O :   -0.177807
  15 O :   -0.227103
  16 C :   -0.009409
  17 C :   -0.001603
  18 C :   -0.034787
  19 C :    0.005306
  20 C :   -0.020448
  21 C :   -0.017578
  22 C :    0.096314
  23 N :    0.296805
  24 O :   -0.243124
  25 O :   -0.311830
  26 C :    0.046080
  27 C :   -0.024081
  28 C :    0.019436
  29 C :   -0.093565
  30 S :    0.139457
  31 C :   -0.074904
  32 C :    0.111193
  33 C :    0.079393
  34 N :    0.000248
  35 C :   -0.108771
  36 C :   -0.139634
  37 N :    0.186914
  38 C :   -0.043257
  39 C :    0.038545
  40 C :    0.008122
  41 C :    0.118471
  42 C :   -0.142089
  43 C :    0.150593
  44 C :   -0.106628
  45 C :   -0.037497
  46 C :   -0.168520
  47 N :    0.127109
  48 C :    0.150473
  49 C :   -0.135803
  50 C :    0.132217
  51 C :   -0.035105
  52 C :   -0.103556
  53 C :   -0.166082
  54 N :    0.126852
  55 C :    0.047108
  56 C :    0.058267
  57 C :   -0.152782
  58 C :    0.155590
  59 N :   -0.190331
  60 N :    0.014591
  61 C :   -0.230486
  62 C :   -0.028249
  63 C :   -0.038888
  64 N :    0.074660
  65 O :   -0.125568
  66 N :    0.086007
  67 C :    0.115465
  68 H :    0.037703
  69 H :    0.043468
  70 H :    0.050317
  71 H :    0.016428
  72 H :    0.032920
  73 H :    0.045003
  74 H :   -0.012020
  75 H :   -0.009782
  76 H :   -0.021723
  77 H :    0.002040
  78 H :   -0.044666
  79 H :    0.003385
  80 H :    0.171440
  81 H :    0.011735
  82 H :   -0.014737
  83 H :   -0.021553
  84 H :   -0.008730
  85 H :   -0.010549
  86 H :   -0.003267
  87 H :   -0.010486
  88 H :    0.018968
  89 H :    0.033000
  90 H :    0.023042
  91 H :    0.032213
  92 H :    0.039365
  93 H :    0.030851
  94 H :    0.040510
  95 H :    0.041953
Sum of atomic charges:   -0.0000000

LOEWDIN ATOMIC CHARGES
----------------------
   0 C :    0.002247
   1 C :   -0.041899
   2 N :   -0.044581
   3 N :    0.040089
   4 C :   -0.011405
   5 C :   -0.047613
   6 C :   -0.085829
   7 N :    0.005224
   8 O :    0.055322
   9 N :   -0.000274
  10 C :   -0.024043
  11 C :   -0.051702
  12 C :   -0.059314
  13 N :    0.312914
  14 O :   -0.070880
  15 O :   -0.187047
  16 C :   -0.034274
  17 C :   -0.011980
  18 C :   -0.024443
  19 C :   -0.016376
  20 C :   -0.032540
  21 C :    0.027818
  22 C :   -0.074614
  23 N :    0.298823
  24 O :   -0.207639
  25 O :   -0.268025
  26 C :   -0.040182
  27 C :    0.043576
  28 C :   -0.066559
  29 C :   -0.111337
  30 S :    0.418267
  31 C :   -0.112873
  32 C :   -0.063891
  33 C :   -0.014010
  34 N :    0.123843
  35 C :   -0.026602
  36 C :   -0.047275
  37 N :   -0.019135
  38 C :   -0.019200
  39 C :   -0.047267
  40 C :    0.038903
  41 C :   -0.023178
  42 C :   -0.032033
  43 C :   -0.010593
  44 C :   -0.062439
  45 C :    0.012076
  46 C :   -0.026430
  47 N :   -0.066377
  48 C :   -0.012985
  49 C :   -0.018192
  50 C :   -0.031300
  51 C :    0.016718
  52 C :   -0.058750
  53 C :   -0.025082
  54 N :   -0.063519
  55 C :    0.058869
  56 C :    0.029583
  57 C :   -0.007641
  58 C :   -0.033909
  59 N :   -0.051245
  60 N :   -0.032908
  61 C :   -0.013873
  62 C :   -0.083170
  63 C :   -0.054432
  64 N :   -0.009777
  65 O :    0.047928
  66 N :    0.000782
  67 C :   -0.044304
  68 H :    0.045337
  69 H :    0.048066
  70 H :    0.050141
  71 H :    0.026157
  72 H :    0.036566
  73 H :    0.038248
  74 H :    0.034262
  75 H :    0.028985
  76 H :    0.020444
  77 H :    0.037568
  78 H :    0.020994
  79 H :    0.037198
  80 H :    0.106505
  81 H :    0.040055
  82 H :    0.034377
  83 H :    0.037963
  84 H :    0.030071
  85 H :    0.029869
  86 H :    0.032219
  87 H :    0.030690
  88 H :    0.045287
  89 H :    0.030073
  90 H :    0.036523
  91 H :    0.038617
  92 H :    0.041892
  93 H :    0.042489
  94 H :    0.045000
  95 H :    0.046368

  Mayer bond orders larger than 0.100000
B(  0-C ,  1-C ) :   1.0975 B(  0-C ,  2-N ) :   1.9055 B(  0-C ,  6-C ) :   0.9772
B(  1-C , 68-H ) :   0.9394 B(  1-C , 69-H ) :   0.9481 B(  1-C , 70-H ) :   0.9456
B(  2-N ,  3-N ) :   1.0173 B(  3-N ,  4-C ) :   0.8832 B(  3-N , 14-O ) :   0.8629
B(  4-C ,  5-C ) :   0.9126 B(  4-C , 10-C ) :   1.0685 B(  4-C , 11-C ) :   0.9475
B(  5-C ,  6-C ) :   1.1614 B(  5-C ,  9-N ) :   1.7095 B(  6-C ,  7-N ) :   1.7060
B(  7-N ,  8-O ) :   1.0570 B(  7-N ,  9-N ) :   0.1458 B(  8-O ,  9-N ) :   1.0275
B( 10-C , 71-H ) :   0.9482 B( 10-C , 72-H ) :   0.9500 B( 10-C , 73-H ) :   0.9485
B( 11-C , 12-C ) :   1.1262 B( 11-C , 18-C ) :   1.6559 B( 12-C , 13-N ) :   1.3005
B( 12-C , 15-O ) :   0.1843 B( 12-C , 16-C ) :   1.1331 B( 13-N , 14-O ) :   0.8793
B( 13-N , 15-O ) :   1.5338 B( 16-C , 17-C ) :   1.5974 B( 16-C , 74-H ) :   1.0231
B( 17-C , 18-C ) :   1.1230 B( 17-C , 75-H ) :   1.0079 B( 18-C , 19-C ) :   0.9726
B( 19-C , 20-C ) :   1.5397 B( 19-C , 26-C ) :   1.1173 B( 20-C , 21-C ) :   1.1453
B( 20-C , 76-H ) :   1.0013 B( 21-C , 22-C ) :   1.4887 B( 21-C , 77-H ) :   1.0126
B( 22-C , 23-N ) :   0.9824 B( 22-C , 26-C ) :   1.0872 B( 23-N , 24-O ) :   1.5545
B( 23-N , 25-O ) :   1.4291 B( 24-O , 25-O ) :   0.2329 B( 25-O , 78-H ) :   0.1023
B( 26-C , 27-C ) :   1.5396 B( 27-C , 28-C ) :   1.1889 B( 27-C , 78-H ) :   0.9193
B( 28-C , 29-C ) :   1.5203 B( 28-C , 79-H ) :   0.9471 B( 29-C , 30-S ) :   1.0701
B( 29-C , 33-C ) :   1.1101 B( 30-S , 31-C ) :   1.0378 B( 31-C , 32-C ) :   1.0579
B( 31-C , 39-C ) :   1.5825 B( 32-C , 33-C ) :   1.3687 B( 32-C , 38-C ) :   1.2715
B( 33-C , 34-N ) :   1.2430 B( 33-C , 35-C ) :   0.1233 B( 34-N , 35-C ) :   1.2656
B( 34-N , 80-H ) :   0.9101 B( 35-C , 36-C ) :   1.0561 B( 35-C , 38-C ) :   1.5179
B( 36-C , 37-N ) :   3.0547 B( 38-C , 81-H ) :   1.0079 B( 39-C , 40-C ) :   1.1739
B( 39-C , 82-H ) :   0.9524 B( 40-C , 41-C ) :   1.5192 B( 40-C , 83-H ) :   0.9723
B( 41-C , 42-C ) :   1.0864 B( 41-C , 45-C ) :   1.0720 B( 42-C , 43-C ) :   1.5681
B( 42-C , 84-H ) :   1.0045 B( 43-C , 44-C ) :   1.1320 B( 43-C , 48-C ) :   0.9856
B( 44-C , 45-C ) :   1.6613 B( 44-C , 46-C ) :   1.0791 B( 45-C , 85-H ) :   1.0132
B( 46-C , 47-N ) :   2.9660 B( 48-C , 49-C ) :   1.5887 B( 48-C , 52-C ) :   1.1254
B( 49-C , 50-C ) :   1.0453 B( 49-C , 86-H ) :   1.0071 B( 50-C , 51-C ) :   1.0536
B( 50-C , 55-C ) :   1.6350 B( 51-C , 52-C ) :   1.6825 B( 51-C , 87-H ) :   1.0146
B( 52-C , 53-C ) :   1.0744 B( 53-C , 54-N ) :   2.9691 B( 55-C , 56-C ) :   1.0759
B( 55-C , 88-H ) :   0.9475 B( 56-C , 57-C ) :   0.8932 B( 56-C , 59-N ) :   0.8610
B( 56-C , 89-H ) :   0.9406 B( 57-C , 58-C ) :   1.0903 B( 57-C , 59-N ) :   0.8818
B( 57-C , 63-C ) :   1.0432 B( 58-C , 90-H ) :   0.9369 B( 58-C , 91-H ) :   0.9572
B( 58-C , 92-H ) :   0.9471 B( 59-N , 60-N ) :   1.0060 B( 60-N , 61-C ) :   1.9552
B( 61-C , 62-C ) :   0.9680 B( 61-C , 67-C ) :   1.1001 B( 62-C , 63-C ) :   1.1697
B( 62-C , 66-N ) :   1.7293 B( 63-C , 64-N ) :   1.7387 B( 64-N , 65-O ) :   1.0241
B( 64-N , 66-N ) :   0.1354 B( 65-O , 66-N ) :   1.0488 B( 67-C , 93-H ) :   0.9373
B( 67-C , 94-H ) :   0.9501 B( 67-C , 95-H ) :   0.9484

-----------------------------------------------------------------------------
         ABSORPTION SPECTRUM VIA TRANSITION ELECTRIC DIPOLE MOMENTS
-----------------------------------------------------------------------------
State   Energy  Wavelength   fosc         T2         TX        TY        TZ
        (cm-1)    (nm)                  (au**2)     (au)      (au)      (au)
-----------------------------------------------------------------------------
   0   15067.4    663.7   1.768134350  38.63246   2.79794  -5.52326   0.54554
   1   17526.6    570.6   0.172735224   3.24458  -0.85112   0.58904  -1.47418
   2   19834.7    504.2   0.215431158   3.57567  -0.86267   1.67708  -0.13738
   3   23186.6    431.3   0.261259173   3.70945  -0.96669   1.50710  -0.70965
   4   23270.5    429.7   0.147717486   2.08978  -0.55959   0.78975  -1.07375
   5   24723.5    404.5   0.003109605   0.04141   0.09315  -0.16984  -0.06232
   6   24891.0    401.8   0.123565510   1.63429  -0.32866   0.02368  -1.23520
   7   25515.7    391.9   0.065473605   0.84476  -0.63466   0.46396   0.47614
   8   26256.3    380.9   0.057133449   0.71636   0.38424  -0.04808   0.75260
   9   26729.8    374.1   0.063420708   0.78111   0.03379  -0.47231  -0.74625
  10   26865.9    372.2   0.111439461   1.36557   0.34485  -1.11406  -0.07432
  11   27474.7    364.0   0.028509210   0.34161   0.28030  -0.41085   0.30699
  12   28769.6    347.6   0.022575903   0.25834   0.40937  -0.25731   0.15667
  13   29017.8    344.6   0.096321358   1.09278  -0.04315  -0.60192  -0.85359
  14   29327.1    341.0   0.011482211   0.12889  -0.06542   0.10977  -0.33551
  15   29707.5    336.6   0.000827419   0.00917  -0.08428   0.03993   0.02172
  16   30193.4    331.2   0.011597535   0.12645  -0.22606   0.01408  -0.27414
  17   30785.2    324.8   0.092197225   0.98594   0.25955   0.66199   0.69307
  18   30986.0    322.7   0.103435991   1.09896   0.47517  -0.29781   0.88571
  19   31610.8    316.3   0.039927235   0.41582   0.30930  -0.31152   0.47235
  20   31675.5    315.7   0.032715060   0.34002   0.29748  -0.37421   0.33390
  21   31929.5    313.2   0.037543343   0.38709  -0.21356   0.41030  -0.41609
  22   32135.2    311.2   0.046591689   0.47731  -0.39626   0.19537  -0.53115
  23   32675.1    306.0   0.044689287   0.45026   0.03926   0.25895   0.61779
  24   33521.5    298.3   0.210585319   2.06814  -0.73027  -0.13009  -1.23204
  25   34363.4    291.0   0.009327701   0.08936   0.07927   0.09314   0.27277
  26   34759.1    287.7   0.023785243   0.22528  -0.18226   0.43436   0.05818
  27   34781.9    287.5   0.012469527   0.11802   0.10541  -0.31706  -0.07992
  28   35206.0    284.0   0.010153569   0.09495   0.10597  -0.05708   0.28365
  29   35602.7    280.9   0.035031790   0.32393  -0.03486   0.40024   0.40315
  30   35675.8    280.3   0.000712499   0.00657  -0.04454   0.03616   0.05731
  31   36360.3    275.0   0.176981015   1.60241  -0.60843   0.29989  -1.06878
  32   36798.9    271.7   0.277302677   2.48082   0.37501  -1.35350  -0.71291
  33   36920.1    270.9   0.016272302   0.14510  -0.07652   0.26564   0.26207
  34   37265.6    268.3   0.005140171   0.04541  -0.07233   0.17259   0.10194
  35   37775.2    264.7   0.018475976   0.16102   0.14814  -0.36906   0.05357
  36   38301.0    261.1   0.008392910   0.07214  -0.11977   0.02678   0.23891
  37   38636.8    258.8   0.017920791   0.15270   0.16742  -0.18709   0.29944
  38   38987.2    256.5   0.115339307   0.97394   0.36701  -0.26153   0.87798
  39   39080.7    255.9   0.020936879   0.17637   0.14117  -0.38686  -0.08236
  40   39674.9    252.0   0.136149082   1.12973   0.39940  -0.89222  -0.41732
  41   39846.2    251.0   0.049701374   0.41064  -0.21895   0.52094  -0.30219
  42   40048.5    249.7   0.062302633   0.51215   0.18661  -0.58553  -0.36672
  43   40176.5    248.9   0.008258850   0.06767  -0.01084   0.22890  -0.12313
  44   40282.6    248.2   0.014465966   0.11822  -0.04223   0.11532  -0.32116
  45   40287.2    248.2   0.002423939   0.01981  -0.09522   0.10275  -0.01355

FINAL SINGLE POINT ENERGY     -3419.320132278652

DIPOLE MOMENT
-------------
                                X             Y             Z
Electronic contribution:    -10.71703      27.00041     -10.53955
Nuclear contribution   :     10.54110     -26.71681      12.39821
                        -----------------------------------------
Total Dipole Moment    :     -0.17593       0.28360       1.85866
                        -----------------------------------------
Magnitude (a.u.)       :      1.88839
Magnitude (Debye)      :      4.79989

Rotational constants in cm-1:     0.002404     0.000237     0.000222
Rotational constants in MHz :    72.070418     7.119895     6.641248

                             ****ORCA TERMINATED NORMALLY****
TOTAL RUN TIME: 0 days 0 hours 8 minutes 5 seconds 328 msec
