                         Program Version 4.2.0 -  RELEASE  -
|  1> # ORCA input file
|  2> # SCF done       -185.783654281518          0.000783248866
|  3> ! CAM-B3LYP def2-SVP def2/J RIJCOSX Grid4 TightSCF
|  4> %maxcore 5000
|  5> %tddft
|  6>     Mode sTDDFT
|  7>     Ethresh 5.0
|  8>     maxcore 5000
|  9> end
| 10>
| 11> %pal
| 12>   nprocs 6
| 13>   end
| 14> * xyz 0 1
| 15>    C       -0.42692        -2.64310        -5.13843
| 16>    S       -1.24078        -3.58600        -3.95004
| 17>    C       -0.83432        -2.47404        -2.69128
| 18>    C       -0.09483        -1.41730        -3.18850
| 19>    C        0.13753        -1.51960        -4.59670
| 20>    N        0.84913        -0.55507        -5.25135
| 21>    C        1.28064         0.43319        -4.53122
| 22>    O        1.97707         1.42427        -5.06829
| 23>    C        2.21802         1.34078        -6.47152
| 24>    C        2.97013         2.58886        -6.89452
| 25>    C        1.03414         0.53150        -3.09081
| 26>    O        1.52718         1.59843        -2.47154
| 27>    C        1.27213         1.68688        -1.07465
| 28>    C        1.91056         2.96327        -0.55817
| 29>    N        0.36552        -0.37358        -2.44129
| 30>    N       -1.16819        -2.56246        -1.36722
| 31>    C       -1.88596        -3.48856        -0.70266
| 32>    S       -2.48162        -4.92011        -1.47644
| 33>    C       -3.08551        -5.47824         0.05854
| 34>    N       -3.74387        -6.70268         0.08618
| 35>    O       -4.16844        -7.09932         1.15951
| 36>    O       -3.84696        -7.29668        -0.97715
| 37>    C       -2.82739        -4.61006         1.08852
| 38>    C       -2.15930        -3.44826         0.67538
| 39>    C       -1.80374        -2.39576         1.60302
| 40>    C       -1.62598        -1.09355         1.33196
| 41>    C       -1.22018        -0.08195         2.28752
| 42>    C       -1.53536         0.01829         3.58332
| 43>    C       -2.49110        -0.86831         4.31547
| 44>    C       -0.96361         1.14892         4.41161
| 45>    N       -1.96550         2.13691         4.72974
| 46>    C       -2.57971         2.24762         5.91857
| 47>    C       -3.64415         3.06438         6.16159
| 48>    C       -4.22370         3.20957         7.42984
| 49>    C       -5.27466         4.04441         7.71825
| 50>    C       -5.88621         4.24869         8.97558
| 51>    C       -6.89642         5.16426         8.96545
| 52>    C       -7.14095         5.73210         7.69627
| 53>    S       -6.05375         5.06471         6.51068
| 54>    C       -8.08256         6.69605         7.36729
| 55>    C       -8.99548         7.33888         8.22364
| 56>    C       -9.77885         8.27013         7.60061
| 57>    C       -9.52504         8.40210         6.22020
| 58>    S       -8.26101         7.30381         5.73503
| 59>    C      -10.09735         9.26180         5.29292
| 60>    C      -11.11518        10.15474         5.58200
| 61>    C      -11.68867        11.08084         4.72517
| 62>    C      -13.02518        11.61619         5.03703
| 63>    O      -13.64645        11.48513         6.07303
| 64>    C      -13.47151        12.30722         3.80566
| 65>    C      -14.66855        12.90166         3.53696
| 66>    C      -14.88372        13.46696         2.25845
| 67>    C      -13.84900        13.39726         1.28269
| 68>    C      -14.07273        13.95087         0.00688
| 69>    C      -15.26625        14.54972        -0.28519
| 70>    C      -16.28663        14.62169         0.68126
| 71>    C      -16.10111        14.09181         1.92760
| 72>    F      -17.44983        15.21644         0.36827
| 73>    F      -15.47607        15.07655        -1.50256
| 74>    C      -12.61260        12.78398         1.59667
| 75>    C      -12.42466        12.25275         2.84269
| 76>    C      -11.26666        11.59768         3.45820
| 77>    C       -9.97932        11.67465         2.96962
| 78>    C       -8.82561        11.33904         3.70270
| 79>    N       -7.84220        11.14003         4.26314
| 80>    C       -9.64767        12.21528         1.71433
| 81>    N       -9.31838        12.62094         0.69034
| 82>    H       -0.41457        -2.96839        -6.15739
| 83>    H        1.25761         1.25252        -6.99151
| 84>    H        2.79597         0.43284        -6.67797
| 85>    H        2.37841         3.47369        -6.67679
| 86>    H        3.17341         2.54984        -7.96047
| 87>    H        3.91020         2.65989        -6.35447
| 88>    H        1.68915         0.80113        -0.57928
| 89>    H        0.18702         1.68739        -0.91184
| 90>    H        2.97929         2.94797        -0.75151
| 91>    H        1.74363         3.05472         0.51133
| 92>    H        1.48138         3.82484        -1.06161
| 93>    H       -0.73957        -1.82595        -0.81312
| 94>    H       -3.13559        -4.80945         2.09904
| 95>    H       -1.67644        -2.73856         2.61968
| 96>    H       -1.76471        -0.71341         0.32756
| 97>    H       -0.58828         0.68995         1.85962
| 98>    H       -3.17592        -1.35835         3.62886
| 99>    H       -3.07012        -0.28214         5.02861
|100>    H       -1.95399        -1.63352         4.87666
|101>    H       -0.14756         1.63718         3.86910
|102>    H       -0.56822         0.75259         5.35080
|103>    H       -2.37863         2.62320         3.94675
|104>    H       -2.14631         1.66696         6.72272
|105>    H       -4.06317         3.64302         5.34939
|106>    H       -3.81351         2.63202         8.24842
|107>    H       -5.55824         3.71637         9.85120
|108>    H       -7.46663         5.44502         9.83218
|109>    H       -9.05329         7.11091         9.27297
|110>    H      -10.52253         8.85988         8.10456
|111>    H       -9.71937         9.20183         4.28285
|112>    H      -11.60161        10.08857         6.54822
|113>    H      -15.44371        12.94063         4.28716
|114>    H      -13.29944        13.90718        -0.74415
|115>    H      -16.89332        14.15446         2.65721
|116>    H      -11.84874        12.74528         0.83672
|117> *
|118>
|119>                          ****END OF INPUT****

CARTESIAN COORDINATES (ANGSTROEM)
---------------------------------
  C     -0.426920   -2.643100   -5.138430
  S     -1.240780   -3.586000   -3.950040
  C     -0.834320   -2.474040   -2.691280
  C     -0.094830   -1.417300   -3.188500
  C      0.137530   -1.519600   -4.596700
  N      0.849130   -0.555070   -5.251350
  C      1.280640    0.433190   -4.531220
  O      1.977070    1.424270   -5.068290
  C      2.218020    1.340780   -6.471520
  C      2.970130    2.588860   -6.894520
  C      1.034140    0.531500   -3.090810
  O      1.527180    1.598430   -2.471540
  C      1.272130    1.686880   -1.074650
  C      1.910560    2.963270   -0.558170
  N      0.365520   -0.373580   -2.441290
  N     -1.168190   -2.562460   -1.367220
  C     -1.885960   -3.488560   -0.702660
  S     -2.481620   -4.920110   -1.476440
  C     -3.085510   -5.478240    0.058540
  N     -3.743870   -6.702680    0.086180
  O     -4.168440   -7.099320    1.159510
  O     -3.846960   -7.296680   -0.977150
  C     -2.827390   -4.610060    1.088520
  C     -2.159300   -3.448260    0.675380
  C     -1.803740   -2.395760    1.603020
  C     -1.625980   -1.093550    1.331960
  C     -1.220180   -0.081950    2.287520
  C     -1.535360    0.018290    3.583320
  C     -2.491100   -0.868310    4.315470
  C     -0.963610    1.148920    4.411610
  N     -1.965500    2.136910    4.729740
  C     -2.579710    2.247620    5.918570
  C     -3.644150    3.064380    6.161590
  C     -4.223700    3.209570    7.429840
  C     -5.274660    4.044410    7.718250
  C     -5.886210    4.248690    8.975580
  C     -6.896420    5.164260    8.965450
  C     -7.140950    5.732100    7.696270
  S     -6.053750    5.064710    6.510680
  C     -8.082560    6.696050    7.367290
  C     -8.995480    7.338880    8.223640
  C     -9.778850    8.270130    7.600610
  C     -9.525040    8.402100    6.220200
  S     -8.261010    7.303810    5.735030
  C    -10.097350    9.261800    5.292920
  C    -11.115180   10.154740    5.582000
  C    -11.688670   11.080840    4.725170
  C    -13.025180   11.616190    5.037030
  O    -13.646450   11.485130    6.073030
  C    -13.471510   12.307220    3.805660
  C    -14.668550   12.901660    3.536960
  C    -14.883720   13.466960    2.258450
  C    -13.849000   13.397260    1.282690
  C    -14.072730   13.950870    0.006880
  C    -15.266250   14.549720   -0.285190
  C    -16.286630   14.621690    0.681260
  C    -16.101110   14.091810    1.927600
  F    -17.449830   15.216440    0.368270
  F    -15.476070   15.076550   -1.502560
  C    -12.612600   12.783980    1.596670
  C    -12.424660   12.252750    2.842690
  C    -11.266660   11.597680    3.458200
  C     -9.979320   11.674650    2.969620
  C     -8.825610   11.339040    3.702700
  N     -7.842200   11.140030    4.263140
  C     -9.647670   12.215280    1.714330
  N     -9.318380   12.620940    0.690340
  H     -0.414570   -2.968390   -6.157390
  H      1.257610    1.252520   -6.991510
  H      2.795970    0.432840   -6.677970
  H      2.378410    3.473690   -6.676790
  H      3.173410    2.549840   -7.960470
  H      3.910200    2.659890   -6.354470
  H      1.689150    0.801130   -0.579280
  H      0.187020    1.687390   -0.911840
  H      2.979290    2.947970   -0.751510
  H      1.743630    3.054720    0.511330
  H      1.481380    3.824840   -1.061610
  H     -0.739570   -1.825950   -0.813120
  H     -3.135590   -4.809450    2.099040
  H     -1.676440   -2.738560    2.619680
  H     -1.764710   -0.713410    0.327560
  H     -0.588280    0.689950    1.859620
  H     -3.175920   -1.358350    3.628860
  H     -3.070120   -0.282140    5.028610
  H     -1.953990   -1.633520    4.876660
  H     -0.147560    1.637180    3.869100
  H     -0.568220    0.752590    5.350800
  H     -2.378630    2.623200    3.946750
  H     -2.146310    1.666960    6.722720
  H     -4.063170    3.643020    5.349390
  H     -3.813510    2.632020    8.248420
  H     -5.558240    3.716370    9.851200
  H     -7.466630    5.445020    9.832180
  H     -9.053290    7.110910    9.272970
  H    -10.522530    8.859880    8.104560
  H     -9.719370    9.201830    4.282850
  H    -11.601610   10.088570    6.548220
  H    -15.443710   12.940630    4.287160
  H    -13.299440   13.907180   -0.744150
  H    -16.893320   14.154460    2.657210
  H    -11.848740   12.745280    0.836720

 Total Charge           Charge          ....    0
 Multiplicity           Mult            ....    1
 Number of Electrons    NEL             ....  500
 Basis Dimension        Dim             .... 1129

ORBITAL ENERGIES
----------------

  NO   OCC          E(Eh)            E(eV)
   0   2.0000     -88.986036     -2421.4332
   1   2.0000     -88.982064     -2421.3251
   2   2.0000     -88.960301     -2420.7328
   3   2.0000     -88.950792     -2420.4741
   4   2.0000     -24.778117      -674.2469
   5   2.0000     -24.777434      -674.2283
   6   2.0000     -19.274808      -524.4942
   7   2.0000     -19.268237      -524.3154
   8   2.0000     -19.229347      -523.2571
   9   2.0000     -19.228553      -523.2355
  10   2.0000     -19.181069      -521.9434
  11   2.0000     -14.641506      -398.4156
  12   2.0000     -14.489754      -394.2862
  13   2.0000     -14.474976      -393.8841
  14   2.0000     -14.435550      -392.8113
  15   2.0000     -14.422830      -392.4651
  16   2.0000     -14.385320      -391.4445
  17   2.0000     -14.382469      -391.3669
  18   2.0000     -10.394033      -282.8360
  19   2.0000     -10.390990      -282.7532
  20   2.0000     -10.375262      -282.3252
  21   2.0000     -10.358953      -281.8814
  22   2.0000     -10.358424      -281.8670
  23   2.0000     -10.355976      -281.8004
  24   2.0000     -10.353911      -281.7442
  25   2.0000     -10.342158      -281.4244
  26   2.0000     -10.341189      -281.3981
  27   2.0000     -10.335824      -281.2521
  28   2.0000     -10.332904      -281.1726
  29   2.0000     -10.332713      -281.1674
  30   2.0000     -10.329075      -281.0684
  31   2.0000     -10.317797      -280.7615
  32   2.0000     -10.317331      -280.7488
  33   2.0000     -10.314298      -280.6663
  34   2.0000     -10.313754      -280.6515
  35   2.0000     -10.312209      -280.6095
  36   2.0000     -10.309103      -280.5250
  37   2.0000     -10.308695      -280.5139
  38   2.0000     -10.307563      -280.4830
  39   2.0000     -10.306019      -280.4410
  40   2.0000     -10.304464      -280.3987
  41   2.0000     -10.304304      -280.3944
  42   2.0000     -10.303759      -280.3795
  43   2.0000     -10.299037      -280.2511
  44   2.0000     -10.296523      -280.1826
  45   2.0000     -10.296142      -280.1723
  46   2.0000     -10.295583      -280.1571
  47   2.0000     -10.295544      -280.1560
  48   2.0000     -10.292948      -280.0853
  49   2.0000     -10.290289      -280.0130
  50   2.0000     -10.288944      -279.9764
  51   2.0000     -10.286943      -279.9219
  52   2.0000     -10.286563      -279.9116
  53   2.0000     -10.285604      -279.8855
  54   2.0000     -10.285350      -279.8786
  55   2.0000     -10.284246      -279.8486
  56   2.0000     -10.279501      -279.7194
  57   2.0000     -10.279490      -279.7191
  58   2.0000     -10.278601      -279.6950
  59   2.0000     -10.278583      -279.6945
  60   2.0000     -10.278479      -279.6916
  61   2.0000     -10.275583      -279.6128
  62   2.0000     -10.274275      -279.5772
  63   2.0000     -10.267752      -279.3997
  64   2.0000     -10.265500      -279.3385
  65   2.0000     -10.264877      -279.3215
  66   2.0000     -10.256582      -279.0958
  67   2.0000      -8.081205      -219.9008
  68   2.0000      -8.076924      -219.7843
  69   2.0000      -8.056503      -219.2286
  70   2.0000      -8.047160      -218.9744
  71   2.0000      -6.050950      -164.6547
  72   2.0000      -6.046467      -164.5327
  73   2.0000      -6.046412      -164.5312
  74   2.0000      -6.042603      -164.4276
  75   2.0000      -6.041871      -164.4077
  76   2.0000      -6.039155      -164.3338
  77   2.0000      -6.026115      -163.9789
  78   2.0000      -6.022131      -163.8705
  79   2.0000      -6.017630      -163.7480
  80   2.0000      -6.016735      -163.7237
  81   2.0000      -6.012633      -163.6121
  82   2.0000      -6.008441      -163.4980
  83   2.0000      -1.309100       -35.6224
  84   2.0000      -1.299452       -35.3599
  85   2.0000      -1.284769       -34.9603
  86   2.0000      -1.201984       -32.7076
  87   2.0000      -1.178044       -32.0562
  88   2.0000      -1.127793       -30.6888
  89   2.0000      -1.102379       -29.9973
  90   2.0000      -1.095045       -29.7977
  91   2.0000      -1.074284       -29.2328
  92   2.0000      -1.072051       -29.1720
  93   2.0000      -1.009464       -27.4689
  94   2.0000      -1.004968       -27.3466
  95   2.0000      -1.003113       -27.2961
  96   2.0000      -0.989201       -26.9175
  97   2.0000      -0.980811       -26.6892
  98   2.0000      -0.976779       -26.5795
  99   2.0000      -0.975110       -26.5341
 100   2.0000      -0.963269       -26.2119
 101   2.0000      -0.953077       -25.9345
 102   2.0000      -0.946177       -25.7468
 103   2.0000      -0.923697       -25.1351
 104   2.0000      -0.910234       -24.7687
 105   2.0000      -0.905523       -24.6405
 106   2.0000      -0.893036       -24.3007
 107   2.0000      -0.890292       -24.2261
 108   2.0000      -0.884224       -24.0610
 109   2.0000      -0.872098       -23.7310
 110   2.0000      -0.866702       -23.5841
 111   2.0000      -0.865378       -23.5481
 112   2.0000      -0.860990       -23.4287
 113   2.0000      -0.856260       -23.3000
 114   2.0000      -0.848627       -23.0923
 115   2.0000      -0.836397       -22.7595
 116   2.0000      -0.834855       -22.7176
 117   2.0000      -0.830718       -22.6050
 118   2.0000      -0.824724       -22.4419
 119   2.0000      -0.815039       -22.1783
 120   2.0000      -0.809067       -22.0158
 121   2.0000      -0.801625       -21.8133
 122   2.0000      -0.785097       -21.3636
 123   2.0000      -0.783076       -21.3086
 124   2.0000      -0.765124       -20.8201
 125   2.0000      -0.758197       -20.6316
 126   2.0000      -0.739064       -20.1110
 127   2.0000      -0.735721       -20.0200
 128   2.0000      -0.733735       -19.9659
 129   2.0000      -0.724893       -19.7254
 130   2.0000      -0.717130       -19.5141
 131   2.0000      -0.714599       -19.4452
 132   2.0000      -0.704835       -19.1795
 133   2.0000      -0.697655       -18.9842
 134   2.0000      -0.691557       -18.8182
 135   2.0000      -0.690241       -18.7824
 136   2.0000      -0.685904       -18.6644
 137   2.0000      -0.675787       -18.3891
 138   2.0000      -0.670176       -18.2364
 139   2.0000      -0.662357       -18.0237
 140   2.0000      -0.653454       -17.7814
 141   2.0000      -0.650730       -17.7073
 142   2.0000      -0.643897       -17.5213
 143   2.0000      -0.639083       -17.3903
 144   2.0000      -0.638626       -17.3779
 145   2.0000      -0.632878       -17.2215
 146   2.0000      -0.628176       -17.0935
 147   2.0000      -0.627469       -17.0743
 148   2.0000      -0.624632       -16.9971
 149   2.0000      -0.622856       -16.9488
 150   2.0000      -0.622561       -16.9407
 151   2.0000      -0.619052       -16.8453
 152   2.0000      -0.614840       -16.7306
 153   2.0000      -0.607053       -16.5188
 154   2.0000      -0.602619       -16.3981
 155   2.0000      -0.597663       -16.2632
 156   2.0000      -0.589474       -16.0404
 157   2.0000      -0.589354       -16.0371
 158   2.0000      -0.586927       -15.9711
 159   2.0000      -0.582598       -15.8533
 160   2.0000      -0.580593       -15.7987
 161   2.0000      -0.578290       -15.7361
 162   2.0000      -0.572324       -15.5737
 163   2.0000      -0.571420       -15.5491
 164   2.0000      -0.564592       -15.3633
 165   2.0000      -0.559239       -15.2177
 166   2.0000      -0.557711       -15.1761
 167   2.0000      -0.552121       -15.0240
 168   2.0000      -0.548499       -14.9254
 169   2.0000      -0.546577       -14.8731
 170   2.0000      -0.543883       -14.7998
 171   2.0000      -0.535788       -14.5795
 172   2.0000      -0.531031       -14.4501
 173   2.0000      -0.529832       -14.4174
 174   2.0000      -0.527655       -14.3582
 175   2.0000      -0.526867       -14.3368
 176   2.0000      -0.519148       -14.1267
 177   2.0000      -0.515648       -14.0315
 178   2.0000      -0.513182       -13.9644
 179   2.0000      -0.511304       -13.9133
 180   2.0000      -0.510383       -13.8882
 181   2.0000      -0.507099       -13.7989
 182   2.0000      -0.506440       -13.7809
 183   2.0000      -0.505239       -13.7483
 184   2.0000      -0.504534       -13.7291
 185   2.0000      -0.503225       -13.6934
 186   2.0000      -0.496862       -13.5203
 187   2.0000      -0.494522       -13.4566
 188   2.0000      -0.493873       -13.4390
 189   2.0000      -0.491530       -13.3752
 190   2.0000      -0.489211       -13.3121
 191   2.0000      -0.488614       -13.2959
 192   2.0000      -0.488270       -13.2865
 193   2.0000      -0.486080       -13.2269
 194   2.0000      -0.485517       -13.2116
 195   2.0000      -0.484619       -13.1871
 196   2.0000      -0.478399       -13.0179
 197   2.0000      -0.476155       -12.9568
 198   2.0000      -0.475602       -12.9418
 199   2.0000      -0.470875       -12.8132
 200   2.0000      -0.469052       -12.7635
 201   2.0000      -0.468671       -12.7532
 202   2.0000      -0.467315       -12.7163
 203   2.0000      -0.458555       -12.4779
 204   2.0000      -0.457082       -12.4378
 205   2.0000      -0.451883       -12.2964
 206   2.0000      -0.450607       -12.2616
 207   2.0000      -0.444512       -12.0958
 208   2.0000      -0.444078       -12.0840
 209   2.0000      -0.441136       -12.0039
 210   2.0000      -0.440845       -11.9960
 211   2.0000      -0.437453       -11.9037
 212   2.0000      -0.434601       -11.8261
 213   2.0000      -0.430379       -11.7112
 214   2.0000      -0.426994       -11.6191
 215   2.0000      -0.426762       -11.6128
 216   2.0000      -0.424239       -11.5441
 217   2.0000      -0.423655       -11.5282
 218   2.0000      -0.419031       -11.4024
 219   2.0000      -0.414272       -11.2729
 220   2.0000      -0.413324       -11.2471
 221   2.0000      -0.411703       -11.2030
 222   2.0000      -0.408854       -11.1255
 223   2.0000      -0.405139       -11.0244
 224   2.0000      -0.402017       -10.9394
 225   2.0000      -0.399973       -10.8838
 226   2.0000      -0.396708       -10.7950
 227   2.0000      -0.392878       -10.6907
 228   2.0000      -0.387971       -10.5572
 229   2.0000      -0.385019       -10.4769
 230   2.0000      -0.378183       -10.2909
 231   2.0000      -0.374793       -10.1986
 232   2.0000      -0.371504       -10.1091
 233   2.0000      -0.363400        -9.8886
 234   2.0000      -0.360020        -9.7967
 235   2.0000      -0.358302        -9.7499
 236   2.0000      -0.350651        -9.5417
 237   2.0000      -0.349237        -9.5032
 238   2.0000      -0.344095        -9.3633
 239   2.0000      -0.331896        -9.0314
 240   2.0000      -0.328914        -8.9502
 241   2.0000      -0.318924        -8.6784
 242   2.0000      -0.306482        -8.3398
 243   2.0000      -0.303183        -8.2500
 244   2.0000      -0.302036        -8.2188
 245   2.0000      -0.292222        -7.9518
 246   2.0000      -0.279475        -7.6049
 247   2.0000      -0.268715        -7.3121
 248   2.0000      -0.251445        -6.8422
 249   2.0000      -0.212795        -5.7905
 250   0.0000      -0.095212        -2.5908
 251   0.0000      -0.056775        -1.5449
 252   0.0000      -0.044665        -1.2154
 253   0.0000      -0.037843        -1.0298
 254   0.0000      -0.028050        -0.7633

MULLIKEN ATOMIC CHARGES
-----------------------
   0 C :   -0.175034
   1 S :    0.130750
   2 C :   -0.185945
   3 C :    0.062619
   4 C :    0.089210
   5 N :   -0.047008
   6 C :    0.082294
   7 O :   -0.271144
   8 C :    0.165245
   9 C :    0.015350
  10 C :    0.098316
  11 O :   -0.268388
  12 C :    0.157664
  13 C :    0.013413
  14 N :   -0.083490
  15 N :   -0.003184
  16 C :   -0.097110
  17 S :    0.153745
  18 C :   -0.010114
  19 N :    0.277690
  20 O :   -0.263948
  21 O :   -0.275407
  22 C :    0.013693
  23 C :    0.094988
  24 C :   -0.015290
  25 C :   -0.034366
  26 C :    0.000585
  27 C :   -0.193832
  28 C :    0.078623
  29 C :    0.197807
  30 N :   -0.129853
  31 C :    0.070831
  32 C :   -0.037173
  33 C :    0.018286
  34 C :   -0.054765
  35 C :    0.059553
  36 C :    0.006900
  37 C :   -0.016659
  38 S :    0.092698
  39 C :   -0.077535
  40 C :    0.036193
  41 C :    0.014437
  42 C :   -0.042472
  43 S :    0.131418
  44 C :    0.032784
  45 C :    0.029048
  46 C :   -0.148239
  47 C :    0.138733
  48 O :   -0.168514
  49 C :    0.011342
  50 C :   -0.101010
  51 C :    0.120531
  52 C :    0.118945
  53 C :   -0.115660
  54 C :    0.238116
  55 C :    0.234886
  56 C :   -0.112542
  57 F :   -0.180546
  58 F :   -0.179653
  59 C :   -0.099420
  60 C :    0.041278
  61 C :    0.298409
  62 C :   -0.361115
  63 C :   -0.224401
  64 N :    0.148194
  65 C :   -0.178107
  66 N :    0.122429
  67 H :    0.014615
  68 H :    0.022489
  69 H :    0.019954
  70 H :    0.027023
  71 H :    0.021873
  72 H :    0.026197
  73 H :    0.016352
  74 H :    0.014795
  75 H :    0.033980
  76 H :    0.012657
  77 H :    0.033034
  78 H :    0.141824
  79 H :    0.003982
  80 H :   -0.001610
  81 H :    0.003565
  82 H :   -0.020735
  83 H :    0.035214
  84 H :    0.017579
  85 H :    0.034438
  86 H :    0.015340
  87 H :    0.021309
  88 H :    0.128770
  89 H :    0.013932
  90 H :   -0.003150
  91 H :   -0.010025
  92 H :   -0.008581
  93 H :   -0.010474
  94 H :   -0.010253
  95 H :   -0.001795
  96 H :   -0.002869
  97 H :   -0.001921
  98 H :   -0.017943
  99 H :    0.001606
 100 H :   -0.006372
 101 H :   -0.009881
Sum of atomic charges:   -0.0000000

LOEWDIN ATOMIC CHARGES
----------------------
   0 C :   -0.220125
   1 S :    0.456886
   2 C :   -0.162244
   3 C :   -0.089479
   4 C :   -0.047959
   5 N :   -0.095621
   6 C :    0.044813
   7 O :   -0.068843
   8 C :    0.089831
   9 C :   -0.061632
  10 C :    0.044681
  11 O :   -0.067819
  12 C :    0.084672
  13 C :   -0.061515
  14 N :   -0.111326
  15 N :    0.041706
  16 C :   -0.093520
  17 S :    0.452562
  18 C :   -0.224088
  19 N :    0.274173
  20 O :   -0.229924
  21 O :   -0.241539
  22 C :    0.003768
  23 C :   -0.118630
  24 C :   -0.006721
  25 C :   -0.057048
  26 C :   -0.047391
  27 C :   -0.042726
  28 C :   -0.053964
  29 C :    0.048933
  30 N :    0.025247
  31 C :    0.067597
  32 C :   -0.127221
  33 C :    0.002395
  34 C :   -0.188247
  35 C :   -0.004452
  36 C :   -0.057903
  37 C :   -0.134245
  38 S :    0.389291
  39 C :   -0.214961
  40 C :   -0.004334
  41 C :   -0.058416
  42 C :   -0.097397
  43 S :    0.414515
  44 C :   -0.081989
  45 C :    0.057889
  46 C :   -0.125372
  47 C :    0.074360
  48 O :   -0.171448
  49 C :   -0.047632
  50 C :    0.018584
  51 C :   -0.012363
  52 C :   -0.008564
  53 C :   -0.032764
  54 C :    0.061189
  55 C :    0.061286
  56 C :   -0.036367
  57 F :   -0.058033
  58 F :   -0.057298
  59 C :    0.004399
  60 C :   -0.014816
  61 C :    0.067102
  62 C :   -0.167351
  63 C :   -0.024732
  64 N :   -0.073494
  65 C :   -0.019452
  66 N :   -0.080507
  67 H :    0.028066
  68 H :    0.019876
  69 H :    0.019553
  70 H :    0.030243
  71 H :    0.033633
  72 H :    0.029930
  73 H :    0.015692
  74 H :    0.013553
  75 H :    0.032988
  76 H :    0.029388
  77 H :    0.032529
  78 H :    0.094437
  79 H :    0.043945
  80 H :    0.033549
  81 H :    0.024505
  82 H :    0.023834
  83 H :    0.037221
  84 H :    0.030577
  85 H :    0.037444
  86 H :    0.028162
  87 H :    0.032822
  88 H :    0.086942
  89 H :    0.032286
  90 H :    0.022330
  91 H :    0.035978
  92 H :    0.035685
  93 H :    0.032758
  94 H :    0.033792
  95 H :    0.035594
  96 H :    0.030761
  97 H :    0.036333
  98 H :    0.036616
  99 H :    0.045115
 100 H :    0.042031
 101 H :    0.037427

  Mayer bond orders larger than 0.100000
B(  0-C ,  1-S ) :   1.1203 B(  0-C ,  2-C ) :   0.1126 B(  0-C ,  4-C ) :   1.4677
B(  0-C , 67-H ) :   0.9802 B(  1-S ,  2-C ) :   1.1658 B(  2-C ,  3-C ) :   1.3709
B(  2-C , 15-N ) :   1.1511 B(  3-C ,  4-C ) :   1.2331 B(  3-C , 14-N ) :   1.2939
B(  4-C ,  5-N ) :   1.2892 B(  5-N ,  6-C ) :   1.6905 B(  6-C ,  7-O ) :   1.2800
B(  6-C , 10-C ) :   1.0438 B(  7-O ,  8-C ) :   0.9001 B(  8-C ,  9-C ) :   1.0945
B(  8-C , 68-H ) :   0.9564 B(  8-C , 69-H ) :   0.9581 B(  9-C , 70-H ) :   0.9691
B(  9-C , 71-H ) :   0.9611 B(  9-C , 72-H ) :   0.9682 B( 10-C , 11-O ) :   1.2681
B( 10-C , 14-N ) :   1.6674 B( 11-O , 12-C ) :   0.9135 B( 12-C , 13-C ) :   1.0937
B( 12-C , 73-H ) :   0.9557 B( 12-C , 74-H ) :   0.9549 B( 13-C , 75-H ) :   0.9688
B( 13-C , 76-H ) :   0.9609 B( 13-C , 77-H ) :   0.9689 B( 15-N , 16-C ) :   1.2524
B( 15-N , 78-H ) :   0.8728 B( 16-C , 17-S ) :   1.1406 B( 16-C , 23-C ) :   1.3369
B( 17-S , 18-C ) :   1.0617 B( 18-C , 19-N ) :   0.9940 B( 18-C , 22-C ) :   1.4598
B( 19-N , 20-O ) :   1.5217 B( 19-N , 21-O ) :   1.5002 B( 20-O , 21-O ) :   0.2485
B( 22-C , 23-C ) :   1.2577 B( 22-C , 79-H ) :   1.0057 B( 23-C , 24-C ) :   1.0713
B( 24-C , 25-C ) :   1.7671 B( 24-C , 80-H ) :   0.9618 B( 25-C , 26-C ) :   1.0660
B( 25-C , 81-H ) :   0.9450 B( 26-C , 27-C ) :   1.8599 B( 26-C , 82-H ) :   0.9483
B( 27-C , 28-C ) :   1.0713 B( 27-C , 29-C ) :   1.0422 B( 28-C , 83-H ) :   0.9478
B( 28-C , 84-H ) :   0.9477 B( 28-C , 85-H ) :   0.9419 B( 29-C , 30-N ) :   0.9940
B( 29-C , 86-H ) :   0.9395 B( 29-C , 87-H ) :   0.9312 B( 30-N , 31-C ) :   1.2813
B( 30-N , 88-H ) :   0.9343 B( 31-C , 32-C ) :   1.5295 B( 31-C , 89-H ) :   0.9666
B( 32-C , 33-C ) :   1.2208 B( 32-C , 90-H ) :   0.9643 B( 33-C , 34-C ) :   1.5342
B( 33-C , 91-H ) :   0.9789 B( 34-C , 35-C ) :   1.1775 B( 34-C , 38-S ) :   1.0122
B( 35-C , 36-C ) :   1.5480 B( 35-C , 92-H ) :   0.9983 B( 36-C , 37-C ) :   1.2253
B( 36-C , 93-H ) :   0.9941 B( 37-C , 38-S ) :   1.1010 B( 37-C , 39-C ) :   1.4227
B( 39-C , 40-C ) :   1.2518 B( 39-C , 43-S ) :   1.0423 B( 40-C , 41-C ) :   1.5198
B( 40-C , 94-H ) :   0.9922 B( 41-C , 42-C ) :   1.2299 B( 41-C , 95-H ) :   0.9912
B( 42-C , 43-S ) :   1.1188 B( 42-C , 44-C ) :   1.3950 B( 44-C , 45-C ) :   1.3282
B( 44-C , 96-H ) :   0.9484 B( 45-C , 46-C ) :   1.4451 B( 45-C , 97-H ) :   0.9431
B( 46-C , 47-C ) :   0.9849 B( 46-C , 61-C ) :   1.1214 B( 47-C , 48-O ) :   2.2321
B( 47-C , 49-C ) :   0.9129 B( 49-C , 50-C ) :   1.4903 B( 49-C , 60-C ) :   1.2218
B( 50-C , 51-C ) :   1.1775 B( 50-C , 98-H ) :   1.0158 B( 51-C , 52-C ) :   1.2654
B( 51-C , 56-C ) :   1.1963 B( 52-C , 53-C ) :   1.1940 B( 52-C , 59-C ) :   1.1989
B( 53-C , 54-C ) :   1.4354 B( 53-C , 56-C ) :   0.1102 B( 53-C , 99-H ) :   1.0070
B( 54-C , 55-C ) :   1.2007 B( 54-C , 58-F ) :   1.1262 B( 55-C , 56-C ) :   1.4384
B( 55-C , 57-F ) :   1.1242 B( 56-C ,100-H ) :   1.0067 B( 59-C , 60-C ) :   1.4717
B( 59-C ,101-H ) :   0.9918 B( 60-C , 61-C ) :   0.9840 B( 61-C , 62-C ) :   1.5651
B( 62-C , 63-C ) :   1.1707 B( 62-C , 65-C ) :   1.1433 B( 63-C , 64-N ) :   3.0111
B( 65-C , 66-N ) :   2.9648

-----------------------------------------------------------------------------
         ABSORPTION SPECTRUM VIA TRANSITION ELECTRIC DIPOLE MOMENTS
-----------------------------------------------------------------------------
State   Energy  Wavelength   fosc         T2         TX        TY        TZ
        (cm-1)    (nm)                  (au**2)     (au)      (au)      (au)
-----------------------------------------------------------------------------
   0   12076.0    828.1   1.554700283  42.38374   4.08380  -4.80899   1.60620
   1   21997.6    454.6   0.107311363   1.60600  -0.96910   0.23754   0.78129
   2   23746.1    421.1   0.504611707   6.99586  -1.94626   0.50430   1.71861
   3   24416.4    409.6   0.632415250   8.52700   1.20002   1.68431  -2.06156
   4   25259.7    395.9   0.069371320   0.90412  -0.38208   0.51186   0.70437
   5   25788.1    387.8   0.041836568   0.53409   0.60355   0.40225   0.08951
   6   26663.3    375.0   0.005488207   0.06776  -0.18462  -0.16997   0.06920
   7   27247.9    367.0   0.176190181   2.12875   0.40692  -0.20288   1.38636
   8   28223.6    354.3   0.000486052   0.00567   0.03720  -0.03081   0.05776
   9   28499.7    350.9   0.235184467   2.71672  -0.42101  -1.43292  -0.69728
  10   29073.0    344.0   0.026013494   0.29457   0.44157   0.30191  -0.09187
  11   29484.0    339.2   0.015045235   0.16799   0.36884  -0.17784   0.01800
  12   30753.7    325.2   0.116681199   1.24905  -0.14108   0.30818   1.06497
  13   30937.1    323.2   0.009460730   0.10067  -0.01319  -0.23448   0.21336
  14   31973.8    312.8   0.093052978   0.95810   0.07140   0.16497  -0.96218
  15   32438.8    308.3   0.100848397   1.02348  -0.94172   0.26068  -0.26209
  16   32554.8    307.2   0.007740130   0.07827   0.07686  -0.19188   0.18854
  17   33236.4    300.9   0.005726546   0.05672  -0.21406   0.08111  -0.06574
  18   33509.3    298.4   0.001253556   0.01232   0.10576   0.02562   0.02175
  19   34145.4    292.9   0.502496384   4.84481  -1.81471   0.86171  -0.89950
  20   34930.3    286.3   0.024501634   0.23092   0.03606  -0.36386  -0.31181
  21   35728.6    279.9   0.009441330   0.08699  -0.06964  -0.21300  -0.19177
  22   35837.2    279.0   0.106885764   0.98189  -0.49844  -0.84540  -0.13689
  23   36354.5    275.1   0.242684207   2.19765  -0.62523  -1.29460  -0.36159
  24   36511.8    273.9   0.061039991   0.55037  -0.50327  -0.30616   0.45095
  25   37280.3    268.2   0.168158440   1.48496   1.00589  -0.68082  -0.09819
  26   37652.5    265.6   0.009584932   0.08381   0.15712   0.10097   0.22118
  27   37686.8    265.3   0.037807713   0.33027  -0.31139   0.03450  -0.48178
  28   37971.5    263.4   0.001872482   0.01623  -0.08562  -0.09095  -0.02514
  29   38260.5    261.4   0.003572163   0.03074   0.15896   0.06319  -0.03843
  30   38564.8    259.3   0.279616225   2.38697   1.35970  -0.39434  -0.61862
  31   38941.0    256.8   0.023664843   0.20007  -0.38036  -0.15903   0.17350
  32   39854.7    250.9   0.042943172   0.35472   0.18506   0.56435  -0.04455
  33   39961.6    250.2   0.032778886   0.27004  -0.32691  -0.07010   0.39781
  34   40305.1    248.1   0.052244804   0.42674   0.00243   0.34251   0.55625

FINAL SINGLE POINT ENERGY     -4435.905202396956

DIPOLE MOMENT
-------------
                                X             Y             Z
Electronic contribution:    -94.30979      47.57775      -8.21075
Nuclear contribution   :    100.17950     -51.55277       9.87400
                        -----------------------------------------
Total Dipole Moment    :      5.86971      -3.97502       1.66325
                        -----------------------------------------
Magnitude (a.u.)       :      7.28152
Magnitude (Debye)      :     18.50816

Rotational constants in cm-1:     0.000935     0.000215     0.000195
Rotational constants in MHz :    28.039194     6.443305     5.858750

                             ****ORCA TERMINATED NORMALLY****
TOTAL RUN TIME: 0 days 0 hours 8 minutes 59 seconds 821 msec
