                         Program Version 4.2.0 -  RELEASE  -
|  1> # ORCA input file
|  2> # SCF done       -163.850685030704          0.000523944404
|  3> ! CAM-B3LYP def2-SVP def2/J RIJCOSX Grid4 TightSCF
|  4> %maxcore 5000
|  5> %tddft
|  6>     Mode sTDDFT
|  7>     Ethresh 5.0
|  8>     maxcore 5000
|  9> end
| 10>
| 11> %pal
| 12>   nprocs 6
| 13>   end
| 14> * xyz 0 1
| 15>    C        0.98187        -2.82096        -0.98914
| 16>    N        1.41744        -2.30021        -2.17277
| 17>    C        0.47812        -1.46858        -2.70159
| 18>    C       -0.59201        -1.45158        -1.83732
| 19>    C       -0.25989        -2.31364        -0.75484
| 20>    S       -1.63162        -2.30015         0.37495
| 21>    O       -1.28775        -1.68051         1.62645
| 22>    O       -2.29088        -3.57672         0.43781
| 23>    C       -2.58298        -1.14535        -0.65798
| 24>    C       -1.87883        -0.81926        -1.76027
| 25>    C       -3.85799        -0.77129        -0.16486
| 26>    C       -4.71758         0.08563        -0.75415
| 27>    N       -5.92473         0.40834        -0.20387
| 28>    C       -6.82830         1.28239        -0.70206
| 29>    S       -6.53975         2.11375        -2.19509
| 30>    C       -8.05462         2.94887        -2.00609
| 31>    N       -8.42716         3.84023        -2.99855
| 32>    O       -9.50532         4.41324        -2.88070
| 33>    O       -7.65391         3.99735        -3.93409
| 34>    C       -8.72349         2.60242        -0.85973
| 35>    C       -8.04651         1.63792        -0.09094
| 36>    C       -8.52382         1.07681         1.13583
| 37>    C       -9.60693         1.54008         1.81493
| 38>    C      -10.10832         0.98277         3.00381
| 39>    C      -11.17358         1.51622         3.68665
| 40>    C      -11.77911         1.02839         4.87118
| 41>    C      -12.82497         1.77987         5.31617
| 42>    C      -13.10376         2.90733         4.51315
| 43>    S      -11.99013         2.98170         3.16365
| 44>    C      -14.07015         3.87901         4.68178
| 45>    C      -15.02622         3.99447         5.71841
| 46>    C      -15.81818         5.09360         5.61259
| 47>    C      -15.53161         5.90718         4.48271
| 48>    S      -14.21784         5.20408         3.54643
| 49>    C      -16.15636         7.07745         4.16361
| 50>    N      -15.85885         7.83513         3.07797
| 51>    C      -16.41240         9.03533         2.80217
| 52>    S      -17.50053         9.80861         3.91477
| 53>    C      -17.58891        11.19004         2.85906
| 54>    N      -18.39651        12.24859         3.25407
| 55>    O      -18.45906        13.22554         2.52254
| 56>    O      -18.99040        12.12422         4.31758
| 57>    C      -16.82689        11.05621         1.72559
| 58>    C      -16.15509         9.82786         1.66471
| 59>    C      -15.30765         9.34516         0.61875
| 60>    C      -14.70149        10.01508        -0.37951
| 61>    C      -13.80138         9.27631        -1.21405
| 62>    N      -13.00169         9.78635        -2.20581
| 63>    C      -12.18900         8.81863        -2.71836
| 64>    C      -12.46296         7.64412        -2.05121
| 65>    C      -13.48320         7.93813        -1.11771
| 66>    S      -13.88602         6.45310        -0.24203
| 67>    O      -15.20918         5.98983        -0.57261
| 68>    O      -13.65177         6.62311         1.18391
| 69>    C      -12.60814         5.50297        -1.11244
| 70>    C      -12.00013         6.28136        -2.02507
| 71>    C      -12.42383         4.10825        -0.85964
| 72>    C      -13.09737         3.44364         0.07632
| 73>    H        1.57903        -3.49993        -0.41556
| 74>    H        2.30909        -2.50283        -2.59582
| 75>    H        0.63617        -0.96133        -3.63182
| 76>    H       -2.22173        -0.14848        -2.53173
| 77>    H       -4.12184        -1.23351         0.77772
| 78>    H       -4.49266         0.56769        -1.69349
| 79>    H       -6.15090        -0.02764         0.68256
| 80>    H       -9.67154         3.03551        -0.60029
| 81>    H       -7.98818         0.22886         1.54266
| 82>    H      -10.13408         2.40752         1.44122
| 83>    H       -9.64204         0.09317         3.40518
| 84>    H      -11.42293         0.13529         5.35378
| 85>    H      -13.40067         1.55501         6.19620
| 86>    H      -15.09719         3.26944         6.50903
| 87>    H      -16.59724         5.35626         6.30576
| 88>    H      -16.93968         7.45278         4.80812
| 89>    H      -15.14746         7.46697         2.44042
| 90>    H      -16.78481        11.81784         0.96917
| 91>    H      -15.11034         8.28690         0.66064
| 92>    H      -14.81828        11.07606        -0.53865
| 93>    H      -13.01095        10.74805        -2.50654
| 94>    H      -11.48907         9.03037        -3.50123
| 95>    H      -11.21501         5.92059        -2.67132
| 96>    H      -11.70547         3.61761        -1.50551
| 97>    H      -13.81399         3.94634         0.70285
| 98>    H      -12.95630         2.38910         0.23862
| 99> *
|100>
|101>                          ****END OF INPUT****

CARTESIAN COORDINATES (ANGSTROEM)
---------------------------------
  C      0.981870   -2.820960   -0.989140
  N      1.417440   -2.300210   -2.172770
  C      0.478120   -1.468580   -2.701590
  C     -0.592010   -1.451580   -1.837320
  C     -0.259890   -2.313640   -0.754840
  S     -1.631620   -2.300150    0.374950
  O     -1.287750   -1.680510    1.626450
  O     -2.290880   -3.576720    0.437810
  C     -2.582980   -1.145350   -0.657980
  C     -1.878830   -0.819260   -1.760270
  C     -3.857990   -0.771290   -0.164860
  C     -4.717580    0.085630   -0.754150
  N     -5.924730    0.408340   -0.203870
  C     -6.828300    1.282390   -0.702060
  S     -6.539750    2.113750   -2.195090
  C     -8.054620    2.948870   -2.006090
  N     -8.427160    3.840230   -2.998550
  O     -9.505320    4.413240   -2.880700
  O     -7.653910    3.997350   -3.934090
  C     -8.723490    2.602420   -0.859730
  C     -8.046510    1.637920   -0.090940
  C     -8.523820    1.076810    1.135830
  C     -9.606930    1.540080    1.814930
  C    -10.108320    0.982770    3.003810
  C    -11.173580    1.516220    3.686650
  C    -11.779110    1.028390    4.871180
  C    -12.824970    1.779870    5.316170
  C    -13.103760    2.907330    4.513150
  S    -11.990130    2.981700    3.163650
  C    -14.070150    3.879010    4.681780
  C    -15.026220    3.994470    5.718410
  C    -15.818180    5.093600    5.612590
  C    -15.531610    5.907180    4.482710
  S    -14.217840    5.204080    3.546430
  C    -16.156360    7.077450    4.163610
  N    -15.858850    7.835130    3.077970
  C    -16.412400    9.035330    2.802170
  S    -17.500530    9.808610    3.914770
  C    -17.588910   11.190040    2.859060
  N    -18.396510   12.248590    3.254070
  O    -18.459060   13.225540    2.522540
  O    -18.990400   12.124220    4.317580
  C    -16.826890   11.056210    1.725590
  C    -16.155090    9.827860    1.664710
  C    -15.307650    9.345160    0.618750
  C    -14.701490   10.015080   -0.379510
  C    -13.801380    9.276310   -1.214050
  N    -13.001690    9.786350   -2.205810
  C    -12.189000    8.818630   -2.718360
  C    -12.462960    7.644120   -2.051210
  C    -13.483200    7.938130   -1.117710
  S    -13.886020    6.453100   -0.242030
  O    -15.209180    5.989830   -0.572610
  O    -13.651770    6.623110    1.183910
  C    -12.608140    5.502970   -1.112440
  C    -12.000130    6.281360   -2.025070
  C    -12.423830    4.108250   -0.859640
  C    -13.097370    3.443640    0.076320
  H      1.579030   -3.499930   -0.415560
  H      2.309090   -2.502830   -2.595820
  H      0.636170   -0.961330   -3.631820
  H     -2.221730   -0.148480   -2.531730
  H     -4.121840   -1.233510    0.777720
  H     -4.492660    0.567690   -1.693490
  H     -6.150900   -0.027640    0.682560
  H     -9.671540    3.035510   -0.600290
  H     -7.988180    0.228860    1.542660
  H    -10.134080    2.407520    1.441220
  H     -9.642040    0.093170    3.405180
  H    -11.422930    0.135290    5.353780
  H    -13.400670    1.555010    6.196200
  H    -15.097190    3.269440    6.509030
  H    -16.597240    5.356260    6.305760
  H    -16.939680    7.452780    4.808120
  H    -15.147460    7.466970    2.440420
  H    -16.784810   11.817840    0.969170
  H    -15.110340    8.286900    0.660640
  H    -14.818280   11.076060   -0.538650
  H    -13.010950   10.748050   -2.506540
  H    -11.489070    9.030370   -3.501230
  H    -11.215010    5.920590   -2.671320
  H    -11.705470    3.617610   -1.505510
  H    -13.813990    3.946340    0.702850
  H    -12.956300    2.389100    0.238620

 Total Charge           Charge          ....    0
 Multiplicity           Mult            ....    1
 Number of Electrons    NEL             ....  456
 Basis Dimension        Dim             ....  966

ORBITAL ENERGIES
----------------

  NO   OCC          E(Eh)            E(eV)
   0   2.0000     -89.143656     -2425.7222
   1   2.0000     -89.135626     -2425.5037
   2   2.0000     -88.983314     -2421.3591
   3   2.0000     -88.974705     -2421.1248
   4   2.0000     -88.938716     -2420.1455
   5   2.0000     -88.937094     -2420.1014
   6   2.0000     -19.236843      -523.4611
   7   2.0000     -19.236020      -523.4387
   8   2.0000     -19.222003      -523.0573
   9   2.0000     -19.221252      -523.0369
  10   2.0000     -19.200199      -522.4640
  11   2.0000     -19.189318      -522.1679
  12   2.0000     -19.184367      -522.0332
  13   2.0000     -19.184027      -522.0239
  14   2.0000     -14.647808      -398.5871
  15   2.0000     -14.633737      -398.2042
  16   2.0000     -14.487756      -394.2319
  17   2.0000     -14.484946      -394.1554
  18   2.0000     -14.480984      -394.0476
  19   2.0000     -14.476562      -393.9273
  20   2.0000     -10.369105      -282.1577
  21   2.0000     -10.362073      -281.9663
  22   2.0000     -10.340902      -281.3902
  23   2.0000     -10.338180      -281.3162
  24   2.0000     -10.329282      -281.0740
  25   2.0000     -10.329073      -281.0684
  26   2.0000     -10.327130      -281.0155
  27   2.0000     -10.323755      -280.9237
  28   2.0000     -10.315288      -280.6933
  29   2.0000     -10.313262      -280.6381
  30   2.0000     -10.306570      -280.4560
  31   2.0000     -10.306419      -280.4519
  32   2.0000     -10.303134      -280.3625
  33   2.0000     -10.302907      -280.3563
  34   2.0000     -10.302447      -280.3438
  35   2.0000     -10.300836      -280.3000
  36   2.0000     -10.299414      -280.2613
  37   2.0000     -10.298494      -280.2363
  38   2.0000     -10.298074      -280.2248
  39   2.0000     -10.296033      -280.1693
  40   2.0000     -10.293710      -280.1061
  41   2.0000     -10.291022      -280.0329
  42   2.0000     -10.288920      -279.9757
  43   2.0000     -10.287399      -279.9343
  44   2.0000     -10.286540      -279.9110
  45   2.0000     -10.286373      -279.9064
  46   2.0000     -10.284394      -279.8526
  47   2.0000     -10.282263      -279.7946
  48   2.0000     -10.282110      -279.7904
  49   2.0000     -10.281381      -279.7706
  50   2.0000     -10.280117      -279.7362
  51   2.0000     -10.278516      -279.6926
  52   2.0000     -10.278221      -279.6846
  53   2.0000     -10.276902      -279.6487
  54   2.0000     -10.276516      -279.6382
  55   2.0000     -10.272958      -279.5414
  56   2.0000     -10.269685      -279.4523
  57   2.0000     -10.264642      -279.3151
  58   2.0000      -8.207795      -223.3455
  59   2.0000      -8.200223      -223.1394
  60   2.0000      -8.078745      -219.8338
  61   2.0000      -8.069996      -219.5958
  62   2.0000      -8.034381      -218.6266
  63   2.0000      -8.033011      -218.5893
  64   2.0000      -6.177013      -168.0851
  65   2.0000      -6.176549      -168.0724
  66   2.0000      -6.175889      -168.0545
  67   2.0000      -6.169332      -167.8761
  68   2.0000      -6.168826      -167.8623
  69   2.0000      -6.168542      -167.8546
  70   2.0000      -6.048477      -164.5874
  71   2.0000      -6.044175      -164.4704
  72   2.0000      -6.039989      -164.3565
  73   2.0000      -6.039696      -164.3485
  74   2.0000      -6.035366      -164.2307
  75   2.0000      -6.031356      -164.1215
  76   2.0000      -6.004200      -163.3826
  77   2.0000      -6.002735      -163.3427
  78   2.0000      -6.000119      -163.2716
  79   2.0000      -5.998789      -163.2354
  80   2.0000      -5.995030      -163.1331
  81   2.0000      -5.993910      -163.1026
  82   2.0000      -1.313604       -35.7450
  83   2.0000      -1.300375       -35.3850
  84   2.0000      -1.197236       -32.5784
  85   2.0000      -1.189854       -32.3776
  86   2.0000      -1.131863       -30.7996
  87   2.0000      -1.119099       -30.4522
  88   2.0000      -1.096481       -29.8368
  89   2.0000      -1.094026       -29.7700
  90   2.0000      -1.093487       -29.7553
  91   2.0000      -1.084795       -29.5188
  92   2.0000      -1.072038       -29.1716
  93   2.0000      -1.066766       -29.0282
  94   2.0000      -1.002317       -27.2744
  95   2.0000      -0.995694       -27.0942
  96   2.0000      -0.986844       -26.8534
  97   2.0000      -0.965874       -26.2828
  98   2.0000      -0.958791       -26.0900
  99   2.0000      -0.957575       -26.0569
 100   2.0000      -0.921017       -25.0622
 101   2.0000      -0.919811       -25.0293
 102   2.0000      -0.904893       -24.6234
 103   2.0000      -0.892855       -24.2958
 104   2.0000      -0.888167       -24.1682
 105   2.0000      -0.884507       -24.0686
 106   2.0000      -0.873066       -23.7573
 107   2.0000      -0.860567       -23.4172
 108   2.0000      -0.855054       -23.2672
 109   2.0000      -0.849011       -23.1028
 110   2.0000      -0.841264       -22.8920
 111   2.0000      -0.837248       -22.7827
 112   2.0000      -0.830864       -22.6090
 113   2.0000      -0.825517       -22.4635
 114   2.0000      -0.816210       -22.2102
 115   2.0000      -0.813640       -22.1403
 116   2.0000      -0.794034       -21.6068
 117   2.0000      -0.784036       -21.3347
 118   2.0000      -0.777167       -21.1478
 119   2.0000      -0.773591       -21.0505
 120   2.0000      -0.758176       -20.6310
 121   2.0000      -0.739249       -20.1160
 122   2.0000      -0.728038       -19.8109
 123   2.0000      -0.726757       -19.7761
 124   2.0000      -0.718631       -19.5549
 125   2.0000      -0.713778       -19.4229
 126   2.0000      -0.691442       -18.8151
 127   2.0000      -0.683689       -18.6041
 128   2.0000      -0.675774       -18.3888
 129   2.0000      -0.672320       -18.2948
 130   2.0000      -0.667217       -18.1559
 131   2.0000      -0.656747       -17.8710
 132   2.0000      -0.652928       -17.7671
 133   2.0000      -0.650423       -17.6989
 134   2.0000      -0.649328       -17.6691
 135   2.0000      -0.639924       -17.4132
 136   2.0000      -0.634759       -17.2727
 137   2.0000      -0.628237       -17.0952
 138   2.0000      -0.627789       -17.0830
 139   2.0000      -0.621807       -16.9202
 140   2.0000      -0.615507       -16.7488
 141   2.0000      -0.614613       -16.7245
 142   2.0000      -0.614181       -16.7127
 143   2.0000      -0.612263       -16.6605
 144   2.0000      -0.609453       -16.5841
 145   2.0000      -0.606799       -16.5118
 146   2.0000      -0.602278       -16.3888
 147   2.0000      -0.597865       -16.2687
 148   2.0000      -0.591451       -16.0942
 149   2.0000      -0.582859       -15.8604
 150   2.0000      -0.579735       -15.7754
 151   2.0000      -0.576454       -15.6861
 152   2.0000      -0.569114       -15.4864
 153   2.0000      -0.562775       -15.3139
 154   2.0000      -0.559958       -15.2372
 155   2.0000      -0.557586       -15.1727
 156   2.0000      -0.553518       -15.0620
 157   2.0000      -0.546262       -14.8645
 158   2.0000      -0.543927       -14.8010
 159   2.0000      -0.539520       -14.6811
 160   2.0000      -0.538817       -14.6620
 161   2.0000      -0.537923       -14.6376
 162   2.0000      -0.535976       -14.5846
 163   2.0000      -0.533647       -14.5213
 164   2.0000      -0.532767       -14.4973
 165   2.0000      -0.530141       -14.4259
 166   2.0000      -0.527578       -14.3561
 167   2.0000      -0.523935       -14.2570
 168   2.0000      -0.517982       -14.0950
 169   2.0000      -0.517850       -14.0914
 170   2.0000      -0.513171       -13.9641
 171   2.0000      -0.506794       -13.7906
 172   2.0000      -0.505203       -13.7473
 173   2.0000      -0.504125       -13.7179
 174   2.0000      -0.494823       -13.4648
 175   2.0000      -0.492334       -13.3971
 176   2.0000      -0.487809       -13.2739
 177   2.0000      -0.487102       -13.2547
 178   2.0000      -0.481630       -13.1058
 179   2.0000      -0.477941       -13.0054
 180   2.0000      -0.471850       -12.8397
 181   2.0000      -0.471234       -12.8229
 182   2.0000      -0.469876       -12.7860
 183   2.0000      -0.466349       -12.6900
 184   2.0000      -0.464252       -12.6329
 185   2.0000      -0.463015       -12.5993
 186   2.0000      -0.459357       -12.4997
 187   2.0000      -0.455884       -12.4052
 188   2.0000      -0.447195       -12.1688
 189   2.0000      -0.444072       -12.0838
 190   2.0000      -0.441356       -12.0099
 191   2.0000      -0.440758       -11.9936
 192   2.0000      -0.437492       -11.9048
 193   2.0000      -0.435619       -11.8538
 194   2.0000      -0.429684       -11.6923
 195   2.0000      -0.419963       -11.4278
 196   2.0000      -0.410520       -11.1708
 197   2.0000      -0.406384       -11.0583
 198   2.0000      -0.403347       -10.9756
 199   2.0000      -0.396855       -10.7990
 200   2.0000      -0.394632       -10.7385
 201   2.0000      -0.390975       -10.6390
 202   2.0000      -0.386873       -10.5274
 203   2.0000      -0.384135       -10.4529
 204   2.0000      -0.379531       -10.3276
 205   2.0000      -0.373391       -10.1605
 206   2.0000      -0.371054       -10.0969
 207   2.0000      -0.366820        -9.9817
 208   2.0000      -0.365209        -9.9378
 209   2.0000      -0.363955        -9.9037
 210   2.0000      -0.363169        -9.8823
 211   2.0000      -0.357352        -9.7240
 212   2.0000      -0.354846        -9.6559
 213   2.0000      -0.353923        -9.6307
 214   2.0000      -0.352936        -9.6039
 215   2.0000      -0.350710        -9.5433
 216   2.0000      -0.342958        -9.3324
 217   2.0000      -0.339010        -9.2249
 218   2.0000      -0.332851        -9.0573
 219   2.0000      -0.322712        -8.7814
 220   2.0000      -0.317196        -8.6313
 221   2.0000      -0.312782        -8.5112
 222   2.0000      -0.303267        -8.2523
 223   2.0000      -0.287774        -7.8307
 224   2.0000      -0.274649        -7.4736
 225   2.0000      -0.257663        -7.0114
 226   2.0000      -0.245360        -6.6766
 227   2.0000      -0.200645        -5.4598
 228   0.0000      -0.073190        -1.9916
 229   0.0000      -0.063822        -1.7367
 230   0.0000      -0.041164        -1.1201
 231   0.0000      -0.033092        -0.9005
 232   0.0000      -0.023502        -0.6395

MULLIKEN ATOMIC CHARGES
-----------------------
   0 C :   -0.043063
   1 N :   -0.051084
   2 C :    0.000411
   3 C :    0.006743
   4 C :    0.023614
   5 S :    0.773512
   6 O :   -0.461674
   7 O :   -0.462057
   8 C :   -0.083072
   9 C :    0.045323
  10 C :    0.056246
  11 C :    0.062025
  12 N :   -0.020104
  13 C :   -0.117372
  14 S :    0.140065
  15 C :   -0.013063
  16 N :    0.296483
  17 O :   -0.280717
  18 O :   -0.270612
  19 C :    0.018551
  20 C :    0.148844
  21 C :   -0.057234
  22 C :    0.004225
  23 C :   -0.019180
  24 C :   -0.013785
  25 C :    0.026834
  26 C :    0.035787
  27 C :   -0.058014
  28 S :    0.057698
  29 C :   -0.035979
  30 C :    0.021801
  31 C :    0.035621
  32 C :   -0.037873
  33 S :    0.105108
  34 C :    0.018279
  35 N :   -0.031543
  36 C :   -0.098184
  37 S :    0.141077
  38 C :   -0.011505
  39 N :    0.278906
  40 O :   -0.265200
  41 O :   -0.277918
  42 C :    0.006444
  43 C :    0.132631
  44 C :   -0.010234
  45 C :    0.011753
  46 C :    0.008578
  47 N :   -0.038003
  48 C :   -0.008406
  49 C :    0.087539
  50 C :   -0.109105
  51 S :    0.810742
  52 O :   -0.456894
  53 O :   -0.494700
  54 C :   -0.053803
  55 C :    0.039343
  56 C :   -0.005205
  57 C :    0.000151
  58 H :    0.015576
  59 H :    0.137163
  60 H :   -0.002104
  61 H :   -0.018168
  62 H :   -0.002206
  63 H :    0.028578
  64 H :    0.142455
  65 H :   -0.013274
  66 H :   -0.040177
  67 H :    0.003438
  68 H :   -0.025837
  69 H :   -0.017575
  70 H :   -0.016056
  71 H :   -0.014904
  72 H :   -0.010462
  73 H :    0.023157
  74 H :    0.165680
  75 H :    0.003962
  76 H :   -0.041771
  77 H :   -0.038485
  78 H :    0.131440
  79 H :    0.003575
  80 H :    0.003159
  81 H :    0.007469
  82 H :    0.036537
  83 H :    0.030078
Sum of atomic charges:   -0.0000000

LOEWDIN ATOMIC CHARGES
----------------------
   0 C :    0.006762
   1 N :    0.100994
   2 C :   -0.010350
   3 C :   -0.086824
   4 C :   -0.225155
   5 S :    1.177437
   6 O :   -0.505965
   7 O :   -0.505958
   8 C :   -0.158746
   9 C :   -0.019679
  10 C :   -0.087422
  11 C :    0.038538
  12 N :    0.050075
  13 C :   -0.098279
  14 S :    0.444446
  15 C :   -0.218856
  16 N :    0.281538
  17 O :   -0.246298
  18 O :   -0.237213
  19 C :    0.009276
  20 C :   -0.099560
  21 C :   -0.055556
  22 C :   -0.019738
  23 C :   -0.079666
  24 C :   -0.134268
  25 C :   -0.048111
  26 C :   -0.023347
  27 C :   -0.195641
  28 S :    0.385467
  29 C :   -0.167142
  30 C :   -0.044816
  31 C :   -0.022911
  32 C :   -0.186181
  33 S :    0.399323
  34 C :   -0.006346
  35 N :    0.057981
  36 C :   -0.086047
  37 S :    0.447806
  38 C :   -0.216863
  39 N :    0.274376
  40 O :   -0.231551
  41 O :   -0.244254
  42 C :    0.007340
  43 C :   -0.110950
  44 C :    0.002475
  45 C :   -0.050013
  46 C :    0.006413
  47 N :    0.098899
  48 C :    0.000779
  49 C :   -0.083522
  50 C :   -0.234241
  51 S :    1.189575
  52 O :   -0.502657
  53 O :   -0.522037
  54 C :   -0.156999
  55 C :    0.013938
  56 C :   -0.050590
  57 C :   -0.031910
  58 H :    0.030962
  59 H :    0.096539
  60 H :    0.024346
  61 H :    0.031294
  62 H :    0.032459
  63 H :    0.025093
  64 H :    0.100256
  65 H :    0.042170
  66 H :    0.018497
  67 H :    0.021359
  68 H :    0.028690
  69 H :    0.031408
  70 H :    0.031339
  71 H :    0.030953
  72 H :    0.033247
  73 H :    0.027734
  74 H :    0.086133
  75 H :    0.043350
  76 H :    0.014233
  77 H :    0.025426
  78 H :    0.095642
  79 H :    0.026483
  80 H :    0.040776
  81 H :    0.034869
  82 H :    0.013869
  83 H :    0.025102

  Mayer bond orders larger than 0.100000
B(  0-C ,  1-N ) :   1.2463 B(  0-C ,  4-C ) :   1.5370 B(  0-C , 58-H ) :   0.9999
B(  1-N ,  2-C ) :   1.2223 B(  1-N , 59-H ) :   0.9395 B(  2-C ,  3-C ) :   1.4677
B(  2-C , 60-H ) :   0.9882 B(  3-C ,  4-C ) :   1.3227 B(  3-C ,  9-C ) :   1.0664
B(  4-C ,  5-S ) :   0.7832 B(  5-S ,  6-O ) :   1.7222 B(  5-S ,  7-O ) :   1.7218
B(  5-S ,  8-C ) :   0.8484 B(  8-C ,  9-C ) :   1.6865 B(  8-C , 10-C ) :   1.1475
B(  9-C , 61-H ) :   0.9866 B( 10-C , 11-C ) :   1.6947 B( 10-C , 62-H ) :   0.9422
B( 11-C , 12-N ) :   1.1284 B( 11-C , 63-H ) :   0.9603 B( 12-N , 13-C ) :   1.2431
B( 12-N , 64-H ) :   0.9118 B( 13-C , 14-S ) :   1.1308 B( 13-C , 20-C ) :   1.3160
B( 14-S , 15-C ) :   1.0565 B( 15-C , 16-N ) :   1.0112 B( 15-C , 19-C ) :   1.4492
B( 16-N , 17-O ) :   1.4551 B( 16-N , 18-O ) :   1.5042 B( 17-O , 18-O ) :   0.2338
B( 19-C , 20-C ) :   1.2592 B( 19-C , 65-H ) :   0.9990 B( 20-C , 21-C ) :   1.0603
B( 21-C , 22-C ) :   1.6760 B( 21-C , 66-H ) :   0.9765 B( 22-C , 23-C ) :   1.1529
B( 22-C , 67-H ) :   0.9681 B( 23-C , 24-C ) :   1.5529 B( 23-C , 68-H ) :   0.9856
B( 24-C , 25-C ) :   1.1422 B( 24-C , 28-S ) :   1.0426 B( 25-C , 26-C ) :   1.5837
B( 25-C , 69-H ) :   0.9990 B( 26-C , 27-C ) :   1.1967 B( 26-C , 70-H ) :   0.9929
B( 27-C , 28-S ) :   1.0325 B( 27-C , 29-C ) :   1.5084 B( 29-C , 30-C ) :   1.1785
B( 29-C , 33-S ) :   1.0495 B( 30-C , 31-C ) :   1.6155 B( 30-C , 71-H ) :   0.9935
B( 31-C , 32-C ) :   1.1412 B( 31-C , 72-H ) :   0.9952 B( 32-C , 33-S ) :   1.0238
B( 32-C , 34-C ) :   1.6092 B( 34-C , 35-N ) :   1.1519 B( 34-C , 73-H ) :   0.9556
B( 35-N , 36-C ) :   1.2712 B( 35-N , 74-H ) :   0.8706 B( 36-C , 37-S ) :   1.1330
B( 36-C , 43-C ) :   1.3145 B( 37-S , 38-C ) :   1.0573 B( 38-C , 39-N ) :   0.9942
B( 38-C , 42-C ) :   1.4721 B( 39-N , 40-O ) :   1.5179 B( 39-N , 41-O ) :   1.4969
B( 40-O , 41-O ) :   0.2483 B( 42-C , 43-C ) :   1.2453 B( 42-C , 75-H ) :   1.0038
B( 43-C , 44-C ) :   1.0875 B( 44-C , 45-C ) :   1.7156 B( 44-C , 76-H ) :   0.9446
B( 45-C , 46-C ) :   1.1017 B( 45-C , 77-H ) :   0.9761 B( 46-C , 47-N ) :   1.2296
B( 46-C , 50-C ) :   1.4934 B( 47-N , 48-C ) :   1.2051 B( 47-N , 78-H ) :   0.9325
B( 48-C , 49-C ) :   1.4550 B( 48-C , 79-H ) :   0.9861 B( 49-C , 50-C ) :   1.3342
B( 49-C , 55-C ) :   1.0227 B( 50-C , 51-S ) :   0.8472 B( 51-S , 52-O ) :   1.6836
B( 51-S , 53-O ) :   1.5635 B( 51-S , 54-C ) :   0.7870 B( 54-C , 55-C ) :   1.7056
B( 54-C , 56-C ) :   1.1481 B( 55-C , 80-H ) :   0.9885 B( 56-C , 57-C ) :   1.8856
B( 56-C , 81-H ) :   0.9514 B( 57-C , 82-H ) :   0.9393 B( 57-C , 83-H ) :   0.9500

-----------------------------------------------------------------------------
         ABSORPTION SPECTRUM VIA TRANSITION ELECTRIC DIPOLE MOMENTS
-----------------------------------------------------------------------------
State   Energy  Wavelength   fosc         T2         TX        TY        TZ
        (cm-1)    (nm)                  (au**2)     (au)      (au)      (au)
-----------------------------------------------------------------------------
   0   13998.5    714.4   1.374003698  32.31339  -4.08230   3.81830   1.03381
   1   16646.5    600.7   0.227595687   4.50109   1.59243  -1.37209   0.28746
   2   21121.7    473.4   0.195175099   3.04209   1.22814  -0.71119  -1.01389
   3   21821.5    458.3   0.084019096   1.26756  -0.42839  -0.81013   0.65402
   4   23837.9    419.5   0.462825394   6.39184   1.57806   0.61063  -1.87848
   5   24887.0    401.8   0.625713382   8.27710  -2.43690   1.52603  -0.09920
   6   25746.7    388.4   0.331080164   4.23339   0.25937   0.88926  -1.83721
   7   26760.0    373.7   0.086581074   1.06516   0.47224   0.32104  -0.85970
   8   27577.4    362.6   0.078486472   0.93695  -0.46682   0.84550  -0.06449
   9   28370.5    352.5   0.119039804   1.38134  -0.76562   0.86770  -0.20559
  10   29222.8    342.2   0.285472338   3.21601   0.87186  -1.36666  -0.76688
  11   29644.3    337.3   0.023006735   0.25550  -0.24586   0.16104   0.41124
  12   30530.2    327.5   0.030749269   0.33157  -0.28808  -0.18719   0.46211
  13   31644.5    316.0   0.050977816   0.53034  -0.63489   0.35221   0.05659
  14   31680.6    315.7   0.114775116   1.19270  -0.23782  -0.69401   0.80901
  15   32223.1    310.3   0.000899279   0.00919   0.08110  -0.00404  -0.05094
  16   33029.0    302.8   0.106189355   1.05843   0.32449  -0.89916   0.38032
  17   34042.0    293.8   0.108491953   1.04920  -0.48315   0.87437  -0.22636
  18   34360.9    291.0   0.022795102   0.21840   0.35090  -0.16258  -0.26238
  19   34427.6    290.5   0.033271503   0.31816  -0.35071  -0.31825   0.30640
  20   34780.1    287.5   0.016436121   0.15558   0.06413   0.38912  -0.00703
  21   35782.1    279.5   0.342642601   3.15247  -1.17087   0.21401   1.31748
  22   36123.0    276.8   0.018816430   0.17149   0.25088  -0.09638  -0.31505
  23   36566.2    273.5   0.035669465   0.32114   0.53380  -0.12791  -0.14084
  24   36832.3    271.5   0.009676695   0.08649   0.22096  -0.04525  -0.18874
  25   37075.7    269.7   0.007780840   0.06909   0.11038   0.09560  -0.21855
  26   37520.8    266.5   0.256051029   2.24662  -0.75634  -0.24061   1.27149
  27   38245.9    261.5   0.048939936   0.42126   0.36864  -0.52847   0.07801
  28   38484.0    259.8   0.009300939   0.07957   0.04025  -0.12186  -0.25119
  29   38923.5    256.9   0.003029830   0.02563   0.07993  -0.03019  -0.13537
  30   38969.4    256.6   0.007495805   0.06332   0.14688   0.15273  -0.13574
  31   39027.3    256.2   0.039279580   0.33134   0.24916  -0.40510   0.32428
  32   39379.9    253.9   0.043910167   0.36708   0.08394   0.37739  -0.46649

FINAL SINGLE POINT ENERGY     -4778.991478530400

DIPOLE MOMENT
-------------
                                X             Y             Z
Electronic contribution:    -10.35410      16.99544      -0.17262
Nuclear contribution   :     14.41605     -18.48796      -1.61449
                        -----------------------------------------
Total Dipole Moment    :      4.06195      -1.49252      -1.78710
                        -----------------------------------------
Magnitude (a.u.)       :      4.68197
Magnitude (Debye)      :     11.90061

Rotational constants in cm-1:     0.002500     0.000372     0.000335
Rotational constants in MHz :    74.940218    11.157586    10.046550

                             ****ORCA TERMINATED NORMALLY****
TOTAL RUN TIME: 0 days 0 hours 6 minutes 43 seconds 69 msec
