                         Program Version 4.2.0 -  RELEASE  -
|  1> # ORCA input file
|  2> # SCF done       -169.774923503432          0.000619317274
|  3> ! CAM-B3LYP def2-SVP def2/J RIJCOSX Grid4 TightSCF
|  4> %maxcore 5000
|  5> %tddft
|  6>     Mode sTDDFT
|  7>     Ethresh 5.0
|  8>     maxcore 5000
|  9> end
| 10>
| 11> %pal
| 12>   nprocs 6
| 13>   end
| 14> * xyz 0 1
| 15>    C      -12.24500         2.37003        -2.31155
| 16>    C      -13.32071         2.33991        -1.45849
| 17>    C      -14.43247         3.20140        -1.55666
| 18>    N      -15.37433         3.85703        -1.59186
| 19>    C      -13.48461         1.44229        -0.38499
| 20>    N      -13.68912         0.73833         0.50053
| 21>    C      -12.07543         3.29157        -3.42833
| 22>    C      -10.85964         2.98634        -4.08690
| 23>    C      -10.39819         3.70593        -5.16088
| 24>    C      -11.17881         4.77434        -5.61235
| 25>    C      -12.39019         5.07320        -4.94640
| 26>    C      -12.85458         4.34864        -3.85584
| 27>    S      -13.18842         6.44356        -5.65542
| 28>    C      -11.90198         6.59343        -6.82186
| 29>    C      -10.92431         5.66640        -6.69006
| 30>   Br      -11.97230         7.95635        -8.10802
| 31>    C      -10.19574         1.86762        -3.39558
| 32>    O       -9.08004         1.43765        -3.63153
| 33>    C      -11.09859         1.48550        -2.29043
| 34>    C      -10.79708         0.61553        -1.26653
| 35>    C       -9.75391        -0.31048        -1.19028
| 36>    C       -9.04092        -0.99910        -2.17753
| 37>    C       -9.29891        -1.18016        -3.54999
| 38>    C       -8.40576        -1.88585        -4.30178
| 39>    C       -7.23901        -2.44995        -3.72926
| 40>    C       -6.98767        -2.35950        -2.39396
| 41>    C       -7.90360        -1.66375        -1.57140
| 42>    C       -7.91423        -1.41911        -0.20468
| 43>    C       -9.16133        -0.71993         0.09779
| 44>    C       -9.74531        -0.66354         1.30011
| 45>    C       -6.89205        -1.68927         0.77102
| 46>    C       -6.18928        -2.87900         0.88368
| 47>    C       -6.38965        -4.06297         0.17941
| 48>    N       -6.52993        -5.05316        -0.38768
| 49>    S       -5.01980        -2.85159         2.17139
| 50>    C       -5.41613        -1.20099         2.51736
| 51>    O       -4.82487        -0.49171         3.47323
| 52>    C       -3.60995        -1.01898         3.98336
| 53>    C       -6.44328        -0.72843         1.72656
| 54>    N       -6.93967         0.57707         1.87198
| 55>    C       -7.36588         1.39836         0.88545
| 56>    S       -8.66305         2.51002         1.20157
| 57>    C       -8.63264         3.01159        -0.46765
| 58>    N       -9.57511         3.94733        -0.87356
| 59>    O      -10.42344         4.27367        -0.05467
| 60>    O       -9.51993         4.36063        -2.02259
| 61>    C       -7.67919         2.36606        -1.20725
| 62>    C       -6.93574         1.44379        -0.45099
| 63>    C       -5.82740         0.66773        -0.91655
| 64>    C       -5.49709         0.42885        -2.20122
| 65>    C       -4.43621        -0.44789        -2.57139
| 66>    C       -3.55194        -1.15740        -1.76403
| 67>    C       -3.38704        -0.96669        -0.38963
| 68>    N       -3.19617        -0.80456         0.73274
| 69>    C       -2.74071        -2.06199        -2.50600
| 70>    C       -2.99399        -1.97134        -3.86846
| 71>    S       -4.22819        -0.83576        -4.26216
| 72>    S       -2.02973        -3.01594        -4.86302
| 73>    C       -1.28320        -3.61357        -3.41444
| 74>    C       -1.74780        -3.04598        -2.23444
| 75>    C       -1.11595        -3.64224        -1.10076
| 76>    C       -1.39782        -3.36785         0.24992
| 77>    N       -1.62582        -3.18869         1.35898
| 78>    C       -0.20520        -4.59653        -1.46978
| 79>    S       -0.08074        -4.82281        -3.17021
| 80>    H       -9.45993         3.45977        -5.63223
| 81>    H      -13.77468         4.62739        -3.37033
| 82>    H      -10.05719         5.61446        -7.32291
| 83>    H      -11.37737         0.72631        -0.35916
| 84>    H      -10.20220        -0.78487        -3.98525
| 85>    H       -8.58208        -2.03067        -5.35697
| 86>    H       -6.55792        -2.98724        -4.37255
| 87>    H       -6.12195        -2.83171        -1.95732
| 88>    H      -10.72282        -0.23593         1.44581
| 89>    H       -9.27426        -1.09128         2.16995
| 90>    H       -3.21728        -0.26545         4.66157
| 91>    H       -2.90482        -1.20346         3.16892
| 92>    H       -3.79344        -1.95112         4.52632
| 93>    H       -7.11030         0.87287         2.82314
| 94>    H       -7.52767         2.55977        -2.25276
| 95>    H       -5.22402         0.23084        -0.13854
| 96>    H       -6.08922         0.83373        -3.00896
| 97>    H        0.40048        -5.19052        -0.81367
| 98> *
| 99>
|100>                          ****END OF INPUT****

CARTESIAN COORDINATES (ANGSTROEM)
---------------------------------
  C    -12.245000    2.370030   -2.311550
  C    -13.320710    2.339910   -1.458490
  C    -14.432470    3.201400   -1.556660
  N    -15.374330    3.857030   -1.591860
  C    -13.484610    1.442290   -0.384990
  N    -13.689120    0.738330    0.500530
  C    -12.075430    3.291570   -3.428330
  C    -10.859640    2.986340   -4.086900
  C    -10.398190    3.705930   -5.160880
  C    -11.178810    4.774340   -5.612350
  C    -12.390190    5.073200   -4.946400
  C    -12.854580    4.348640   -3.855840
  S    -13.188420    6.443560   -5.655420
  C    -11.901980    6.593430   -6.821860
  C    -10.924310    5.666400   -6.690060
  Br   -11.972300    7.956350   -8.108020
  C    -10.195740    1.867620   -3.395580
  O     -9.080040    1.437650   -3.631530
  C    -11.098590    1.485500   -2.290430
  C    -10.797080    0.615530   -1.266530
  C     -9.753910   -0.310480   -1.190280
  C     -9.040920   -0.999100   -2.177530
  C     -9.298910   -1.180160   -3.549990
  C     -8.405760   -1.885850   -4.301780
  C     -7.239010   -2.449950   -3.729260
  C     -6.987670   -2.359500   -2.393960
  C     -7.903600   -1.663750   -1.571400
  C     -7.914230   -1.419110   -0.204680
  C     -9.161330   -0.719930    0.097790
  C     -9.745310   -0.663540    1.300110
  C     -6.892050   -1.689270    0.771020
  C     -6.189280   -2.879000    0.883680
  C     -6.389650   -4.062970    0.179410
  N     -6.529930   -5.053160   -0.387680
  S     -5.019800   -2.851590    2.171390
  C     -5.416130   -1.200990    2.517360
  O     -4.824870   -0.491710    3.473230
  C     -3.609950   -1.018980    3.983360
  C     -6.443280   -0.728430    1.726560
  N     -6.939670    0.577070    1.871980
  C     -7.365880    1.398360    0.885450
  S     -8.663050    2.510020    1.201570
  C     -8.632640    3.011590   -0.467650
  N     -9.575110    3.947330   -0.873560
  O    -10.423440    4.273670   -0.054670
  O     -9.519930    4.360630   -2.022590
  C     -7.679190    2.366060   -1.207250
  C     -6.935740    1.443790   -0.450990
  C     -5.827400    0.667730   -0.916550
  C     -5.497090    0.428850   -2.201220
  C     -4.436210   -0.447890   -2.571390
  C     -3.551940   -1.157400   -1.764030
  C     -3.387040   -0.966690   -0.389630
  N     -3.196170   -0.804560    0.732740
  C     -2.740710   -2.061990   -2.506000
  C     -2.993990   -1.971340   -3.868460
  S     -4.228190   -0.835760   -4.262160
  S     -2.029730   -3.015940   -4.863020
  C     -1.283200   -3.613570   -3.414440
  C     -1.747800   -3.045980   -2.234440
  C     -1.115950   -3.642240   -1.100760
  C     -1.397820   -3.367850    0.249920
  N     -1.625820   -3.188690    1.358980
  C     -0.205200   -4.596530   -1.469780
  S     -0.080740   -4.822810   -3.170210
  H     -9.459930    3.459770   -5.632230
  H    -13.774680    4.627390   -3.370330
  H    -10.057190    5.614460   -7.322910
  H    -11.377370    0.726310   -0.359160
  H    -10.202200   -0.784870   -3.985250
  H     -8.582080   -2.030670   -5.356970
  H     -6.557920   -2.987240   -4.372550
  H     -6.121950   -2.831710   -1.957320
  H    -10.722820   -0.235930    1.445810
  H     -9.274260   -1.091280    2.169950
  H     -3.217280   -0.265450    4.661570
  H     -2.904820   -1.203460    3.168920
  H     -3.793440   -1.951120    4.526320
  H     -7.110300    0.872870    2.823140
  H     -7.527670    2.559770   -2.252760
  H     -5.224020    0.230840   -0.138540
  H     -6.089220    0.833730   -3.008960
  H      0.400480   -5.190520   -0.813670

 Total Charge           Charge          ....    0
 Multiplicity           Mult            ....    1
 Number of Electrons    NEL             ....  512
 Basis Dimension        Dim             .... 1042

ORBITAL ENERGIES
----------------

  NO   OCC          E(Eh)            E(eV)
   0   2.0000    -482.876165    -13139.7285
   1   2.0000     -88.996372     -2421.7144
   2   2.0000     -88.994108     -2421.6528
   3   2.0000     -88.991400     -2421.5791
   4   2.0000     -88.983693     -2421.3694
   5   2.0000     -88.981740     -2421.3162
   6   2.0000     -88.962850     -2420.8022
   7   2.0000     -62.553875     -1702.1775
   8   2.0000     -56.387804     -1534.3902
   9   2.0000     -56.385125     -1534.3173
  10   2.0000     -56.385085     -1534.3162
  11   2.0000     -19.281863      -524.6862
  12   2.0000     -19.235867      -523.4346
  13   2.0000     -19.235685      -523.4296
  14   2.0000     -19.207110      -522.6520
  15   2.0000     -14.646369      -398.5480
  16   2.0000     -14.478284      -393.9741
  17   2.0000     -14.421450      -392.4276
  18   2.0000     -14.416541      -392.2940
  19   2.0000     -14.410347      -392.1255
  20   2.0000     -14.404647      -391.9704
  21   2.0000     -14.399589      -391.8327
  22   2.0000     -10.381345      -282.4908
  23   2.0000     -10.372808      -282.2584
  24   2.0000     -10.355389      -281.7845
  25   2.0000     -10.347000      -281.5562
  26   2.0000     -10.345731      -281.5217
  27   2.0000     -10.342748      -281.4405
  28   2.0000     -10.342584      -281.4360
  29   2.0000     -10.338473      -281.3242
  30   2.0000     -10.336493      -281.2703
  31   2.0000     -10.335646      -281.2472
  32   2.0000     -10.334195      -281.2077
  33   2.0000     -10.334099      -281.2051
  34   2.0000     -10.331826      -281.1433
  35   2.0000     -10.325921      -280.9826
  36   2.0000     -10.325127      -280.9610
  37   2.0000     -10.324763      -280.9511
  38   2.0000     -10.323406      -280.9142
  39   2.0000     -10.322818      -280.8982
  40   2.0000     -10.318003      -280.7671
  41   2.0000     -10.317485      -280.7530
  42   2.0000     -10.316915      -280.7375
  43   2.0000     -10.314215      -280.6641
  44   2.0000     -10.310567      -280.5648
  45   2.0000     -10.310476      -280.5623
  46   2.0000     -10.310416      -280.5607
  47   2.0000     -10.308793      -280.5165
  48   2.0000     -10.307725      -280.4875
  49   2.0000     -10.305543      -280.4281
  50   2.0000     -10.303952      -280.3848
  51   2.0000     -10.303307      -280.3672
  52   2.0000     -10.297639      -280.2130
  53   2.0000     -10.297317      -280.2043
  54   2.0000     -10.295972      -280.1676
  55   2.0000     -10.294899      -280.1385
  56   2.0000     -10.294173      -280.1187
  57   2.0000     -10.293139      -280.0905
  58   2.0000     -10.290981      -280.0318
  59   2.0000     -10.289760      -279.9986
  60   2.0000     -10.286672      -279.9146
  61   2.0000     -10.286416      -279.9076
  62   2.0000     -10.285445      -279.8812
  63   2.0000     -10.285185      -279.8741
  64   2.0000     -10.283641      -279.8321
  65   2.0000     -10.283381      -279.8250
  66   2.0000     -10.283061      -279.8163
  67   2.0000     -10.281106      -279.7631
  68   2.0000     -10.276998      -279.6513
  69   2.0000      -8.783311      -239.0061
  70   2.0000      -8.091988      -220.1942
  71   2.0000      -8.089025      -220.1136
  72   2.0000      -8.086296      -220.0393
  73   2.0000      -8.078771      -219.8345
  74   2.0000      -8.077196      -219.7917
  75   2.0000      -8.058870      -219.2930
  76   2.0000      -6.619499      -180.1257
  77   2.0000      -6.605087      -179.7336
  78   2.0000      -6.604921      -179.7290
  79   2.0000      -6.061503      -164.9419
  80   2.0000      -6.059013      -164.8741
  81   2.0000      -6.057075      -164.8214
  82   2.0000      -6.055904      -164.7895
  83   2.0000      -6.054835      -164.7604
  84   2.0000      -6.053876      -164.7343
  85   2.0000      -6.051642      -164.6735
  86   2.0000      -6.049822      -164.6240
  87   2.0000      -6.048270      -164.5818
  88   2.0000      -6.047920      -164.5723
  89   2.0000      -6.046923      -164.5452
  90   2.0000      -6.044108      -164.4685
  91   2.0000      -6.042599      -164.4275
  92   2.0000      -6.040342      -164.3661
  93   2.0000      -6.038445      -164.3144
  94   2.0000      -6.028556      -164.0453
  95   2.0000      -6.024292      -163.9293
  96   2.0000      -6.020093      -163.8151
  97   2.0000      -2.735439       -74.4351
  98   2.0000      -2.731319       -74.3230
  99   2.0000      -2.731206       -74.3199
 100   2.0000      -2.719731       -74.0077
 101   2.0000      -2.719730       -74.0076
 102   2.0000      -1.314298       -35.7639
 103   2.0000      -1.190012       -32.3819
 104   2.0000      -1.132572       -30.8188
 105   2.0000      -1.120221       -30.4828
 106   2.0000      -1.085276       -29.5319
 107   2.0000      -1.048859       -28.5409
 108   2.0000      -1.018240       -27.7077
 109   2.0000      -1.016366       -27.6567
 110   2.0000      -1.009051       -27.4577
 111   2.0000      -1.006416       -27.3860
 112   2.0000      -1.002977       -27.2924
 113   2.0000      -1.000332       -27.2204
 114   2.0000      -0.996407       -27.1136
 115   2.0000      -0.993452       -27.0332
 116   2.0000      -0.981246       -26.7011
 117   2.0000      -0.981031       -26.6952
 118   2.0000      -0.975293       -26.5391
 119   2.0000      -0.955863       -26.0104
 120   2.0000      -0.936675       -25.4882
 121   2.0000      -0.929446       -25.2915
 122   2.0000      -0.919897       -25.0317
 123   2.0000      -0.903347       -24.5813
 124   2.0000      -0.900856       -24.5136
 125   2.0000      -0.895612       -24.3708
 126   2.0000      -0.893308       -24.3081
 127   2.0000      -0.877932       -23.8897
 128   2.0000      -0.874397       -23.7936
 129   2.0000      -0.871782       -23.7224
 130   2.0000      -0.864849       -23.5337
 131   2.0000      -0.862530       -23.4706
 132   2.0000      -0.854945       -23.2642
 133   2.0000      -0.847056       -23.0496
 134   2.0000      -0.840751       -22.8780
 135   2.0000      -0.828363       -22.5409
 136   2.0000      -0.815925       -22.2025
 137   2.0000      -0.809633       -22.0312
 138   2.0000      -0.808422       -21.9983
 139   2.0000      -0.793246       -21.5853
 140   2.0000      -0.782520       -21.2935
 141   2.0000      -0.770955       -20.9787
 142   2.0000      -0.753085       -20.4925
 143   2.0000      -0.746070       -20.3016
 144   2.0000      -0.742567       -20.2063
 145   2.0000      -0.723215       -19.6797
 146   2.0000      -0.717866       -19.5341
 147   2.0000      -0.702533       -19.1169
 148   2.0000      -0.698925       -19.0187
 149   2.0000      -0.694494       -18.8981
 150   2.0000      -0.682433       -18.5699
 151   2.0000      -0.679479       -18.4896
 152   2.0000      -0.676526       -18.4092
 153   2.0000      -0.675038       -18.3687
 154   2.0000      -0.664464       -18.0810
 155   2.0000      -0.663045       -18.0424
 156   2.0000      -0.652594       -17.7580
 157   2.0000      -0.648769       -17.6539
 158   2.0000      -0.646182       -17.5835
 159   2.0000      -0.638804       -17.3827
 160   2.0000      -0.632937       -17.2231
 161   2.0000      -0.631279       -17.1780
 162   2.0000      -0.630051       -17.1446
 163   2.0000      -0.626810       -17.0564
 164   2.0000      -0.611900       -16.6507
 165   2.0000      -0.603330       -16.4174
 166   2.0000      -0.598615       -16.2892
 167   2.0000      -0.590523       -16.0689
 168   2.0000      -0.589604       -16.0439
 169   2.0000      -0.587243       -15.9797
 170   2.0000      -0.582552       -15.8521
 171   2.0000      -0.580693       -15.8015
 172   2.0000      -0.576918       -15.6987
 173   2.0000      -0.571674       -15.5560
 174   2.0000      -0.564117       -15.3504
 175   2.0000      -0.561771       -15.2866
 176   2.0000      -0.559599       -15.2275
 177   2.0000      -0.549505       -14.9528
 178   2.0000      -0.548433       -14.9236
 179   2.0000      -0.542493       -14.7620
 180   2.0000      -0.540470       -14.7069
 181   2.0000      -0.534441       -14.5429
 182   2.0000      -0.529829       -14.4174
 183   2.0000      -0.528549       -14.3825
 184   2.0000      -0.527322       -14.3492
 185   2.0000      -0.522340       -14.2136
 186   2.0000      -0.519288       -14.1306
 187   2.0000      -0.518340       -14.1047
 188   2.0000      -0.515727       -14.0336
 189   2.0000      -0.510421       -13.8893
 190   2.0000      -0.509346       -13.8600
 191   2.0000      -0.507078       -13.7983
 192   2.0000      -0.504731       -13.7344
 193   2.0000      -0.500886       -13.6298
 194   2.0000      -0.498568       -13.5667
 195   2.0000      -0.494808       -13.4644
 196   2.0000      -0.488659       -13.2971
 197   2.0000      -0.487611       -13.2686
 198   2.0000      -0.484373       -13.1805
 199   2.0000      -0.483213       -13.1489
 200   2.0000      -0.481664       -13.1067
 201   2.0000      -0.478308       -13.0154
 202   2.0000      -0.475980       -12.9521
 203   2.0000      -0.473387       -12.8815
 204   2.0000      -0.469926       -12.7873
 205   2.0000      -0.467978       -12.7343
 206   2.0000      -0.466966       -12.7068
 207   2.0000      -0.459937       -12.5155
 208   2.0000      -0.458338       -12.4720
 209   2.0000      -0.455321       -12.3899
 210   2.0000      -0.453954       -12.3527
 211   2.0000      -0.448679       -12.2092
 212   2.0000      -0.445639       -12.1264
 213   2.0000      -0.445461       -12.1216
 214   2.0000      -0.444312       -12.0904
 215   2.0000      -0.440449       -11.9852
 216   2.0000      -0.439430       -11.9575
 217   2.0000      -0.437848       -11.9145
 218   2.0000      -0.435862       -11.8604
 219   2.0000      -0.435605       -11.8534
 220   2.0000      -0.431643       -11.7456
 221   2.0000      -0.429940       -11.6993
 222   2.0000      -0.428594       -11.6626
 223   2.0000      -0.426325       -11.6009
 224   2.0000      -0.424854       -11.5609
 225   2.0000      -0.420663       -11.4468
 226   2.0000      -0.416991       -11.3469
 227   2.0000      -0.414400       -11.2764
 228   2.0000      -0.411509       -11.1977
 229   2.0000      -0.408938       -11.1278
 230   2.0000      -0.406520       -11.0620
 231   2.0000      -0.399650       -10.8750
 232   2.0000      -0.397242       -10.8095
 233   2.0000      -0.394649       -10.7389
 234   2.0000      -0.393637       -10.7114
 235   2.0000      -0.385375       -10.4866
 236   2.0000      -0.382843       -10.4177
 237   2.0000      -0.379205       -10.3187
 238   2.0000      -0.375798       -10.2260
 239   2.0000      -0.370838       -10.0910
 240   2.0000      -0.365681        -9.9507
 241   2.0000      -0.363658        -9.8956
 242   2.0000      -0.355045        -9.6613
 243   2.0000      -0.350640        -9.5414
 244   2.0000      -0.342374        -9.3165
 245   2.0000      -0.336283        -9.1507
 246   2.0000      -0.328610        -8.9419
 247   2.0000      -0.326745        -8.8912
 248   2.0000      -0.314289        -8.5522
 249   2.0000      -0.309309        -8.4167
 250   2.0000      -0.304590        -8.2883
 251   2.0000      -0.299864        -8.1597
 252   2.0000      -0.285213        -7.7610
 253   2.0000      -0.280284        -7.6269
 254   2.0000      -0.260861        -7.0984
 255   2.0000      -0.248259        -6.7555
 256   0.0000      -0.108336        -2.9480
 257   0.0000      -0.061543        -1.6747
 258   0.0000      -0.058753        -1.5987
 259   0.0000      -0.054958        -1.4955
 260   0.0000      -0.035626        -0.9694

MULLIKEN ATOMIC CHARGES
-----------------------
   0 C :    0.305715
   1 C :   -0.345875
   2 C :   -0.186118
   3 N :    0.144862
   4 C :   -0.198404
   5 N :    0.140171
   6 C :    0.013044
   7 C :    0.047513
   8 C :   -0.077155
   9 C :    0.123448
  10 C :   -0.090132
  11 C :   -0.016066
  12 S :    0.179812
  13 C :   -0.123308
  14 C :    0.034994
  15 Br:    0.013136
  16 C :    0.098403
  17 O :   -0.188133
  18 C :   -0.098033
  19 C :   -0.041402
  20 C :    0.064937
  21 C :    0.035165
  22 C :    0.043950
  23 C :    0.019725
  24 C :    0.021592
  25 C :   -0.000304
  26 C :    0.085367
  27 C :   -0.041977
  28 C :   -0.004622
  29 C :   -0.007048
  30 C :    0.240133
  31 C :   -0.370695
  32 C :   -0.221750
  33 N :    0.152357
  34 S :    0.199391
  35 C :    0.009323
  36 O :   -0.278309
  37 C :    0.154641
  38 C :   -0.008710
  39 N :   -0.020410
  40 C :   -0.139337
  41 S :    0.166293
  42 C :   -0.044806
  43 N :    0.281066
  44 O :   -0.268873
  45 O :   -0.256292
  46 C :    0.055144
  47 C :    0.108446
  48 C :   -0.023602
  49 C :    0.051171
  50 C :   -0.101787
  51 C :   -0.063284
  52 C :   -0.247783
  53 N :    0.153266
  54 C :    0.152249
  55 C :   -0.245873
  56 S :    0.173037
  57 S :    0.188096
  58 C :   -0.263807
  59 C :    0.178763
  60 C :   -0.081925
  61 C :   -0.237723
  62 N :    0.176046
  63 C :   -0.080293
  64 S :    0.175830
  65 H :   -0.026103
  66 H :   -0.009972
  67 H :   -0.008571
  68 H :    0.000225
  69 H :   -0.022172
  70 H :   -0.006033
  71 H :   -0.011106
  72 H :   -0.008803
  73 H :    0.058166
  74 H :    0.038561
  75 H :    0.046607
  76 H :    0.075769
  77 H :    0.032515
  78 H :    0.146409
  79 H :    0.024195
  80 H :    0.022006
  81 H :   -0.005316
  82 H :    0.040374
Sum of atomic charges:   -0.0000000

LOEWDIN ATOMIC CHARGES
----------------------
   0 C :    0.078319
   1 C :   -0.146815
   2 C :   -0.016583
   3 N :   -0.061240
   4 C :   -0.017222
   5 N :   -0.070051
   6 C :   -0.017319
   7 C :   -0.042892
   8 C :    0.018250
   9 C :   -0.032148
  10 C :   -0.143988
  11 C :   -0.006137
  12 S :    0.428909
  13 C :   -0.274837
  14 C :   -0.071934
  15 Br:    0.129047
  16 C :    0.076510
  17 O :   -0.161134
  18 C :   -0.116479
  19 C :    0.057041
  20 C :   -0.047902
  21 C :    0.032499
  22 C :    0.001728
  23 C :    0.000428
  24 C :   -0.021364
  25 C :   -0.004489
  26 C :   -0.002950
  27 C :    0.004048
  28 C :   -0.011611
  29 C :    0.050060
  30 C :   -0.029340
  31 C :   -0.240305
  32 C :   -0.062201
  33 N :   -0.057329
  34 S :    0.495714
  35 C :   -0.090302
  36 O :   -0.082596
  37 C :    0.074930
  38 C :   -0.079183
  39 N :    0.020271
  40 C :   -0.083790
  41 S :    0.447752
  42 C :   -0.216650
  43 N :    0.276939
  44 O :   -0.236733
  45 O :   -0.216375
  46 C :    0.027434
  47 C :   -0.109886
  48 C :    0.015390
  49 C :   -0.058483
  50 C :   -0.113520
  51 C :   -0.122899
  52 C :   -0.017203
  53 N :   -0.061982
  54 C :   -0.060326
  55 C :   -0.341035
  56 S :    0.467487
  57 S :    0.422425
  58 C :   -0.334017
  59 C :   -0.065648
  60 C :   -0.100536
  61 C :   -0.027361
  62 N :   -0.053939
  63 C :   -0.137047
  64 S :    0.465862
  65 H :    0.034945
  66 H :    0.040320
  67 H :    0.036405
  68 H :    0.040637
  69 H :    0.032090
  70 H :    0.032958
  71 H :    0.027167
  72 H :    0.033279
  73 H :    0.039849
  74 H :    0.033921
  75 H :    0.033080
  76 H :    0.028631
  77 H :    0.015964
  78 H :    0.091991
  79 H :    0.044712
  80 H :    0.037446
  81 H :    0.034076
  82 H :    0.037266

  Mayer bond orders larger than 0.100000
B(  0-C ,  1-C ) :   1.6194 B(  0-C ,  6-C ) :   1.0041 B(  0-C , 18-C ) :   1.0756
B(  1-C ,  2-C ) :   1.1443 B(  1-C ,  4-C ) :   1.1498 B(  2-C ,  3-N ) :   2.9688
B(  4-C ,  5-N ) :   2.9827 B(  6-C ,  7-C ) :   1.2701 B(  6-C , 11-C ) :   1.4188
B(  7-C ,  8-C ) :   1.4261 B(  7-C , 16-C ) :   0.9439 B(  8-C ,  9-C ) :   1.2451
B(  8-C , 65-H ) :   1.0142 B(  9-C , 10-C ) :   1.3136 B(  9-C , 14-C ) :   1.1599
B( 10-C , 11-C ) :   1.3239 B( 10-C , 12-S ) :   1.0811 B( 11-C , 66-H ) :   0.9775
B( 12-S , 13-C ) :   1.0872 B( 13-C , 14-C ) :   1.6195 B( 13-C , 15-Br) :   1.0133
B( 14-C , 67-H ) :   0.9996 B( 16-C , 17-O ) :   2.1026 B( 16-C , 18-C ) :   0.9838
B( 18-C , 19-C ) :   1.4780 B( 19-C , 20-C ) :   1.2822 B( 19-C , 68-H ) :   0.9314
B( 20-C , 21-C ) :   1.3458 B( 20-C , 28-C ) :   0.9943 B( 21-C , 22-C ) :   1.2013
B( 21-C , 26-C ) :   1.1410 B( 22-C , 23-C ) :   1.5516 B( 22-C , 69-H ) :   0.9873
B( 23-C , 24-C ) :   1.1708 B( 23-C , 70-H ) :   0.9876 B( 24-C , 25-C ) :   1.5870
B( 24-C , 71-H ) :   0.9809 B( 25-C , 26-C ) :   1.1684 B( 25-C , 72-H ) :   0.9742
B( 26-C , 27-C ) :   1.4663 B( 27-C , 28-C ) :   1.0760 B( 27-C , 30-C ) :   0.9538
B( 28-C , 29-C ) :   1.8649 B( 29-C , 73-H ) :   0.9265 B( 29-C , 74-H ) :   0.9357
B( 30-C , 31-C ) :   1.4476 B( 30-C , 38-C ) :   1.2859 B( 31-C , 32-C ) :   1.2937
B( 31-C , 34-S ) :   1.1112 B( 31-C , 35-C ) :   0.1041 B( 32-C , 33-N ) :   2.9660
B( 34-S , 35-C ) :   1.1365 B( 35-C , 36-O ) :   1.2391 B( 35-C , 38-C ) :   1.4750
B( 36-O , 37-C ) :   0.9073 B( 37-C , 75-H ) :   0.9802 B( 37-C , 76-H ) :   0.9570
B( 37-C , 77-H ) :   0.9659 B( 38-C , 39-N ) :   1.0381 B( 39-N , 40-C ) :   1.2304
B( 39-N , 78-H ) :   0.9040 B( 40-C , 41-S ) :   1.1413 B( 40-C , 47-C ) :   1.3325
B( 41-S , 42-C ) :   1.0519 B( 42-C , 43-N ) :   0.9884 B( 42-C , 46-C ) :   1.4832
B( 43-N , 44-O ) :   1.4997 B( 43-N , 45-O ) :   1.4986 B( 44-O , 45-O ) :   0.2396
B( 46-C , 47-C ) :   1.2331 B( 46-C , 79-H ) :   0.9884 B( 47-C , 48-C ) :   1.1106
B( 48-C , 49-C ) :   1.7083 B( 48-C , 80-H ) :   0.9419 B( 49-C , 50-C ) :   1.1364
B( 49-C , 81-H ) :   0.9471 B( 50-C , 51-C ) :   1.4682 B( 50-C , 56-S ) :   1.1413
B( 51-C , 52-C ) :   1.1995 B( 51-C , 54-C ) :   1.2613 B( 52-C , 53-N ) :   2.8423
B( 54-C , 55-C ) :   1.4145 B( 54-C , 59-C ) :   1.0770 B( 55-C , 56-S ) :   1.0825
B( 55-C , 57-S ) :   1.0783 B( 57-S , 58-C ) :   1.0876 B( 58-C , 59-C ) :   1.3946
B( 58-C , 64-S ) :   1.1151 B( 59-C , 60-C ) :   1.2383 B( 60-C , 61-C ) :   1.1580
B( 60-C , 63-C ) :   1.5613 B( 61-C , 62-N ) :   3.0166 B( 63-C , 64-S ) :   1.1788
B( 63-C , 82-H ) :   0.9690

-----------------------------------------------------------------------------
         ABSORPTION SPECTRUM VIA TRANSITION ELECTRIC DIPOLE MOMENTS
-----------------------------------------------------------------------------
State   Energy  Wavelength   fosc         T2         TX        TY        TZ
        (cm-1)    (nm)                  (au**2)     (au)      (au)      (au)
-----------------------------------------------------------------------------
   0   12833.1    779.2   0.291915050   7.48857   1.92735  -1.70620   0.92885
   1   14079.8    710.2   0.034555701   0.80798  -0.75819   0.37817  -0.30019
   2   20360.1    491.2   0.005429357   0.08779  -0.21645  -0.20232  -0.00265
   3   21964.9    455.3   0.100388558   1.50464  -0.69264   0.94913  -0.35219
   4   22594.7    442.6   0.014721437   0.21450  -0.10243   0.07264  -0.44579
   5   22850.3    437.6   0.093563315   1.34800  -1.07870   0.41688   0.10302
   6   23578.8    424.1   0.027751952   0.38748  -0.49591   0.36742   0.08097
   7   23874.8    418.9   0.040588605   0.55968   0.49700   0.20580  -0.51992
   8   24820.6    402.9   0.356379306   4.72689   1.73954  -1.00662  -0.82923
   9   25477.3    392.5   0.050341996   0.65051   0.02864  -0.18129   0.78538
  10   26147.4    382.4   0.000645295   0.00812   0.06732  -0.05985   0.00318
  11   26711.7    374.4   0.122887500   1.51454   0.52223  -1.07988   0.27508
  12   27181.8    367.9   0.326555173   3.95506   1.04804  -1.47201   0.83058
  13   28094.1    355.9   0.062825582   0.73620   0.40639  -0.53597   0.53271
  14   28799.4    347.2   0.102069566   1.16678  -0.76309   0.75819  -0.09805
  15   29642.7    337.4   0.283582483   3.14947   0.56699  -1.59996   0.51780
  16   30160.9    331.6   0.095487936   1.04227   0.39705  -0.66184   0.66827
  17   30499.7    327.9   0.258988370   2.79551  -0.43864  -1.09093   1.18869
  18   31051.2    322.0   0.236524342   2.50768  -0.03479  -1.30485   0.89656
  19   31272.6    319.8   0.336165510   3.53887   1.07566  -1.31559  -0.80688
  20   31625.3    316.2   0.058538744   0.60937  -0.11502   0.61120  -0.47178
  21   31662.2    315.8   0.129463647   1.34612  -0.90173   0.43182   0.58867
  22   32162.2    310.9   0.208040004   2.12950   0.66026   0.08348   1.29869
  23   32330.0    309.3   0.061504278   0.62629   0.07331   0.18428  -0.76613
  24   32912.7    303.8   0.156256925   1.56297   1.02005  -0.69326  -0.20461
  25   33222.2    301.0   0.017923950   0.17762   0.26665   0.26999  -0.18335
  26   33422.9    299.2   0.073195573   0.72097   0.30766   0.59611  -0.52054
  27   33500.8    298.5   0.025885016   0.25437  -0.11953  -0.03701   0.48858
  28   33929.2    294.7   0.087933684   0.85321  -0.78210   0.04638   0.48927
  29   34441.7    290.3   0.005354136   0.05118  -0.01835   0.13656  -0.17942
  30   35039.6    285.4   0.036497801   0.34291   0.40839  -0.10120  -0.40730
  31   35265.5    283.6   0.007210629   0.06731   0.02711  -0.09548  -0.23971
  32   35473.5    281.9   0.080622564   0.74822   0.51363  -0.47066  -0.51272
  33   35688.3    280.2   0.032582111   0.30056   0.35021  -0.26527  -0.32793
  34   36155.0    276.6   0.074343285   0.67694   0.67769  -0.44736  -0.13243
  35   36418.3    274.6   0.033671679   0.30438   0.36349  -0.38741   0.14888
  36   36550.9    273.6   0.083883022   0.75553   0.80213  -0.33117  -0.04941
  37   36696.9    272.5   0.035533860   0.31878  -0.21176   0.05530  -0.52046
  38   36882.1    271.1   0.038206110   0.34103  -0.21253   0.52616  -0.13790
  39   37288.9    268.2   0.022083433   0.19497  -0.33912   0.12164   0.25529
  40   37414.8    267.3   0.035891804   0.31581  -0.52613   0.08595   0.17778
  41   37594.8    266.0   0.002105304   0.01844  -0.06755   0.11006   0.04195
  42   37899.2    263.9   0.002179976   0.01894  -0.02669   0.08988   0.10072
  43   38322.7    260.9   0.089919467   0.77245   0.20148   0.57365  -0.63465
  44   38811.8    257.7   0.029380501   0.24921  -0.40986  -0.13348   0.25181
  45   38997.4    256.4   0.018800139   0.15871  -0.02803  -0.26302  -0.29789
  46   39329.7    254.3   0.007465083   0.06249   0.05361  -0.07274  -0.23307
  47   39399.1    253.8   0.046722643   0.39041   0.57498  -0.23237   0.07619
  48   39736.5    251.7   0.010398792   0.08615  -0.02294  -0.15739  -0.24668
  49   39848.1    251.0   0.097267375   0.80359   0.80938  -0.32147   0.21248
  50   39996.4    250.0   0.113417300   0.93354   0.41599   0.70106   0.51866
  51   40024.9    249.8   0.069777598   0.57393   0.46787  -0.45296  -0.38711
  52   40215.4    248.7   0.044740248   0.36625   0.02325   0.59449  -0.11089

FINAL SINGLE POINT ENERGY     -7444.989475918333

DIPOLE MOMENT
-------------
                                X             Y             Z
Electronic contribution:    -41.28084      77.88159     -73.93989
Nuclear contribution   :     45.99637     -79.36384      73.12490
                        -----------------------------------------
Total Dipole Moment    :      4.71553      -1.48225      -0.81499
                        -----------------------------------------
Magnitude (a.u.)       :      5.00974
Magnitude (Debye)      :     12.73374

Rotational constants in cm-1:     0.001765     0.000535     0.000460
Rotational constants in MHz :    52.928063    16.038897    13.776488

                             ****ORCA TERMINATED NORMALLY****
TOTAL RUN TIME: 0 days 0 hours 14 minutes 27 seconds 849 msec
