                         Program Version 4.2.0 -  RELEASE  -
|  1> # ORCA input file
|  2> # SCF done       -190.656895077210          0.000955050535
|  3> ! CAM-B3LYP def2-SVP def2/J RIJCOSX Grid4 TightSCF
|  4> %maxcore 5000
|  5> %tddft
|  6>     Mode sTDDFT
|  7>     Ethresh 5.0
|  8>     maxcore 5000
|  9> end
| 10>
| 11> %pal
| 12>   nprocs 6
| 13>   end
| 14> * xyz 0 1
| 15>    C      -10.70861        -0.45386        -1.13387
| 16>    C      -10.66699        -1.73056        -0.62598
| 17>    C      -11.21338        -2.85616        -1.27480
| 18>    N      -11.64070        -3.81173        -1.74740
| 19>    C      -10.05505        -2.10412         0.58649
| 20>    N       -9.56513        -2.48389         1.55514
| 21>    C      -11.29951        -0.07404        -2.41565
| 22>    C      -11.08008         1.31115        -2.61192
| 23>    C      -11.56095         2.00006        -3.69616
| 24>    C      -12.27521         1.27253        -4.65178
| 25>    C      -12.45119        -0.11951        -4.48111
| 26>    C      -11.98207        -0.80857        -3.36727
| 27>    S      -13.32057        -0.81217        -5.81822
| 28>    C      -13.44002         0.76133        -6.56710
| 29>    C      -12.85986         1.75407        -5.85405
| 30>   Br      -14.30512         0.96414        -8.22097
| 31>    C      -10.27670         1.83532        -1.49811
| 32>    O       -9.81159         2.96114        -1.43301
| 33>    C      -10.14464         0.73853        -0.53525
| 34>    C       -9.67468         0.84554         0.75713
| 35>    C       -9.08830         1.93423         1.40660
| 36>    S       -8.65826         3.43559         0.63366
| 37>    C       -8.01425         4.07625         2.11141
| 38>    C       -8.15904         3.15790         3.17057
| 39>    C       -8.73391         1.96349         2.77406
| 40>    C       -8.98278         0.83217         3.72220
| 41>    C       -8.20021         1.02087         5.01929
| 42>    C       -8.38350         2.44395         5.55207
| 43>    O       -7.88282         2.59919         6.85790
| 44>    C       -7.73227         3.43429         4.57710
| 45>    C       -7.46106         5.36222         2.16469
| 46>    C       -7.33993         6.22102         1.09219
| 47>    C       -6.79378         7.53027         1.10214
| 48>    C       -6.79347         8.15272        -0.11197
| 49>    C       -7.33530         7.36122        -1.14728
| 50>    S       -7.85827         5.81298        -0.52402
| 51>    C       -7.47639         7.60936        -2.50103
| 52>    C       -7.10462         8.72907        -3.27634
| 53>    C       -7.35329         8.58075        -4.60733
| 54>    C       -7.91968         7.32648        -4.96625
| 55>    S       -8.18001         6.37342        -3.51844
| 56>    C       -8.29845         6.95625        -6.23166
| 57>    C       -8.83342         5.72639        -6.68203
| 58>    S      -10.02066         5.83154        -7.96574
| 59>    C      -10.28669         4.10765        -7.94240
| 60>    C       -9.42716         3.49763        -7.02859
| 61>    C       -8.61519         4.39654        -6.32746
| 62>    C       -7.53142         3.86264        -5.44644
| 63>    C       -8.00481         2.57795        -4.77433
| 64>    C       -8.34347         1.53111        -5.83702
| 65>    O       -8.83024         0.33202        -5.26545
| 66>    C       -9.44624         2.02785        -6.77691
| 67>    C      -11.16314         3.45040        -8.82702
| 68>    C      -12.19359         3.95363        -9.56850
| 69>    C      -12.94813         5.17886        -9.47308
| 70>    C      -13.22604         5.86698        -8.31655
| 71>    C      -14.02538         7.02315        -8.25629
| 72>    N      -14.65267         7.98011        -8.16039
| 73>    C      -12.82537         5.39633        -7.05367
| 74>    N      -12.57096         4.97680        -6.01422
| 75>    C      -13.60891         5.38483       -10.75644
| 76>    C      -13.46270         4.20776       -11.53340
| 77>    C      -12.63295         3.23401       -10.79197
| 78>    O      -12.31963         2.11563       -11.12934
| 79>    C      -14.02233         4.07721       -12.78042
| 80>    C      -14.74766         5.16159       -13.28748
| 81>    C      -14.87437         6.33606       -12.50842
| 82>    C      -14.31792         6.46582       -11.24161
| 83>    S      -15.79991         7.55377       -13.33267
| 84>    C      -16.00547         6.48195       -14.69283
| 85>    C      -15.41154         5.27492       -14.54010
| 86>   Br      -16.98206         7.06020       -16.18586
| 87>    H      -11.40309         3.06141        -3.81162
| 88>    H      -12.15670        -1.86714        -3.27112
| 89>    H      -12.84396         2.79013        -6.14316
| 90>    H       -9.79418        -0.02916         1.38265
| 91>    H       -8.70644        -0.11994         3.26398
| 92>    H      -10.05375         0.78731         3.94466
| 93>    H       -7.13664         0.84115         4.83857
| 94>    H       -8.54393         0.30494         5.76702
| 95>    H       -9.45271         2.66684         5.63690
| 96>    H       -6.95193         2.34684         6.86688
| 97>    H       -6.64165         3.34395         4.65252
| 98>    H       -7.99596         4.45439         4.86394
| 99>    H       -7.09423         5.71494         3.11939
|100>    H       -6.41610         7.97134         2.00805
|101>    H       -6.41818         9.14559        -0.28505
|102>    H       -6.66347         9.60430        -2.83404
|103>    H       -7.13308         9.32458        -5.35261
|104>    H       -8.28789         7.74805        -6.97239
|105>    H       -7.21939         4.58403        -4.69729
|106>    H       -6.65946         3.64458        -6.07438
|107>    H       -8.88612         2.78128        -4.16469
|108>    H       -7.22144         2.19334        -4.11681
|109>    H       -7.43193         1.31806        -6.42154
|110>    H       -8.16574        -0.02149        -4.66470
|111>    H      -10.39894         1.76471        -6.30986
|112>    H       -9.39448         1.47730        -7.71934
|113>    H      -10.93532         2.40675        -9.02455
|114>    H      -13.90739         3.16728       -13.34804
|115>    H      -14.43561         7.37942       -10.68214
|116>    H      -15.43863         4.49486       -15.27890
|117> *
|118>
|119>                          ****END OF INPUT****

CARTESIAN COORDINATES (ANGSTROEM)
---------------------------------
  C    -10.708610   -0.453860   -1.133870
  C    -10.666990   -1.730560   -0.625980
  C    -11.213380   -2.856160   -1.274800
  N    -11.640700   -3.811730   -1.747400
  C    -10.055050   -2.104120    0.586490
  N     -9.565130   -2.483890    1.555140
  C    -11.299510   -0.074040   -2.415650
  C    -11.080080    1.311150   -2.611920
  C    -11.560950    2.000060   -3.696160
  C    -12.275210    1.272530   -4.651780
  C    -12.451190   -0.119510   -4.481110
  C    -11.982070   -0.808570   -3.367270
  S    -13.320570   -0.812170   -5.818220
  C    -13.440020    0.761330   -6.567100
  C    -12.859860    1.754070   -5.854050
  Br   -14.305120    0.964140   -8.220970
  C    -10.276700    1.835320   -1.498110
  O     -9.811590    2.961140   -1.433010
  C    -10.144640    0.738530   -0.535250
  C     -9.674680    0.845540    0.757130
  C     -9.088300    1.934230    1.406600
  S     -8.658260    3.435590    0.633660
  C     -8.014250    4.076250    2.111410
  C     -8.159040    3.157900    3.170570
  C     -8.733910    1.963490    2.774060
  C     -8.982780    0.832170    3.722200
  C     -8.200210    1.020870    5.019290
  C     -8.383500    2.443950    5.552070
  O     -7.882820    2.599190    6.857900
  C     -7.732270    3.434290    4.577100
  C     -7.461060    5.362220    2.164690
  C     -7.339930    6.221020    1.092190
  C     -6.793780    7.530270    1.102140
  C     -6.793470    8.152720   -0.111970
  C     -7.335300    7.361220   -1.147280
  S     -7.858270    5.812980   -0.524020
  C     -7.476390    7.609360   -2.501030
  C     -7.104620    8.729070   -3.276340
  C     -7.353290    8.580750   -4.607330
  C     -7.919680    7.326480   -4.966250
  S     -8.180010    6.373420   -3.518440
  C     -8.298450    6.956250   -6.231660
  C     -8.833420    5.726390   -6.682030
  S    -10.020660    5.831540   -7.965740
  C    -10.286690    4.107650   -7.942400
  C     -9.427160    3.497630   -7.028590
  C     -8.615190    4.396540   -6.327460
  C     -7.531420    3.862640   -5.446440
  C     -8.004810    2.577950   -4.774330
  C     -8.343470    1.531110   -5.837020
  O     -8.830240    0.332020   -5.265450
  C     -9.446240    2.027850   -6.776910
  C    -11.163140    3.450400   -8.827020
  C    -12.193590    3.953630   -9.568500
  C    -12.948130    5.178860   -9.473080
  C    -13.226040    5.866980   -8.316550
  C    -14.025380    7.023150   -8.256290
  N    -14.652670    7.980110   -8.160390
  C    -12.825370    5.396330   -7.053670
  N    -12.570960    4.976800   -6.014220
  C    -13.608910    5.384830  -10.756440
  C    -13.462700    4.207760  -11.533400
  C    -12.632950    3.234010  -10.791970
  O    -12.319630    2.115630  -11.129340
  C    -14.022330    4.077210  -12.780420
  C    -14.747660    5.161590  -13.287480
  C    -14.874370    6.336060  -12.508420
  C    -14.317920    6.465820  -11.241610
  S    -15.799910    7.553770  -13.332670
  C    -16.005470    6.481950  -14.692830
  C    -15.411540    5.274920  -14.540100
  Br   -16.982060    7.060200  -16.185860
  H    -11.403090    3.061410   -3.811620
  H    -12.156700   -1.867140   -3.271120
  H    -12.843960    2.790130   -6.143160
  H     -9.794180   -0.029160    1.382650
  H     -8.706440   -0.119940    3.263980
  H    -10.053750    0.787310    3.944660
  H     -7.136640    0.841150    4.838570
  H     -8.543930    0.304940    5.767020
  H     -9.452710    2.666840    5.636900
  H     -6.951930    2.346840    6.866880
  H     -6.641650    3.343950    4.652520
  H     -7.995960    4.454390    4.863940
  H     -7.094230    5.714940    3.119390
  H     -6.416100    7.971340    2.008050
  H     -6.418180    9.145590   -0.285050
  H     -6.663470    9.604300   -2.834040
  H     -7.133080    9.324580   -5.352610
  H     -8.287890    7.748050   -6.972390
  H     -7.219390    4.584030   -4.697290
  H     -6.659460    3.644580   -6.074380
  H     -8.886120    2.781280   -4.164690
  H     -7.221440    2.193340   -4.116810
  H     -7.431930    1.318060   -6.421540
  H     -8.165740   -0.021490   -4.664700
  H    -10.398940    1.764710   -6.309860
  H     -9.394480    1.477300   -7.719340
  H    -10.935320    2.406750   -9.024550
  H    -13.907390    3.167280  -13.348040
  H    -14.435610    7.379420  -10.682140
  H    -15.438630    4.494860  -15.278900

 Total Charge           Charge          ....    0
 Multiplicity           Mult            ....    1
 Number of Electrons    NEL             ....  592
 Basis Dimension        Dim             .... 1218

ORBITAL ENERGIES
----------------

  NO   OCC          E(Eh)            E(eV)
   0   2.0000    -482.884442    -13139.9537
   1   2.0000    -482.872725    -13139.6348
   2   2.0000     -88.974439     -2421.1176
   3   2.0000     -88.961987     -2420.7787
   4   2.0000     -88.960587     -2420.7406
   5   2.0000     -88.959781     -2420.7187
   6   2.0000     -88.957083     -2420.6453
   7   2.0000     -88.954073     -2420.5634
   8   2.0000     -62.562182     -1702.4035
   9   2.0000     -62.550094     -1702.0746
  10   2.0000     -56.396132     -1534.6168
  11   2.0000     -56.393416     -1534.5429
  12   2.0000     -56.393382     -1534.5419
  13   2.0000     -56.384048     -1534.2879
  14   2.0000     -56.381376     -1534.2152
  15   2.0000     -56.381268     -1534.2123
  16   2.0000     -19.210745      -522.7509
  17   2.0000     -19.209636      -522.7208
  18   2.0000     -19.209047      -522.7047
  19   2.0000     -19.207227      -522.6552
  20   2.0000     -14.415888      -392.2762
  21   2.0000     -14.413268      -392.2050
  22   2.0000     -14.407136      -392.0381
  23   2.0000     -14.401795      -391.8928
  24   2.0000     -10.361907      -281.9618
  25   2.0000     -10.357441      -281.8403
  26   2.0000     -10.356400      -281.8120
  27   2.0000     -10.343059      -281.4490
  28   2.0000     -10.339723      -281.3582
  29   2.0000     -10.338342      -281.3206
  30   2.0000     -10.329596      -281.0826
  31   2.0000     -10.327199      -281.0174
  32   2.0000     -10.326830      -281.0073
  33   2.0000     -10.326175      -280.9895
  34   2.0000     -10.324372      -280.9404
  35   2.0000     -10.322324      -280.8847
  36   2.0000     -10.321781      -280.8699
  37   2.0000     -10.321272      -280.8561
  38   2.0000     -10.320558      -280.8367
  39   2.0000     -10.318529      -280.7815
  40   2.0000     -10.316673      -280.7309
  41   2.0000     -10.316268      -280.7199
  42   2.0000     -10.316067      -280.7145
  43   2.0000     -10.311253      -280.5834
  44   2.0000     -10.310019      -280.5499
  45   2.0000     -10.309974      -280.5486
  46   2.0000     -10.309681      -280.5407
  47   2.0000     -10.306690      -280.4593
  48   2.0000     -10.305865      -280.4369
  49   2.0000     -10.305783      -280.4346
  50   2.0000     -10.305420      -280.4247
  51   2.0000     -10.304313      -280.3946
  52   2.0000     -10.303269      -280.3662
  53   2.0000     -10.302824      -280.3541
  54   2.0000     -10.301358      -280.3142
  55   2.0000     -10.301266      -280.3117
  56   2.0000     -10.300574      -280.2929
  57   2.0000     -10.299553      -280.2651
  58   2.0000     -10.298626      -280.2399
  59   2.0000     -10.297943      -280.2213
  60   2.0000     -10.295479      -280.1542
  61   2.0000     -10.294437      -280.1259
  62   2.0000     -10.293434      -280.0986
  63   2.0000     -10.291258      -280.0394
  64   2.0000     -10.291177      -280.0372
  65   2.0000     -10.290736      -280.0252
  66   2.0000     -10.290027      -280.0059
  67   2.0000     -10.289396      -279.9887
  68   2.0000     -10.289249      -279.9847
  69   2.0000     -10.283629      -279.8318
  70   2.0000     -10.283483      -279.8278
  71   2.0000     -10.280479      -279.7461
  72   2.0000     -10.276458      -279.6366
  73   2.0000     -10.275649      -279.6146
  74   2.0000     -10.275228      -279.6032
  75   2.0000     -10.273834      -279.5652
  76   2.0000     -10.273008      -279.5428
  77   2.0000     -10.272781      -279.5366
  78   2.0000     -10.265260      -279.3319
  79   2.0000     -10.262912      -279.2680
  80   2.0000      -8.791627      -239.2323
  81   2.0000      -8.779413      -238.9000
  82   2.0000      -8.070374      -219.6061
  83   2.0000      -8.057172      -219.2468
  84   2.0000      -8.056520      -219.2291
  85   2.0000      -8.055748      -219.2080
  86   2.0000      -8.052974      -219.1326
  87   2.0000      -8.047515      -218.9840
  88   2.0000      -6.627936      -180.3553
  89   2.0000      -6.615649      -180.0210
  90   2.0000      -6.613348      -179.9583
  91   2.0000      -6.613166      -179.9534
  92   2.0000      -6.601149      -179.6264
  93   2.0000      -6.601016      -179.6228
  94   2.0000      -6.040065      -164.3585
  95   2.0000      -6.035790      -164.2422
  96   2.0000      -6.031620      -164.1287
  97   2.0000      -6.026541      -163.9905
  98   2.0000      -6.026206      -163.9814
  99   2.0000      -6.025482      -163.9617
 100   2.0000      -6.022713      -163.8864
 101   2.0000      -6.022525      -163.8812
 102   2.0000      -6.021963      -163.8659
 103   2.0000      -6.021301      -163.8479
 104   2.0000      -6.018983      -163.7849
 105   2.0000      -6.018305      -163.7664
 106   2.0000      -6.017727      -163.7507
 107   2.0000      -6.016805      -163.7256
 108   2.0000      -6.016700      -163.7227
 109   2.0000      -6.014110      -163.6523
 110   2.0000      -6.012414      -163.6061
 111   2.0000      -6.009743      -163.5334
 112   2.0000      -2.743784       -74.6621
 113   2.0000      -2.739715       -74.5514
 114   2.0000      -2.739589       -74.5480
 115   2.0000      -2.731508       -74.3281
 116   2.0000      -2.727986       -74.2323
 117   2.0000      -2.727974       -74.2320
 118   2.0000      -2.727470       -74.2182
 119   2.0000      -2.727350       -74.2150
 120   2.0000      -2.715841       -73.9018
 121   2.0000      -2.715822       -73.9013
 122   2.0000      -1.125945       -30.6385
 123   2.0000      -1.124617       -30.6024
 124   2.0000      -1.098983       -29.9048
 125   2.0000      -1.098500       -29.8917
 126   2.0000      -1.022123       -27.8134
 127   2.0000      -1.013431       -27.5769
 128   2.0000      -1.011609       -27.5273
 129   2.0000      -1.009270       -27.4636
 130   2.0000      -1.001222       -27.2446
 131   2.0000      -1.000115       -27.2145
 132   2.0000      -0.994946       -27.0739
 133   2.0000      -0.993049       -27.0222
 134   2.0000      -0.987319       -26.8663
 135   2.0000      -0.983402       -26.7597
 136   2.0000      -0.983166       -26.7533
 137   2.0000      -0.975992       -26.5581
 138   2.0000      -0.941662       -25.6239
 139   2.0000      -0.929301       -25.2876
 140   2.0000      -0.919197       -25.0126
 141   2.0000      -0.914346       -24.8806
 142   2.0000      -0.911589       -24.8056
 143   2.0000      -0.906826       -24.6760
 144   2.0000      -0.905632       -24.6435
 145   2.0000      -0.895234       -24.3606
 146   2.0000      -0.889665       -24.2090
 147   2.0000      -0.884472       -24.0677
 148   2.0000      -0.878887       -23.9157
 149   2.0000      -0.870536       -23.6885
 150   2.0000      -0.869151       -23.6508
 151   2.0000      -0.859223       -23.3806
 152   2.0000      -0.855885       -23.2898
 153   2.0000      -0.844092       -22.9689
 154   2.0000      -0.837198       -22.7813
 155   2.0000      -0.833913       -22.6919
 156   2.0000      -0.827831       -22.5264
 157   2.0000      -0.822874       -22.3915
 158   2.0000      -0.819719       -22.3057
 159   2.0000      -0.815616       -22.1940
 160   2.0000      -0.813043       -22.1240
 161   2.0000      -0.795133       -21.6367
 162   2.0000      -0.782537       -21.2939
 163   2.0000      -0.769340       -20.9348
 164   2.0000      -0.757375       -20.6092
 165   2.0000      -0.748131       -20.3577
 166   2.0000      -0.743444       -20.2301
 167   2.0000      -0.728873       -19.8336
 168   2.0000      -0.721613       -19.6361
 169   2.0000      -0.720825       -19.6146
 170   2.0000      -0.710008       -19.3203
 171   2.0000      -0.700618       -19.0648
 172   2.0000      -0.696706       -18.9583
 173   2.0000      -0.691336       -18.8122
 174   2.0000      -0.682191       -18.5634
 175   2.0000      -0.680773       -18.5248
 176   2.0000      -0.679448       -18.4887
 177   2.0000      -0.675720       -18.3873
 178   2.0000      -0.671454       -18.2712
 179   2.0000      -0.660215       -17.9654
 180   2.0000      -0.649272       -17.6676
 181   2.0000      -0.645661       -17.5693
 182   2.0000      -0.642298       -17.4778
 183   2.0000      -0.638295       -17.3689
 184   2.0000      -0.631576       -17.1861
 185   2.0000      -0.630831       -17.1658
 186   2.0000      -0.621837       -16.9211
 187   2.0000      -0.616917       -16.7872
 188   2.0000      -0.610476       -16.6119
 189   2.0000      -0.609158       -16.5760
 190   2.0000      -0.605125       -16.4663
 191   2.0000      -0.602212       -16.3870
 192   2.0000      -0.592722       -16.1288
 193   2.0000      -0.592090       -16.1116
 194   2.0000      -0.587605       -15.9895
 195   2.0000      -0.585548       -15.9336
 196   2.0000      -0.577689       -15.7197
 197   2.0000      -0.568266       -15.4633
 198   2.0000      -0.562871       -15.3165
 199   2.0000      -0.561095       -15.2682
 200   2.0000      -0.550492       -14.9796
 201   2.0000      -0.546718       -14.8769
 202   2.0000      -0.541317       -14.7300
 203   2.0000      -0.538894       -14.6641
 204   2.0000      -0.537663       -14.6306
 205   2.0000      -0.536299       -14.5934
 206   2.0000      -0.532987       -14.5033
 207   2.0000      -0.530704       -14.4412
 208   2.0000      -0.530122       -14.4254
 209   2.0000      -0.528998       -14.3948
 210   2.0000      -0.526526       -14.3275
 211   2.0000      -0.524698       -14.2778
 212   2.0000      -0.522092       -14.2069
 213   2.0000      -0.519066       -14.1245
 214   2.0000      -0.518637       -14.1128
 215   2.0000      -0.516114       -14.0442
 216   2.0000      -0.514709       -14.0060
 217   2.0000      -0.514168       -13.9912
 218   2.0000      -0.508505       -13.8371
 219   2.0000      -0.507184       -13.8012
 220   2.0000      -0.504998       -13.7417
 221   2.0000      -0.504157       -13.7188
 222   2.0000      -0.502294       -13.6681
 223   2.0000      -0.498652       -13.5690
 224   2.0000      -0.498299       -13.5594
 225   2.0000      -0.494269       -13.4497
 226   2.0000      -0.491671       -13.3791
 227   2.0000      -0.489990       -13.3333
 228   2.0000      -0.486947       -13.2505
 229   2.0000      -0.486005       -13.2249
 230   2.0000      -0.483977       -13.1697
 231   2.0000      -0.481071       -13.0906
 232   2.0000      -0.479542       -13.0490
 233   2.0000      -0.478533       -13.0216
 234   2.0000      -0.473846       -12.8940
 235   2.0000      -0.470547       -12.8042
 236   2.0000      -0.462447       -12.5838
 237   2.0000      -0.461437       -12.5564
 238   2.0000      -0.459744       -12.5103
 239   2.0000      -0.457154       -12.4398
 240   2.0000      -0.456101       -12.4111
 241   2.0000      -0.454396       -12.3647
 242   2.0000      -0.452376       -12.3098
 243   2.0000      -0.447115       -12.1666
 244   2.0000      -0.445982       -12.1358
 245   2.0000      -0.443909       -12.0794
 246   2.0000      -0.442918       -12.0524
 247   2.0000      -0.440544       -11.9878
 248   2.0000      -0.439507       -11.9596
 249   2.0000      -0.438993       -11.9456
 250   2.0000      -0.435803       -11.8588
 251   2.0000      -0.434657       -11.8276
 252   2.0000      -0.434183       -11.8147
 253   2.0000      -0.433235       -11.7889
 254   2.0000      -0.427792       -11.6408
 255   2.0000      -0.426802       -11.6139
 256   2.0000      -0.424812       -11.5597
 257   2.0000      -0.422967       -11.5095
 258   2.0000      -0.422737       -11.5033
 259   2.0000      -0.419420       -11.4130
 260   2.0000      -0.417257       -11.3542
 261   2.0000      -0.416134       -11.3236
 262   2.0000      -0.414134       -11.2692
 263   2.0000      -0.412346       -11.2205
 264   2.0000      -0.411882       -11.2079
 265   2.0000      -0.410681       -11.1752
 266   2.0000      -0.407430       -11.0867
 267   2.0000      -0.399268       -10.8646
 268   2.0000      -0.397365       -10.8129
 269   2.0000      -0.389922       -10.6103
 270   2.0000      -0.388699       -10.5770
 271   2.0000      -0.386785       -10.5250
 272   2.0000      -0.381427       -10.3792
 273   2.0000      -0.375667       -10.2224
 274   2.0000      -0.373986       -10.1767
 275   2.0000      -0.373847       -10.1729
 276   2.0000      -0.366778        -9.9805
 277   2.0000      -0.361588        -9.8393
 278   2.0000      -0.356540        -9.7019
 279   2.0000      -0.351081        -9.5534
 280   2.0000      -0.344672        -9.3790
 281   2.0000      -0.342142        -9.3101
 282   2.0000      -0.341126        -9.2825
 283   2.0000      -0.335832        -9.1385
 284   2.0000      -0.331358        -9.0167
 285   2.0000      -0.323995        -8.8163
 286   2.0000      -0.318410        -8.6644
 287   2.0000      -0.316123        -8.6021
 288   2.0000      -0.313546        -8.5320
 289   2.0000      -0.308217        -8.3870
 290   2.0000      -0.299641        -8.1536
 291   2.0000      -0.294147        -8.0042
 292   2.0000      -0.290702        -7.9104
 293   2.0000      -0.279817        -7.6142
 294   2.0000      -0.266197        -7.2436
 295   2.0000      -0.222528        -6.0553
 296   0.0000      -0.110874        -3.0170
 297   0.0000      -0.086634        -2.3574
 298   0.0000      -0.064881        -1.7655
 299   0.0000      -0.053485        -1.4554
 300   0.0000      -0.043986        -1.1969

MULLIKEN ATOMIC CHARGES
-----------------------
   0 C :    0.308650
   1 C :   -0.366758
   2 C :   -0.187360
   3 N :    0.145237
   4 C :   -0.194053
   5 N :    0.139140
   6 C :    0.013889
   7 C :    0.007852
   8 C :   -0.086792
   9 C :    0.100848
  10 C :   -0.073285
  11 C :   -0.026931
  12 S :    0.176516
  13 C :   -0.121105
  14 C :    0.056545
  15 Br:    0.019075
  16 C :    0.154526
  17 O :   -0.194601
  18 C :   -0.096668
  19 C :   -0.046977
  20 C :   -0.061307
  21 S :    0.123224
  22 C :   -0.057343
  23 C :   -0.089151
  24 C :   -0.088347
  25 C :    0.115401
  26 C :    0.053814
  27 C :    0.072839
  28 O :   -0.292183
  29 C :    0.178258
  30 C :   -0.026689
  31 C :   -0.020131
  32 C :    0.032655
  33 C :    0.039422
  34 C :   -0.025161
  35 S :    0.081664
  36 C :   -0.059433
  37 C :    0.039330
  38 C :    0.039886
  39 C :   -0.025008
  40 S :    0.120182
  41 C :   -0.013668
  42 C :   -0.124796
  43 S :    0.136268
  44 C :   -0.135764
  45 C :   -0.038652
  46 C :   -0.070277
  47 C :    0.129036
  48 C :    0.018435
  49 C :    0.079667
  50 O :   -0.278707
  51 C :    0.164967
  52 C :    0.008068
  53 C :   -0.127890
  54 C :    0.254720
  55 C :   -0.326658
  56 C :   -0.174353
  57 N :    0.149279
  58 C :   -0.141006
  59 N :    0.118397
  60 C :    0.005084
  61 C :   -0.000276
  62 C :    0.137218
  63 O :   -0.142621
  64 C :   -0.076819
  65 C :    0.116716
  66 C :   -0.089022
  67 C :   -0.024080
  68 S :    0.183617
  69 C :   -0.125766
  70 C :    0.039108
  71 Br:    0.022335
  72 H :    0.004709
  73 H :   -0.010681
  74 H :   -0.037359
  75 H :    0.005643
  76 H :    0.044143
  77 H :    0.026771
  78 H :   -0.008307
  79 H :    0.012527
  80 H :    0.003176
  81 H :    0.161748
  82 H :   -0.004282
  83 H :    0.017377
  84 H :   -0.012670
  85 H :   -0.008030
  86 H :   -0.010903
  87 H :   -0.007403
  88 H :   -0.003570
  89 H :    0.005821
  90 H :    0.004707
  91 H :    0.015629
  92 H :    0.019196
  93 H :   -0.005312
  94 H :   -0.015925
  95 H :    0.166815
  96 H :    0.044588
  97 H :    0.029689
  98 H :    0.025093
  99 H :   -0.009626
 100 H :   -0.003563
 101 H :   -0.002234
Sum of atomic charges:   -0.0000000

LOEWDIN ATOMIC CHARGES
----------------------
   0 C :    0.078597
   1 C :   -0.157771
   2 C :   -0.019799
   3 N :   -0.063307
   4 C :   -0.019371
   5 N :   -0.069113
   6 C :   -0.021289
   7 C :   -0.049522
   8 C :    0.022229
   9 C :   -0.033084
  10 C :   -0.139570
  11 C :   -0.008414
  12 S :    0.425862
  13 C :   -0.275877
  14 C :   -0.074413
  15 Br:    0.136909
  16 C :    0.081213
  17 O :   -0.175205
  18 C :   -0.118913
  19 C :    0.045569
  20 C :   -0.195713
  21 S :    0.503642
  22 C :   -0.159294
  23 C :   -0.067682
  24 C :   -0.020631
  25 C :   -0.026183
  26 C :   -0.040448
  27 C :    0.059483
  28 O :   -0.124800
  29 C :   -0.039245
  30 C :   -0.076165
  31 C :   -0.140468
  32 C :   -0.029123
  33 C :   -0.030847
  34 C :   -0.179745
  35 S :    0.406069
  36 C :   -0.167879
  37 C :   -0.030102
  38 C :   -0.023056
  39 C :   -0.139264
  40 S :    0.426854
  41 C :   -0.076368
  42 C :   -0.141943
  43 S :    0.451819
  44 C :   -0.191984
  45 C :   -0.002247
  46 C :   -0.060314
  47 C :   -0.030876
  48 C :   -0.041368
  49 C :    0.065010
  50 O :   -0.128525
  51 C :   -0.032527
  52 C :    0.052871
  53 C :   -0.108232
  54 C :    0.066927
  55 C :   -0.152918
  56 C :   -0.021011
  57 N :   -0.056124
  58 C :   -0.010687
  59 N :   -0.066577
  60 C :   -0.017313
  61 C :   -0.051764
  62 C :    0.079677
  63 O :   -0.144705
  64 C :    0.021358
  65 C :   -0.033967
  66 C :   -0.143873
  67 C :   -0.013289
  68 S :    0.430591
  69 C :   -0.272688
  70 C :   -0.069993
  71 Br:    0.135561
  72 H :    0.043235
  73 H :    0.039648
  74 H :    0.032686
  75 H :    0.046609
  76 H :    0.041770
  77 H :    0.039781
  78 H :    0.019024
  79 H :    0.030011
  80 H :    0.022590
  81 H :    0.072175
  82 H :    0.026925
  83 H :    0.031843
  84 H :    0.036647
  85 H :    0.035011
  86 H :    0.033433
  87 H :    0.035237
  88 H :    0.036306
  89 H :    0.038152
  90 H :    0.007472
  91 H :    0.033732
  92 H :    0.028624
  93 H :    0.022243
  94 H :    0.004495
  95 H :    0.076552
  96 H :    0.050494
  97 H :    0.041092
  98 H :    0.048656
  99 H :    0.041190
 100 H :    0.040729
 101 H :    0.038985

  Mayer bond orders larger than 0.100000
B(  0-C ,  1-C ) :   1.5997 B(  0-C ,  6-C ) :   0.9958 B(  0-C , 18-C ) :   1.0968
B(  1-C ,  2-C ) :   1.1469 B(  1-C ,  4-C ) :   1.1526 B(  2-C ,  3-N ) :   2.9704
B(  4-C ,  5-N ) :   2.9701 B(  6-C ,  7-C ) :   1.2747 B(  6-C , 11-C ) :   1.4137
B(  7-C ,  8-C ) :   1.4072 B(  7-C , 16-C ) :   0.9616 B(  8-C ,  9-C ) :   1.2454
B(  8-C , 72-H ) :   1.0136 B(  9-C , 10-C ) :   1.3120 B(  9-C , 14-C ) :   1.1706
B( 10-C , 11-C ) :   1.3194 B( 10-C , 12-S ) :   1.0860 B( 11-C , 73-H ) :   0.9808
B( 12-S , 13-C ) :   1.0815 B( 13-C , 14-C ) :   1.5885 B( 13-C , 15-Br) :   1.0222
B( 14-C , 74-H ) :   0.9875 B( 16-C , 17-O ) :   2.0813 B( 16-C , 18-C ) :   0.9907
B( 18-C , 19-C ) :   1.4512 B( 19-C , 20-C ) :   1.3242 B( 19-C , 75-H ) :   0.9339
B( 20-C , 21-S ) :   1.0835 B( 20-C , 24-C ) :   1.3080 B( 21-S , 22-C ) :   1.1057
B( 22-C , 23-C ) :   1.3249 B( 22-C , 30-C ) :   1.2395 B( 23-C , 24-C ) :   1.4779
B( 23-C , 29-C ) :   1.0180 B( 24-C , 25-C ) :   1.0487 B( 25-C , 26-C ) :   1.0741
B( 25-C , 76-H ) :   0.9025 B( 25-C , 77-H ) :   0.9057 B( 26-C , 27-C ) :   1.0408
B( 26-C , 78-H ) :   0.9320 B( 26-C , 79-H ) :   0.9263 B( 27-C , 28-O ) :   1.0465
B( 27-C , 29-C ) :   1.0361 B( 27-C , 80-H ) :   0.9284 B( 28-O , 81-H ) :   0.9830
B( 29-C , 82-H ) :   0.8948 B( 29-C , 83-H ) :   0.9073 B( 30-C , 31-C ) :   1.5089
B( 30-C , 84-H ) :   0.9693 B( 31-C , 32-C ) :   1.1544 B( 31-C , 35-S ) :   1.0660
B( 32-C , 33-C ) :   1.5807 B( 32-C , 85-H ) :   0.9990 B( 33-C , 34-C ) :   1.1920
B( 33-C , 86-H ) :   0.9933 B( 34-C , 35-S ) :   1.0400 B( 34-C , 36-C ) :   1.4924
B( 36-C , 37-C ) :   1.1879 B( 36-C , 40-S ) :   1.0621 B( 37-C , 38-C ) :   1.5938
B( 37-C , 87-H ) :   0.9933 B( 38-C , 39-C ) :   1.1378 B( 38-C , 88-H ) :   0.9965
B( 39-C , 40-S ) :   1.0445 B( 39-C , 41-C ) :   1.6235 B( 41-C , 42-C ) :   1.1306
B( 41-C , 89-H ) :   0.9434 B( 42-C , 43-S ) :   1.1243 B( 42-C , 46-C ) :   1.4521
B( 43-S , 44-C ) :   1.0950 B( 44-C , 45-C ) :   1.4158 B( 44-C , 52-C ) :   1.1811
B( 45-C , 46-C ) :   1.3401 B( 45-C , 51-C ) :   1.0432 B( 46-C , 47-C ) :   1.0586
B( 47-C , 48-C ) :   1.0635 B( 47-C , 90-H ) :   0.8897 B( 47-C , 91-H ) :   0.9105
B( 48-C , 49-C ) :   1.0624 B( 48-C , 92-H ) :   0.9348 B( 48-C , 93-H ) :   0.9268
B( 49-C , 50-O ) :   1.0908 B( 49-C , 51-C ) :   1.0282 B( 49-C , 94-H ) :   0.9245
B( 50-O , 95-H ) :   0.9730 B( 51-C , 96-H ) :   0.9002 B( 51-C , 97-H ) :   0.8851
B( 52-C , 53-C ) :   1.5980 B( 52-C , 98-H ) :   0.9355 B( 53-C , 54-C ) :   1.0532
B( 53-C , 62-C ) :   0.9453 B( 54-C , 55-C ) :   1.6287 B( 54-C , 60-C ) :   1.0170
B( 55-C , 56-C ) :   1.1313 B( 55-C , 58-C ) :   1.1727 B( 56-C , 57-N ) :   2.9863
B( 58-C , 59-N ) :   2.8945 B( 60-C , 61-C ) :   1.2726 B( 60-C , 67-C ) :   1.4175
B( 61-C , 62-C ) :   0.9210 B( 61-C , 64-C ) :   1.4288 B( 62-C , 63-O ) :   2.2588
B( 64-C , 65-C ) :   1.2480 B( 64-C , 99-H ) :   1.0169 B( 65-C , 66-C ) :   1.3101
B( 65-C , 70-C ) :   1.1632 B( 66-C , 67-C ) :   1.3230 B( 66-C , 68-S ) :   1.0837
B( 67-C ,100-H ) :   0.9838 B( 68-S , 69-C ) :   1.0862 B( 69-C , 70-C ) :   1.6203
B( 69-C , 71-Br) :   1.0179 B( 70-C ,101-H ) :   0.9999

-----------------------------------------------------------------------------
         ABSORPTION SPECTRUM VIA TRANSITION ELECTRIC DIPOLE MOMENTS
-----------------------------------------------------------------------------
State   Energy  Wavelength   fosc         T2         TX        TY        TZ
        (cm-1)    (nm)                  (au**2)     (au)      (au)      (au)
-----------------------------------------------------------------------------
   0   10028.3    997.2   0.558761470  18.34327   0.40835  -2.20713   3.64762
   1   15911.7    628.5   0.423372505   8.75954  -2.04557  -1.81770  -1.12745
   2   19273.8    518.8   0.513983247   8.77925   2.13397   1.60462   1.28476
   3   20809.2    480.6   0.337068107   5.33259   0.81238   1.10124   1.86008
   4   22388.4    446.7   0.243251860   3.57691  -0.73953  -1.16811  -1.29055
   5   22748.5    439.6   0.204791741   2.96370  -0.97900   0.03896  -1.41553
   6   24149.2    414.1   0.239335849   3.26273   0.12371   1.26661   1.28185
   7   24813.6    403.0   0.103535234   1.37364  -0.17655   0.27040   1.12666
   8   25145.9    397.7   0.197932176   2.59134   0.17415   0.72437   1.42699
   9   25571.6    391.1   0.315562437   4.06259  -0.48192   0.08978  -1.95506
  10   26462.5    377.9   0.032393408   0.40300   0.45310  -0.06037   0.44051
  11   26696.4    374.6   0.061094446   0.75340  -0.67732   0.18866  -0.50897
  12   27033.5    369.9   0.128428741   1.56399   0.33888   0.14275   1.19531
  13   27577.0    362.6   0.041031629   0.48983  -0.08718   0.26204   0.64309
  14   28290.8    353.5   0.074231317   0.86381   0.53589  -0.72921   0.21187
  15   28924.1    345.7   0.005708868   0.06498  -0.08198   0.17644  -0.16470
  16   28940.3    345.5   0.011358025   0.12920   0.07642  -0.32162  -0.14115
  17   29722.5    336.4   0.013089214   0.14498   0.05145   0.37451  -0.04550
  18   29851.2    335.0   0.072867670   0.80362  -0.29457  -0.39457  -0.74910
  19   30580.9    327.0   0.089332460   0.96169   0.52155  -0.01625   0.83031
  20   30714.1    325.6   0.007178231   0.07694  -0.01051  -0.08968   0.26228
  21   30958.8    323.0   0.296331685   3.15116   0.63583  -1.16809   1.17577
  22   31540.1    317.1   0.185851612   1.93990   0.67544  -0.56689   1.07811
  23   31725.6    315.2   0.232119837   2.40867  -0.21752   0.73300  -1.35058
  24   32117.4    311.4   0.014524492   0.14888   0.19907  -0.04454   0.32752
  25   32288.5    309.7   0.000775812   0.00791   0.01541  -0.06192   0.06196
  26   32623.0    306.5   0.172470596   1.74047  -0.40811  -0.18895  -1.24025
  27   32782.0    305.0   0.041753370   0.41931   0.32739   0.04826   0.55659
  28   32887.0    304.1   0.195776953   1.95980  -0.65679   0.23500  -1.21376
  29   33230.5    300.9   0.174603759   1.72979   0.42186  -0.38152   1.18586
  30   33360.5    299.8   0.105725206   1.04333  -0.42144  -0.00327  -0.93043
  31   33421.8    299.2   0.056078819   0.55239   0.25908   0.49646   0.48866
  32   33530.4    298.2   0.305508084   2.99957   0.24277  -0.86013   1.48351
  33   33930.7    294.7   0.057476926   0.55767   0.25951  -0.57249   0.40321
  34   34354.0    291.1   0.083995967   0.80493  -0.22000   0.59324  -0.63608
  35   34771.5    287.6   0.061481070   0.58209   0.26245  -0.69975   0.15350
  36   34996.0    285.7   0.034656223   0.32602   0.04613  -0.56495  -0.06871
  37   35130.1    284.7   0.021556417   0.20201  -0.15087   0.36637  -0.21219
  38   35456.7    282.0   0.001619207   0.01503   0.09587   0.06990  -0.03093
  39   35679.6    280.3   0.051276813   0.47313  -0.19573  -0.62320  -0.21549
  40   36326.5    275.3   0.028825009   0.26123   0.08834   0.43037   0.26116
  41   36555.0    273.6   0.082353428   0.74167   0.00037   0.85891  -0.06283
  42   36827.2    271.5   0.003052254   0.02729  -0.05781  -0.13478   0.07601
  43   37021.1    270.1   0.171008402   1.52070  -0.03146   0.20992  -1.21476
  44   37572.3    266.2   0.131549590   1.15265   0.22060  -1.04934  -0.05364
  45   37734.8    265.0   0.109890937   0.95873   0.58324   0.23061   0.75191
  46   37820.5    264.4   0.040586004   0.35328  -0.28505  -0.35858  -0.37876
  47   37973.1    263.3   0.009100271   0.07890   0.01106   0.20676  -0.18980
  48   38698.7    258.4   0.006187629   0.05264   0.10851   0.09598  -0.17791
  49   38867.3    257.3   0.099594867   0.84358  -0.50307  -0.02995  -0.76786
  50   39127.6    255.6   0.023055357   0.19398  -0.15554   0.13840  -0.38812
  51   39218.5    255.0   0.000672821   0.00565   0.02560   0.03501  -0.06138
  52   39386.5    253.9   0.069192421   0.57835   0.17071   0.67648   0.30263
  53   39582.6    252.6   0.036955501   0.30736   0.02259   0.55129   0.05411
  54   39646.1    252.2   0.013399971   0.11127  -0.26016  -0.07175  -0.19606
  55   39988.3    250.1   0.010293917   0.08475  -0.15513   0.20912  -0.13020
  56   40173.7    248.9   0.008130838   0.06663   0.15573   0.09569   0.18227
  57   40280.8    248.3   0.037702834   0.30814   0.19461   0.49992   0.14264

FINAL SINGLE POINT ENERGY    -10204.793791555059

DIPOLE MOMENT
-------------
                                X             Y             Z
Electronic contribution:   -137.84425      16.25736    -208.59814
Nuclear contribution   :    140.93484     -12.78260     207.79648
                        -----------------------------------------
Total Dipole Moment    :      3.09060       3.47475      -0.80166
                        -----------------------------------------
Magnitude (a.u.)       :      4.71893
Magnitude (Debye)      :     11.99458

Rotational constants in cm-1:     0.001372     0.000337     0.000288
Rotational constants in MHz :    41.118059    10.090407     8.648666

                             ****ORCA TERMINATED NORMALLY****
TOTAL RUN TIME: 0 days 0 hours 13 minutes 43 seconds 511 msec
