                         Program Version 4.2.0 -  RELEASE  -
|  1> # ORCA input file
|  2> # SCF done       -179.238780281112          0.000749219147
|  3> ! CAM-B3LYP def2-SVP def2/J RIJCOSX Grid4 TightSCF
|  4> %maxcore 5000
|  5> %tddft
|  6>     Mode sTDDFT
|  7>     Ethresh 5.0
|  8>     maxcore 5000
|  9> end
| 10>
| 11> %pal
| 12>   nprocs 6
| 13>   end
| 14> * xyz 0 1
| 15>    C       -1.29425         0.37224        -5.09149
| 16>    C       -0.52648         0.38879        -6.23205
| 17>    C        0.62168        -0.40469        -6.42419
| 18>    N        1.56954        -1.01677        -6.63941
| 19>    C       -0.78246         1.18253        -7.36640
| 20>    N       -0.94464         1.79421        -8.32621
| 21>    C       -1.08670        -0.50526        -3.94606
| 22>    C       -2.11840        -0.27419        -3.00349
| 23>    C       -2.20575        -0.95584        -1.81542
| 24>    C       -1.22678        -1.91841        -1.54318
| 25>    C       -0.19884        -2.14195        -2.48866
| 26>    C       -0.11033        -1.44977        -3.69065
| 27>    S        0.90713        -3.37008        -1.95146
| 28>    C       -0.01576        -3.56470        -0.48511
| 29>    C       -1.09607        -2.75275        -0.39962
| 30>   Br        0.53487        -4.82015         0.79506
| 31>    C       -3.01539         0.77800        -3.51317
| 32>    O       -3.95362         1.28264        -2.92381
| 33>    C       -2.48080         1.15826        -4.83100
| 34>    C       -2.90978         2.21512        -5.59463
| 35>    N       -4.08052         2.88180        -5.52067
| 36>    C       -5.30505         2.49102        -5.06374
| 37>    S       -5.74796         0.83133        -4.88508
| 38>    C       -7.37250         1.31883        -4.53863
| 39>    N       -8.30992         0.32286        -4.26675
| 40>    O       -9.45682         0.66594        -4.02127
| 41>    O       -7.92250        -0.83403        -4.29704
| 42>    C       -7.55661         2.67661        -4.55306
| 43>    C       -6.37658         3.38536        -4.86018
| 44>    C       -6.25870         4.80340        -4.94148
| 45>    C       -7.31531         5.66261        -4.83761
| 46>    C       -7.24335         7.05715        -4.90746
| 47>    C       -8.36047         7.86110        -4.78616
| 48>    C       -8.44802         9.26684        -4.83802
| 49>    C       -9.71733         9.75964        -4.67384
| 50>    C      -10.69033         8.76837        -4.48273
| 51>    S       -9.95523         7.18281        -4.52253
| 52>    C      -12.06209         8.87177        -4.27022
| 53>    C      -12.89662         9.99711        -4.19345
| 54>    C      -14.21156         9.68387        -3.95677
| 55>    C      -14.47584         8.30563        -3.83377
| 56>    S      -12.98816         7.41348        -4.03922
| 57>    C      -15.70626         7.71716        -3.57477
| 58>    C      -15.97370         6.35834        -3.43164
| 59>    C      -15.08354         5.28226        -3.53648
| 60>    C      -15.76681         4.08355        -3.29697
| 61>    C      -17.17120         4.45684        -3.03420
| 62>    C      -17.28500         5.80195        -3.11900
| 63>    O      -18.10046         3.51531        -2.76375
| 64>    C      -19.40659         3.98340        -2.52772
| 65>    C      -15.21455         2.80976        -3.30158
| 66>    C      -15.82963         1.57691        -3.06066
| 67>    C      -14.87719         0.56076        -3.17123
| 68>    C      -13.59887         1.16645        -3.49652
| 69>    C      -13.77918         2.50359        -3.57589
| 70>    O      -12.89871         3.47943        -3.84691
| 71>    C      -11.56674         3.08951        -4.09802
| 72>    C      -15.12985        -0.81673        -2.99259
| 73>    C      -14.19634        -1.79925        -3.11723
| 74>    C      -14.48642        -3.17821        -2.92778
| 75>    C      -13.60435        -4.18855        -3.08446
| 76>    C      -12.17267        -3.97534        -3.46790
| 77>    C      -14.00478        -5.60713        -2.77545
| 78>    N      -13.44154        -6.04129        -1.51010
| 79>    C      -13.97705        -5.58076        -0.32843
| 80>    C      -13.31037        -5.46339         0.81456
| 81>    H       -3.00568        -0.75788        -1.11950
| 82>    H        0.69387        -1.65579        -4.37679
| 83>    H       -1.77383        -2.74127         0.43432
| 84>    H       -2.23892         2.61482        -6.34435
| 85>    H       -4.08674         3.80176        -5.94892
| 86>    H       -8.50894         3.12217        -4.33434
| 87>    H       -5.27108         5.22437        -5.07844
| 88>    H       -8.30435         5.24988        -4.69310
| 89>    H       -6.28633         7.53712        -5.05954
| 90>    H       -7.57736         9.87953        -4.99318
| 91>    H       -9.96510        10.80637        -4.68395
| 92>    H      -12.52464        10.99949        -4.30947
| 93>    H      -14.99511        10.41608        -3.86497
| 94>    H      -16.53904         8.40156        -3.46273
| 95>    H      -14.04067         5.32332        -3.76339
| 96>    H      -18.16495         6.40164        -2.98272
| 97>    H      -20.01582         3.10383        -2.32667
| 98>    H      -19.80049         4.51080        -3.40245
| 99>    H      -19.43470         4.65474        -1.66341
|100>    H      -16.86789         1.44399        -2.82937
|101>    H      -12.68062         0.63163        -3.63727
|102>    H      -11.13906         2.55630        -3.24509
|103>    H      -11.02089         4.01545        -4.27738
|104>    H      -11.50290         2.44136        -4.97645
|105>    H      -16.14709        -1.09076        -2.73847
|106>    H      -13.18322        -1.53110        -3.37373
|107>    H      -15.50502        -3.41811        -2.64752
|108>    H      -12.10516        -3.43317        -4.40985
|109>    H      -11.65599        -4.92501        -3.58606
|110>    H      -11.64771        -3.38793        -2.71472
|111>    H      -13.64523        -6.28701        -3.55496
|112>    H      -15.09185        -5.69707        -2.70838
|113>    H      -12.43071        -6.08887        -1.50465
|114>    H      -15.03845        -5.37700        -0.37869
|115>    H      -12.25431        -5.66405         0.87769
|116>    H      -13.80787        -5.18781         1.72479
|117> *
|118>
|119>                          ****END OF INPUT****

CARTESIAN COORDINATES (ANGSTROEM)
---------------------------------
  C     -1.294250    0.372240   -5.091490
  C     -0.526480    0.388790   -6.232050
  C      0.621680   -0.404690   -6.424190
  N      1.569540   -1.016770   -6.639410
  C     -0.782460    1.182530   -7.366400
  N     -0.944640    1.794210   -8.326210
  C     -1.086700   -0.505260   -3.946060
  C     -2.118400   -0.274190   -3.003490
  C     -2.205750   -0.955840   -1.815420
  C     -1.226780   -1.918410   -1.543180
  C     -0.198840   -2.141950   -2.488660
  C     -0.110330   -1.449770   -3.690650
  S      0.907130   -3.370080   -1.951460
  C     -0.015760   -3.564700   -0.485110
  C     -1.096070   -2.752750   -0.399620
  Br     0.534870   -4.820150    0.795060
  C     -3.015390    0.778000   -3.513170
  O     -3.953620    1.282640   -2.923810
  C     -2.480800    1.158260   -4.831000
  C     -2.909780    2.215120   -5.594630
  N     -4.080520    2.881800   -5.520670
  C     -5.305050    2.491020   -5.063740
  S     -5.747960    0.831330   -4.885080
  C     -7.372500    1.318830   -4.538630
  N     -8.309920    0.322860   -4.266750
  O     -9.456820    0.665940   -4.021270
  O     -7.922500   -0.834030   -4.297040
  C     -7.556610    2.676610   -4.553060
  C     -6.376580    3.385360   -4.860180
  C     -6.258700    4.803400   -4.941480
  C     -7.315310    5.662610   -4.837610
  C     -7.243350    7.057150   -4.907460
  C     -8.360470    7.861100   -4.786160
  C     -8.448020    9.266840   -4.838020
  C     -9.717330    9.759640   -4.673840
  C    -10.690330    8.768370   -4.482730
  S     -9.955230    7.182810   -4.522530
  C    -12.062090    8.871770   -4.270220
  C    -12.896620    9.997110   -4.193450
  C    -14.211560    9.683870   -3.956770
  C    -14.475840    8.305630   -3.833770
  S    -12.988160    7.413480   -4.039220
  C    -15.706260    7.717160   -3.574770
  C    -15.973700    6.358340   -3.431640
  C    -15.083540    5.282260   -3.536480
  C    -15.766810    4.083550   -3.296970
  C    -17.171200    4.456840   -3.034200
  C    -17.285000    5.801950   -3.119000
  O    -18.100460    3.515310   -2.763750
  C    -19.406590    3.983400   -2.527720
  C    -15.214550    2.809760   -3.301580
  C    -15.829630    1.576910   -3.060660
  C    -14.877190    0.560760   -3.171230
  C    -13.598870    1.166450   -3.496520
  C    -13.779180    2.503590   -3.575890
  O    -12.898710    3.479430   -3.846910
  C    -11.566740    3.089510   -4.098020
  C    -15.129850   -0.816730   -2.992590
  C    -14.196340   -1.799250   -3.117230
  C    -14.486420   -3.178210   -2.927780
  C    -13.604350   -4.188550   -3.084460
  C    -12.172670   -3.975340   -3.467900
  C    -14.004780   -5.607130   -2.775450
  N    -13.441540   -6.041290   -1.510100
  C    -13.977050   -5.580760   -0.328430
  C    -13.310370   -5.463390    0.814560
  H     -3.005680   -0.757880   -1.119500
  H      0.693870   -1.655790   -4.376790
  H     -1.773830   -2.741270    0.434320
  H     -2.238920    2.614820   -6.344350
  H     -4.086740    3.801760   -5.948920
  H     -8.508940    3.122170   -4.334340
  H     -5.271080    5.224370   -5.078440
  H     -8.304350    5.249880   -4.693100
  H     -6.286330    7.537120   -5.059540
  H     -7.577360    9.879530   -4.993180
  H     -9.965100   10.806370   -4.683950
  H    -12.524640   10.999490   -4.309470
  H    -14.995110   10.416080   -3.864970
  H    -16.539040    8.401560   -3.462730
  H    -14.040670    5.323320   -3.763390
  H    -18.164950    6.401640   -2.982720
  H    -20.015820    3.103830   -2.326670
  H    -19.800490    4.510800   -3.402450
  H    -19.434700    4.654740   -1.663410
  H    -16.867890    1.443990   -2.829370
  H    -12.680620    0.631630   -3.637270
  H    -11.139060    2.556300   -3.245090
  H    -11.020890    4.015450   -4.277380
  H    -11.502900    2.441360   -4.976450
  H    -16.147090   -1.090760   -2.738470
  H    -13.183220   -1.531100   -3.373730
  H    -15.505020   -3.418110   -2.647520
  H    -12.105160   -3.433170   -4.409850
  H    -11.655990   -4.925010   -3.586060
  H    -11.647710   -3.387930   -2.714720
  H    -13.645230   -6.287010   -3.554960
  H    -15.091850   -5.697070   -2.708380
  H    -12.430710   -6.088870   -1.504650
  H    -15.038450   -5.377000   -0.378690
  H    -12.254310   -5.664050    0.877690
  H    -13.807870   -5.187810    1.724790

 Total Charge           Charge          ....    0
 Multiplicity           Mult            ....    1
 Number of Electrons    NEL             ....  516
 Basis Dimension        Dim             .... 1138

ORBITAL ENERGIES
----------------

  NO   OCC          E(Eh)            E(eV)
   0   2.0000    -482.885762    -13139.9896
   1   2.0000     -88.983865     -2421.3741
   2   2.0000     -88.976073     -2421.1620
   3   2.0000     -88.944939     -2420.3148
   4   2.0000     -88.943837     -2420.2848
   5   2.0000     -62.563492     -1702.4392
   6   2.0000     -56.397446     -1534.6525
   7   2.0000     -56.394721     -1534.5784
   8   2.0000     -56.394691     -1534.5776
   9   2.0000     -19.242978      -523.6281
  10   2.0000     -19.241570      -523.5897
  11   2.0000     -19.241347      -523.5837
  12   2.0000     -19.240969      -523.5734
  13   2.0000     -19.218445      -522.9605
  14   2.0000     -14.652357      -398.7109
  15   2.0000     -14.510679      -394.8556
  16   2.0000     -14.420437      -392.4000
  17   2.0000     -14.415582      -392.2679
  18   2.0000     -14.402261      -391.9054
  19   2.0000     -10.370810      -282.2041
  20   2.0000     -10.369774      -282.1759
  21   2.0000     -10.365417      -282.0573
  22   2.0000     -10.359388      -281.8933
  23   2.0000     -10.346562      -281.5443
  24   2.0000     -10.344109      -281.4775
  25   2.0000     -10.342690      -281.4389
  26   2.0000     -10.325885      -280.9816
  27   2.0000     -10.323660      -280.9211
  28   2.0000     -10.318884      -280.7911
  29   2.0000     -10.316700      -280.7317
  30   2.0000     -10.315016      -280.6858
  31   2.0000     -10.313062      -280.6327
  32   2.0000     -10.310955      -280.5754
  33   2.0000     -10.310534      -280.5639
  34   2.0000     -10.309413      -280.5334
  35   2.0000     -10.309049      -280.5235
  36   2.0000     -10.308341      -280.5042
  37   2.0000     -10.307619      -280.4846
  38   2.0000     -10.307049      -280.4691
  39   2.0000     -10.306375      -280.4507
  40   2.0000     -10.303341      -280.3682
  41   2.0000     -10.302210      -280.3374
  42   2.0000     -10.301730      -280.3243
  43   2.0000     -10.300634      -280.2945
  44   2.0000     -10.297078      -280.1977
  45   2.0000     -10.294201      -280.1194
  46   2.0000     -10.293588      -280.1028
  47   2.0000     -10.290704      -280.0243
  48   2.0000     -10.286840      -279.9191
  49   2.0000     -10.286225      -279.9024
  50   2.0000     -10.285160      -279.8734
  51   2.0000     -10.282821      -279.8098
  52   2.0000     -10.282158      -279.7917
  53   2.0000     -10.281791      -279.7817
  54   2.0000     -10.279513      -279.7198
  55   2.0000     -10.276997      -279.6513
  56   2.0000     -10.276822      -279.6465
  57   2.0000     -10.271239      -279.4946
  58   2.0000     -10.269495      -279.4472
  59   2.0000     -10.268429      -279.4181
  60   2.0000     -10.267368      -279.3893
  61   2.0000     -10.263515      -279.2844
  62   2.0000     -10.261742      -279.2362
  63   2.0000     -10.260076      -279.1909
  64   2.0000     -10.256035      -279.0809
  65   2.0000     -10.241825      -278.6942
  66   2.0000     -10.238276      -278.5977
  67   2.0000     -10.237411      -278.5741
  68   2.0000     -10.232735      -278.4469
  69   2.0000     -10.223077      -278.1841
  70   2.0000      -8.792930      -239.2678
  71   2.0000      -8.078725      -219.8333
  72   2.0000      -8.072066      -219.6521
  73   2.0000      -8.041223      -218.8128
  74   2.0000      -8.039457      -218.7647
  75   2.0000      -6.629265      -180.3915
  76   2.0000      -6.614658      -179.9940
  77   2.0000      -6.614440      -179.9881
  78   2.0000      -6.048329      -164.5834
  79   2.0000      -6.043926      -164.4636
  80   2.0000      -6.041743      -164.4042
  81   2.0000      -6.040312      -164.3653
  82   2.0000      -6.037483      -164.2883
  83   2.0000      -6.033291      -164.1742
  84   2.0000      -6.010954      -163.5664
  85   2.0000      -6.009143      -163.5171
  86   2.0000      -6.006888      -163.4557
  87   2.0000      -6.004916      -163.4021
  88   2.0000      -6.002193      -163.3280
  89   2.0000      -6.000700      -163.2873
  90   2.0000      -2.745081       -74.6974
  91   2.0000      -2.741041       -74.5875
  92   2.0000      -2.740903       -74.5837
  93   2.0000      -2.729286       -74.2677
  94   2.0000      -2.729246       -74.2666
  95   2.0000      -1.320502       -35.9327
  96   2.0000      -1.146286       -31.1920
  97   2.0000      -1.143346       -31.1120
  98   2.0000      -1.138360       -30.9763
  99   2.0000      -1.135468       -30.8977
 100   2.0000      -1.105331       -30.0776
 101   2.0000      -1.024867       -27.8880
 102   2.0000      -1.015442       -27.6316
 103   2.0000      -1.006851       -27.3978
 104   2.0000      -1.006202       -27.3802
 105   2.0000      -0.996789       -27.1240
 106   2.0000      -0.995889       -27.0995
 107   2.0000      -0.990946       -26.9650
 108   2.0000      -0.973736       -26.4967
 109   2.0000      -0.957031       -26.0421
 110   2.0000      -0.943942       -25.6860
 111   2.0000      -0.939836       -25.5742
 112   2.0000      -0.924736       -25.1634
 113   2.0000      -0.909988       -24.7620
 114   2.0000      -0.904776       -24.6202
 115   2.0000      -0.904041       -24.6002
 116   2.0000      -0.889456       -24.2033
 117   2.0000      -0.886818       -24.1315
 118   2.0000      -0.881569       -23.9887
 119   2.0000      -0.868907       -23.6442
 120   2.0000      -0.862243       -23.4628
 121   2.0000      -0.853402       -23.2223
 122   2.0000      -0.848566       -23.0907
 123   2.0000      -0.832951       -22.6657
 124   2.0000      -0.830260       -22.5925
 125   2.0000      -0.825059       -22.4510
 126   2.0000      -0.818066       -22.2607
 127   2.0000      -0.811681       -22.0870
 128   2.0000      -0.807428       -21.9712
 129   2.0000      -0.802644       -21.8411
 130   2.0000      -0.798914       -21.7396
 131   2.0000      -0.784677       -21.3521
 132   2.0000      -0.776118       -21.1192
 133   2.0000      -0.765084       -20.8190
 134   2.0000      -0.760357       -20.6904
 135   2.0000      -0.758206       -20.6318
 136   2.0000      -0.752369       -20.4730
 137   2.0000      -0.746359       -20.3094
 138   2.0000      -0.728566       -19.8253
 139   2.0000      -0.718807       -19.5597
 140   2.0000      -0.709714       -19.3123
 141   2.0000      -0.700524       -19.0622
 142   2.0000      -0.692381       -18.8406
 143   2.0000      -0.681778       -18.5521
 144   2.0000      -0.679742       -18.4967
 145   2.0000      -0.664419       -18.0798
 146   2.0000      -0.661799       -18.0085
 147   2.0000      -0.660462       -17.9721
 148   2.0000      -0.657556       -17.8930
 149   2.0000      -0.650948       -17.7132
 150   2.0000      -0.646205       -17.5841
 151   2.0000      -0.638611       -17.3775
 152   2.0000      -0.634953       -17.2779
 153   2.0000      -0.632593       -17.2137
 154   2.0000      -0.631762       -17.1911
 155   2.0000      -0.629427       -17.1276
 156   2.0000      -0.623152       -16.9568
 157   2.0000      -0.619272       -16.8513
 158   2.0000      -0.609660       -16.5897
 159   2.0000      -0.607695       -16.5362
 160   2.0000      -0.606998       -16.5173
 161   2.0000      -0.602448       -16.3934
 162   2.0000      -0.602246       -16.3879
 163   2.0000      -0.596795       -16.2396
 164   2.0000      -0.596073       -16.2200
 165   2.0000      -0.587434       -15.9849
 166   2.0000      -0.582311       -15.8455
 167   2.0000      -0.571518       -15.5518
 168   2.0000      -0.559334       -15.2202
 169   2.0000      -0.558007       -15.1841
 170   2.0000      -0.557498       -15.1703
 171   2.0000      -0.554792       -15.0967
 172   2.0000      -0.549163       -14.9435
 173   2.0000      -0.547188       -14.8897
 174   2.0000      -0.546181       -14.8623
 175   2.0000      -0.544939       -14.8285
 176   2.0000      -0.543606       -14.7923
 177   2.0000      -0.542253       -14.7555
 178   2.0000      -0.541492       -14.7347
 179   2.0000      -0.535956       -14.5841
 180   2.0000      -0.530904       -14.4466
 181   2.0000      -0.529689       -14.4136
 182   2.0000      -0.524747       -14.2791
 183   2.0000      -0.522090       -14.2068
 184   2.0000      -0.516946       -14.0668
 185   2.0000      -0.514005       -13.9868
 186   2.0000      -0.511791       -13.9265
 187   2.0000      -0.509146       -13.8546
 188   2.0000      -0.506850       -13.7921
 189   2.0000      -0.504772       -13.7355
 190   2.0000      -0.500592       -13.6218
 191   2.0000      -0.497089       -13.5265
 192   2.0000      -0.496101       -13.4996
 193   2.0000      -0.495296       -13.4777
 194   2.0000      -0.492746       -13.4083
 195   2.0000      -0.491036       -13.3618
 196   2.0000      -0.487394       -13.2627
 197   2.0000      -0.478057       -13.0086
 198   2.0000      -0.476620       -12.9695
 199   2.0000      -0.473747       -12.8913
 200   2.0000      -0.472648       -12.8614
 201   2.0000      -0.468930       -12.7602
 202   2.0000      -0.467158       -12.7120
 203   2.0000      -0.465545       -12.6681
 204   2.0000      -0.463741       -12.6190
 205   2.0000      -0.461398       -12.5553
 206   2.0000      -0.460092       -12.5197
 207   2.0000      -0.458597       -12.4790
 208   2.0000      -0.453683       -12.3453
 209   2.0000      -0.452675       -12.3179
 210   2.0000      -0.452277       -12.3071
 211   2.0000      -0.445730       -12.1289
 212   2.0000      -0.445559       -12.1243
 213   2.0000      -0.442622       -12.0443
 214   2.0000      -0.441481       -12.0133
 215   2.0000      -0.440513       -11.9870
 216   2.0000      -0.439358       -11.9555
 217   2.0000      -0.436616       -11.8809
 218   2.0000      -0.432352       -11.7649
 219   2.0000      -0.429740       -11.6938
 220   2.0000      -0.428230       -11.6527
 221   2.0000      -0.427991       -11.6462
 222   2.0000      -0.424629       -11.5548
 223   2.0000      -0.419622       -11.4185
 224   2.0000      -0.417552       -11.3622
 225   2.0000      -0.416554       -11.3350
 226   2.0000      -0.414313       -11.2740
 227   2.0000      -0.411237       -11.1903
 228   2.0000      -0.410499       -11.1702
 229   2.0000      -0.404606       -11.0099
 230   2.0000      -0.404535       -11.0080
 231   2.0000      -0.396126       -10.7791
 232   2.0000      -0.391521       -10.6538
 233   2.0000      -0.390713       -10.6318
 234   2.0000      -0.387874       -10.5546
 235   2.0000      -0.382116       -10.3979
 236   2.0000      -0.380706       -10.3595
 237   2.0000      -0.377546       -10.2735
 238   2.0000      -0.375325       -10.2131
 239   2.0000      -0.375144       -10.2082
 240   2.0000      -0.371795       -10.1170
 241   2.0000      -0.368492       -10.0272
 242   2.0000      -0.367311        -9.9950
 243   2.0000      -0.352644        -9.5959
 244   2.0000      -0.343579        -9.3493
 245   2.0000      -0.335813        -9.1379
 246   2.0000      -0.326636        -8.8882
 247   2.0000      -0.321852        -8.7580
 248   2.0000      -0.319075        -8.6825
 249   2.0000      -0.313377        -8.5274
 250   2.0000      -0.300382        -8.1738
 251   2.0000      -0.294425        -8.0117
 252   2.0000      -0.280053        -7.6206
 253   2.0000      -0.272348        -7.4110
 254   2.0000      -0.254352        -6.9213
 255   2.0000      -0.249079        -6.7778
 256   2.0000      -0.233271        -6.3476
 257   2.0000      -0.196134        -5.3371
 258   0.0000      -0.101316        -2.7569
 259   0.0000      -0.087160        -2.3718
 260   0.0000      -0.062257        -1.6941
 261   0.0000      -0.056380        -1.5342
 262   0.0000      -0.042287        -1.1507

MULLIKEN ATOMIC CHARGES
-----------------------
   0 C :    0.307782
   1 C :   -0.343811
   2 C :   -0.182871
   3 N :    0.146529
   4 C :   -0.211240
   5 N :    0.149664
   6 C :    0.009576
   7 C :   -0.002932
   8 C :   -0.073170
   9 C :    0.117878
  10 C :   -0.092060
  11 C :   -0.020843
  12 S :    0.186885
  13 C :   -0.124102
  14 C :    0.039027
  15 Br:    0.024846
  16 C :    0.139412
  17 O :   -0.156402
  18 C :   -0.148145
  19 C :    0.016957
  20 N :    0.018281
  21 C :   -0.091074
  22 S :    0.209031
  23 C :   -0.008877
  24 N :    0.284228
  25 O :   -0.266471
  26 O :   -0.261543
  27 C :    0.008211
  28 C :    0.151972
  29 C :   -0.068290
  30 C :    0.021049
  31 C :   -0.009762
  32 C :   -0.008234
  33 C :    0.020540
  34 C :    0.030711
  35 C :   -0.039760
  36 S :    0.043992
  37 C :   -0.009166
  38 C :    0.014625
  39 C :    0.035781
  40 C :   -0.022794
  41 S :    0.053761
  42 C :   -0.002291
  43 C :    0.112426
  44 C :   -0.134019
  45 C :    0.054378
  46 C :    0.206273
  47 C :   -0.165010
  48 O :   -0.298668
  49 C :    0.188566
  50 C :    0.065380
  51 C :   -0.121242
  52 C :    0.156091
  53 C :   -0.172076
  54 C :    0.210456
  55 O :   -0.294187
  56 C :    0.177077
  57 C :   -0.012735
  58 C :    0.015431
  59 C :    0.016551
  60 C :   -0.186698
  61 C :    0.081153
  62 C :    0.189054
  63 N :   -0.184544
  64 C :    0.050498
  65 C :   -0.078888
  66 H :   -0.008076
  67 H :   -0.006560
  68 H :   -0.000976
  69 H :    0.046595
  70 H :    0.160125
  71 H :   -0.013645
  72 H :   -0.040198
  73 H :   -0.002565
  74 H :   -0.024907
  75 H :   -0.014957
  76 H :   -0.011171
  77 H :   -0.017549
  78 H :   -0.011494
  79 H :   -0.025961
  80 H :    0.013433
  81 H :   -0.047481
  82 H :    0.034055
  83 H :    0.020000
  84 H :    0.020122
  85 H :   -0.032713
  86 H :   -0.028267
  87 H :    0.038287
  88 H :    0.027944
  89 H :    0.025833
  90 H :   -0.027446
  91 H :   -0.005215
  92 H :   -0.033600
  93 H :    0.040402
  94 H :    0.002470
  95 H :    0.047322
  96 H :    0.008896
  97 H :    0.007088
  98 H :    0.103552
  99 H :   -0.004880
 100 H :   -0.008909
 101 H :    0.008280
Sum of atomic charges:   -0.0000000

LOEWDIN ATOMIC CHARGES
----------------------
   0 C :    0.082080
   1 C :   -0.151270
   2 C :   -0.019232
   3 N :   -0.055268
   4 C :   -0.024696
   5 N :   -0.059215
   6 C :   -0.023504
   7 C :   -0.048533
   8 C :    0.022145
   9 C :   -0.031782
  10 C :   -0.145274
  11 C :   -0.007761
  12 S :    0.433378
  13 C :   -0.271050
  14 C :   -0.069930
  15 Br:    0.137554
  16 C :    0.064388
  17 O :   -0.161874
  18 C :   -0.149329
  19 C :    0.096519
  20 N :    0.083186
  21 C :   -0.117136
  22 S :    0.508699
  23 C :   -0.202259
  24 N :    0.279046
  25 O :   -0.228457
  26 O :   -0.226687
  27 C :   -0.006080
  28 C :   -0.076043
  29 C :   -0.062416
  30 C :   -0.012818
  31 C :   -0.078384
  32 C :   -0.130955
  33 C :   -0.049631
  34 C :   -0.022557
  35 C :   -0.188735
  36 S :    0.372140
  37 C :   -0.166201
  38 C :   -0.052627
  39 C :   -0.021907
  40 C :   -0.154259
  41 S :    0.421388
  42 C :   -0.027386
  43 C :   -0.028518
  44 C :   -0.056925
  45 C :   -0.008689
  46 C :    0.051141
  47 C :   -0.111328
  48 O :   -0.087547
  49 C :    0.079989
  50 C :    0.022943
  51 C :   -0.078422
  52 C :    0.021868
  53 C :   -0.117226
  54 C :    0.064423
  55 O :   -0.074088
  56 C :    0.076268
  57 C :   -0.023041
  58 C :   -0.000383
  59 C :   -0.053487
  60 C :   -0.025653
  61 C :   -0.055201
  62 C :    0.037742
  63 N :   -0.040844
  64 C :    0.023201
  65 C :   -0.151775
  66 H :    0.041862
  67 H :    0.041171
  68 H :    0.039515
  69 H :    0.045135
  70 H :    0.107074
  71 H :    0.040838
  72 H :    0.018125
  73 H :    0.018426
  74 H :    0.029214
  75 H :    0.032022
  76 H :    0.033506
  77 H :    0.030175
  78 H :    0.033445
  79 H :    0.033694
  80 H :    0.002501
  81 H :    0.015442
  82 H :    0.026247
  83 H :    0.015478
  84 H :    0.015501
  85 H :    0.019248
  86 H :    0.021740
  87 H :    0.018572
  88 H :    0.018569
  89 H :    0.018045
  90 H :    0.028687
  91 H :    0.028688
  92 H :    0.022739
  93 H :    0.042420
  94 H :    0.024251
  95 H :    0.043143
  96 H :    0.024302
  97 H :    0.026219
  98 H :    0.067129
  99 H :    0.021726
 100 H :    0.012570
 101 H :    0.020867

  Mayer bond orders larger than 0.100000
B(  0-C ,  1-C ) :   1.6196 B(  0-C ,  6-C ) :   1.0127 B(  0-C , 18-C ) :   1.1122
B(  1-C ,  2-C ) :   1.1446 B(  1-C ,  4-C ) :   1.1443 B(  2-C ,  3-N ) :   2.9674
B(  4-C ,  5-N ) :   2.9797 B(  6-C ,  7-C ) :   1.2738 B(  6-C , 11-C ) :   1.4141
B(  7-C ,  8-C ) :   1.4284 B(  7-C , 16-C ) :   0.9440 B(  8-C ,  9-C ) :   1.2408
B(  8-C , 66-H ) :   1.0182 B(  9-C , 10-C ) :   1.3087 B(  9-C , 14-C ) :   1.1654
B( 10-C , 11-C ) :   1.3284 B( 10-C , 12-S ) :   1.0854 B( 11-C , 67-H ) :   0.9801
B( 12-S , 13-C ) :   1.0883 B( 13-C , 14-C ) :   1.6156 B( 13-C , 15-Br) :   1.0191
B( 14-C , 68-H ) :   1.0003 B( 16-C , 17-O ) :   2.2045 B( 16-C , 18-C ) :   0.9523
B( 18-C , 19-C ) :   1.5079 B( 19-C , 20-N ) :   1.3128 B( 19-C , 69-H ) :   0.9326
B( 20-N , 21-C ) :   1.1484 B( 20-N , 70-H ) :   0.8997 B( 21-C , 22-S ) :   1.1437
B( 21-C , 28-C ) :   1.3613 B( 22-S , 23-C ) :   1.1189 B( 23-C , 24-N ) :   0.9780
B( 23-C , 27-C ) :   1.4708 B( 24-N , 25-O ) :   1.4966 B( 24-N , 26-O ) :   1.5175
B( 25-O , 26-O ) :   0.2515 B( 27-C , 28-C ) :   1.2400 B( 27-C , 71-H ) :   0.9974
B( 28-C , 29-C ) :   1.0815 B( 29-C , 30-C ) :   1.6340 B( 29-C , 72-H ) :   0.9746
B( 30-C , 31-C ) :   1.1864 B( 30-C , 73-H ) :   0.9656 B( 31-C , 32-C ) :   1.5025
B( 31-C , 74-H ) :   0.9881 B( 32-C , 33-C ) :   1.1751 B( 32-C , 36-S ) :   1.0519
B( 33-C , 34-C ) :   1.5387 B( 33-C , 75-H ) :   0.9995 B( 34-C , 35-C ) :   1.2363
B( 34-C , 76-H ) :   0.9958 B( 35-C , 36-S ) :   1.0445 B( 35-C , 37-C ) :   1.4328
B( 37-C , 38-C ) :   1.2275 B( 37-C , 41-S ) :   1.0657 B( 38-C , 39-C ) :   1.5313
B( 38-C , 77-H ) :   0.9961 B( 39-C , 40-C ) :   1.1936 B( 39-C , 78-H ) :   0.9987
B( 40-C , 41-S ) :   1.0517 B( 40-C , 42-C ) :   1.4661 B( 42-C , 43-C ) :   1.2316
B( 42-C , 79-H ) :   0.9712 B( 43-C , 44-C ) :   1.3860 B( 43-C , 47-C ) :   1.0195
B( 44-C , 45-C ) :   1.2422 B( 44-C , 80-H ) :   0.9828 B( 45-C , 46-C ) :   1.0606
B( 45-C , 50-C ) :   1.3695 B( 46-C , 47-C ) :   1.5747 B( 46-C , 48-O ) :   1.1642
B( 47-C , 81-H ) :   1.0252 B( 48-O , 49-C ) :   0.9639 B( 49-C , 82-H ) :   0.9809
B( 49-C , 83-H ) :   0.9675 B( 49-C , 84-H ) :   0.9676 B( 50-C , 51-C ) :   1.2134
B( 50-C , 54-C ) :   1.0293 B( 51-C , 52-C ) :   1.4177 B( 51-C , 85-H ) :   1.0277
B( 52-C , 53-C ) :   1.0307 B( 52-C , 57-C ) :   1.1353 B( 53-C , 54-C ) :   1.5897
B( 53-C , 86-H ) :   1.0193 B( 54-C , 55-O ) :   1.1622 B( 55-O , 56-C ) :   0.9435
B( 56-C , 87-H ) :   0.9650 B( 56-C , 88-H ) :   0.9742 B( 56-C , 89-H ) :   0.9675
B( 57-C , 58-C ) :   1.6134 B( 57-C , 90-H ) :   0.9894 B( 58-C , 59-C ) :   1.1263
B( 58-C , 91-H ) :   0.9694 B( 59-C , 60-C ) :   1.7364 B( 59-C , 92-H ) :   0.9791
B( 60-C , 61-C ) :   1.0701 B( 60-C , 62-C ) :   1.0417 B( 61-C , 93-H ) :   0.9435
B( 61-C , 94-H ) :   0.9526 B( 61-C , 95-H ) :   0.9476 B( 62-C , 63-N ) :   1.0453
B( 62-C , 96-H ) :   0.9345 B( 62-C , 97-H ) :   0.9419 B( 63-N , 64-C ) :   1.1454
B( 63-N , 98-H ) :   0.9460 B( 64-C , 65-C ) :   1.9142 B( 64-C , 99-H ) :   0.9614
B( 65-C ,100-H ) :   0.9563 B( 65-C ,101-H ) :   0.9532

-----------------------------------------------------------------------------
         ABSORPTION SPECTRUM VIA TRANSITION ELECTRIC DIPOLE MOMENTS
-----------------------------------------------------------------------------
State   Energy  Wavelength   fosc         T2         TX        TY        TZ
        (cm-1)    (nm)                  (au**2)     (au)      (au)      (au)
-----------------------------------------------------------------------------
   0    7700.5   1298.6   0.420482537  17.97655   3.65556   2.03537  -0.68608
   1   12389.4    807.1   0.241345865   6.41305   1.59999  -1.96289  -0.01187
   2   12800.2    781.2   0.116833381   3.00486  -1.42264   0.98342   0.11762
   3   15657.0    638.7   0.087706136   1.84415   0.98801  -0.92804  -0.08197
   4   16193.8    617.5   0.578504764  11.76069   2.83525  -1.91009  -0.27131
   5   17772.7    562.7   0.039063934   0.72360   0.84881   0.04375  -0.03476
   6   20279.5    493.1   0.380836820   6.18240   0.84413  -2.31816   0.30982
   7   21112.3    473.7   0.107003737   1.66855  -0.90404  -0.86438   0.32266
   8   21556.6    463.9   0.464782993   7.09815  -1.17322   2.38580  -0.17219
   9   23090.1    433.1   0.715290453  10.19839   1.48186  -2.82819  -0.06175
  10   23864.9    419.0   0.065176073   0.89909  -0.74381  -0.58806   0.00455
  11   24378.8    410.2   0.021536598   0.29083  -0.03068  -0.52740  -0.10836
  12   24743.5    404.1   0.134588391   1.79070   0.52849  -1.22066  -0.14623
  13   26311.1    380.1   0.040729040   0.50961   0.62762   0.34013   0.00457
  14   26389.7    378.9   0.238365248   2.97361  -0.54369  -1.62632   0.18190
  15   27016.5    370.1   0.125522778   1.52957  -0.86587   0.87913  -0.08345
  16   27449.8    364.3   0.011716581   0.14052   0.25887  -0.26322  -0.06498
  17   28293.4    353.4   0.130012115   1.51277  -0.79526  -0.93646  -0.05805
  18   28314.5    353.2   0.363040525   4.22107   0.08247   1.50353  -1.39773
  19   29037.1    344.4   0.125081674   1.41813  -0.50955   0.17367  -1.06223
  20   29269.0    341.7   0.010740127   0.12080  -0.29735  -0.05667  -0.17081
  21   29449.9    339.6   0.040224224   0.44965  -0.49356   0.34350   0.29674
  22   30181.5    331.3   0.024363409   0.26575  -0.10528  -0.50406  -0.02421
  23   30312.0    329.9   0.080801766   0.87757  -0.93259   0.02353  -0.08540
  24   30470.4    328.2   0.075848154   0.81949  -0.53920   0.72093   0.09492
  25   30737.6    325.3   0.047256526   0.50614   0.17616  -0.62137   0.29834
  26   31388.2    318.6   0.021685571   0.22745   0.29790  -0.30100  -0.21932
  27   31518.4    317.3   0.019572482   0.20444   0.22673  -0.08660  -0.38148
  28   32175.7    310.8   0.007801907   0.07983   0.04082  -0.22844   0.16116
  29   32252.3    310.1   0.075209543   0.76769  -0.24235   0.51478  -0.66630
  30   32341.5    309.2   0.054619617   0.55599  -0.06784   0.19111  -0.71754
  31   32681.1    306.0   0.030338639   0.30561  -0.02077   0.05854  -0.54932
  32   32777.4    305.1   0.050440315   0.50662   0.35556  -0.45552   0.41557
  33   33104.4    302.1   0.047784806   0.47520   0.43712   0.04110   0.53145
  34   33297.2    300.3   0.205060035   2.02744   0.90515  -1.07170  -0.24413
  35   33553.7    298.0   0.038890446   0.38157   0.00562  -0.48976   0.37640
  36   33790.3    295.9   0.258341725   2.51697   0.67743   0.48724  -1.34932
  37   34187.1    292.5   0.101826578   0.98056   0.27723   0.87243  -0.37759
  38   34793.7    287.4   0.088022741   0.83286   0.02970  -0.85835   0.30855
  39   35111.4    284.8   0.009547824   0.08952  -0.12910   0.02221   0.26900
  40   35217.6    283.9   0.117189856   1.09548   0.76122   0.57203  -0.43452
  41   35632.6    280.6   0.014810479   0.13683  -0.27691   0.18420  -0.16194
  42   36135.4    276.7   0.060334807   0.54968   0.65935   0.22159  -0.25659
  43   36263.6    275.8   0.076925859   0.69836  -0.21113   0.75246  -0.29595
  44   36766.8    272.0   0.037012827   0.33141   0.00815   0.53422  -0.21438
  45   36995.3    270.3   0.020004660   0.17802  -0.22759  -0.32414  -0.14544
  46   37576.3    266.1   0.024204580   0.21206   0.41207   0.20483  -0.01732
  47   37855.0    264.2   0.062338823   0.54214  -0.17817   0.71435   0.01003
  48   38378.7    260.6   0.036399283   0.31223   0.29648  -0.15537  -0.44743
  49   38719.3    258.3   0.001362456   0.01158  -0.05619  -0.07889   0.04694
  50   38887.5    257.2   0.001103009   0.00934   0.00084   0.08437  -0.04711
  51   39094.6    255.8   0.085588655   0.72073   0.39505  -0.74510   0.09744
  52   39142.2    255.5   0.044002834   0.37009  -0.31025  -0.05264   0.52064
  53   39362.2    254.1   0.111370210   0.93146  -0.34032   0.87814  -0.21098
  54   39582.6    252.6   0.027340116   0.22739   0.20838   0.30294  -0.30364
  55   39763.6    251.5   0.004768693   0.03948  -0.01944  -0.18964  -0.05602
  56   39895.1    250.7   0.155642155   1.28435  -0.68600   0.89070  -0.14286
  57   40149.0    249.1   0.053724509   0.44053   0.38276  -0.49177   0.22845
  58   40306.9    248.1   0.022286490   0.18203  -0.21592   0.35079  -0.11114

FINAL SINGLE POINT ENERGY     -6777.603483542992

DIPOLE MOMENT
-------------
                                X             Y             Z
Electronic contribution:    199.40514     -58.71113      33.40527
Nuclear contribution   :   -200.17714      60.74605     -32.57716
                        -----------------------------------------
Total Dipole Moment    :     -0.77200       2.03492       0.82811
                        -----------------------------------------
Magnitude (a.u.)       :      2.32866
Magnitude (Debye)      :      5.91898

Rotational constants in cm-1:     0.000942     0.000358     0.000279
Rotational constants in MHz :    28.243847    10.743142     8.350367

                             ****ORCA TERMINATED NORMALLY****
TOTAL RUN TIME: 0 days 0 hours 11 minutes 50 seconds 989 msec
