                         Program Version 4.2.0 -  RELEASE  -
|  1> # ORCA input file
|  2> # SCF done       -165.747592552833          0.000282226663
|  3> ! CAM-B3LYP def2-SVP def2/J RIJCOSX Grid4 TightSCF
|  4> %maxcore 5000
|  5> %tddft
|  6>     Mode sTDDFT
|  7>     Ethresh 5.0
|  8>     maxcore 5000
|  9> end
| 10>
| 11> %pal
| 12>   nprocs 6
| 13>   end
| 14> * xyz 0 1
| 15>    C       -9.94744         6.48849        -7.37524
| 16>    C      -10.50664         7.58679        -6.76612
| 17>    C       -9.99653         8.89258        -6.87523
| 18>    N       -9.60957         9.97490        -6.89425
| 19>    C      -11.60010         7.54942        -5.88120
| 20>    N      -12.46564         7.59440        -5.12605
| 21>    C       -8.72878         6.49355        -8.17502
| 22>    C       -8.38881         5.15674        -8.49760
| 23>    C       -7.25779         4.82796        -9.20061
| 24>    C       -6.40440         5.86838        -9.58589
| 25>    C       -6.75592         7.20034        -9.26804
| 26>    C       -7.91305         7.53431        -8.57636
| 27>    S       -5.55123         8.32687        -9.81539
| 28>    C       -4.59870         7.00837       -10.44368
| 29>    C       -5.15746         5.78835       -10.26322
| 30>   Br       -2.95549         7.36835       -11.27327
| 31>    C       -9.41031         4.25074        -7.94068
| 32>    O       -9.51171         3.05286        -8.13455
| 33>    C      -10.35421         5.11506        -7.20978
| 34>    C      -11.42967         4.65270        -6.49292
| 35>    N      -11.56423         3.39439        -6.01330
| 36>    C      -10.57965         2.46369        -5.80066
| 37>    S      -10.99063         0.78209        -5.89061
| 38>    C       -9.34463         0.37299        -5.54255
| 39>    N       -9.00923        -0.98285        -5.44525
| 40>    O       -7.85087        -1.26272        -5.19856
| 41>    O       -9.91087        -1.78638        -5.61022
| 42>    C       -8.53688         1.46509        -5.37317
| 43>    C       -9.23194         2.68297        -5.49120
| 44>    C       -8.66350         3.99151        -5.30666
| 45>    C       -7.36758         4.28760        -5.56192
| 46>    C       -6.74498         5.56512        -5.56094
| 47>    S       -5.22869         5.63917        -6.43127
| 48>    C       -5.20591         7.35267        -6.33671
| 49>    C       -6.27247         7.86479        -5.67445
| 50>    C       -6.46443         9.32660        -5.44643
| 51>    C       -7.15782         6.84817        -5.17837
| 52>    C       -8.26184         7.19822        -4.34891
| 53>    C       -8.83395         6.41814        -3.38582
| 54>    C       -9.93624         6.81575        -2.61517
| 55>    C      -10.54489         5.97239        -1.71168
| 56>    C      -11.62269         6.26764        -0.88319
| 57>    C      -12.41761         5.31171        -0.19454
| 58>    C      -12.32354         3.91518        -0.14090
| 59>    C      -13.25281         3.21115         0.58341
| 60>    C      -14.29115         3.86703         1.26148
| 61>    C      -14.41235         5.23502         1.21775
| 62>    C      -13.47730         5.97663         0.49101
| 63>    C      -13.39997         7.37969         0.23442
| 64>    C      -12.13901         7.58438        -0.50151
| 65>    C      -11.41332         8.70943        -0.46194
| 66>    C      -14.31900         8.30133         0.68061
| 67>    C      -14.51447         9.62285         0.26881
| 68>    C      -14.08802        10.29788        -0.88413
| 69>    C      -14.54600        11.58686        -0.98083
| 70>    C      -15.35010        11.99027         0.09995
| 71>    S      -15.54404        10.66768         1.22608
| 72>    C      -15.93852        13.22697         0.31533
| 73>    C      -15.84671        14.37637        -0.50719
| 74>    C      -16.52647        15.45284        -0.03986
| 75>    C      -17.20760        15.22657         1.19835
| 76>    S      -16.92558        13.55784         1.71907
| 77>    C      -17.95182        16.09333         1.90365
| 78>    H       -7.02304         3.79965        -9.42558
| 79>    H       -8.13797         8.56622        -8.36682
| 80>    H       -4.70656         4.86792       -10.58604
| 81>    H      -12.25344         5.31043        -6.24967
| 82>    H      -12.50708         3.07816        -5.82127
| 83>    H       -7.49199         1.37803        -5.13715
| 84>    H       -9.34295         4.76384        -4.98467
| 85>    H       -6.73303         3.49265        -5.93462
| 86>    H       -4.38709         7.89140        -6.77254
| 87>    H       -5.65172         9.88550        -5.90293
| 88>    H       -6.48307         9.54575        -4.37962
| 89>    H       -7.40495         9.66830        -5.87862
| 90>    H       -8.62751         8.21154        -4.45914
| 91>    H       -8.40276         5.44921        -3.17103
| 92>    H      -10.35159         7.79679        -2.79627
| 93>    H      -10.18189         4.95092        -1.67874
| 94>    H      -11.52744         3.40003        -0.65782
| 95>    H      -13.19047         2.13418         0.63786
| 96>    H      -15.00303         3.28058         1.82319
| 97>    H      -15.21731         5.72831         1.74171
| 98>    H      -11.78941         9.60832        -0.00482
| 99>    H      -10.40679         8.74524        -0.83992
|100>    H      -15.01694         7.95428         1.43351
|101>    H      -13.49722         9.81413        -1.64108
|102>    H      -14.32625        12.23924        -1.80643
|103>    H      -15.27949        14.36912        -1.42090
|104>    H      -16.57393        16.40992        -0.52766
|105>    H      -18.09750        17.10047         1.55547
|106>    H      -18.42073        15.81368         2.82905
|107> *
|108>
|109>                          ****END OF INPUT****

CARTESIAN COORDINATES (ANGSTROEM)
---------------------------------
  C     -9.947440    6.488490   -7.375240
  C    -10.506640    7.586790   -6.766120
  C     -9.996530    8.892580   -6.875230
  N     -9.609570    9.974900   -6.894250
  C    -11.600100    7.549420   -5.881200
  N    -12.465640    7.594400   -5.126050
  C     -8.728780    6.493550   -8.175020
  C     -8.388810    5.156740   -8.497600
  C     -7.257790    4.827960   -9.200610
  C     -6.404400    5.868380   -9.585890
  C     -6.755920    7.200340   -9.268040
  C     -7.913050    7.534310   -8.576360
  S     -5.551230    8.326870   -9.815390
  C     -4.598700    7.008370  -10.443680
  C     -5.157460    5.788350  -10.263220
  Br    -2.955490    7.368350  -11.273270
  C     -9.410310    4.250740   -7.940680
  O     -9.511710    3.052860   -8.134550
  C    -10.354210    5.115060   -7.209780
  C    -11.429670    4.652700   -6.492920
  N    -11.564230    3.394390   -6.013300
  C    -10.579650    2.463690   -5.800660
  S    -10.990630    0.782090   -5.890610
  C     -9.344630    0.372990   -5.542550
  N     -9.009230   -0.982850   -5.445250
  O     -7.850870   -1.262720   -5.198560
  O     -9.910870   -1.786380   -5.610220
  C     -8.536880    1.465090   -5.373170
  C     -9.231940    2.682970   -5.491200
  C     -8.663500    3.991510   -5.306660
  C     -7.367580    4.287600   -5.561920
  C     -6.744980    5.565120   -5.560940
  S     -5.228690    5.639170   -6.431270
  C     -5.205910    7.352670   -6.336710
  C     -6.272470    7.864790   -5.674450
  C     -6.464430    9.326600   -5.446430
  C     -7.157820    6.848170   -5.178370
  C     -8.261840    7.198220   -4.348910
  C     -8.833950    6.418140   -3.385820
  C     -9.936240    6.815750   -2.615170
  C    -10.544890    5.972390   -1.711680
  C    -11.622690    6.267640   -0.883190
  C    -12.417610    5.311710   -0.194540
  C    -12.323540    3.915180   -0.140900
  C    -13.252810    3.211150    0.583410
  C    -14.291150    3.867030    1.261480
  C    -14.412350    5.235020    1.217750
  C    -13.477300    5.976630    0.491010
  C    -13.399970    7.379690    0.234420
  C    -12.139010    7.584380   -0.501510
  C    -11.413320    8.709430   -0.461940
  C    -14.319000    8.301330    0.680610
  C    -14.514470    9.622850    0.268810
  C    -14.088020   10.297880   -0.884130
  C    -14.546000   11.586860   -0.980830
  C    -15.350100   11.990270    0.099950
  S    -15.544040   10.667680    1.226080
  C    -15.938520   13.226970    0.315330
  C    -15.846710   14.376370   -0.507190
  C    -16.526470   15.452840   -0.039860
  C    -17.207600   15.226570    1.198350
  S    -16.925580   13.557840    1.719070
  C    -17.951820   16.093330    1.903650
  H     -7.023040    3.799650   -9.425580
  H     -8.137970    8.566220   -8.366820
  H     -4.706560    4.867920  -10.586040
  H    -12.253440    5.310430   -6.249670
  H    -12.507080    3.078160   -5.821270
  H     -7.491990    1.378030   -5.137150
  H     -9.342950    4.763840   -4.984670
  H     -6.733030    3.492650   -5.934620
  H     -4.387090    7.891400   -6.772540
  H     -5.651720    9.885500   -5.902930
  H     -6.483070    9.545750   -4.379620
  H     -7.404950    9.668300   -5.878620
  H     -8.627510    8.211540   -4.459140
  H     -8.402760    5.449210   -3.171030
  H    -10.351590    7.796790   -2.796270
  H    -10.181890    4.950920   -1.678740
  H    -11.527440    3.400030   -0.657820
  H    -13.190470    2.134180    0.637860
  H    -15.003030    3.280580    1.823190
  H    -15.217310    5.728310    1.741710
  H    -11.789410    9.608320   -0.004820
  H    -10.406790    8.745240   -0.839920
  H    -15.016940    7.954280    1.433510
  H    -13.497220    9.814130   -1.641080
  H    -14.326250   12.239240   -1.806430
  H    -15.279490   14.369120   -1.420900
  H    -16.573930   16.409920   -0.527660
  H    -18.097500   17.100470    1.555470
  H    -18.420730   15.813680    2.829050

 Total Charge           Charge          ....    0
 Multiplicity           Mult            ....    1
 Number of Electrons    NEL             ....  496
 Basis Dimension        Dim             .... 1065

ORBITAL ENERGIES
----------------

  NO   OCC          E(Eh)            E(eV)
   0   2.0000    -482.884521    -13139.9558
   1   2.0000     -88.980421     -2421.2803
   2   2.0000     -88.972932     -2421.0766
   3   2.0000     -88.949089     -2420.4278
   4   2.0000     -88.944871     -2420.3130
   5   2.0000     -88.939620     -2420.1701
   6   2.0000     -62.562233     -1702.4049
   7   2.0000     -56.396171     -1534.6178
   8   2.0000     -56.393471     -1534.5444
   9   2.0000     -56.393446     -1534.5437
  10   2.0000     -19.234281      -523.3914
  11   2.0000     -19.233775      -523.3776
  12   2.0000     -19.206508      -522.6356
  13   2.0000     -14.645729      -398.5306
  14   2.0000     -14.504456      -394.6863
  15   2.0000     -14.417922      -392.3316
  16   2.0000     -14.417564      -392.3219
  17   2.0000     -10.361957      -281.9632
  18   2.0000     -10.361437      -281.9490
  19   2.0000     -10.359575      -281.8984
  20   2.0000     -10.356651      -281.8188
  21   2.0000     -10.341907      -281.4176
  22   2.0000     -10.340528      -281.3801
  23   2.0000     -10.336531      -281.2713
  24   2.0000     -10.322033      -280.8768
  25   2.0000     -10.321345      -280.8581
  26   2.0000     -10.319542      -280.8090
  27   2.0000     -10.310372      -280.5595
  28   2.0000     -10.308262      -280.5021
  29   2.0000     -10.307796      -280.4894
  30   2.0000     -10.306286      -280.4483
  31   2.0000     -10.304040      -280.3872
  32   2.0000     -10.302452      -280.3440
  33   2.0000     -10.302240      -280.3382
  34   2.0000     -10.301725      -280.3242
  35   2.0000     -10.299117      -280.2532
  36   2.0000     -10.297291      -280.2035
  37   2.0000     -10.293922      -280.1119
  38   2.0000     -10.293601      -280.1031
  39   2.0000     -10.293426      -280.0984
  40   2.0000     -10.291745      -280.0526
  41   2.0000     -10.291553      -280.0474
  42   2.0000     -10.288242      -279.9573
  43   2.0000     -10.287295      -279.9315
  44   2.0000     -10.286694      -279.9152
  45   2.0000     -10.286211      -279.9020
  46   2.0000     -10.284714      -279.8613
  47   2.0000     -10.283561      -279.8299
  48   2.0000     -10.282067      -279.7893
  49   2.0000     -10.280717      -279.7525
  50   2.0000     -10.280113      -279.7361
  51   2.0000     -10.279771      -279.7268
  52   2.0000     -10.278968      -279.7049
  53   2.0000     -10.273584      -279.5584
  54   2.0000     -10.272079      -279.5175
  55   2.0000     -10.271732      -279.5080
  56   2.0000     -10.271682      -279.5067
  57   2.0000     -10.271659      -279.5061
  58   2.0000     -10.270639      -279.4783
  59   2.0000     -10.269817      -279.4559
  60   2.0000     -10.269604      -279.4501
  61   2.0000     -10.269548      -279.4486
  62   2.0000     -10.268811      -279.4286
  63   2.0000     -10.266729      -279.3719
  64   2.0000     -10.265872      -279.3486
  65   2.0000     -10.262357      -279.2529
  66   2.0000     -10.258227      -279.1405
  67   2.0000      -8.791658      -239.2332
  68   2.0000      -8.076272      -219.7665
  69   2.0000      -8.068730      -219.5613
  70   2.0000      -8.044544      -218.9032
  71   2.0000      -8.041277      -218.8143
  72   2.0000      -8.036352      -218.6803
  73   2.0000      -6.627916      -180.3548
  74   2.0000      -6.613419      -179.9603
  75   2.0000      -6.613218      -179.9548
  76   2.0000      -6.045934      -164.5182
  77   2.0000      -6.041548      -164.3989
  78   2.0000      -6.038423      -164.3138
  79   2.0000      -6.037677      -164.2935
  80   2.0000      -6.034179      -164.1983
  81   2.0000      -6.029963      -164.0836
  82   2.0000      -6.013843      -163.6450
  83   2.0000      -6.010905      -163.5650
  84   2.0000      -6.009636      -163.5305
  85   2.0000      -6.006879      -163.4555
  86   2.0000      -6.006798      -163.4533
  87   2.0000      -6.006117      -163.4347
  88   2.0000      -6.002424      -163.3343
  89   2.0000      -6.002223      -163.3288
  90   2.0000      -5.996981      -163.1861
  91   2.0000      -2.743797       -74.6625
  92   2.0000      -2.739732       -74.5519
  93   2.0000      -2.739570       -74.5475
  94   2.0000      -2.728055       -74.2341
  95   2.0000      -2.728042       -74.2338
  96   2.0000      -1.315256       -35.7899
  97   2.0000      -1.134098       -30.8604
  98   2.0000      -1.124935       -30.6110
  99   2.0000      -1.096766       -29.8445
 100   2.0000      -1.021256       -27.7898
 101   2.0000      -1.012728       -27.5577
 102   2.0000      -1.003247       -27.2998
 103   2.0000      -0.996912       -27.1273
 104   2.0000      -0.993156       -27.0251
 105   2.0000      -0.986959       -26.8565
 106   2.0000      -0.981665       -26.7125
 107   2.0000      -0.979553       -26.6550
 108   2.0000      -0.968649       -26.3583
 109   2.0000      -0.939127       -25.5549
 110   2.0000      -0.922264       -25.0961
 111   2.0000      -0.915813       -24.9205
 112   2.0000      -0.906576       -24.6692
 113   2.0000      -0.904810       -24.6211
 114   2.0000      -0.898903       -24.4604
 115   2.0000      -0.887635       -24.1538
 116   2.0000      -0.882101       -24.0032
 117   2.0000      -0.878717       -23.9111
 118   2.0000      -0.870561       -23.6892
 119   2.0000      -0.864867       -23.5342
 120   2.0000      -0.852308       -23.1925
 121   2.0000      -0.845631       -23.0108
 122   2.0000      -0.841836       -22.9075
 123   2.0000      -0.840810       -22.8796
 124   2.0000      -0.837771       -22.7969
 125   2.0000      -0.826024       -22.4773
 126   2.0000      -0.825383       -22.4598
 127   2.0000      -0.818421       -22.2704
 128   2.0000      -0.804455       -21.8903
 129   2.0000      -0.795927       -21.6583
 130   2.0000      -0.788016       -21.4430
 131   2.0000      -0.771395       -20.9907
 132   2.0000      -0.758284       -20.6340
 133   2.0000      -0.753569       -20.5057
 134   2.0000      -0.752448       -20.4752
 135   2.0000      -0.748749       -20.3745
 136   2.0000      -0.725271       -19.7356
 137   2.0000      -0.719013       -19.5653
 138   2.0000      -0.703246       -19.1363
 139   2.0000      -0.694476       -18.8976
 140   2.0000      -0.688902       -18.7460
 141   2.0000      -0.681013       -18.5313
 142   2.0000      -0.679509       -18.4904
 143   2.0000      -0.667590       -18.1660
 144   2.0000      -0.666548       -18.1377
 145   2.0000      -0.658882       -17.9291
 146   2.0000      -0.655904       -17.8480
 147   2.0000      -0.653766       -17.7899
 148   2.0000      -0.643174       -17.5016
 149   2.0000      -0.638101       -17.3636
 150   2.0000      -0.632280       -17.2052
 151   2.0000      -0.628515       -17.1028
 152   2.0000      -0.626712       -17.0537
 153   2.0000      -0.622627       -16.9425
 154   2.0000      -0.620584       -16.8869
 155   2.0000      -0.618645       -16.8342
 156   2.0000      -0.618227       -16.8228
 157   2.0000      -0.604642       -16.4532
 158   2.0000      -0.598849       -16.2955
 159   2.0000      -0.597832       -16.2678
 160   2.0000      -0.591589       -16.0980
 161   2.0000      -0.590407       -16.0658
 162   2.0000      -0.582734       -15.8570
 163   2.0000      -0.575400       -15.6574
 164   2.0000      -0.567953       -15.4548
 165   2.0000      -0.566175       -15.4064
 166   2.0000      -0.557244       -15.1634
 167   2.0000      -0.554636       -15.0924
 168   2.0000      -0.549596       -14.9553
 169   2.0000      -0.546623       -14.8744
 170   2.0000      -0.543121       -14.7791
 171   2.0000      -0.541567       -14.7368
 172   2.0000      -0.535927       -14.5833
 173   2.0000      -0.535122       -14.5614
 174   2.0000      -0.530715       -14.4415
 175   2.0000      -0.522709       -14.2236
 176   2.0000      -0.522342       -14.2136
 177   2.0000      -0.517364       -14.0782
 178   2.0000      -0.515435       -14.0257
 179   2.0000      -0.510963       -13.9040
 180   2.0000      -0.510789       -13.8993
 181   2.0000      -0.507286       -13.8040
 182   2.0000      -0.504649       -13.7322
 183   2.0000      -0.501630       -13.6500
 184   2.0000      -0.498793       -13.5728
 185   2.0000      -0.498570       -13.5668
 186   2.0000      -0.496577       -13.5126
 187   2.0000      -0.496034       -13.4978
 188   2.0000      -0.491587       -13.3768
 189   2.0000      -0.489039       -13.3074
 190   2.0000      -0.487124       -13.2553
 191   2.0000      -0.483979       -13.1697
 192   2.0000      -0.483121       -13.1464
 193   2.0000      -0.480148       -13.0655
 194   2.0000      -0.473680       -12.8895
 195   2.0000      -0.473380       -12.8813
 196   2.0000      -0.468300       -12.7431
 197   2.0000      -0.461475       -12.5574
 198   2.0000      -0.461119       -12.5477
 199   2.0000      -0.459336       -12.4992
 200   2.0000      -0.457092       -12.4381
 201   2.0000      -0.456059       -12.4100
 202   2.0000      -0.452654       -12.3173
 203   2.0000      -0.451673       -12.2906
 204   2.0000      -0.446945       -12.1620
 205   2.0000      -0.445188       -12.1142
 206   2.0000      -0.442942       -12.0531
 207   2.0000      -0.437775       -11.9125
 208   2.0000      -0.437497       -11.9049
 209   2.0000      -0.437120       -11.8946
 210   2.0000      -0.433769       -11.8035
 211   2.0000      -0.429823       -11.6961
 212   2.0000      -0.429022       -11.6743
 213   2.0000      -0.425637       -11.5822
 214   2.0000      -0.423278       -11.5180
 215   2.0000      -0.422691       -11.5020
 216   2.0000      -0.417526       -11.3615
 217   2.0000      -0.412938       -11.2366
 218   2.0000      -0.411635       -11.2012
 219   2.0000      -0.409400       -11.1403
 220   2.0000      -0.407909       -11.0998
 221   2.0000      -0.404908       -11.0181
 222   2.0000      -0.401795       -10.9334
 223   2.0000      -0.399744       -10.8776
 224   2.0000      -0.388450       -10.5703
 225   2.0000      -0.384835       -10.4719
 226   2.0000      -0.383022       -10.4226
 227   2.0000      -0.381693       -10.3864
 228   2.0000      -0.373973       -10.1763
 229   2.0000      -0.373804       -10.1717
 230   2.0000      -0.365601        -9.9485
 231   2.0000      -0.362455        -9.8629
 232   2.0000      -0.360966        -9.8224
 233   2.0000      -0.344919        -9.3857
 234   2.0000      -0.340797        -9.2736
 235   2.0000      -0.335835        -9.1385
 236   2.0000      -0.331551        -9.0220
 237   2.0000      -0.327352        -8.9077
 238   2.0000      -0.322928        -8.7873
 239   2.0000      -0.320047        -8.7089
 240   2.0000      -0.311791        -8.4843
 241   2.0000      -0.306850        -8.3498
 242   2.0000      -0.294773        -8.0212
 243   2.0000      -0.283544        -7.7156
 244   2.0000      -0.281583        -7.6623
 245   2.0000      -0.263315        -7.1652
 246   2.0000      -0.244404        -6.6506
 247   2.0000      -0.184526        -5.0212
 248   0.0000      -0.101168        -2.7529
 249   0.0000      -0.085262        -2.3201
 250   0.0000      -0.055575        -1.5123
 251   0.0000      -0.043191        -1.1753
 252   0.0000      -0.041202        -1.1212

MULLIKEN ATOMIC CHARGES
-----------------------
   0 C :    0.352420
   1 C :   -0.365229
   2 C :   -0.172246
   3 N :    0.127186
   4 C :   -0.214410
   5 N :    0.156293
   6 C :    0.010447
   7 C :    0.020827
   8 C :   -0.106367
   9 C :    0.153392
  10 C :   -0.097309
  11 C :   -0.009956
  12 S :    0.169708
  13 C :   -0.124034
  14 C :    0.030734
  15 Br:    0.019264
  16 C :    0.155818
  17 O :   -0.156476
  18 C :   -0.199101
  19 C :    0.029513
  20 N :    0.019089
  21 C :   -0.108330
  22 S :    0.176470
  23 C :    0.000484
  24 N :    0.277641
  25 O :   -0.249957
  26 O :   -0.264609
  27 C :   -0.007236
  28 C :    0.111889
  29 C :   -0.034675
  30 C :    0.060753
  31 C :   -0.189712
  32 S :    0.096047
  33 C :   -0.124062
  34 C :   -0.089906
  35 C :    0.129732
  36 C :    0.143662
  37 C :   -0.085577
  38 C :    0.022856
  39 C :   -0.021971
  40 C :   -0.057742
  41 C :    0.084879
  42 C :    0.062952
  43 C :   -0.036442
  44 C :    0.031623
  45 C :    0.023196
  46 C :   -0.023491
  47 C :    0.042000
  48 C :    0.088930
  49 C :   -0.025544
  50 C :   -0.008642
  51 C :   -0.022254
  52 C :   -0.086336
  53 C :    0.014042
  54 C :   -0.000654
  55 C :   -0.043928
  56 S :    0.096689
  57 C :   -0.058743
  58 C :    0.026192
  59 C :    0.051043
  60 C :   -0.064942
  61 S :    0.084056
  62 C :   -0.028012
  63 H :   -0.017770
  64 H :   -0.013929
  65 H :   -0.005939
  66 H :    0.045889
  67 H :    0.153332
  68 H :    0.008980
  69 H :    0.035051
  70 H :   -0.016405
  71 H :    0.016675
  72 H :    0.002625
  73 H :    0.025113
  74 H :    0.028483
  75 H :   -0.014956
  76 H :    0.001713
  77 H :   -0.010918
  78 H :   -0.028050
  79 H :   -0.032575
  80 H :   -0.012479
  81 H :   -0.015392
  82 H :   -0.029152
  83 H :    0.050979
  84 H :    0.038931
  85 H :   -0.018394
  86 H :    0.007626
  87 H :   -0.013116
  88 H :   -0.010307
  89 H :   -0.011485
  90 H :    0.020801
  91 H :    0.022732
Sum of atomic charges:   -0.0000000

LOEWDIN ATOMIC CHARGES
----------------------
   0 C :    0.090676
   1 C :   -0.159153
   2 C :   -0.009777
   3 N :   -0.069725
   4 C :   -0.021293
   5 N :   -0.065746
   6 C :   -0.021959
   7 C :   -0.039802
   8 C :    0.011960
   9 C :   -0.032927
  10 C :   -0.146493
  11 C :   -0.002429
  12 S :    0.426147
  13 C :   -0.274649
  14 C :   -0.069528
  15 Br:    0.132923
  16 C :    0.071533
  17 O :   -0.159782
  18 C :   -0.139136
  19 C :    0.096754
  20 N :    0.075389
  21 C :   -0.117710
  22 S :    0.461670
  23 C :   -0.200427
  24 N :    0.274509
  25 O :   -0.215913
  26 O :   -0.229694
  27 C :    0.003844
  28 C :   -0.074427
  29 C :   -0.041950
  30 C :   -0.022728
  31 C :   -0.182981
  32 S :    0.436541
  33 C :   -0.188814
  34 C :   -0.056070
  35 C :   -0.050446
  36 C :   -0.050023
  37 C :   -0.054964
  38 C :   -0.014364
  39 C :   -0.048609
  40 C :   -0.015456
  41 C :   -0.047067
  42 C :   -0.005014
  43 C :   -0.022845
  44 C :   -0.016573
  45 C :   -0.028798
  46 C :   -0.010897
  47 C :   -0.021046
  48 C :   -0.010305
  49 C :   -0.006635
  50 C :    0.048744
  51 C :   -0.054136
  52 C :   -0.149191
  53 C :   -0.042837
  54 C :   -0.035305
  55 C :   -0.184787
  56 S :    0.387773
  57 C :   -0.176652
  58 C :   -0.027739
  59 C :   -0.032986
  60 C :   -0.140024
  61 S :    0.358601
  62 C :   -0.073677
  63 H :    0.038172
  64 H :    0.038067
  65 H :    0.038356
  66 H :    0.042687
  67 H :    0.102633
  68 H :    0.044630
  69 H :    0.033363
  70 H :    0.026640
  71 H :    0.018489
  72 H :    0.031437
  73 H :    0.036094
  74 H :    0.032708
  75 H :    0.026490
  76 H :    0.029999
  77 H :    0.023723
  78 H :    0.026499
  79 H :    0.025470
  80 H :    0.029162
  81 H :    0.027998
  82 H :    0.026958
  83 H :    0.033786
  84 H :    0.032163
  85 H :    0.029762
  86 H :    0.037431
  87 H :    0.031815
  88 H :    0.033121
  89 H :    0.033337
  90 H :    0.028980
  91 H :    0.026457

  Mayer bond orders larger than 0.100000
B(  0-C ,  1-C ) :   1.5982 B(  0-C ,  6-C ) :   1.0097 B(  0-C , 18-C ) :   1.1263
B(  1-C ,  2-C ) :   1.1695 B(  1-C ,  4-C ) :   1.1593 B(  2-C ,  3-N ) :   2.8739
B(  4-C ,  5-N ) :   2.9501 B(  6-C ,  7-C ) :   1.2818 B(  6-C , 11-C ) :   1.4116
B(  7-C ,  8-C ) :   1.4249 B(  7-C , 16-C ) :   0.9430 B(  8-C ,  9-C ) :   1.2192
B(  8-C , 63-H ) :   1.0231 B(  9-C , 10-C ) :   1.3196 B(  9-C , 14-C ) :   1.1571
B( 10-C , 11-C ) :   1.3324 B( 10-C , 12-S ) :   1.0743 B( 11-C , 64-H ) :   0.9786
B( 12-S , 13-C ) :   1.0828 B( 13-C , 14-C ) :   1.6178 B( 13-C , 15-Br) :   1.0164
B( 14-C , 65-H ) :   1.0015 B( 16-C , 17-O ) :   2.2111 B( 16-C , 18-C ) :   0.9329
B( 18-C , 19-C ) :   1.5017 B( 19-C , 20-N ) :   1.2934 B( 19-C , 66-H ) :   0.9313
B( 20-N , 21-C ) :   1.1335 B( 20-N , 67-H ) :   0.9039 B( 21-C , 22-S ) :   1.1286
B( 21-C , 28-C ) :   1.3907 B( 22-S , 23-C ) :   1.1010 B( 23-C , 24-N ) :   0.9661
B( 23-C , 27-C ) :   1.4774 B( 24-N , 25-O ) :   1.5376 B( 24-N , 26-O ) :   1.5136
B( 25-O , 26-O ) :   0.2597 B( 27-C , 28-C ) :   1.2452 B( 27-C , 68-H ) :   1.0033
B( 28-C , 29-C ) :   1.0993 B( 29-C , 30-C ) :   1.6922 B( 29-C , 69-H ) :   0.9371
B( 30-C , 31-C ) :   1.1583 B( 30-C , 70-H ) :   0.9441 B( 31-C , 32-S ) :   1.1243
B( 31-C , 36-C ) :   1.3914 B( 32-S , 33-C ) :   1.1411 B( 33-C , 34-C ) :   1.5858
B( 33-C , 71-H ) :   0.9635 B( 34-C , 35-C ) :   1.1037 B( 34-C , 36-C ) :   1.2283
B( 35-C , 72-H ) :   0.9460 B( 35-C , 73-H ) :   0.9340 B( 35-C , 74-H ) :   0.9263
B( 36-C , 37-C ) :   1.1315 B( 37-C , 38-C ) :   1.5888 B( 37-C , 75-H ) :   0.9444
B( 38-C , 39-C ) :   1.1940 B( 38-C , 76-H ) :   0.9864 B( 39-C , 40-C ) :   1.4897
B( 39-C , 77-H ) :   0.9827 B( 40-C , 41-C ) :   1.2490 B( 40-C , 78-H ) :   0.9662
B( 41-C , 42-C ) :   1.2747 B( 41-C , 49-C ) :   1.0273 B( 42-C , 43-C ) :   1.2251
B( 42-C , 47-C ) :   1.1967 B( 43-C , 44-C ) :   1.5258 B( 43-C , 79-H ) :   0.9918
B( 44-C , 45-C ) :   1.2288 B( 44-C , 80-H ) :   0.9840 B( 45-C , 46-C ) :   1.5199
B( 45-C , 81-H ) :   0.9841 B( 46-C , 47-C ) :   1.2400 B( 46-C , 82-H ) :   0.9892
B( 47-C , 48-C ) :   1.2513 B( 48-C , 49-C ) :   1.0034 B( 48-C , 51-C ) :   1.3856
B( 49-C , 50-C ) :   1.8651 B( 50-C , 83-H ) :   0.9394 B( 50-C , 84-H ) :   0.9384
B( 51-C , 52-C ) :   1.3774 B( 51-C , 85-H ) :   0.9409 B( 52-C , 53-C ) :   1.2269
B( 52-C , 56-S ) :   1.0728 B( 53-C , 54-C ) :   1.5304 B( 53-C , 86-H ) :   0.9930
B( 54-C , 55-C ) :   1.2251 B( 54-C , 87-H ) :   0.9960 B( 55-C , 56-S ) :   1.0508
B( 55-C , 57-C ) :   1.4746 B( 57-C , 58-C ) :   1.1836 B( 57-C , 61-S ) :   1.0558
B( 58-C , 59-C ) :   1.6304 B( 58-C , 88-H ) :   0.9927 B( 59-C , 60-C ) :   1.0924
B( 59-C , 89-H ) :   0.9935 B( 60-C , 61-S ) :   1.0099 B( 60-C , 62-C ) :   1.8452
B( 62-C , 90-H ) :   0.9512 B( 62-C , 91-H ) :   0.9423

-----------------------------------------------------------------------------
         ABSORPTION SPECTRUM VIA TRANSITION ELECTRIC DIPOLE MOMENTS
-----------------------------------------------------------------------------
State   Energy  Wavelength   fosc         T2         TX        TY        TZ
        (cm-1)    (nm)                  (au**2)     (au)      (au)      (au)
-----------------------------------------------------------------------------
   0    3652.2   2738.1   0.161342722  14.54361  -2.40195   2.50774   1.57654
   1    7743.9   1291.3   0.007100708   0.30187   0.31290  -0.20126   0.40430
   2   14599.0    685.0   0.229862864   5.18349   1.21629  -1.56978  -1.11352
   3   14935.1    669.6   0.090712531   1.99957   0.63150  -0.56834  -1.13038
   4   16933.9    590.5   0.392123482   7.62325  -1.48552   2.32263   0.14801
   5   18021.5    554.9   0.081796391   1.49423   0.38027  -0.82037   0.82257
   6   19028.9    525.5   0.235386708   4.07234  -0.23014  -1.67874   1.09599
   7   21048.7    475.1   0.077818526   1.21712   0.12105   1.09213  -0.09861
   8   21277.9    470.0   0.156114131   2.41540  -0.76158   0.78237   1.10602
   9   22889.3    436.9   0.088267905   1.26954  -0.00577   1.10256  -0.23211
  10   24201.0    413.2   0.229582588   3.12307   0.32453  -1.71632   0.26833
  11   25306.3    395.2   0.058615965   0.76254   0.80785  -0.05260   0.32735
  12   25732.2    388.6   0.046677821   0.59719  -0.11727  -0.41982   0.63811
  13   26230.3    381.2   0.013918609   0.17469   0.37629   0.17841   0.03556
  14   27070.7    369.4   0.067217763   0.81745   0.42199  -0.79143  -0.11406
  15   27305.7    366.2   0.192842422   2.32501   0.98218   0.86270  -0.78491
  16   27984.3    357.3   0.207548574   2.44163   1.27912   0.09304  -0.89265
  17   28504.0    350.8   0.112383996   1.29800  -0.72570   0.36912   0.79694
  18   28797.7    347.3   0.001736568   0.01985  -0.03310  -0.00616  -0.13682
  19   29057.2    344.1   0.071488539   0.80995   0.53517   0.71336  -0.12109
  20   29279.6    341.5   0.086069823   0.96774  -0.31314   0.83463   0.41604
  21   29388.8    340.3   0.005765495   0.06458   0.05535  -0.24562   0.03450
  22   29783.8    335.8   0.463533912   5.12362   1.13537   1.54982  -1.19691
  23   30227.9    330.8   0.051850484   0.56470   0.33235   0.66599  -0.10345
  24   30325.9    329.8   0.029392815   0.31908  -0.27867   0.48974   0.03976
  25   30559.8    327.2   0.077157004   0.83119   0.58320  -0.23336  -0.66076
  26   31050.8    322.1   0.116113509   1.23108  -0.41711   0.86258   0.55951
  27   31291.3    319.6   0.004518411   0.04754  -0.10231   0.18507   0.05309
  28   31810.7    314.4   0.009510329   0.09842   0.00837  -0.30770   0.06059
  29   31936.9    313.1   0.308726359   3.18242  -1.41808  -0.82610   0.69929
  30   32343.4    309.2   0.010735710   0.10927   0.20427   0.01134   0.25965
  31   32480.1    307.9   0.003527930   0.03576   0.05552   0.16065  -0.08287
  32   32655.7    306.2   0.040743150   0.41074  -0.48277  -0.41157   0.09103
  33   33048.9    302.6   0.018302811   0.18232   0.01005  -0.25592  -0.34165
  34   33303.2    300.3   0.184006022   1.81895   0.62531   0.94517  -0.73116
  35   33503.8    298.5   0.325778070   3.20113  -0.50430  -1.66103   0.43335
  36   33996.4    294.1   0.068903235   0.66724   0.23516  -0.70228  -0.34460
  37   34710.1    288.1   0.109461254   1.03820  -0.06048   1.00463  -0.15896
  38   34985.3    285.8   0.109186760   1.02745   0.66182   0.63992  -0.42419
  39   35025.8    285.5   0.017234095   0.16199  -0.22884  -0.32287   0.07329
  40   35095.5    284.9   0.018239847   0.17110  -0.32169   0.18162  -0.18609
  41   35381.7    282.6   0.006964917   0.06481   0.17027  -0.16512   0.09247
  42   35822.3    279.2   0.123191146   1.13214   0.89738  -0.09832  -0.56320
  43   35891.5    278.6   0.086933380   0.79739   0.76759  -0.23466  -0.39133
  44   36165.9    276.5   0.085989517   0.78275   0.66060  -0.31871  -0.49475
  45   36387.6    274.8   0.061259125   0.55423   0.52318   0.47829  -0.22750
  46   36587.2    273.3   0.031801587   0.28615   0.17568   0.50161   0.06061
  47   36689.8    272.6   0.008520092   0.07645   0.20540  -0.17837   0.04946
  48   37432.4    267.1   0.145397521   1.27875   0.58386   0.83282  -0.49423
  49   37580.3    266.1   0.144905010   1.26940  -0.99259  -0.08905   0.52558
  50   37796.2    264.6   0.069418596   0.60465   0.51766   0.56054  -0.14992
  51   38086.3    262.6   0.004312299   0.03727  -0.17145  -0.07632  -0.04534
  52   38410.1    260.3   0.015002766   0.12859  -0.02635   0.35744  -0.01142
  53   38619.1    258.9   0.099468871   0.84793   0.28634  -0.87335   0.05662
  54   39100.6    255.8   0.063351860   0.53340  -0.69915  -0.05463   0.20397
  55   39510.4    253.1   0.014437749   0.12030   0.11581   0.22520  -0.23701
  56   39524.8    253.0   0.009209683   0.07671  -0.13696  -0.11661   0.21060
  57   39710.2    251.8   0.119180591   0.98805   0.00214   0.99232  -0.05782
  58   40015.0    249.9   0.002364112   0.01945   0.05181   0.03140   0.12561
  59   40163.5    249.0   0.000627876   0.00515   0.03837  -0.02037  -0.05709
  60   40239.2    248.5   0.012255698   0.10027   0.26554   0.14534  -0.09290
  61   40293.1    248.2   0.001048497   0.00857  -0.08007  -0.04583   0.00745

FINAL SINGLE POINT ENERGY     -6928.472019788519

DIPOLE MOMENT
-------------
                                X             Y             Z
Electronic contribution:     90.55453     -18.50859    -105.19511
Nuclear contribution   :    -90.92156      20.44770     105.14372
                        -----------------------------------------
Total Dipole Moment    :     -0.36704       1.93911      -0.05139
                        -----------------------------------------
Magnitude (a.u.)       :      1.97421
Magnitude (Debye)      :      5.01804

Rotational constants in cm-1:     0.001346     0.000469     0.000374
Rotational constants in MHz :    40.342537    14.051146    11.201929

                             ****ORCA TERMINATED NORMALLY****
TOTAL RUN TIME: 0 days 0 hours 11 minutes 33 seconds 619 msec
