                         Program Version 4.2.0 -  RELEASE  -
|  1> # ORCA input file
|  2> # SCF done       -181.374540371178          0.000278489591
|  3> ! CAM-B3LYP def2-SVP def2/J RIJCOSX Grid4 TightSCF
|  4> %maxcore 5000
|  5> %tddft
|  6>     Mode sTDDFT
|  7>     Ethresh 5.0
|  8>     maxcore 5000
|  9> end
| 10>
| 11> %pal
| 12>   nprocs 6
| 13>   end
| 14> * xyz 0 1
| 15>    C        6.09617        -5.62012        -7.92900
| 16>    C        7.07246        -6.44399        -8.41719
| 17>    F        8.27364        -5.94387        -8.74172
| 18>    C        6.83055        -7.82013        -8.58539
| 19>    F        7.80493        -8.60602        -9.06716
| 20>    C        5.61380        -8.35550        -8.26195
| 21>    C        4.58936        -7.53347        -7.75812
| 22>    C        4.83201        -6.13982        -7.58855
| 23>    C        3.81469        -5.29327        -7.08929
| 24>    C        2.59375        -5.82458        -6.76780
| 25>    C        2.36148        -7.22159        -6.93668
| 26>    C        3.32178        -8.06176        -7.41801
| 27>    C        0.98457        -7.52411        -6.51611
| 28>    O        0.42530        -8.61497        -6.50978
| 29>    C        0.40977        -6.25390        -6.06974
| 30>    C        1.37339        -5.20485        -6.26465
| 31>    C        1.16964        -3.85210        -6.08444
| 32>    C        2.16148        -2.87206        -6.25181
| 33>    N        2.93257        -2.02459        -6.34839
| 34>    C       -0.07260        -3.29087        -5.75077
| 35>    N       -1.07930        -2.78702        -5.51195
| 36>    C       -0.83990        -6.18185        -5.49446
| 37>    N       -1.61913        -7.26998        -5.42713
| 38>    C       -2.86710        -7.40523        -4.90078
| 39>    S       -3.37619        -9.02494        -4.51130
| 40>    C       -4.87067        -8.39493        -3.90110
| 41>    N       -5.81173        -9.29574        -3.39840
| 42>    O       -6.85627        -8.84003        -2.96227
| 43>    O       -5.51418       -10.48010        -3.43016
| 44>    C       -4.96300        -7.03145        -3.99942
| 45>    C       -3.82780        -6.43545        -4.58142
| 46>    C       -3.72270        -5.02203        -4.85622
| 47>    C       -4.41855        -4.06727        -4.21220
| 48>    C       -4.24491        -2.67513        -4.50744
| 49>    C       -4.91104        -1.64386        -3.96487
| 50>    C       -6.02884        -1.74056        -2.97786
| 51>    C       -4.49571        -0.23198        -4.33115
| 52>    N       -3.10889         0.00267        -4.00658
| 53>    C       -2.11949         0.09483        -4.90906
| 54>    C       -0.79593         0.02510        -4.58374
| 55>    C        0.29244         0.16906        -5.45943
| 56>    C        0.33159         0.55204        -6.77845
| 57>    C        1.51543         0.63441        -7.55102
| 58>    C        1.34034         1.10612        -8.81559
| 59>    C        0.00085         1.43277        -9.12649
| 60>    S       -1.03211         1.08372        -7.75754
| 61>    C       -0.48175         1.97180       -10.30195
| 62>    C        0.26003         2.29562       -11.46290
| 63>    C       -0.47036         2.85889       -12.45936
| 64>    C       -1.85306         3.01903       -12.15509
| 65>    S       -2.17058         2.37608       -10.53903
| 66>    C       -2.85530         3.52210       -12.92358
| 67>    C       -2.66563         4.21563       -14.17943
| 68>    C       -1.60942         5.09973       -14.31885
| 69>    C       -1.41616         5.83311       -15.49351
| 70>    C       -2.32959         5.68446       -16.52546
| 71>    C       -3.42268         4.81468       -16.43559
| 72>    C       -3.58615         4.05160       -15.25331
| 73>    C       -4.63904         3.10074       -15.17916
| 74>    C       -5.51440         2.93856       -16.19955
| 75>    C       -5.41791         3.71803       -17.38375
| 76>    C       -4.37321         4.66310       -17.51358
| 77>    C       -4.31723         5.41502       -18.69825
| 78>    C       -5.23799         5.24034       -19.70193
| 79>    C       -6.26128         4.30091       -19.56960
| 80>    C       -6.34662         3.55305       -18.42461
| 81>    C       -0.30079         6.75630       -15.66385
| 82>    C        0.72196         6.92655       -14.83445
| 83>    H        6.29872        -4.56752        -7.80721
| 84>    H        5.44435        -9.41235        -8.39646
| 85>    H        4.02780        -4.24300        -6.97180
| 86>    H        3.12031        -9.11498        -7.54128
| 87>    H       -1.20348        -5.26834        -5.05072
| 88>    H       -1.15082        -8.12469        -5.77254
| 89>    H       -5.84271        -6.49809        -3.69003
| 90>    H       -3.05133        -4.72042        -5.64734
| 91>    H       -5.09252        -4.34347        -3.41502
| 92>    H       -3.46250        -2.45448        -5.22227
| 93>    H       -5.74186        -1.27408        -2.03464
| 94>    H       -6.31796        -2.76711        -2.78194
| 95>    H       -6.89984        -1.20521        -3.35625
| 96>    H       -5.11352         0.48898        -3.78496
| 97>    H       -4.62743        -0.05605        -5.40175
| 98>    H       -2.83943        -0.22344        -3.05855
| 99>    H       -2.43708         0.25276        -5.92834
|100>    H       -0.54676        -0.19590        -3.55353
|101>    H        1.26525        -0.05074        -5.03634
|102>    H        2.46205         0.32897        -7.14210
|103>    H        2.13600         1.23746        -9.52625
|104>    H        1.31512         2.09747       -11.52929
|105>    H       -0.07487         3.12997       -13.42162
|106>    H       -3.86665         3.42828       -12.55387
|107>    H       -0.95535         5.26279       -13.47733
|108>    H       -2.17452         6.26224       -17.42303
|109>    H       -4.72477         2.48642       -14.29613
|110>    H       -6.30771         2.20757       -16.13256
|111>    H       -3.54473         6.15480       -18.83597
|112>    H       -5.17162         5.83498       -20.60140
|113>    H       -6.97887         4.16996       -20.36603
|114>    H       -7.13453         2.82305       -18.30365
|115>    H       -0.33404         7.33718       -16.57789
|116>    H        0.82764         6.37691       -13.91474
|117>    H        1.50524         7.63250       -15.05116
|118> *
|119>
|120>                          ****END OF INPUT****

CARTESIAN COORDINATES (ANGSTROEM)
---------------------------------
  C      6.096170   -5.620120   -7.929000
  C      7.072460   -6.443990   -8.417190
  F      8.273640   -5.943870   -8.741720
  C      6.830550   -7.820130   -8.585390
  F      7.804930   -8.606020   -9.067160
  C      5.613800   -8.355500   -8.261950
  C      4.589360   -7.533470   -7.758120
  C      4.832010   -6.139820   -7.588550
  C      3.814690   -5.293270   -7.089290
  C      2.593750   -5.824580   -6.767800
  C      2.361480   -7.221590   -6.936680
  C      3.321780   -8.061760   -7.418010
  C      0.984570   -7.524110   -6.516110
  O      0.425300   -8.614970   -6.509780
  C      0.409770   -6.253900   -6.069740
  C      1.373390   -5.204850   -6.264650
  C      1.169640   -3.852100   -6.084440
  C      2.161480   -2.872060   -6.251810
  N      2.932570   -2.024590   -6.348390
  C     -0.072600   -3.290870   -5.750770
  N     -1.079300   -2.787020   -5.511950
  C     -0.839900   -6.181850   -5.494460
  N     -1.619130   -7.269980   -5.427130
  C     -2.867100   -7.405230   -4.900780
  S     -3.376190   -9.024940   -4.511300
  C     -4.870670   -8.394930   -3.901100
  N     -5.811730   -9.295740   -3.398400
  O     -6.856270   -8.840030   -2.962270
  O     -5.514180  -10.480100   -3.430160
  C     -4.963000   -7.031450   -3.999420
  C     -3.827800   -6.435450   -4.581420
  C     -3.722700   -5.022030   -4.856220
  C     -4.418550   -4.067270   -4.212200
  C     -4.244910   -2.675130   -4.507440
  C     -4.911040   -1.643860   -3.964870
  C     -6.028840   -1.740560   -2.977860
  C     -4.495710   -0.231980   -4.331150
  N     -3.108890    0.002670   -4.006580
  C     -2.119490    0.094830   -4.909060
  C     -0.795930    0.025100   -4.583740
  C      0.292440    0.169060   -5.459430
  C      0.331590    0.552040   -6.778450
  C      1.515430    0.634410   -7.551020
  C      1.340340    1.106120   -8.815590
  C      0.000850    1.432770   -9.126490
  S     -1.032110    1.083720   -7.757540
  C     -0.481750    1.971800  -10.301950
  C      0.260030    2.295620  -11.462900
  C     -0.470360    2.858890  -12.459360
  C     -1.853060    3.019030  -12.155090
  S     -2.170580    2.376080  -10.539030
  C     -2.855300    3.522100  -12.923580
  C     -2.665630    4.215630  -14.179430
  C     -1.609420    5.099730  -14.318850
  C     -1.416160    5.833110  -15.493510
  C     -2.329590    5.684460  -16.525460
  C     -3.422680    4.814680  -16.435590
  C     -3.586150    4.051600  -15.253310
  C     -4.639040    3.100740  -15.179160
  C     -5.514400    2.938560  -16.199550
  C     -5.417910    3.718030  -17.383750
  C     -4.373210    4.663100  -17.513580
  C     -4.317230    5.415020  -18.698250
  C     -5.237990    5.240340  -19.701930
  C     -6.261280    4.300910  -19.569600
  C     -6.346620    3.553050  -18.424610
  C     -0.300790    6.756300  -15.663850
  C      0.721960    6.926550  -14.834450
  H      6.298720   -4.567520   -7.807210
  H      5.444350   -9.412350   -8.396460
  H      4.027800   -4.243000   -6.971800
  H      3.120310   -9.114980   -7.541280
  H     -1.203480   -5.268340   -5.050720
  H     -1.150820   -8.124690   -5.772540
  H     -5.842710   -6.498090   -3.690030
  H     -3.051330   -4.720420   -5.647340
  H     -5.092520   -4.343470   -3.415020
  H     -3.462500   -2.454480   -5.222270
  H     -5.741860   -1.274080   -2.034640
  H     -6.317960   -2.767110   -2.781940
  H     -6.899840   -1.205210   -3.356250
  H     -5.113520    0.488980   -3.784960
  H     -4.627430   -0.056050   -5.401750
  H     -2.839430   -0.223440   -3.058550
  H     -2.437080    0.252760   -5.928340
  H     -0.546760   -0.195900   -3.553530
  H      1.265250   -0.050740   -5.036340
  H      2.462050    0.328970   -7.142100
  H      2.136000    1.237460   -9.526250
  H      1.315120    2.097470  -11.529290
  H     -0.074870    3.129970  -13.421620
  H     -3.866650    3.428280  -12.553870
  H     -0.955350    5.262790  -13.477330
  H     -2.174520    6.262240  -17.423030
  H     -4.724770    2.486420  -14.296130
  H     -6.307710    2.207570  -16.132560
  H     -3.544730    6.154800  -18.835970
  H     -5.171620    5.834980  -20.601400
  H     -6.978870    4.169960  -20.366030
  H     -7.134530    2.823050  -18.303650
  H     -0.334040    7.337180  -16.577890
  H      0.827640    6.376910  -13.914740
  H      1.505240    7.632500  -15.051160

 Total Charge           Charge          ....    0
 Multiplicity           Mult            ....    1
 Number of Electrons    NEL             ....  490
 Basis Dimension        Dim             .... 1139

ORBITAL ENERGIES
----------------

  NO   OCC          E(Eh)            E(eV)
   0   2.0000     -88.995805     -2421.6990
   1   2.0000     -88.922472     -2419.7035
   2   2.0000     -88.915819     -2419.5224
   3   2.0000     -24.804967      -674.9775
   4   2.0000     -24.803927      -674.9492
   5   2.0000     -19.246286      -523.7181
   6   2.0000     -19.245556      -523.6982
   7   2.0000     -19.239262      -523.5269
   8   2.0000     -14.657265      -398.8445
   9   2.0000     -14.507279      -394.7631
  10   2.0000     -14.434103      -392.7719
  11   2.0000     -14.428637      -392.6232
  12   2.0000     -14.424464      -392.5096
  13   2.0000     -10.389237      -282.7055
  14   2.0000     -10.388574      -282.6875
  15   2.0000     -10.386725      -282.6372
  16   2.0000     -10.379177      -282.4318
  17   2.0000     -10.379121      -282.4302
  18   2.0000     -10.355332      -281.7829
  19   2.0000     -10.355208      -281.7795
  20   2.0000     -10.348090      -281.5858
  21   2.0000     -10.331307      -281.1291
  22   2.0000     -10.328597      -281.0554
  23   2.0000     -10.319344      -280.8036
  24   2.0000     -10.319055      -280.7958
  25   2.0000     -10.317794      -280.7614
  26   2.0000     -10.317354      -280.7495
  27   2.0000     -10.315325      -280.6943
  28   2.0000     -10.314500      -280.6718
  29   2.0000     -10.313693      -280.6499
  30   2.0000     -10.312554      -280.6189
  31   2.0000     -10.309326      -280.5310
  32   2.0000     -10.308495      -280.5084
  33   2.0000     -10.306568      -280.4560
  34   2.0000     -10.306307      -280.4489
  35   2.0000     -10.305418      -280.4247
  36   2.0000     -10.291679      -280.0508
  37   2.0000     -10.290421      -280.0166
  38   2.0000     -10.287911      -279.9483
  39   2.0000     -10.287573      -279.9391
  40   2.0000     -10.284560      -279.8571
  41   2.0000     -10.278528      -279.6930
  42   2.0000     -10.278182      -279.6835
  43   2.0000     -10.272542      -279.5301
  44   2.0000     -10.269169      -279.4383
  45   2.0000     -10.266034      -279.3530
  46   2.0000     -10.264103      -279.3004
  47   2.0000     -10.263378      -279.2807
  48   2.0000     -10.263070      -279.2723
  49   2.0000     -10.262890      -279.2674
  50   2.0000     -10.260957      -279.2148
  51   2.0000     -10.260078      -279.1909
  52   2.0000     -10.259791      -279.1831
  53   2.0000     -10.258797      -279.1561
  54   2.0000     -10.258210      -279.1401
  55   2.0000     -10.256607      -279.0965
  56   2.0000     -10.256449      -279.0922
  57   2.0000     -10.256075      -279.0820
  58   2.0000     -10.255854      -279.0760
  59   2.0000     -10.255749      -279.0731
  60   2.0000     -10.254934      -279.0509
  61   2.0000     -10.254227      -279.0317
  62   2.0000     -10.253596      -279.0145
  63   2.0000     -10.252106      -278.9740
  64   2.0000     -10.249630      -278.9066
  65   2.0000     -10.249150      -278.8936
  66   2.0000     -10.248998      -278.8894
  67   2.0000     -10.241465      -278.6844
  68   2.0000      -8.091360      -220.1771
  69   2.0000      -8.018315      -218.1895
  70   2.0000      -8.012283      -218.0253
  71   2.0000      -6.061028      -164.9290
  72   2.0000      -6.056602      -164.8085
  73   2.0000      -6.052826      -164.7058
  74   2.0000      -5.988035      -162.9427
  75   2.0000      -5.984106      -162.8358
  76   2.0000      -5.982140      -162.7823
  77   2.0000      -5.979314      -162.7054
  78   2.0000      -5.978210      -162.6754
  79   2.0000      -5.972883      -162.5304
  80   2.0000      -1.326729       -36.1021
  81   2.0000      -1.324899       -36.0523
  82   2.0000      -1.311909       -35.6988
  83   2.0000      -1.154159       -31.4063
  84   2.0000      -1.143977       -31.1292
  85   2.0000      -1.110256       -30.2116
  86   2.0000      -1.036365       -28.2009
  87   2.0000      -1.030714       -28.0472
  88   2.0000      -1.017555       -27.6891
  89   2.0000      -1.014663       -27.6104
  90   2.0000      -1.004690       -27.3390
  91   2.0000      -0.991073       -26.9685
  92   2.0000      -0.967832       -26.3360
  93   2.0000      -0.961872       -26.1739
  94   2.0000      -0.945746       -25.7351
  95   2.0000      -0.941121       -25.6092
  96   2.0000      -0.932552       -25.3760
  97   2.0000      -0.930307       -25.3149
  98   2.0000      -0.919293       -25.0152
  99   2.0000      -0.909476       -24.7481
 100   2.0000      -0.902319       -24.5534
 101   2.0000      -0.896712       -24.4008
 102   2.0000      -0.891935       -24.2708
 103   2.0000      -0.879135       -23.9225
 104   2.0000      -0.870067       -23.6757
 105   2.0000      -0.864902       -23.5352
 106   2.0000      -0.855865       -23.2893
 107   2.0000      -0.853076       -23.2134
 108   2.0000      -0.850217       -23.1356
 109   2.0000      -0.835347       -22.7309
 110   2.0000      -0.820557       -22.3285
 111   2.0000      -0.817941       -22.2573
 112   2.0000      -0.815408       -22.1884
 113   2.0000      -0.810805       -22.0631
 114   2.0000      -0.799699       -21.7609
 115   2.0000      -0.795995       -21.6601
 116   2.0000      -0.791878       -21.5481
 117   2.0000      -0.782658       -21.2972
 118   2.0000      -0.779423       -21.2092
 119   2.0000      -0.774686       -21.0803
 120   2.0000      -0.766728       -20.8637
 121   2.0000      -0.754689       -20.5361
 122   2.0000      -0.741922       -20.1887
 123   2.0000      -0.730782       -19.8856
 124   2.0000      -0.725791       -19.7498
 125   2.0000      -0.716324       -19.4922
 126   2.0000      -0.707365       -19.2484
 127   2.0000      -0.703364       -19.1395
 128   2.0000      -0.696783       -18.9604
 129   2.0000      -0.696482       -18.9522
 130   2.0000      -0.683010       -18.5856
 131   2.0000      -0.682137       -18.5619
 132   2.0000      -0.676121       -18.3982
 133   2.0000      -0.671247       -18.2656
 134   2.0000      -0.664151       -18.0725
 135   2.0000      -0.654843       -17.8192
 136   2.0000      -0.652172       -17.7465
 137   2.0000      -0.650082       -17.6896
 138   2.0000      -0.646993       -17.6056
 139   2.0000      -0.641350       -17.4520
 140   2.0000      -0.637638       -17.3510
 141   2.0000      -0.634708       -17.2713
 142   2.0000      -0.631961       -17.1965
 143   2.0000      -0.620860       -16.8945
 144   2.0000      -0.617414       -16.8007
 145   2.0000      -0.608198       -16.5499
 146   2.0000      -0.601335       -16.3631
 147   2.0000      -0.599601       -16.3160
 148   2.0000      -0.598170       -16.2770
 149   2.0000      -0.595233       -16.1971
 150   2.0000      -0.592910       -16.1339
 151   2.0000      -0.591846       -16.1050
 152   2.0000      -0.588020       -16.0008
 153   2.0000      -0.584960       -15.9176
 154   2.0000      -0.582209       -15.8427
 155   2.0000      -0.578309       -15.7366
 156   2.0000      -0.571184       -15.5427
 157   2.0000      -0.570859       -15.5339
 158   2.0000      -0.565934       -15.3998
 159   2.0000      -0.562605       -15.3092
 160   2.0000      -0.559882       -15.2352
 161   2.0000      -0.559410       -15.2223
 162   2.0000      -0.555120       -15.1056
 163   2.0000      -0.553089       -15.0503
 164   2.0000      -0.547383       -14.8950
 165   2.0000      -0.545761       -14.8509
 166   2.0000      -0.540107       -14.6970
 167   2.0000      -0.539510       -14.6808
 168   2.0000      -0.537945       -14.6382
 169   2.0000      -0.531992       -14.4762
 170   2.0000      -0.531187       -14.4543
 171   2.0000      -0.525099       -14.2887
 172   2.0000      -0.524335       -14.2679
 173   2.0000      -0.521214       -14.1829
 174   2.0000      -0.517665       -14.0864
 175   2.0000      -0.513378       -13.9697
 176   2.0000      -0.509003       -13.8507
 177   2.0000      -0.507019       -13.7967
 178   2.0000      -0.502397       -13.6709
 179   2.0000      -0.500757       -13.6263
 180   2.0000      -0.498355       -13.5609
 181   2.0000      -0.496966       -13.5231
 182   2.0000      -0.494072       -13.4444
 183   2.0000      -0.491003       -13.3609
 184   2.0000      -0.488329       -13.2881
 185   2.0000      -0.485963       -13.2237
 186   2.0000      -0.482587       -13.1319
 187   2.0000      -0.480695       -13.0804
 188   2.0000      -0.477290       -12.9877
 189   2.0000      -0.475938       -12.9509
 190   2.0000      -0.475426       -12.9370
 191   2.0000      -0.473261       -12.8781
 192   2.0000      -0.470909       -12.8141
 193   2.0000      -0.468843       -12.7579
 194   2.0000      -0.467192       -12.7129
 195   2.0000      -0.466440       -12.6925
 196   2.0000      -0.463943       -12.6245
 197   2.0000      -0.459385       -12.5005
 198   2.0000      -0.456899       -12.4329
 199   2.0000      -0.456668       -12.4266
 200   2.0000      -0.453285       -12.3345
 201   2.0000      -0.452545       -12.3144
 202   2.0000      -0.444973       -12.1083
 203   2.0000      -0.442373       -12.0376
 204   2.0000      -0.440166       -11.9775
 205   2.0000      -0.437782       -11.9127
 206   2.0000      -0.436229       -11.8704
 207   2.0000      -0.434394       -11.8205
 208   2.0000      -0.430787       -11.7223
 209   2.0000      -0.427445       -11.6314
 210   2.0000      -0.425533       -11.5793
 211   2.0000      -0.422294       -11.4912
 212   2.0000      -0.419839       -11.4244
 213   2.0000      -0.417534       -11.3617
 214   2.0000      -0.411755       -11.2044
 215   2.0000      -0.405755       -11.0412
 216   2.0000      -0.403854       -10.9894
 217   2.0000      -0.403398       -10.9770
 218   2.0000      -0.398244       -10.8368
 219   2.0000      -0.393330       -10.7030
 220   2.0000      -0.392166       -10.6714
 221   2.0000      -0.390866       -10.6360
 222   2.0000      -0.390438       -10.6244
 223   2.0000      -0.385108       -10.4793
 224   2.0000      -0.380473       -10.3532
 225   2.0000      -0.373986       -10.1767
 226   2.0000      -0.373598       -10.1661
 227   2.0000      -0.369862       -10.0645
 228   2.0000      -0.364291        -9.9129
 229   2.0000      -0.360973        -9.8226
 230   2.0000      -0.352559        -9.5936
 231   2.0000      -0.351691        -9.5700
 232   2.0000      -0.343454        -9.3458
 233   2.0000      -0.328361        -8.9352
 234   2.0000      -0.316426        -8.6104
 235   2.0000      -0.314035        -8.5453
 236   2.0000      -0.312607        -8.5065
 237   2.0000      -0.302530        -8.2323
 238   2.0000      -0.300517        -8.1775
 239   2.0000      -0.298043        -8.1102
 240   2.0000      -0.276804        -7.5322
 241   2.0000      -0.271895        -7.3986
 242   2.0000      -0.257691        -7.0121
 243   2.0000      -0.242804        -6.6070
 244   2.0000      -0.182618        -4.9693
 245   0.0000      -0.098663        -2.6847
 246   0.0000      -0.075789        -2.0623
 247   0.0000      -0.056848        -1.5469
 248   0.0000      -0.043309        -1.1785
 249   0.0000      -0.033114        -0.9011

MULLIKEN ATOMIC CHARGES
-----------------------
   0 C :   -0.110527
   1 C :    0.243716
   2 F :   -0.170437
   3 C :    0.242696
   4 F :   -0.170814
   5 C :   -0.107044
   6 C :    0.116600
   7 C :    0.118768
   8 C :   -0.085291
   9 C :    0.043061
  10 C :    0.004447
  11 C :   -0.081539
  12 C :    0.181100
  13 O :   -0.214531
  14 C :   -0.151647
  15 C :    0.333313
  16 C :   -0.354195
  17 C :   -0.148421
  18 N :    0.134018
  19 C :   -0.194120
  20 N :    0.158419
  21 C :    0.033269
  22 N :    0.012875
  23 C :   -0.127173
  24 S :    0.195507
  25 C :   -0.000695
  26 N :    0.277394
  27 O :   -0.245826
  28 O :   -0.259035
  29 C :   -0.007948
  30 C :    0.130200
  31 C :   -0.052675
  32 C :    0.007966
  33 C :    0.014981
  34 C :   -0.227094
  35 C :    0.105188
  36 C :    0.224998
  37 N :   -0.143563
  38 C :    0.073648
  39 C :   -0.039813
  40 C :    0.013271
  41 C :   -0.063442
  42 C :    0.046422
  43 C :   -0.002147
  44 C :   -0.022505
  45 S :    0.025329
  46 C :   -0.065440
  47 C :    0.021088
  48 C :    0.007227
  49 C :   -0.042529
  50 S :    0.056709
  51 C :   -0.039388
  52 C :    0.087424
  53 C :   -0.117706
  54 C :    0.140185
  55 C :   -0.127017
  56 C :    0.117481
  57 C :    0.042411
  58 C :   -0.030629
  59 C :   -0.012087
  60 C :    0.063352
  61 C :    0.098149
  62 C :   -0.050480
  63 C :    0.028017
  64 C :    0.030786
  65 C :   -0.028426
  66 C :   -0.001628
  67 C :   -0.020943
  68 H :    0.009388
  69 H :    0.001884
  70 H :   -0.004916
  71 H :   -0.007590
  72 H :    0.049123
  73 H :    0.168712
  74 H :    0.013712
  75 H :    0.002859
  76 H :   -0.012247
  77 H :   -0.001521
  78 H :    0.023628
  79 H :    0.008525
  80 H :    0.031336
  81 H :    0.002525
  82 H :    0.037811
  83 H :    0.115125
  84 H :    0.016939
  85 H :   -0.042335
  86 H :   -0.013874
  87 H :   -0.009176
  88 H :   -0.026825
  89 H :   -0.021473
  90 H :   -0.008938
  91 H :   -0.008114
  92 H :   -0.025955
  93 H :   -0.050168
  94 H :   -0.028108
  95 H :   -0.035609
  96 H :   -0.034026
  97 H :   -0.022620
  98 H :   -0.019839
  99 H :   -0.032277
 100 H :   -0.020482
 101 H :    0.013570
 102 H :    0.017697
Sum of atomic charges:   -0.0000000

LOEWDIN ATOMIC CHARGES
----------------------
   0 C :   -0.028045
   1 C :    0.069284
   2 F :   -0.048532
   3 C :    0.070015
   4 F :   -0.048964
   5 C :   -0.031489
   6 C :   -0.009112
   7 C :   -0.006493
   8 C :    0.020938
   9 C :   -0.021709
  10 C :   -0.051472
  11 C :    0.032788
  12 C :    0.093959
  13 O :   -0.172967
  14 C :   -0.150103
  15 C :    0.083645
  16 C :   -0.155693
  17 C :   -0.005956
  18 N :   -0.060690
  19 C :   -0.008197
  20 N :   -0.047261
  21 C :    0.122926
  22 N :    0.079504
  23 C :   -0.118474
  24 S :    0.470553
  25 C :   -0.200770
  26 N :    0.275472
  27 O :   -0.213266
  28 O :   -0.225233
  29 C :    0.002659
  30 C :   -0.079606
  31 C :   -0.045243
  32 C :   -0.003041
  33 C :   -0.041940
  34 C :   -0.038955
  35 C :   -0.048775
  36 C :    0.048019
  37 N :    0.015290
  38 C :    0.054930
  39 C :   -0.136731
  40 C :   -0.032468
  41 C :   -0.184614
  42 C :   -0.017472
  43 C :   -0.069204
  44 C :   -0.166276
  45 S :    0.352856
  46 C :   -0.205679
  47 C :   -0.023338
  48 C :   -0.061020
  49 C :   -0.130819
  50 S :    0.339790
  51 C :   -0.081802
  52 C :   -0.010602
  53 C :   -0.015042
  54 C :   -0.028195
  55 C :   -0.019832
  56 C :   -0.007019
  57 C :   -0.016545
  58 C :   -0.018272
  59 C :   -0.018938
  60 C :   -0.018346
  61 C :   -0.008427
  62 C :   -0.016724
  63 C :   -0.027232
  64 C :   -0.028321
  65 C :   -0.017530
  66 C :   -0.017363
  67 C :   -0.049246
  68 H :    0.048304
  69 H :    0.045667
  70 H :    0.040633
  71 H :    0.041560
  72 H :    0.043684
  73 H :    0.084703
  74 H :    0.045537
  75 H :    0.030228
  76 H :    0.023202
  77 H :    0.030438
  78 H :    0.034871
  79 H :    0.027025
  80 H :    0.038819
  81 H :    0.022519
  82 H :    0.041854
  83 H :    0.078437
  84 H :    0.012721
  85 H :    0.017869
  86 H :    0.034043
  87 H :    0.030398
  88 H :    0.025922
  89 H :    0.029328
  90 H :    0.030862
  91 H :    0.023842
  92 H :    0.026545
  93 H :    0.020579
  94 H :    0.028156
  95 H :    0.025821
  96 H :    0.024480
  97 H :    0.026145
  98 H :    0.026459
  99 H :    0.025403
 100 H :    0.026227
 101 H :    0.019984
 102 H :    0.024152

  Mayer bond orders larger than 0.100000
B(  0-C ,  1-C ) :   1.4349 B(  0-C ,  5-C ) :   0.1082 B(  0-C ,  7-C ) :   1.1918
B(  0-C , 68-H ) :   1.0072 B(  1-C ,  2-F ) :   1.1360 B(  1-C ,  3-C ) :   1.1977
B(  3-C ,  4-F ) :   1.1350 B(  3-C ,  5-C ) :   1.4359 B(  5-C ,  6-C ) :   1.1970
B(  5-C , 69-H ) :   1.0072 B(  6-C ,  7-C ) :   1.2613 B(  6-C , 11-C ) :   1.1797
B(  7-C ,  8-C ) :   1.2059 B(  8-C ,  9-C ) :   1.4633 B(  8-C , 70-H ) :   0.9909
B(  9-C , 10-C ) :   1.2189 B(  9-C , 15-C ) :   0.9908 B( 10-C , 11-C ) :   1.4768
B( 10-C , 12-C ) :   0.9735 B( 11-C , 71-H ) :   1.0181 B( 12-C , 13-O ) :   2.0531
B( 12-C , 14-C ) :   0.9963 B( 13-O , 73-H ) :   0.1458 B( 14-C , 15-C ) :   1.1179
B( 14-C , 21-C ) :   1.4245 B( 15-C , 16-C ) :   1.5944 B( 16-C , 17-C ) :   1.1693
B( 16-C , 19-C ) :   1.1683 B( 17-C , 18-N ) :   2.8865 B( 19-C , 20-N ) :   2.9116
B( 21-C , 22-N ) :   1.3675 B( 21-C , 72-H ) :   0.9319 B( 22-N , 23-C ) :   1.1492
B( 22-N , 73-H ) :   0.8295 B( 23-C , 24-S ) :   1.1401 B( 23-C , 30-C ) :   1.3954
B( 24-S , 25-C ) :   1.0964 B( 25-C , 26-N ) :   0.9660 B( 25-C , 29-C ) :   1.4847
B( 26-N , 27-O ) :   1.5345 B( 26-N , 28-O ) :   1.5116 B( 27-O , 28-O ) :   0.2648
B( 29-C , 30-C ) :   1.2341 B( 29-C , 74-H ) :   1.0006 B( 30-C , 31-C ) :   1.0248
B( 31-C , 32-C ) :   1.7429 B( 31-C , 75-H ) :   0.9705 B( 32-C , 33-C ) :   1.1046
B( 32-C , 76-H ) :   0.9725 B( 33-C , 34-C ) :   1.7641 B( 33-C , 77-H ) :   0.9677
B( 34-C , 35-C ) :   1.0888 B( 34-C , 36-C ) :   1.0117 B( 35-C , 78-H ) :   0.9456
B( 35-C , 79-H ) :   0.9551 B( 35-C , 80-H ) :   0.9445 B( 36-C , 37-N ) :   1.0234
B( 36-C , 81-H ) :   0.9403 B( 36-C , 82-H ) :   0.9319 B( 37-N , 38-C ) :   1.2554
B( 37-N , 83-H ) :   0.9397 B( 38-C , 39-C ) :   1.5543 B( 38-C , 84-H ) :   0.9427
B( 39-C , 40-C ) :   1.2380 B( 39-C , 85-H ) :   0.9575 B( 40-C , 41-C ) :   1.5790
B( 40-C , 86-H ) :   0.9552 B( 41-C , 42-C ) :   1.1598 B( 41-C , 45-S ) :   1.0039
B( 42-C , 43-C ) :   1.5806 B( 42-C , 87-H ) :   0.9919 B( 43-C , 44-C ) :   1.1807
B( 43-C , 88-H ) :   0.9943 B( 44-C , 45-S ) :   1.0461 B( 44-C , 46-C ) :   1.5181
B( 46-C , 47-C ) :   1.1857 B( 46-C , 50-S ) :   1.0221 B( 47-C , 48-C ) :   1.6114
B( 47-C , 89-H ) :   0.9933 B( 48-C , 49-C ) :   1.1330 B( 48-C , 90-H ) :   0.9871
B( 49-C , 50-S ) :   1.0300 B( 49-C , 51-C ) :   1.6607 B( 51-C , 52-C ) :   1.0487
B( 51-C , 91-H ) :   0.9397 B( 52-C , 53-C ) :   1.4379 B( 52-C , 57-C ) :   1.2422
B( 53-C , 54-C ) :   1.2626 B( 53-C , 92-H ) :   0.9920 B( 54-C , 55-C ) :   1.3903
B( 54-C , 66-C ) :   1.0524 B( 55-C , 56-C ) :   1.2794 B( 55-C , 93-H ) :   0.9941
B( 56-C , 57-C ) :   1.2912 B( 56-C , 61-C ) :   1.0966 B( 57-C , 58-C ) :   1.1726
B( 58-C , 59-C ) :   1.5626 B( 58-C , 94-H ) :   0.9819 B( 59-C , 60-C ) :   1.1486
B( 59-C , 95-H ) :   0.9935 B( 60-C , 61-C ) :   1.3036 B( 60-C , 65-C ) :   1.2771
B( 61-C , 62-C ) :   1.3009 B( 62-C , 63-C ) :   1.4684 B( 62-C , 96-H ) :   0.9874
B( 63-C , 64-C ) :   1.2952 B( 63-C , 97-H ) :   0.9835 B( 64-C , 65-C ) :   1.4575
B( 64-C , 98-H ) :   0.9892 B( 65-C , 99-H ) :   0.9963 B( 66-C , 67-C ) :   1.9532
B( 66-C ,100-H ) :   0.9674 B( 67-C ,101-H ) :   0.9483 B( 67-C ,102-H ) :   0.9481

-----------------------------------------------------------------------------
         ABSORPTION SPECTRUM VIA TRANSITION ELECTRIC DIPOLE MOMENTS
-----------------------------------------------------------------------------
State   Energy  Wavelength   fosc         T2         TX        TY        TZ
        (cm-1)    (nm)                  (au**2)     (au)      (au)      (au)
-----------------------------------------------------------------------------
   0    5451.3   1834.4   0.004930858   0.29778   0.16007  -0.50210   0.14161
   1   12049.3    829.9   0.007887797   0.21551   0.05643  -0.36141   0.28585
   2   16399.4    609.8   1.352293831  27.14679   0.68653  -2.45871   4.54205
   3   17753.1    563.3   0.024016842   0.44537  -0.15864   0.18482  -0.62132
   4   19116.1    523.1   0.128973893   2.22115   0.84650   0.07973  -1.22402
   5   20201.7    495.0   0.084465940   1.37648  -0.55090   0.22112  -1.01198
   6   21164.5    472.5   0.460556890   7.16392   2.50590   0.56546  -0.75141
   7   24179.5    413.6   0.029047704   0.39549   0.44971   0.38173  -0.21802
   8   25422.7    393.3   0.038996691   0.50499   0.47054  -0.32263  -0.42366
   9   25792.9    387.7   0.004002711   0.05109   0.20760   0.05590   0.06975
  10   26433.9    378.3   0.031828710   0.39640  -0.25560   0.55914   0.13576
  11   26544.4    376.7   0.151152507   1.87464   1.34647   0.00400  -0.24829
  12   26738.2    374.0   0.031245175   0.38470  -0.20673  -0.00026   0.58478
  13   27818.0    359.5   0.109190588   1.29221  -0.10481  -1.12229   0.14728
  14   28117.9    355.6   0.145459069   1.70307   1.19343   0.29897   0.43522
  15   28984.5    345.0   0.043840356   0.49795  -0.61642   0.03510   0.34167
  16   29482.8    339.2   0.193617736   2.16198  -0.28473  -1.43622   0.13481
  17   29722.9    336.4   0.181679797   2.01229  -1.32571   0.02423   0.50419
  18   30112.8    332.1   0.014862738   0.16249   0.13647  -0.37929  -0.00170
  19   30551.3    327.3   0.297770713   3.20869  -1.64389   0.13260   0.69910
  20   31010.0    322.5   0.067735469   0.71910   0.82846   0.07583   0.16431
  21   31050.0    322.1   0.020411058   0.21641  -0.44394  -0.11076   0.08400
  22   31786.9    314.6   0.099736734   1.03296   0.94010  -0.29753  -0.24627
  23   31870.4    313.8   0.018566244   0.19178   0.03683  -0.43614  -0.01437
  24   32013.7    312.4   0.007974788   0.08201  -0.23482  -0.11555   0.11626
  25   32952.6    303.5   0.184820845   1.84645   1.32332  -0.14383  -0.27309
  26   33012.8    302.9   0.019186863   0.19134   0.18372  -0.27299  -0.28820
  27   33765.0    296.2   0.137635886   1.34196   0.98152   0.13279  -0.60079
  28   33859.6    295.3   0.267498429   2.60085  -1.33585   0.71999   0.54587
  29   34312.1    291.4   0.000195073   0.00187   0.02181   0.02036  -0.03133
  30   34420.1    290.5   0.071220031   0.68119  -0.29259   0.61370   0.46792
  31   34446.0    290.3   0.019449308   0.18588  -0.38236   0.16073   0.11768
  32   34591.6    289.1   0.038328862   0.36478   0.35732  -0.47625  -0.10140
  33   34640.3    288.7   0.499226910   4.74451   1.15423  -1.77409  -0.51465
  34   35158.3    284.4   0.009473146   0.08870  -0.12915  -0.05284   0.26312
  35   35512.3    281.6   0.008022025   0.07437   0.25065  -0.09795   0.04414
  36   35652.1    280.5   0.033173219   0.30632   0.25760   0.33121   0.36092
  37   36031.6    277.5   0.001604327   0.01466  -0.10337  -0.04907   0.03956
  38   36096.6    277.0   0.001598214   0.01458  -0.00569   0.11584   0.03355
  39   36257.8    275.8   0.006898227   0.06263   0.03181  -0.24638   0.03028
  40   36563.1    273.5   0.146660436   1.32052   0.57909  -0.97445  -0.18876
  41   36698.9    272.5   0.004652321   0.04173   0.14354   0.07467  -0.12472
  42   36981.9    270.4   0.161966537   1.44182   0.92225   0.69586   0.32719
  43   37050.6    269.9   0.007010568   0.06229   0.19066  -0.13712  -0.08450
  44   37417.8    267.3   0.016215992   0.14267  -0.17500  -0.30476  -0.13845
  45   37464.2    266.9   0.065183229   0.57279  -0.57380  -0.41097  -0.27321
  46   37558.1    266.3   0.222505851   1.95035   0.99274   0.38887   0.90200
  47   37563.4    266.2   0.038779505   0.33987  -0.26334   0.49179  -0.16931
  48   37892.6    263.9   0.035432339   0.30784  -0.32656   0.43444   0.11162
  49   38392.3    260.5   0.300632553   2.57791  -0.97065  -1.25906   0.22475
  50   38658.0    258.7   0.021408166   0.18231  -0.14509  -0.00832  -0.40149
  51   39458.2    253.4   0.088052937   0.73465  -0.64778  -0.15417  -0.53969
  52   39627.7    252.3   0.006567696   0.05456   0.00913   0.23334   0.00550

FINAL SINGLE POINT ENERGY     -4006.527291542672

DIPOLE MOMENT
-------------
                                X             Y             Z
Electronic contribution:     48.38713     -77.63121      24.56002
Nuclear contribution   :    -47.60460      76.29816     -22.95337
                        -----------------------------------------
Total Dipole Moment    :      0.78253      -1.33304       1.60665
                        -----------------------------------------
Magnitude (a.u.)       :      2.22951
Magnitude (Debye)      :      5.66695

Rotational constants in cm-1:     0.000933     0.000364     0.000308
Rotational constants in MHz :    27.958363    10.924769     9.239520

                             ****ORCA TERMINATED NORMALLY****
TOTAL RUN TIME: 0 days 0 hours 10 minutes 14 seconds 37 msec
