                         Program Version 4.2.0 -  RELEASE  -
|  1> # ORCA input file
|  2> # SCF done       -216.474783516336          0.000962321955
|  3> ! CAM-B3LYP def2-SVP def2/J RIJCOSX Grid4 TightSCF
|  4> %maxcore 5000
|  5> %tddft
|  6>     Mode sTDDFT
|  7>     Ethresh 5.0
|  8>     maxcore 5000
|  9> end
| 10>
| 11> %pal
| 12>   nprocs 6
| 13>   end
| 14> * xyz 0 1
| 15>    C        5.05174         4.68380         0.08300
| 16>    C        4.71656         6.00499         0.26336
| 17>    C        3.97788         6.90707        -0.57884
| 18>    O        3.73532         8.06264        -0.33376
| 19>    C        3.47233         6.27213        -1.90820
| 20>    F        4.49253         5.82881        -2.65985
| 21>    F        2.67563         5.21470        -1.67503
| 22>    F        2.78187         7.13798        -2.63964
| 23>    S        5.31229         6.61924         1.78471
| 24>    C        5.99345         5.11064         2.14585
| 25>    C        5.78983         4.15227         1.16523
| 26>    C        6.27468         2.80597         1.29203
| 27>    C        6.09739         1.83743         0.36565
| 28>    C        6.56430         0.49839         0.47731
| 29>    C        6.90527        -0.34457        -0.57324
| 30>    N        6.77987        -0.11020        -1.95384
| 31>    O        7.16955        -0.98759        -2.70439
| 32>    O        6.29247         0.94434        -2.32976
| 33>    C        7.48297        -1.55344        -0.05000
| 34>    C        7.54400        -1.45580         1.30233
| 35>    C        6.93430        -0.21756         1.70641
| 36>    C        6.57757         0.11240         3.00140
| 37>    C        5.39105         0.80165         3.40224
| 38>    C        5.23475         0.66424         4.75087
| 39>    C        6.35685        -0.04409         5.27698
| 40>    N        6.56652        -0.23200         6.65571
| 41>    O        5.62884         0.00651         7.39735
| 42>    O        7.66582        -0.60125         7.03234
| 43>    C        7.21610        -0.39454         4.23201
| 44>    C        8.47808        -0.99951         4.34082
| 45>    C        9.49578        -0.83280         3.43432
| 46>    C       10.72066        -1.50804         3.52745
| 47>    N       11.81335        -1.24548         2.73403
| 48>    C       11.88815        -0.28115         1.66143
| 49>    C       11.25088        -0.80886         0.37847
| 50>    C       12.90478        -2.06712         3.04769
| 51>    O       13.97874        -2.00518         2.48508
| 52>    C       12.42155        -2.91092         4.12613
| 53>    C       11.09302        -2.55268         4.39332
| 54>    C       10.59093        -3.42498         5.44192
| 55>    O        9.50374        -3.52149         5.96235
| 56>    N       11.69169        -4.23996         5.76655
| 57>    C       11.58076        -5.27191         6.77178
| 58>    C       11.33393        -6.64480         6.15258
| 59>    C       12.78611        -3.96663         4.98816
| 60>    C       14.00873        -4.65273         5.07639
| 61>    C       15.07623        -4.36544         4.26846
| 62>    C       16.30651        -5.05291         4.30551
| 63>    C       16.68859        -6.12397         5.09876
| 64>    C       18.01007        -6.51117         4.75878
| 65>    C       18.44831        -5.58655         3.69492
| 66>    C       17.42855        -4.72752         3.43696
| 67>    C       19.70078        -5.56919         3.07073
| 68>    N       20.72540        -5.53271         2.55251
| 69>    C       18.73999        -7.55477         5.28947
| 70>    C       20.03288        -7.99147         4.89794
| 71>    C       20.40242        -9.07510         5.66776
| 72>    C       19.31647        -9.34464         6.60282
| 73>    C       18.31510        -8.45519         6.38285
| 74>    C       17.10413        -8.40135         7.08014
| 75>    N       16.11211        -8.36839         7.65953
| 76>    C       21.58884        -9.85652         5.61324
| 77>    C       22.56634        -9.66030         4.69678
| 78>    C       23.80030       -10.37781         4.56849
| 79>    C       24.05615       -11.72556         4.87558
| 80>    C       23.13161       -12.75327         5.25149
| 81>    O       21.94473       -12.64290         5.46666
| 82>    C       23.74949       -14.18158         5.36742
| 83>    F       24.24388       -14.62138         4.19735
| 84>    F       24.75806       -14.22677         6.25670
| 85>    F       22.83827       -15.06296         5.76502
| 86>    S       25.71218       -12.14620         4.53028
| 87>    C       26.03933       -10.57507         3.97754
| 88>    C       24.95852        -9.73265         4.03057
| 89>    C       25.01028        -8.33118         3.63881
| 90>    C       25.86434        -7.83136         2.75453
| 91>    H        4.78906         4.11679        -0.79090
| 92>    H        6.51814         4.96903         3.07149
| 93>    H        6.82850         2.59733         2.19770
| 94>    H        5.63804         2.08111        -0.58252
| 95>    H        7.79541        -2.37513        -0.66590
| 96>    H        7.86184        -2.22192         1.98228
| 97>    H        4.68641         1.24061         2.72330
| 98>    H        4.42137         1.02177         5.35362
| 99>    H        8.66185        -1.57716         5.24048
|100>    H        9.37309        -0.12156         2.62952
|101>    H       12.95273        -0.09783         1.49200
|102>    H       11.41634         0.65256         1.97864
|103>    H       11.76350        -1.71060         0.05337
|104>    H       11.33476        -0.06281        -0.40653
|105>    H       10.19887        -1.04307         0.52726
|106>    H       10.72874        -4.99436         7.39814
|107>    H       12.48375        -5.27817         7.38710
|108>    H       10.40708        -6.63598         5.58431
|109>    H       11.25179        -7.38922         6.93898
|110>    H       12.14700        -6.92841         5.48800
|111>    H       14.09487        -5.43956         5.81119
|112>    H       14.98577        -3.56962         3.54026
|113>    H       16.09156        -6.61093         5.84339
|114>    H       17.42432        -3.92962         2.71764
|115>    H       20.60742        -7.53549         4.11701
|116>    H       19.32451       -10.13630         7.32894
|117>    H       21.68110       -10.63429         6.35513
|118>    H       22.45210        -8.84449         3.99520
|119>    H       27.03126       -10.32917         3.65195
|120>    H       24.29330        -7.67941         4.11769
|121>    H       26.58153        -8.44413         2.23516
|122>    H       25.85963        -6.78477         2.50611
|123> *
|124>
|125>                          ****END OF INPUT****

CARTESIAN COORDINATES (ANGSTROEM)
---------------------------------
  C      5.051740    4.683800    0.083000
  C      4.716560    6.004990    0.263360
  C      3.977880    6.907070   -0.578840
  O      3.735320    8.062640   -0.333760
  C      3.472330    6.272130   -1.908200
  F      4.492530    5.828810   -2.659850
  F      2.675630    5.214700   -1.675030
  F      2.781870    7.137980   -2.639640
  S      5.312290    6.619240    1.784710
  C      5.993450    5.110640    2.145850
  C      5.789830    4.152270    1.165230
  C      6.274680    2.805970    1.292030
  C      6.097390    1.837430    0.365650
  C      6.564300    0.498390    0.477310
  C      6.905270   -0.344570   -0.573240
  N      6.779870   -0.110200   -1.953840
  O      7.169550   -0.987590   -2.704390
  O      6.292470    0.944340   -2.329760
  C      7.482970   -1.553440   -0.050000
  C      7.544000   -1.455800    1.302330
  C      6.934300   -0.217560    1.706410
  C      6.577570    0.112400    3.001400
  C      5.391050    0.801650    3.402240
  C      5.234750    0.664240    4.750870
  C      6.356850   -0.044090    5.276980
  N      6.566520   -0.232000    6.655710
  O      5.628840    0.006510    7.397350
  O      7.665820   -0.601250    7.032340
  C      7.216100   -0.394540    4.232010
  C      8.478080   -0.999510    4.340820
  C      9.495780   -0.832800    3.434320
  C     10.720660   -1.508040    3.527450
  N     11.813350   -1.245480    2.734030
  C     11.888150   -0.281150    1.661430
  C     11.250880   -0.808860    0.378470
  C     12.904780   -2.067120    3.047690
  O     13.978740   -2.005180    2.485080
  C     12.421550   -2.910920    4.126130
  C     11.093020   -2.552680    4.393320
  C     10.590930   -3.424980    5.441920
  O      9.503740   -3.521490    5.962350
  N     11.691690   -4.239960    5.766550
  C     11.580760   -5.271910    6.771780
  C     11.333930   -6.644800    6.152580
  C     12.786110   -3.966630    4.988160
  C     14.008730   -4.652730    5.076390
  C     15.076230   -4.365440    4.268460
  C     16.306510   -5.052910    4.305510
  C     16.688590   -6.123970    5.098760
  C     18.010070   -6.511170    4.758780
  C     18.448310   -5.586550    3.694920
  C     17.428550   -4.727520    3.436960
  C     19.700780   -5.569190    3.070730
  N     20.725400   -5.532710    2.552510
  C     18.739990   -7.554770    5.289470
  C     20.032880   -7.991470    4.897940
  C     20.402420   -9.075100    5.667760
  C     19.316470   -9.344640    6.602820
  C     18.315100   -8.455190    6.382850
  C     17.104130   -8.401350    7.080140
  N     16.112110   -8.368390    7.659530
  C     21.588840   -9.856520    5.613240
  C     22.566340   -9.660300    4.696780
  C     23.800300  -10.377810    4.568490
  C     24.056150  -11.725560    4.875580
  C     23.131610  -12.753270    5.251490
  O     21.944730  -12.642900    5.466660
  C     23.749490  -14.181580    5.367420
  F     24.243880  -14.621380    4.197350
  F     24.758060  -14.226770    6.256700
  F     22.838270  -15.062960    5.765020
  S     25.712180  -12.146200    4.530280
  C     26.039330  -10.575070    3.977540
  C     24.958520   -9.732650    4.030570
  C     25.010280   -8.331180    3.638810
  C     25.864340   -7.831360    2.754530
  H      4.789060    4.116790   -0.790900
  H      6.518140    4.969030    3.071490
  H      6.828500    2.597330    2.197700
  H      5.638040    2.081110   -0.582520
  H      7.795410   -2.375130   -0.665900
  H      7.861840   -2.221920    1.982280
  H      4.686410    1.240610    2.723300
  H      4.421370    1.021770    5.353620
  H      8.661850   -1.577160    5.240480
  H      9.373090   -0.121560    2.629520
  H     12.952730   -0.097830    1.492000
  H     11.416340    0.652560    1.978640
  H     11.763500   -1.710600    0.053370
  H     11.334760   -0.062810   -0.406530
  H     10.198870   -1.043070    0.527260
  H     10.728740   -4.994360    7.398140
  H     12.483750   -5.278170    7.387100
  H     10.407080   -6.635980    5.584310
  H     11.251790   -7.389220    6.938980
  H     12.147000   -6.928410    5.488000
  H     14.094870   -5.439560    5.811190
  H     14.985770   -3.569620    3.540260
  H     16.091560   -6.610930    5.843390
  H     17.424320   -3.929620    2.717640
  H     20.607420   -7.535490    4.117010
  H     19.324510  -10.136300    7.328940
  H     21.681100  -10.634290    6.355130
  H     22.452100   -8.844490    3.995200
  H     27.031260  -10.329170    3.651950
  H     24.293300   -7.679410    4.117690
  H     26.581530   -8.444130    2.235160
  H     25.859630   -6.784770    2.506110

 Total Charge           Charge          ....    0
 Multiplicity           Mult            ....    1
 Number of Electrons    NEL             ....  548
 Basis Dimension        Dim             .... 1232

ORBITAL ENERGIES
----------------

  NO   OCC          E(Eh)            E(eV)
   0   2.0000     -88.989020     -2421.5143
   1   2.0000     -88.984462     -2421.3903
   2   2.0000     -24.811613      -675.1583
   3   2.0000     -24.811436      -675.1535
   4   2.0000     -24.811200      -675.1471
   5   2.0000     -24.809522      -675.1014
   6   2.0000     -24.807558      -675.0480
   7   2.0000     -24.805165      -674.9829
   8   2.0000     -19.242828      -523.6240
   9   2.0000     -19.240657      -523.5649
  10   2.0000     -19.240126      -523.5505
  11   2.0000     -19.235847      -523.4340
  12   2.0000     -19.234781      -523.4050
  13   2.0000     -19.234653      -523.4015
  14   2.0000     -19.208544      -522.6911
  15   2.0000     -19.203827      -522.5627
  16   2.0000     -14.649680      -398.6381
  17   2.0000     -14.644090      -398.4860
  18   2.0000     -14.467973      -393.6936
  19   2.0000     -14.465974      -393.6392
  20   2.0000     -14.415936      -392.2776
  21   2.0000     -14.414493      -392.2383
  22   2.0000     -10.522976      -286.3447
  23   2.0000     -10.520353      -286.2734
  24   2.0000     -10.396813      -282.9117
  25   2.0000     -10.393524      -282.8222
  26   2.0000     -10.389835      -282.7218
  27   2.0000     -10.387246      -282.6513
  28   2.0000     -10.357502      -281.8420
  29   2.0000     -10.350274      -281.6453
  30   2.0000     -10.337216      -281.2899
  31   2.0000     -10.336233      -281.2632
  32   2.0000     -10.332276      -281.1555
  33   2.0000     -10.331080      -281.1230
  34   2.0000     -10.330748      -281.1139
  35   2.0000     -10.330234      -281.1000
  36   2.0000     -10.328709      -281.0585
  37   2.0000     -10.326232      -280.9911
  38   2.0000     -10.325674      -280.9759
  39   2.0000     -10.322686      -280.8946
  40   2.0000     -10.322663      -280.8940
  41   2.0000     -10.322053      -280.8773
  42   2.0000     -10.321463      -280.8613
  43   2.0000     -10.320616      -280.8382
  44   2.0000     -10.318927      -280.7923
  45   2.0000     -10.318675      -280.7854
  46   2.0000     -10.318623      -280.7840
  47   2.0000     -10.317070      -280.7418
  48   2.0000     -10.316547      -280.7275
  49   2.0000     -10.314386      -280.6687
  50   2.0000     -10.314239      -280.6647
  51   2.0000     -10.313052      -280.6324
  52   2.0000     -10.311688      -280.5953
  53   2.0000     -10.311321      -280.5853
  54   2.0000     -10.310845      -280.5723
  55   2.0000     -10.308128      -280.4984
  56   2.0000     -10.307838      -280.4905
  57   2.0000     -10.307587      -280.4837
  58   2.0000     -10.307081      -280.4699
  59   2.0000     -10.305935      -280.4388
  60   2.0000     -10.304691      -280.4049
  61   2.0000     -10.302526      -280.3460
  62   2.0000     -10.301015      -280.3049
  63   2.0000     -10.300824      -280.2997
  64   2.0000     -10.300047      -280.2785
  65   2.0000     -10.298025      -280.2235
  66   2.0000     -10.294529      -280.1284
  67   2.0000     -10.292277      -280.0671
  68   2.0000     -10.291696      -280.0513
  69   2.0000     -10.289714      -279.9973
  70   2.0000     -10.288476      -279.9637
  71   2.0000     -10.282705      -279.8066
  72   2.0000     -10.279836      -279.7285
  73   2.0000     -10.279441      -279.7178
  74   2.0000     -10.270437      -279.4728
  75   2.0000     -10.269140      -279.4375
  76   2.0000      -8.084496      -219.9903
  77   2.0000      -8.080185      -219.8730
  78   2.0000      -6.053615      -164.7272
  79   2.0000      -6.049355      -164.6113
  80   2.0000      -6.049153      -164.6058
  81   2.0000      -6.047220      -164.5532
  82   2.0000      -6.044739      -164.4857
  83   2.0000      -6.042859      -164.4346
  84   2.0000      -1.400471       -38.1088
  85   2.0000      -1.398962       -38.0677
  86   2.0000      -1.319715       -35.9113
  87   2.0000      -1.314312       -35.7643
  88   2.0000      -1.303320       -35.4651
  89   2.0000      -1.302750       -35.4496
  90   2.0000      -1.301844       -35.4250
  91   2.0000      -1.300830       -35.3974
  92   2.0000      -1.160323       -31.5740
  93   2.0000      -1.153061       -31.3764
  94   2.0000      -1.149763       -31.2866
  95   2.0000      -1.142303       -31.0836
  96   2.0000      -1.136971       -30.9386
  97   2.0000      -1.131900       -30.8006
  98   2.0000      -1.079536       -29.3757
  99   2.0000      -1.070205       -29.1218
 100   2.0000      -1.023977       -27.8638
 101   2.0000      -1.022191       -27.8152
 102   2.0000      -1.014781       -27.6136
 103   2.0000      -1.011744       -27.5310
 104   2.0000      -1.006504       -27.3884
 105   2.0000      -1.001931       -27.2639
 106   2.0000      -0.992305       -27.0020
 107   2.0000      -0.987772       -26.8786
 108   2.0000      -0.942613       -25.6498
 109   2.0000      -0.928222       -25.2582
 110   2.0000      -0.925520       -25.1847
 111   2.0000      -0.922836       -25.1116
 112   2.0000      -0.919296       -25.0153
 113   2.0000      -0.913027       -24.8447
 114   2.0000      -0.905467       -24.6390
 115   2.0000      -0.885487       -24.0953
 116   2.0000      -0.883031       -24.0285
 117   2.0000      -0.880850       -23.9692
 118   2.0000      -0.876992       -23.8642
 119   2.0000      -0.865486       -23.5511
 120   2.0000      -0.865275       -23.5453
 121   2.0000      -0.857094       -23.3227
 122   2.0000      -0.853434       -23.2231
 123   2.0000      -0.850589       -23.1457
 124   2.0000      -0.831334       -22.6217
 125   2.0000      -0.829391       -22.5689
 126   2.0000      -0.823487       -22.4082
 127   2.0000      -0.817222       -22.2377
 128   2.0000      -0.807420       -21.9710
 129   2.0000      -0.803383       -21.8612
 130   2.0000      -0.794720       -21.6254
 131   2.0000      -0.781031       -21.2529
 132   2.0000      -0.770159       -20.9571
 133   2.0000      -0.769369       -20.9356
 134   2.0000      -0.748955       -20.3801
 135   2.0000      -0.745701       -20.2916
 136   2.0000      -0.735162       -20.0048
 137   2.0000      -0.732669       -19.9369
 138   2.0000      -0.727169       -19.7873
 139   2.0000      -0.721702       -19.6385
 140   2.0000      -0.719967       -19.5913
 141   2.0000      -0.719496       -19.5785
 142   2.0000      -0.710483       -19.3332
 143   2.0000      -0.706315       -19.2198
 144   2.0000      -0.693461       -18.8700
 145   2.0000      -0.691918       -18.8281
 146   2.0000      -0.690537       -18.7905
 147   2.0000      -0.683300       -18.5935
 148   2.0000      -0.681871       -18.5547
 149   2.0000      -0.681694       -18.5498
 150   2.0000      -0.680336       -18.5129
 151   2.0000      -0.675368       -18.3777
 152   2.0000      -0.673546       -18.3281
 153   2.0000      -0.664719       -18.0879
 154   2.0000      -0.661370       -17.9968
 155   2.0000      -0.654321       -17.8050
 156   2.0000      -0.651863       -17.7381
 157   2.0000      -0.648662       -17.6510
 158   2.0000      -0.642970       -17.4961
 159   2.0000      -0.632472       -17.2104
 160   2.0000      -0.631173       -17.1751
 161   2.0000      -0.630482       -17.1563
 162   2.0000      -0.626828       -17.0568
 163   2.0000      -0.626075       -17.0364
 164   2.0000      -0.619227       -16.8500
 165   2.0000      -0.615708       -16.7543
 166   2.0000      -0.611647       -16.6438
 167   2.0000      -0.609685       -16.5904
 168   2.0000      -0.602077       -16.3834
 169   2.0000      -0.599136       -16.3033
 170   2.0000      -0.595104       -16.1936
 171   2.0000      -0.590715       -16.0742
 172   2.0000      -0.583990       -15.8912
 173   2.0000      -0.583483       -15.8774
 174   2.0000      -0.576822       -15.6961
 175   2.0000      -0.571244       -15.5443
 176   2.0000      -0.570674       -15.5288
 177   2.0000      -0.562725       -15.3125
 178   2.0000      -0.562422       -15.3043
 179   2.0000      -0.561214       -15.2714
 180   2.0000      -0.560341       -15.2477
 181   2.0000      -0.560097       -15.2410
 182   2.0000      -0.558506       -15.1977
 183   2.0000      -0.555162       -15.1067
 184   2.0000      -0.554025       -15.0758
 185   2.0000      -0.550851       -14.9894
 186   2.0000      -0.542515       -14.7626
 187   2.0000      -0.540393       -14.7048
 188   2.0000      -0.540227       -14.7003
 189   2.0000      -0.539817       -14.6892
 190   2.0000      -0.536404       -14.5963
 191   2.0000      -0.535660       -14.5761
 192   2.0000      -0.535428       -14.5697
 193   2.0000      -0.534611       -14.5475
 194   2.0000      -0.532578       -14.4922
 195   2.0000      -0.529032       -14.3957
 196   2.0000      -0.527043       -14.3416
 197   2.0000      -0.526253       -14.3201
 198   2.0000      -0.524808       -14.2807
 199   2.0000      -0.523520       -14.2457
 200   2.0000      -0.521601       -14.1935
 201   2.0000      -0.518933       -14.1209
 202   2.0000      -0.516093       -14.0436
 203   2.0000      -0.515035       -14.0148
 204   2.0000      -0.514022       -13.9872
 205   2.0000      -0.511753       -13.9255
 206   2.0000      -0.510226       -13.8840
 207   2.0000      -0.508704       -13.8425
 208   2.0000      -0.506508       -13.7828
 209   2.0000      -0.500246       -13.6124
 210   2.0000      -0.499171       -13.5831
 211   2.0000      -0.496931       -13.5222
 212   2.0000      -0.495726       -13.4894
 213   2.0000      -0.495253       -13.4765
 214   2.0000      -0.495159       -13.4740
 215   2.0000      -0.493849       -13.4383
 216   2.0000      -0.492214       -13.3938
 217   2.0000      -0.488679       -13.2976
 218   2.0000      -0.486940       -13.2503
 219   2.0000      -0.486677       -13.2431
 220   2.0000      -0.485630       -13.2147
 221   2.0000      -0.484578       -13.1860
 222   2.0000      -0.481089       -13.0911
 223   2.0000      -0.480394       -13.0722
 224   2.0000      -0.478077       -13.0091
 225   2.0000      -0.475494       -12.9389
 226   2.0000      -0.473341       -12.8803
 227   2.0000      -0.471477       -12.8295
 228   2.0000      -0.467625       -12.7247
 229   2.0000      -0.464940       -12.6517
 230   2.0000      -0.462555       -12.5868
 231   2.0000      -0.459930       -12.5153
 232   2.0000      -0.455849       -12.4043
 233   2.0000      -0.454827       -12.3765
 234   2.0000      -0.452216       -12.3054
 235   2.0000      -0.448874       -12.2145
 236   2.0000      -0.446870       -12.1599
 237   2.0000      -0.446001       -12.1363
 238   2.0000      -0.444498       -12.0954
 239   2.0000      -0.442779       -12.0486
 240   2.0000      -0.441179       -12.0051
 241   2.0000      -0.438974       -11.9451
 242   2.0000      -0.434769       -11.8307
 243   2.0000      -0.434458       -11.8222
 244   2.0000      -0.430131       -11.7044
 245   2.0000      -0.423005       -11.5106
 246   2.0000      -0.410038       -11.1577
 247   2.0000      -0.405995       -11.0477
 248   2.0000      -0.403032       -10.9671
 249   2.0000      -0.390721       -10.6320
 250   2.0000      -0.388604       -10.5745
 251   2.0000      -0.386715       -10.5230
 252   2.0000      -0.380337       -10.3495
 253   2.0000      -0.379324       -10.3219
 254   2.0000      -0.375476       -10.2172
 255   2.0000      -0.371354       -10.1050
 256   2.0000      -0.367227        -9.9927
 257   2.0000      -0.365988        -9.9590
 258   2.0000      -0.362876        -9.8744
 259   2.0000      -0.361079        -9.8254
 260   2.0000      -0.358347        -9.7511
 261   2.0000      -0.351893        -9.5755
 262   2.0000      -0.347013        -9.4427
 263   2.0000      -0.344753        -9.3812
 264   2.0000      -0.343364        -9.3434
 265   2.0000      -0.340883        -9.2759
 266   2.0000      -0.331295        -9.0150
 267   2.0000      -0.329251        -8.9594
 268   2.0000      -0.312489        -8.5033
 269   2.0000      -0.311469        -8.4755
 270   2.0000      -0.306781        -8.3479
 271   2.0000      -0.284417        -7.7394
 272   2.0000      -0.280486        -7.6324
 273   2.0000      -0.240659        -6.5487
 274   0.0000      -0.148172        -4.0320
 275   0.0000      -0.131546        -3.5796
 276   0.0000      -0.086394        -2.3509
 277   0.0000      -0.066138        -1.7997
 278   0.0000      -0.060669        -1.6509

MULLIKEN ATOMIC CHARGES
-----------------------
   0 C :    0.074061
   1 C :   -0.233456
   2 C :    0.070284
   3 O :   -0.132547
   4 C :    0.470895
   5 F :   -0.164765
   6 F :   -0.168045
   7 F :   -0.130681
   8 S :    0.215015
   9 C :   -0.091416
  10 C :    0.069021
  11 C :    0.015717
  12 C :   -0.036825
  13 C :    0.049113
  14 C :    0.072402
  15 N :    0.274159
  16 O :   -0.245638
  17 O :   -0.253501
  18 C :    0.022678
  19 C :    0.003505
  20 C :   -0.004756
  21 C :    0.019839
  22 C :   -0.009104
  23 C :    0.017680
  24 C :    0.091646
  25 N :    0.271252
  26 O :   -0.252558
  27 O :   -0.242849
  28 C :    0.040353
  29 C :   -0.022453
  30 C :   -0.051343
  31 C :    0.141984
  32 N :   -0.256073
  33 C :    0.096960
  34 C :    0.007518
  35 C :    0.171632
  36 O :   -0.209683
  37 C :   -0.079553
  38 C :   -0.058862
  39 C :    0.165795
  40 O :   -0.177332
  41 N :   -0.257659
  42 C :    0.090385
  43 C :    0.005555
  44 C :    0.168298
  45 C :   -0.023159
  46 C :    0.007213
  47 C :    0.110041
  48 C :   -0.117526
  49 C :    0.113837
  50 C :   -0.090440
  51 C :    0.001405
  52 C :   -0.170081
  53 N :    0.126186
  54 C :    0.119251
  55 C :   -0.119832
  56 C :    0.089922
  57 C :    0.006497
  58 C :   -0.094504
  59 C :   -0.167738
  60 N :    0.123498
  61 C :    0.061074
  62 C :   -0.060702
  63 C :    0.158602
  64 C :   -0.219033
  65 C :    0.037177
  66 O :   -0.157256
  67 C :    0.461614
  68 F :   -0.165660
  69 F :   -0.169759
  70 F :   -0.134167
  71 S :    0.192149
  72 C :   -0.104002
  73 C :    0.067275
  74 C :   -0.025494
  75 C :   -0.008461
  76 H :    0.027961
  77 H :    0.036936
  78 H :   -0.000108
  79 H :    0.020115
  80 H :    0.006903
  81 H :    0.008549
  82 H :    0.002970
  83 H :    0.006997
  84 H :    0.049077
  85 H :   -0.000990
  86 H :    0.044429
  87 H :    0.022789
  88 H :    0.028581
  89 H :    0.028629
  90 H :    0.010070
  91 H :    0.049961
  92 H :    0.034791
  93 H :    0.028529
  94 H :    0.034482
  95 H :    0.017279
  96 H :   -0.010625
  97 H :    0.007653
  98 H :    0.003084
  99 H :    0.012575
 100 H :    0.001557
 101 H :    0.007291
 102 H :   -0.000571
 103 H :    0.019862
 104 H :    0.036625
 105 H :    0.014298
 106 H :    0.018927
 107 H :    0.036805
Sum of atomic charges:   -0.0000000

LOEWDIN ATOMIC CHARGES
----------------------
   0 C :    0.003381
   1 C :   -0.226665
   2 C :    0.012416
   3 O :   -0.107252
   4 C :    0.140276
   5 F :   -0.057578
   6 F :   -0.060773
   7 F :   -0.030871
   8 S :    0.512930
   9 C :   -0.150496
  10 C :   -0.075449
  11 C :    0.011900
  12 C :   -0.026285
  13 C :    0.006865
  14 C :   -0.049252
  15 N :    0.285365
  16 O :   -0.210448
  17 O :   -0.217705
  18 C :    0.006167
  19 C :   -0.042535
  20 C :    0.035664
  21 C :    0.041890
  22 C :   -0.046863
  23 C :    0.018574
  24 C :   -0.047661
  25 N :    0.283032
  26 O :   -0.217091
  27 O :   -0.206803
  28 C :   -0.001493
  29 C :    0.027294
  30 C :   -0.021620
  31 C :    0.060334
  32 N :    0.003151
  33 C :    0.037702
  34 C :   -0.063579
  35 C :    0.078179
  36 O :   -0.199892
  37 C :   -0.114936
  38 C :   -0.096221
  39 C :    0.082400
  40 O :   -0.168790
  41 N :    0.003718
  42 C :    0.037787
  43 C :   -0.059222
  44 C :    0.084999
  45 C :   -0.028213
  46 C :    0.037054
  47 C :   -0.025434
  48 C :   -0.010698
  49 C :    0.032060
  50 C :   -0.084086
  51 C :    0.060055
  52 C :   -0.027739
  53 N :   -0.068216
  54 C :    0.045750
  55 C :   -0.027104
  56 C :   -0.008176
  57 C :    0.061479
  58 C :   -0.084358
  59 C :   -0.027194
  60 N :   -0.070161
  61 C :    0.011602
  62 C :   -0.000917
  63 C :   -0.004063
  64 C :   -0.235700
  65 C :    0.014553
  66 O :   -0.118661
  67 C :    0.126743
  68 F :   -0.063615
  69 F :   -0.065841
  70 F :   -0.034101
  71 S :    0.502031
  72 C :   -0.152167
  73 C :   -0.058533
  74 C :   -0.027453
  75 C :   -0.022516
  76 H :    0.038306
  77 H :    0.030882
  78 H :    0.032195
  79 H :    0.036283
  80 H :    0.038508
  81 H :    0.033626
  82 H :    0.032200
  83 H :    0.040042
  84 H :    0.045697
  85 H :    0.031866
  86 H :    0.038190
  87 H :    0.023321
  88 H :    0.032485
  89 H :    0.033141
  90 H :    0.020798
  91 H :    0.040862
  92 H :    0.027708
  93 H :    0.031730
  94 H :    0.035660
  95 H :    0.022838
  96 H :    0.035735
  97 H :    0.038810
  98 H :    0.031946
  99 H :    0.042775
 100 H :    0.032040
 101 H :    0.040752
 102 H :    0.033158
 103 H :    0.037933
 104 H :    0.030426
 105 H :    0.034612
 106 H :    0.022503
 107 H :    0.032049

  Mayer bond orders larger than 0.100000
B(  0-C ,  1-C ) :   1.5234 B(  0-C , 10-C ) :   1.2489 B(  0-C , 76-H ) :   0.9678
B(  1-C ,  2-C ) :   0.9929 B(  1-C ,  8-S ) :   1.1245 B(  2-C ,  3-O ) :   2.2323
B(  2-C ,  4-C ) :   0.8791 B(  4-C ,  5-F ) :   1.1280 B(  4-C ,  6-F ) :   1.1237
B(  4-C ,  7-F ) :   1.1965 B(  8-S ,  9-C ) :   1.2310 B(  9-C , 10-C ) :   1.4634
B(  9-C , 77-H ) :   0.9692 B( 10-C , 11-C ) :   1.0962 B( 11-C , 12-C ) :   1.6298
B( 11-C , 78-H ) :   0.9764 B( 12-C , 13-C ) :   1.1591 B( 12-C , 79-H ) :   0.9437
B( 13-C , 14-C ) :   1.5111 B( 13-C , 20-C ) :   1.0261 B( 14-C , 15-N ) :   0.9510
B( 14-C , 18-C ) :   1.1392 B( 15-N , 16-O ) :   1.5360 B( 15-N , 17-O ) :   1.4922
B( 16-O , 17-O ) :   0.2599 B( 18-C , 19-C ) :   1.5519 B( 18-C , 80-H ) :   1.0103
B( 19-C , 20-C ) :   1.1547 B( 19-C , 81-H ) :   0.9958 B( 20-C , 21-C ) :   1.4565
B( 21-C , 22-C ) :   1.1657 B( 21-C , 28-C ) :   1.0091 B( 22-C , 23-C ) :   1.5337
B( 22-C , 82-H ) :   1.0032 B( 23-C , 24-C ) :   1.1573 B( 23-C , 83-H ) :   1.0123
B( 24-C , 25-N ) :   0.9479 B( 24-C , 28-C ) :   1.4590 B( 25-N , 26-O ) :   1.5200
B( 25-N , 27-O ) :   1.5017 B( 26-O , 27-O ) :   0.2618 B( 28-C , 29-C ) :   1.2247
B( 29-C , 30-C ) :   1.4825 B( 29-C , 84-H ) :   0.9290 B( 30-C , 31-C ) :   1.2174
B( 30-C , 85-H ) :   0.9486 B( 31-C , 32-N ) :   1.1524 B( 31-C , 38-C ) :   1.2983
B( 32-N , 33-C ) :   0.9425 B( 32-N , 35-C ) :   1.0718 B( 33-C , 34-C ) :   1.1219
B( 33-C , 86-H ) :   0.9281 B( 33-C , 87-H ) :   0.9486 B( 34-C , 88-H ) :   0.9590
B( 34-C , 89-H ) :   0.9650 B( 34-C , 90-H ) :   0.9664 B( 35-C , 36-O ) :   2.0196
B( 35-C , 37-C ) :   0.9854 B( 36-O , 97-H ) :   0.1175 B( 37-C , 38-C ) :   1.3138
B( 37-C , 44-C ) :   1.2670 B( 38-C , 39-C ) :   0.9646 B( 39-C , 40-O ) :   2.0844
B( 39-C , 41-N ) :   1.0449 B( 41-N , 42-C ) :   0.9382 B( 41-N , 44-C ) :   1.1774
B( 42-C , 43-C ) :   1.1216 B( 42-C , 91-H ) :   0.9287 B( 42-C , 92-H ) :   0.9498
B( 43-C , 93-H ) :   0.9639 B( 43-C , 94-H ) :   0.9676 B( 43-C , 95-H ) :   0.9683
B( 44-C , 45-C ) :   1.1891 B( 45-C , 46-C ) :   1.5365 B( 45-C , 96-H ) :   0.9678
B( 46-C , 47-C ) :   1.1278 B( 46-C , 97-H ) :   0.9550 B( 47-C , 48-C ) :   1.4967
B( 47-C , 51-C ) :   1.0395 B( 48-C , 49-C ) :   1.1488 B( 48-C , 98-H ) :   0.9946
B( 49-C , 50-C ) :   1.1042 B( 49-C , 54-C ) :   1.3877 B( 50-C , 51-C ) :   1.6549
B( 50-C , 52-C ) :   1.0881 B( 51-C , 99-H ) :   1.0285 B( 52-C , 53-N ) :   2.9646
B( 54-C , 55-C ) :   1.1466 B( 54-C , 58-C ) :   1.0976 B( 55-C , 56-C ) :   1.5315
B( 55-C ,100-H ) :   0.9936 B( 56-C , 57-C ) :   1.0326 B( 56-C , 61-C ) :   1.1230
B( 57-C , 58-C ) :   1.6627 B( 57-C ,101-H ) :   1.0253 B( 58-C , 59-C ) :   1.0918
B( 59-C , 60-N ) :   2.9587 B( 61-C , 62-C ) :   1.6865 B( 61-C ,102-H ) :   0.9616
B( 62-C , 63-C ) :   1.1043 B( 62-C ,103-H ) :   0.9523 B( 63-C , 64-C ) :   1.4067
B( 63-C , 73-C ) :   1.2589 B( 64-C , 65-C ) :   1.0522 B( 64-C , 71-S ) :   1.1361
B( 65-C , 66-O ) :   2.1483 B( 65-C , 67-C ) :   0.8832 B( 67-C , 68-F ) :   1.1353
B( 67-C , 69-F ) :   1.1271 B( 67-C , 70-F ) :   1.1924 B( 71-S , 72-C ) :   1.2167
B( 72-C , 73-C ) :   1.5018 B( 72-C ,104-H ) :   0.9656 B( 73-C , 74-C ) :   1.0475
B( 74-C , 75-C ) :   1.9778 B( 74-C ,105-H ) :   0.9543 B( 75-C ,106-H ) :   0.9602
B( 75-C ,107-H ) :   0.9475

-----------------------------------------------------------------------------
         ABSORPTION SPECTRUM VIA TRANSITION ELECTRIC DIPOLE MOMENTS
-----------------------------------------------------------------------------
State   Energy  Wavelength   fosc         T2         TX        TY        TZ
        (cm-1)    (nm)                  (au**2)     (au)      (au)      (au)
-----------------------------------------------------------------------------
   0    5730.9   1744.9   0.457859491  26.30160  -3.97821   3.01235  -1.18372
   1   10048.0    995.2   0.241680928   7.91840   2.19035  -1.75121   0.23245
   2   12304.0    812.7   0.020223040   0.54110  -0.31750  -0.66170   0.04945
   3   14233.2    702.6   0.138440587   3.20212  -1.29084   1.23212  -0.13307
   4   17249.0    579.7   0.083786297   1.59913   0.85550  -0.92755   0.08315
   5   17676.0    565.7   0.006903491   0.12858  -0.35538  -0.04667   0.01005
   6   18741.8    533.6   0.045183747   0.79368  -0.82351   0.33691  -0.04473
   7   21964.9    455.3   0.055180183   0.82705   0.88874   0.16247   0.10390
   8   22316.2    448.1   0.347498355   5.12634  -1.92665   1.17690   0.17105
   9   22944.0    435.8   0.004305780   0.06178  -0.20650   0.13658  -0.02205
  10   23055.7    433.7   0.020872825   0.29804  -0.52565   0.02143   0.14586
  11   24166.1    413.8   0.286016522   3.89637   1.31008  -1.45586   0.24601
  12   24743.5    404.1   0.005186815   0.06901  -0.05553  -0.02068   0.25593
  13   25189.3    397.0   0.041002461   0.53588  -0.14385  -0.16372  -0.69885
  14   25474.4    392.6   0.214371846   2.77038   0.52719  -1.49509   0.50709
  15   25888.0    386.3   0.004848709   0.06166   0.06423   0.23129  -0.06357
  16   26078.5    383.5   0.144425785   1.82321  -1.25066   0.38216   0.33619
  17   26145.5    382.5   0.058371444   0.73499   0.80545  -0.26479   0.12699
  18   26898.2    371.8   0.114376004   1.39987   0.62514  -0.99698  -0.12292
  19   27369.7    365.4   0.089385372   1.07516   0.82249  -0.09270  -0.62456
  20   27440.8    364.4   0.028486526   0.34176   0.08831  -0.57341  -0.07183
  21   27892.4    358.5   0.003130676   0.03695   0.16284   0.02279   0.09957
  22   27967.5    357.6   0.051797573   0.60972   0.15014  -0.66359  -0.38317
  23   28169.9    355.0   0.007965865   0.09309   0.19544   0.04966   0.22898
  24   28562.3    350.1   0.069520098   0.80130   0.60753  -0.58715   0.29574
  25   28876.4    346.3   0.029329796   0.33438  -0.13489  -0.13099  -0.54684
  26   29463.0    339.4   0.069827757   0.78024  -0.06790  -0.00751  -0.88067
  27   29907.7    334.4   0.140719366   1.54898   0.15070   0.21879  -1.21590
  28   29951.2    333.9   0.031821922   0.34977  -0.30195   0.23454  -0.45121
  29   30227.5    330.8   0.009260176   0.10085   0.03235  -0.13575  -0.28527
  30   31115.9    321.4   0.034372516   0.36367  -0.53429  -0.27723   0.03666
  31   31306.3    319.4   0.013401688   0.14093   0.11263  -0.31869  -0.16335
  32   31389.4    318.6   0.004489682   0.04709  -0.10100   0.15855   0.10839
  33   31553.8    316.9   0.082278702   0.85844   0.83473  -0.14873  -0.37356
  34   31843.9    314.0   0.063216296   0.65355  -0.69283   0.35270   0.22165
  35   32177.6    310.8   0.073036103   0.74724  -0.51064   0.58725   0.37632
  36   32588.8    306.9   0.186923058   1.88830   0.99940  -0.49474  -0.80295
  37   32693.3    305.9   0.085189618   0.85783  -0.23202  -0.13434   0.88654
  38   32877.6    304.2   0.158007471   1.58217  -0.49782   0.60569   0.98361
  39   33037.2    302.7   0.033442428   0.33325   0.33553   0.40218   0.24273
  40   33348.6    299.9   0.015125334   0.14931   0.12883  -0.31002  -0.19132
  41   33489.0    298.6   0.265312739   2.60815  -0.15781   0.48759   1.53150
  42   34077.7    293.4   0.001678969   0.01622  -0.04077  -0.10879   0.05217
  43   34257.8    291.9   0.076326764   0.73349   0.78378  -0.30634  -0.15915
  44   34302.7    291.5   0.011516854   0.11053   0.01294  -0.32768   0.05468
  45   34425.8    290.5   0.084090007   0.80415  -0.13250   0.34047   0.81894
  46   34731.2    287.9   0.289287615   2.74212  -0.43679   0.73668   1.41727
  47   34895.1    286.6   0.028763317   0.27136  -0.33852  -0.38856  -0.07605
  48   34983.9    285.8   0.005974950   0.05623  -0.09241   0.07422   0.20537
  49   35625.7    280.7   0.117793581   1.08851  -0.62937  -0.56375   0.61204
  50   36181.4    276.4   0.007880579   0.07170  -0.00803  -0.11544   0.24148
  51   36320.3    275.3   0.007254969   0.06576  -0.06078   0.18300   0.16904
  52   36356.5    275.1   0.031324959   0.28365  -0.20059   0.03132   0.49237
  53   36471.0    274.2   0.038531843   0.34781   0.45001  -0.27873  -0.26002
  54   36687.1    272.6   0.002727031   0.02447  -0.07179   0.02992   0.13573
  55   36721.6    272.3   0.011157519   0.10003   0.30509  -0.08292  -0.00859
  56   36919.1    270.9   0.005048495   0.04502  -0.03644   0.03359   0.20631
  57   37129.2    269.3   0.050733226   0.44983   0.32489   0.41911  -0.41064
  58   37489.4    266.7   0.019403265   0.17039   0.07201  -0.32600   0.24276
  59   38341.5    260.8   0.043057684   0.36971  -0.43492  -0.18692  -0.38159
  60   38579.9    259.2   0.019648494   0.16767  -0.21261   0.01562  -0.34960
  61   38976.7    256.6   0.006278744   0.05303   0.15643  -0.13604  -0.10029
  62   39279.2    254.6   0.012916461   0.10826   0.06682  -0.32206   0.00838
  63   39358.1    254.1   0.127946525   1.07021  -0.98584  -0.05354   0.30896
  64   39504.4    253.1   0.024384485   0.20321  -0.16714   0.32786  -0.26035
  65   39889.5    250.7   0.001374897   0.01135  -0.01123   0.06126  -0.08642
  66   40023.4    249.9   0.009947058   0.08182   0.01984  -0.03060  -0.28371
  67   40176.8    248.9   0.096445248   0.79028  -0.79837   0.13511   0.36692
  68   40265.1    248.4   0.012244393   0.10011  -0.04660  -0.03808   0.31063

FINAL SINGLE POINT ENERGY     -4397.788503290828

DIPOLE MOMENT
-------------
                                X             Y             Z
Electronic contribution:     -5.38737       1.09856     -14.94389
Nuclear contribution   :      8.20704      -1.36972      15.54075
                        -----------------------------------------
Total Dipole Moment    :      2.81967      -0.27116       0.59686
                        -----------------------------------------
Magnitude (a.u.)       :      2.89488
Magnitude (Debye)      :      7.35819

Rotational constants in cm-1:     0.002009     0.000165     0.000159
Rotational constants in MHz :    60.238229     4.936829     4.754973

                             ****ORCA TERMINATED NORMALLY****
TOTAL RUN TIME: 0 days 0 hours 11 minutes 56 seconds 353 msec
