                         Program Version 4.2.0 -  RELEASE  -
|  1> # ORCA input file
|  2> # SCF done       -202.948742564343          0.000898064541
|  3> ! CAM-B3LYP def2-SVP def2/J RIJCOSX Grid4 TightSCF
|  4> %maxcore 5000
|  5> %tddft
|  6>     Mode sTDDFT
|  7>     Ethresh 5.0
|  8>     maxcore 5000
|  9> end
| 10>
| 11> %pal
| 12>   nprocs 6
| 13>   end
| 14> * xyz 0 1
| 15>    C       -3.60847         6.81800        -0.49440
| 16>    C       -3.20341         6.78581         0.81186
| 17>    C       -4.05981         7.04476         1.90273
| 18>    N       -4.72838         7.22853         2.81644
| 19>    C       -1.86061         6.57804         1.18748
| 20>    N       -0.76627         6.43866         1.50253
| 21>    C       -4.90210         7.29100        -0.97195
| 22>    C       -4.76729         7.68309        -2.33735
| 23>    C       -5.81520         8.20698        -3.03986
| 24>    C       -7.06726         8.35235        -2.40251
| 25>    C       -7.21209         7.94809        -1.04274
| 26>    C       -6.10829         7.41728        -0.33680
| 27>    C       -8.46943         8.09210        -0.42194
| 28>    C       -9.53321         8.61174        -1.10826
| 29>    C       -9.38965         9.01010        -2.44594
| 30>    C       -8.18295         8.88409        -3.07912
| 31>    C       -3.39667         7.41034        -2.78915
| 32>    O       -2.88608         7.66000        -3.85507
| 33>    C       -2.75246         6.66402        -1.65664
| 34>    C       -1.65628         5.92788        -1.93964
| 35>    C       -1.03130         4.85263        -1.23303
| 36>    C       -1.48017         4.10668        -0.15830
| 37>    O       -0.59885         3.19002         0.19921
| 38>    C        0.46382         3.31037        -0.61590
| 39>    N        1.52152         2.37224        -0.45850
| 40>    O        2.38407         2.36590        -1.31277
| 41>    O        1.45837         1.62672         0.48918
| 42>    C        0.25685         4.30458        -1.55462
| 43>    C        1.22497         4.74061        -2.53479
| 44>    N        1.01830         4.89452        -3.87948
| 45>    C       -0.11480         4.41080        -4.64357
| 46>    C       -0.72431         5.48499        -5.54035
| 47>    C        2.22103         5.28768        -4.53252
| 48>    O        2.32168         5.42243        -5.73211
| 49>    C        3.17474         5.42956        -3.45977
| 50>    C        2.53372         5.07414        -2.25178
| 51>    C        3.51549         5.14600        -1.18738
| 52>    O        3.43166         4.95121         0.00130
| 53>    N        4.70772         5.52821        -1.84289
| 54>    C        5.92702         5.63300        -1.07676
| 55>    C        6.71801         4.32718        -1.10328
| 56>    C        4.52249         5.68511        -3.19480
| 57>    C        5.43316         6.03929        -4.21990
| 58>    C        6.78890         6.14865        -4.19009
| 59>    C        7.56968         6.50271        -5.31873
| 60>    C        8.94850         6.50956        -5.36673
| 61>    C        9.37577         6.90843        -6.66495
| 62>    C        8.14134         7.17430        -7.43155
| 63>    C        7.07823         6.91990        -6.62774
| 64>    C        8.05267         7.60157        -8.76191
| 65>    N        7.94306         7.95200        -9.85016
| 66>    C       10.66491         6.99262        -7.13533
| 67>    C       11.08624         7.37273        -8.44971
| 68>    C       12.44682         7.21261        -8.54827
| 69>    C       12.94707         6.78158        -7.24883
| 70>    C       11.89302         6.66005        -6.39852
| 71>    C       11.98694         6.29900        -5.05004
| 72>    N       12.08691         6.01207        -3.94208
| 73>    C       13.22932         7.43752        -9.71955
| 74>    C       14.28887         6.67759       -10.10096
| 75>    C       15.17538         6.89532       -11.23112
| 76>    C       15.32647         8.06858       -11.92060
| 77>    C       16.22620         8.24369       -12.99313
| 78>    N       16.93701         8.44095       -13.87242
| 79>    C       14.63482         9.26247       -11.62396
| 80>    N       14.12226        10.26839       -11.41776
| 81>    C       15.93537         5.67023       -11.43974
| 82>    C       15.58866         4.73756       -10.41925
| 83>    C       14.57202         5.32751        -9.53523
| 84>    O       14.02090         4.79718        -8.59515
| 85>    C       16.14550         3.49203       -10.36074
| 86>    C       17.09191         3.11446       -11.33897
| 87>    C       17.44092         4.03956       -12.36564
| 88>    C       16.84818         5.32238       -12.40050
| 89>    C       18.38130         3.64860       -13.34046
| 90>    C       18.95025         2.40459       -13.30473
| 91>    C       18.60582         1.49480       -12.29377
| 92>    C       17.69718         1.84238       -11.33116
| 93>    H       -5.69033         8.50578        -4.06995
| 94>    H       -6.24645         7.11084         0.68850
| 95>    H       -8.57467         7.78753         0.60885
| 96>    H      -10.49178         8.71915        -0.62357
| 97>    H      -10.23989         9.41704        -2.97211
| 98>    H       -8.06629         9.18930        -4.10854
| 99>    H       -1.21210         6.15157        -2.90247
|100>    H       -2.41447         4.11880         0.36892
|101>    H       -0.85529         4.00905        -3.94773
|102>    H        0.24214         3.59128        -5.27865
|103>    H       -1.12383         6.32266        -4.97455
|104>    H       -1.53445         5.04734        -6.11723
|105>    H        0.02959         5.85759        -6.22715
|106>    H        5.61908         5.84189        -0.04775
|107>    H        6.51688         6.47603        -1.44313
|108>    H        6.12352         3.53377        -0.65753
|109>    H        7.63539         4.43877        -0.53209
|110>    H        6.96836         4.03497        -2.12074
|111>    H        4.92791         6.19765        -5.16412
|112>    H        7.35297         5.93679        -3.29471
|113>    H        9.60673         6.24743        -4.56163
|114>    H        6.04531         7.01587        -6.90484
|115>    H       10.42867         7.67174        -9.24266
|116>    H       13.98158         6.64514        -7.00004
|117>    H       12.89529         8.24458       -10.36074
|118>    H       15.86543         2.80293        -9.57780
|119>    H       17.12567         5.99731       -13.19472
|120>    H       18.64392         4.35256       -14.11637
|121>    H       19.66912         2.11442       -14.05613
|122>    H       19.06351         0.51704       -12.28183
|123>    H       17.42760         1.14618       -10.55057
|124> *
|125>
|126>                          ****END OF INPUT****

CARTESIAN COORDINATES (ANGSTROEM)
---------------------------------
  C     -3.608470    6.818000   -0.494400
  C     -3.203410    6.785810    0.811860
  C     -4.059810    7.044760    1.902730
  N     -4.728380    7.228530    2.816440
  C     -1.860610    6.578040    1.187480
  N     -0.766270    6.438660    1.502530
  C     -4.902100    7.291000   -0.971950
  C     -4.767290    7.683090   -2.337350
  C     -5.815200    8.206980   -3.039860
  C     -7.067260    8.352350   -2.402510
  C     -7.212090    7.948090   -1.042740
  C     -6.108290    7.417280   -0.336800
  C     -8.469430    8.092100   -0.421940
  C     -9.533210    8.611740   -1.108260
  C     -9.389650    9.010100   -2.445940
  C     -8.182950    8.884090   -3.079120
  C     -3.396670    7.410340   -2.789150
  O     -2.886080    7.660000   -3.855070
  C     -2.752460    6.664020   -1.656640
  C     -1.656280    5.927880   -1.939640
  C     -1.031300    4.852630   -1.233030
  C     -1.480170    4.106680   -0.158300
  O     -0.598850    3.190020    0.199210
  C      0.463820    3.310370   -0.615900
  N      1.521520    2.372240   -0.458500
  O      2.384070    2.365900   -1.312770
  O      1.458370    1.626720    0.489180
  C      0.256850    4.304580   -1.554620
  C      1.224970    4.740610   -2.534790
  N      1.018300    4.894520   -3.879480
  C     -0.114800    4.410800   -4.643570
  C     -0.724310    5.484990   -5.540350
  C      2.221030    5.287680   -4.532520
  O      2.321680    5.422430   -5.732110
  C      3.174740    5.429560   -3.459770
  C      2.533720    5.074140   -2.251780
  C      3.515490    5.146000   -1.187380
  O      3.431660    4.951210    0.001300
  N      4.707720    5.528210   -1.842890
  C      5.927020    5.633000   -1.076760
  C      6.718010    4.327180   -1.103280
  C      4.522490    5.685110   -3.194800
  C      5.433160    6.039290   -4.219900
  C      6.788900    6.148650   -4.190090
  C      7.569680    6.502710   -5.318730
  C      8.948500    6.509560   -5.366730
  C      9.375770    6.908430   -6.664950
  C      8.141340    7.174300   -7.431550
  C      7.078230    6.919900   -6.627740
  C      8.052670    7.601570   -8.761910
  N      7.943060    7.952000   -9.850160
  C     10.664910    6.992620   -7.135330
  C     11.086240    7.372730   -8.449710
  C     12.446820    7.212610   -8.548270
  C     12.947070    6.781580   -7.248830
  C     11.893020    6.660050   -6.398520
  C     11.986940    6.299000   -5.050040
  N     12.086910    6.012070   -3.942080
  C     13.229320    7.437520   -9.719550
  C     14.288870    6.677590  -10.100960
  C     15.175380    6.895320  -11.231120
  C     15.326470    8.068580  -11.920600
  C     16.226200    8.243690  -12.993130
  N     16.937010    8.440950  -13.872420
  C     14.634820    9.262470  -11.623960
  N     14.122260   10.268390  -11.417760
  C     15.935370    5.670230  -11.439740
  C     15.588660    4.737560  -10.419250
  C     14.572020    5.327510   -9.535230
  O     14.020900    4.797180   -8.595150
  C     16.145500    3.492030  -10.360740
  C     17.091910    3.114460  -11.338970
  C     17.440920    4.039560  -12.365640
  C     16.848180    5.322380  -12.400500
  C     18.381300    3.648600  -13.340460
  C     18.950250    2.404590  -13.304730
  C     18.605820    1.494800  -12.293770
  C     17.697180    1.842380  -11.331160
  H     -5.690330    8.505780   -4.069950
  H     -6.246450    7.110840    0.688500
  H     -8.574670    7.787530    0.608850
  H    -10.491780    8.719150   -0.623570
  H    -10.239890    9.417040   -2.972110
  H     -8.066290    9.189300   -4.108540
  H     -1.212100    6.151570   -2.902470
  H     -2.414470    4.118800    0.368920
  H     -0.855290    4.009050   -3.947730
  H      0.242140    3.591280   -5.278650
  H     -1.123830    6.322660   -4.974550
  H     -1.534450    5.047340   -6.117230
  H      0.029590    5.857590   -6.227150
  H      5.619080    5.841890   -0.047750
  H      6.516880    6.476030   -1.443130
  H      6.123520    3.533770   -0.657530
  H      7.635390    4.438770   -0.532090
  H      6.968360    4.034970   -2.120740
  H      4.927910    6.197650   -5.164120
  H      7.352970    5.936790   -3.294710
  H      9.606730    6.247430   -4.561630
  H      6.045310    7.015870   -6.904840
  H     10.428670    7.671740   -9.242660
  H     13.981580    6.645140   -7.000040
  H     12.895290    8.244580  -10.360740
  H     15.865430    2.802930   -9.577800
  H     17.125670    5.997310  -13.194720
  H     18.643920    4.352560  -14.116370
  H     19.669120    2.114420  -14.056130
  H     19.063510    0.517040  -12.281830
  H     17.427600    1.146180  -10.550570

 Total Charge           Charge          ....    0
 Multiplicity           Mult            ....    1
 Number of Electrons    NEL             ....  522
 Basis Dimension        Dim             .... 1247

ORBITAL ENERGIES
----------------

  NO   OCC          E(Eh)            E(eV)
   0   2.0000     -19.344882      -526.4010
   1   2.0000     -19.249833      -523.8146
   2   2.0000     -19.247540      -523.7522
   3   2.0000     -19.231620      -523.3190
   4   2.0000     -19.228328      -523.2294
   5   2.0000     -19.199355      -522.4410
   6   2.0000     -19.195220      -522.3285
   7   2.0000     -14.663578      -399.0162
   8   2.0000     -14.465092      -393.6152
   9   2.0000     -14.458249      -393.4289
  10   2.0000     -14.430979      -392.6869
  11   2.0000     -14.430330      -392.6692
  12   2.0000     -14.421860      -392.4387
  13   2.0000     -14.421509      -392.4292
  14   2.0000     -14.412804      -392.1923
  15   2.0000     -14.405824      -392.0024
  16   2.0000     -10.397460      -282.9293
  17   2.0000     -10.382126      -282.5120
  18   2.0000     -10.382008      -282.5088
  19   2.0000     -10.381111      -282.4844
  20   2.0000     -10.378220      -282.4057
  21   2.0000     -10.377923      -282.3976
  22   2.0000     -10.361444      -281.9492
  23   2.0000     -10.358243      -281.8621
  24   2.0000     -10.354460      -281.7592
  25   2.0000     -10.351329      -281.6740
  26   2.0000     -10.349104      -281.6134
  27   2.0000     -10.347655      -281.5740
  28   2.0000     -10.338299      -281.3194
  29   2.0000     -10.336117      -281.2600
  30   2.0000     -10.331983      -281.1476
  31   2.0000     -10.330598      -281.1099
  32   2.0000     -10.329179      -281.0713
  33   2.0000     -10.327795      -281.0336
  34   2.0000     -10.327485      -281.0251
  35   2.0000     -10.325462      -280.9701
  36   2.0000     -10.323843      -280.9261
  37   2.0000     -10.323333      -280.9122
  38   2.0000     -10.322000      -280.8759
  39   2.0000     -10.317669      -280.7580
  40   2.0000     -10.317422      -280.7513
  41   2.0000     -10.317128      -280.7433
  42   2.0000     -10.314469      -280.6710
  43   2.0000     -10.314145      -280.6621
  44   2.0000     -10.311819      -280.5989
  45   2.0000     -10.311585      -280.5925
  46   2.0000     -10.310827      -280.5719
  47   2.0000     -10.310659      -280.5673
  48   2.0000     -10.310402      -280.5603
  49   2.0000     -10.310101      -280.5521
  50   2.0000     -10.310056      -280.5509
  51   2.0000     -10.309703      -280.5413
  52   2.0000     -10.309509      -280.5360
  53   2.0000     -10.309245      -280.5288
  54   2.0000     -10.308735      -280.5149
  55   2.0000     -10.308673      -280.5133
  56   2.0000     -10.307879      -280.4916
  57   2.0000     -10.306140      -280.4443
  58   2.0000     -10.304139      -280.3899
  59   2.0000     -10.304050      -280.3875
  60   2.0000     -10.303707      -280.3781
  61   2.0000     -10.303421      -280.3703
  62   2.0000     -10.303412      -280.3701
  63   2.0000     -10.300795      -280.2989
  64   2.0000     -10.297074      -280.1976
  65   2.0000     -10.296697      -280.1874
  66   2.0000     -10.296418      -280.1798
  67   2.0000     -10.296317      -280.1770
  68   2.0000     -10.296042      -280.1695
  69   2.0000     -10.291913      -280.0572
  70   2.0000     -10.291468      -280.0451
  71   2.0000     -10.291233      -280.0387
  72   2.0000     -10.290744      -280.0254
  73   2.0000     -10.290036      -280.0061
  74   2.0000     -10.269039      -279.4347
  75   2.0000     -10.268067      -279.4083
  76   2.0000     -10.261049      -279.2174
  77   2.0000     -10.253478      -279.0113
  78   2.0000      -1.336066       -36.3562
  79   2.0000      -1.267730       -34.4967
  80   2.0000      -1.152409       -31.3586
  81   2.0000      -1.147470       -31.2242
  82   2.0000      -1.143526       -31.1169
  83   2.0000      -1.140214       -31.0268
  84   2.0000      -1.133111       -30.8335
  85   2.0000      -1.072266       -29.1778
  86   2.0000      -1.061695       -28.8902
  87   2.0000      -1.033829       -28.1319
  88   2.0000      -1.025055       -27.8932
  89   2.0000      -1.020238       -27.7621
  90   2.0000      -1.012416       -27.5493
  91   2.0000      -1.009125       -27.4597
  92   2.0000      -1.005265       -27.3546
  93   2.0000      -1.002939       -27.2914
  94   2.0000      -0.999866       -27.2077
  95   2.0000      -0.988510       -26.8987
  96   2.0000      -0.985742       -26.8234
  97   2.0000      -0.984552       -26.7910
  98   2.0000      -0.977101       -26.5883
  99   2.0000      -0.967330       -26.3224
 100   2.0000      -0.943034       -25.6613
 101   2.0000      -0.935091       -25.4451
 102   2.0000      -0.933199       -25.3936
 103   2.0000      -0.932056       -25.3625
 104   2.0000      -0.921549       -25.0766
 105   2.0000      -0.912308       -24.8252
 106   2.0000      -0.910467       -24.7751
 107   2.0000      -0.893972       -24.3262
 108   2.0000      -0.889246       -24.1976
 109   2.0000      -0.885974       -24.1086
 110   2.0000      -0.882073       -24.0024
 111   2.0000      -0.873663       -23.7736
 112   2.0000      -0.863431       -23.4951
 113   2.0000      -0.856631       -23.3101
 114   2.0000      -0.845199       -22.9990
 115   2.0000      -0.840727       -22.8773
 116   2.0000      -0.834670       -22.7125
 117   2.0000      -0.834450       -22.7065
 118   2.0000      -0.822469       -22.3805
 119   2.0000      -0.815569       -22.1928
 120   2.0000      -0.809567       -22.0294
 121   2.0000      -0.802263       -21.8307
 122   2.0000      -0.791946       -21.5500
 123   2.0000      -0.774939       -21.0872
 124   2.0000      -0.768778       -20.9195
 125   2.0000      -0.766127       -20.8474
 126   2.0000      -0.760703       -20.6998
 127   2.0000      -0.746045       -20.3009
 128   2.0000      -0.731631       -19.9087
 129   2.0000      -0.730619       -19.8812
 130   2.0000      -0.724001       -19.7011
 131   2.0000      -0.715310       -19.4646
 132   2.0000      -0.714181       -19.4339
 133   2.0000      -0.712878       -19.3984
 134   2.0000      -0.708926       -19.2909
 135   2.0000      -0.704504       -19.1705
 136   2.0000      -0.699734       -19.0407
 137   2.0000      -0.691712       -18.8224
 138   2.0000      -0.688776       -18.7425
 139   2.0000      -0.685071       -18.6417
 140   2.0000      -0.678393       -18.4600
 141   2.0000      -0.670766       -18.2525
 142   2.0000      -0.665719       -18.1151
 143   2.0000      -0.660425       -17.9711
 144   2.0000      -0.657757       -17.8985
 145   2.0000      -0.650904       -17.7120
 146   2.0000      -0.647880       -17.6297
 147   2.0000      -0.646732       -17.5985
 148   2.0000      -0.642583       -17.4856
 149   2.0000      -0.633660       -17.2428
 150   2.0000      -0.627379       -17.0719
 151   2.0000      -0.621296       -16.9063
 152   2.0000      -0.620319       -16.8797
 153   2.0000      -0.612720       -16.6730
 154   2.0000      -0.611854       -16.6494
 155   2.0000      -0.610117       -16.6021
 156   2.0000      -0.606435       -16.5019
 157   2.0000      -0.593569       -16.1518
 158   2.0000      -0.589069       -16.0294
 159   2.0000      -0.587522       -15.9873
 160   2.0000      -0.586751       -15.9663
 161   2.0000      -0.579485       -15.7686
 162   2.0000      -0.577606       -15.7175
 163   2.0000      -0.571300       -15.5459
 164   2.0000      -0.570201       -15.5160
 165   2.0000      -0.564670       -15.3655
 166   2.0000      -0.558571       -15.1995
 167   2.0000      -0.558165       -15.1884
 168   2.0000      -0.553836       -15.0707
 169   2.0000      -0.553034       -15.0488
 170   2.0000      -0.551661       -15.0115
 171   2.0000      -0.551162       -14.9979
 172   2.0000      -0.545525       -14.8445
 173   2.0000      -0.543808       -14.7978
 174   2.0000      -0.542241       -14.7551
 175   2.0000      -0.539712       -14.6863
 176   2.0000      -0.536939       -14.6108
 177   2.0000      -0.534053       -14.5323
 178   2.0000      -0.532891       -14.5007
 179   2.0000      -0.528994       -14.3947
 180   2.0000      -0.528071       -14.3695
 181   2.0000      -0.524111       -14.2618
 182   2.0000      -0.522365       -14.2143
 183   2.0000      -0.522130       -14.2079
 184   2.0000      -0.521080       -14.1793
 185   2.0000      -0.519281       -14.1304
 186   2.0000      -0.516863       -14.0646
 187   2.0000      -0.516192       -14.0463
 188   2.0000      -0.514209       -13.9923
 189   2.0000      -0.512564       -13.9476
 190   2.0000      -0.508267       -13.8307
 191   2.0000      -0.507706       -13.8154
 192   2.0000      -0.506410       -13.7801
 193   2.0000      -0.504807       -13.7365
 194   2.0000      -0.501941       -13.6585
 195   2.0000      -0.499286       -13.5863
 196   2.0000      -0.497998       -13.5512
 197   2.0000      -0.491274       -13.3682
 198   2.0000      -0.488081       -13.2814
 199   2.0000      -0.485841       -13.2204
 200   2.0000      -0.484940       -13.1959
 201   2.0000      -0.478355       -13.0167
 202   2.0000      -0.476304       -12.9609
 203   2.0000      -0.472814       -12.8659
 204   2.0000      -0.470981       -12.8161
 205   2.0000      -0.469774       -12.7832
 206   2.0000      -0.465370       -12.6634
 207   2.0000      -0.463125       -12.6023
 208   2.0000      -0.459718       -12.5096
 209   2.0000      -0.457835       -12.4583
 210   2.0000      -0.454349       -12.3635
 211   2.0000      -0.454217       -12.3599
 212   2.0000      -0.453396       -12.3375
 213   2.0000      -0.452315       -12.3081
 214   2.0000      -0.450823       -12.2675
 215   2.0000      -0.449646       -12.2355
 216   2.0000      -0.449036       -12.2189
 217   2.0000      -0.446658       -12.1542
 218   2.0000      -0.445010       -12.1093
 219   2.0000      -0.442109       -12.0304
 220   2.0000      -0.441485       -12.0134
 221   2.0000      -0.441317       -12.0088
 222   2.0000      -0.439819       -11.9681
 223   2.0000      -0.439066       -11.9476
 224   2.0000      -0.437098       -11.8940
 225   2.0000      -0.434689       -11.8285
 226   2.0000      -0.433705       -11.8017
 227   2.0000      -0.431688       -11.7468
 228   2.0000      -0.430290       -11.7088
 229   2.0000      -0.427796       -11.6409
 230   2.0000      -0.425875       -11.5886
 231   2.0000      -0.425430       -11.5765
 232   2.0000      -0.421982       -11.4827
 233   2.0000      -0.418988       -11.4012
 234   2.0000      -0.417797       -11.3688
 235   2.0000      -0.415198       -11.2981
 236   2.0000      -0.407679       -11.0935
 237   2.0000      -0.399194       -10.8626
 238   2.0000      -0.397946       -10.8286
 239   2.0000      -0.393733       -10.7140
 240   2.0000      -0.387180       -10.5357
 241   2.0000      -0.385663       -10.4944
 242   2.0000      -0.383610       -10.4386
 243   2.0000      -0.379447       -10.3253
 244   2.0000      -0.377747       -10.2790
 245   2.0000      -0.362076        -9.8526
 246   2.0000      -0.355074        -9.6620
 247   2.0000      -0.353077        -9.6077
 248   2.0000      -0.351977        -9.5778
 249   2.0000      -0.349271        -9.5041
 250   2.0000      -0.336024        -9.1437
 251   2.0000      -0.329762        -8.9733
 252   2.0000      -0.325773        -8.8647
 253   2.0000      -0.323515        -8.8033
 254   2.0000      -0.320831        -8.7303
 255   2.0000      -0.319928        -8.7057
 256   2.0000      -0.308327        -8.3900
 257   2.0000      -0.306822        -8.3490
 258   2.0000      -0.303046        -8.2463
 259   2.0000      -0.294513        -8.0141
 260   2.0000      -0.248315        -6.7570
 261   0.0000      -0.133950        -3.6450
 262   0.0000      -0.103575        -2.8184
 263   0.0000      -0.088819        -2.4169
 264   0.0000      -0.076851        -2.0912
 265   0.0000      -0.068472        -1.8632

MULLIKEN ATOMIC CHARGES
-----------------------
   0 C :    0.242984
   1 C :   -0.330839
   2 C :   -0.170077
   3 N :    0.166593
   4 C :   -0.211116
   5 N :    0.191561
   6 C :    0.040442
   7 C :    0.016119
   8 C :   -0.074314
   9 C :    0.092376
  10 C :    0.094987
  11 C :   -0.079771
  12 C :   -0.015773
  13 C :    0.037751
  14 C :    0.037700
  15 C :   -0.013035
  16 C :    0.138965
  17 O :   -0.133458
  18 C :   -0.101961
  19 C :    0.021852
  20 C :    0.084563
  21 C :    0.096340
  22 O :   -0.113028
  23 C :    0.162463
  24 N :    0.276772
  25 O :   -0.234548
  26 O :   -0.220183
  27 C :   -0.015132
  28 C :    0.042866
  29 N :   -0.262715
  30 C :    0.107471
  31 C :   -0.019898
  32 C :    0.167365
  33 O :   -0.190157
  34 C :   -0.062331
  35 C :    0.029944
  36 C :    0.131700
  37 O :   -0.174031
  38 N :   -0.273175
  39 C :    0.099807
  40 C :    0.002176
  41 C :    0.140156
  42 C :   -0.037654
  43 C :    0.012833
  44 C :    0.108645
  45 C :   -0.103657
  46 C :    0.121776
  47 C :   -0.091700
  48 C :   -0.005277
  49 C :   -0.179058
  50 N :    0.141586
  51 C :    0.101017
  52 C :   -0.066150
  53 C :    0.072084
  54 C :    0.081995
  55 C :   -0.123157
  56 C :   -0.181517
  57 N :    0.131051
  58 C :   -0.016522
  59 C :   -0.096765
  60 C :    0.303964
  61 C :   -0.328066
  62 C :   -0.180303
  63 N :    0.154632
  64 C :   -0.204624
  65 N :    0.172832
  66 C :    0.052466
  67 C :   -0.010257
  68 C :    0.147317
  69 O :   -0.139474
  70 C :   -0.076123
  71 C :    0.097544
  72 C :    0.098072
  73 C :   -0.083104
  74 C :   -0.019302
  75 C :    0.037367
  76 C :    0.039680
  77 C :   -0.015783
  78 H :   -0.007319
  79 H :   -0.004126
  80 H :   -0.008045
  81 H :   -0.000691
  82 H :   -0.001095
  83 H :   -0.014107
  84 H :    0.007022
  85 H :    0.037722
  86 H :    0.022081
  87 H :    0.030681
  88 H :    0.036129
  89 H :    0.013378
  90 H :    0.048923
  91 H :    0.045057
  92 H :    0.025270
  93 H :    0.038839
  94 H :    0.027727
  95 H :    0.018828
  96 H :    0.007752
  97 H :   -0.006195
  98 H :    0.004761
  99 H :    0.017129
 100 H :    0.011714
 101 H :    0.003156
 102 H :    0.044785
 103 H :   -0.009553
 104 H :   -0.006719
 105 H :   -0.007223
 106 H :   -0.001995
 107 H :   -0.003024
 108 H :   -0.014641
Sum of atomic charges:   -0.0000000

LOEWDIN ATOMIC CHARGES
----------------------
   0 C :    0.064534
   1 C :   -0.134729
   2 C :   -0.020964
   3 N :   -0.039331
   4 C :   -0.025085
   5 N :   -0.025518
   6 C :   -0.024632
   7 C :   -0.059702
   8 C :    0.038255
   9 C :   -0.008225
  10 C :   -0.003885
  11 C :    0.018514
  12 C :   -0.005157
  13 C :   -0.008559
  14 C :   -0.009111
  15 C :   -0.006988
  16 C :    0.090188
  17 O :   -0.132272
  18 C :   -0.075715
  19 C :    0.064612
  20 C :   -0.075754
  21 C :    0.106948
  22 O :    0.079753
  23 C :    0.024033
  24 N :    0.276613
  25 O :   -0.195224
  26 O :   -0.179770
  27 C :   -0.025146
  28 C :    0.064575
  29 N :   -0.004621
  30 C :    0.038230
  31 C :   -0.066247
  32 C :    0.085206
  33 O :   -0.185410
  34 C :   -0.109754
  35 C :   -0.106275
  36 C :    0.084629
  37 O :   -0.176438
  38 N :   -0.002811
  39 C :    0.035749
  40 C :   -0.061866
  41 C :    0.079194
  42 C :   -0.016620
  43 C :    0.002952
  44 C :   -0.011111
  45 C :   -0.017756
  46 C :    0.040982
  47 C :   -0.075369
  48 C :    0.058285
  49 C :   -0.031095
  50 N :   -0.056804
  51 C :    0.035444
  52 C :    0.018146
  53 C :   -0.027151
  54 C :    0.081781
  55 C :   -0.097317
  56 C :   -0.027674
  57 N :   -0.068994
  58 C :    0.075074
  59 C :   -0.078205
  60 C :    0.072084
  61 C :   -0.127760
  62 C :   -0.017053
  63 N :   -0.045552
  64 C :   -0.024534
  65 N :   -0.040491
  66 C :   -0.025737
  67 C :   -0.058032
  68 C :    0.086043
  69 O :   -0.126470
  70 C :    0.036415
  71 C :   -0.007735
  72 C :   -0.004568
  73 C :    0.021250
  74 C :   -0.004686
  75 C :   -0.010325
  76 C :   -0.009754
  77 C :   -0.007972
  78 H :    0.041425
  79 H :    0.039353
  80 H :    0.035389
  81 H :    0.034946
  82 H :    0.034583
  83 H :    0.033318
  84 H :    0.049220
  85 H :    0.036280
  86 H :    0.024188
  87 H :    0.032440
  88 H :    0.021171
  89 H :    0.029486
  90 H :    0.033342
  91 H :    0.039340
  92 H :    0.022854
  93 H :    0.037185
  94 H :    0.032836
  95 H :    0.021095
  96 H :    0.045626
  97 H :    0.037826
  98 H :    0.036717
  99 H :    0.041680
 100 H :    0.039495
 101 H :    0.037819
 102 H :    0.053623
 103 H :    0.040590
 104 H :    0.039699
 105 H :    0.035559
 106 H :    0.034412
 107 H :    0.033948
 108 H :    0.033021

  Mayer bond orders larger than 0.100000
B(  0-C ,  1-C ) :   1.6775 B(  0-C ,  6-C ) :   1.0044 B(  0-C , 18-C ) :   1.0021
B(  1-C ,  2-C ) :   1.1226 B(  1-C ,  4-C ) :   1.1624 B(  2-C ,  3-N ) :   2.9953
B(  4-C ,  5-N ) :   2.9891 B(  6-C ,  7-C ) :   1.2119 B(  6-C , 11-C ) :   1.4549
B(  7-C ,  8-C ) :   1.4720 B(  7-C , 16-C ) :   0.9273 B(  8-C ,  9-C ) :   1.1884
B(  8-C , 78-H ) :   1.0152 B(  9-C , 10-C ) :   1.2545 B(  9-C , 15-C ) :   1.2446
B( 10-C , 11-C ) :   1.2084 B( 10-C , 12-C ) :   1.2401 B( 11-C , 79-H ) :   0.9939
B( 12-C , 13-C ) :   1.4910 B( 12-C , 80-H ) :   0.9973 B( 13-C , 14-C ) :   1.2606
B( 13-C , 81-H ) :   0.9884 B( 14-C , 15-C ) :   1.4902 B( 14-C , 82-H ) :   0.9886
B( 15-C , 83-H ) :   0.9974 B( 16-C , 17-O ) :   2.2362 B( 16-C , 18-C ) :   0.9255
B( 18-C , 19-C ) :   1.7391 B( 19-C , 20-C ) :   1.0647 B( 19-C , 84-H ) :   0.9321
B( 20-C , 21-C ) :   1.3763 B( 20-C , 27-C ) :   1.2843 B( 21-C , 22-O ) :   1.2209
B( 21-C , 85-H ) :   1.0062 B( 22-O , 23-C ) :   1.1687 B( 23-C , 24-N ) :   0.9267
B( 23-C , 27-C ) :   1.5098 B( 24-N , 25-O ) :   1.5300 B( 24-N , 26-O ) :   1.5149
B( 25-O , 26-O ) :   0.2764 B( 27-C , 28-C ) :   0.9436 B( 28-C , 29-N ) :   1.2252
B( 28-C , 35-C ) :   1.4854 B( 29-N , 30-C ) :   0.9271 B( 29-N , 32-C ) :   1.0031
B( 30-C , 31-C ) :   1.1027 B( 30-C , 86-H ) :   0.9518 B( 30-C , 87-H ) :   0.9446
B( 31-C , 88-H ) :   0.9564 B( 31-C , 89-H ) :   0.9594 B( 31-C , 90-H ) :   0.9547
B( 32-C , 33-O ) :   2.1054 B( 32-C , 34-C ) :   1.0008 B( 34-C , 35-C ) :   1.2183
B( 34-C , 41-C ) :   1.3401 B( 35-C , 36-C ) :   0.9379 B( 36-C , 37-O ) :   2.1736
B( 36-C , 38-N ) :   1.0305 B( 38-N , 39-C ) :   0.9387 B( 38-N , 41-C ) :   1.1769
B( 39-C , 40-C ) :   1.1198 B( 39-C , 91-H ) :   0.9248 B( 39-C , 92-H ) :   0.9512
B( 40-C , 93-H ) :   0.9599 B( 40-C , 94-H ) :   0.9685 B( 40-C , 95-H ) :   0.9666
B( 41-C , 42-C ) :   1.1740 B( 42-C , 43-C ) :   1.5481 B( 42-C , 96-H ) :   0.9492
B( 43-C , 44-C ) :   1.1256 B( 43-C , 97-H ) :   0.9824 B( 44-C , 45-C ) :   1.5079
B( 44-C , 48-C ) :   1.0366 B( 45-C , 46-C ) :   1.1181 B( 45-C , 98-H ) :   1.0069
B( 46-C , 47-C ) :   1.0968 B( 46-C , 51-C ) :   1.4239 B( 47-C , 48-C ) :   1.6919
B( 47-C , 49-C ) :   1.0906 B( 48-C , 99-H ) :   1.0157 B( 49-C , 50-N ) :   2.9680
B( 51-C , 52-C ) :   1.0937 B( 51-C , 55-C ) :   1.1200 B( 52-C , 53-C ) :   1.5444
B( 52-C ,100-H ) :   1.0047 B( 53-C , 54-C ) :   1.0547 B( 53-C , 58-C ) :   1.0733
B( 54-C , 55-C ) :   1.6660 B( 54-C ,101-H ) :   1.0084 B( 55-C , 56-C ) :   1.0965
B( 56-C , 57-N ) :   2.9658 B( 58-C , 59-C ) :   1.6603 B( 58-C ,102-H ) :   0.9510
B( 59-C , 60-C ) :   1.0313 B( 59-C , 68-C ) :   0.9348 B( 60-C , 61-C ) :   1.6650
B( 60-C , 66-C ) :   0.9982 B( 61-C , 62-C ) :   1.1385 B( 61-C , 64-C ) :   1.1412
B( 62-C , 63-N ) :   2.9696 B( 64-C , 65-N ) :   2.9941 B( 66-C , 67-C ) :   1.2103
B( 66-C , 73-C ) :   1.4473 B( 67-C , 68-C ) :   0.9505 B( 67-C , 70-C ) :   1.4677
B( 68-C , 69-O ) :   2.2085 B( 70-C , 71-C ) :   1.1813 B( 70-C ,103-H ) :   1.0171
B( 71-C , 72-C ) :   1.2534 B( 71-C , 77-C ) :   1.2432 B( 72-C , 73-C ) :   1.2075
B( 72-C , 74-C ) :   1.2392 B( 73-C ,104-H ) :   0.9908 B( 74-C , 75-C ) :   1.4894
B( 74-C ,105-H ) :   0.9975 B( 75-C , 76-C ) :   1.2590 B( 75-C ,106-H ) :   0.9891
B( 76-C , 77-C ) :   1.4887 B( 76-C ,107-H ) :   0.9886 B( 77-C ,108-H ) :   0.9979

-----------------------------------------------------------------------------
         ABSORPTION SPECTRUM VIA TRANSITION ELECTRIC DIPOLE MOMENTS
-----------------------------------------------------------------------------
State   Energy  Wavelength   fosc         T2         TX        TY        TZ
        (cm-1)    (nm)                  (au**2)     (au)      (au)      (au)
-----------------------------------------------------------------------------
   0   11416.9    875.9   0.756586275  21.81662   4.30399   0.52525  -1.73679
   1   16594.2    602.6   0.025039626   0.49676  -0.70280  -0.05067   0.01618
   2   17858.3    560.0   0.051125573   0.94248   0.82374  -0.16387  -0.48691
   3   19032.8    525.4   0.037371694   0.64642   0.60422   0.51908   0.10907
   4   19917.8    502.1   0.035432685   0.58565   0.72002   0.23427  -0.11109
   5   22408.9    446.3   0.272129325   3.99789  -1.63560  -0.34222   1.09799
   6   23558.8    424.5   0.468015780   6.54008   2.14846  -0.30939  -1.35221
   7   24427.6    409.4   0.102997259   1.38810  -1.13455  -0.06199  -0.31155
   8   24907.0    401.5   0.034972303   0.46225   0.57066  -0.02856   0.36849
   9   25646.2    389.9   0.086081498   1.10500  -1.04910  -0.06529  -0.01136
  10   26144.5    382.5   0.046666118   0.58762   0.76168  -0.00341  -0.08635
  11   26693.1    374.6   0.025258763   0.31152  -0.26138   0.49292   0.01545
  12   26789.6    373.3   0.056931618   0.69962  -0.77372  -0.03746  -0.31554
  13   26853.5    372.4   0.003591405   0.04403   0.08566  -0.14810   0.12148
  14   28017.6    356.9   0.815044541   9.57694   2.64075  -0.41656  -1.55880
  15   28273.3    353.7   0.234379289   2.72910  -0.87526   1.40107   0.00250
  16   28660.3    348.9   0.010862299   0.12477   0.14989  -0.15158   0.28165
  17   29055.5    344.2   0.040227719   0.45580  -0.44030   0.11126  -0.49956
  18   29760.5    336.0   0.092312079   1.02116   0.70206  -0.71646  -0.12227
  19   30214.4    331.0   0.014369772   0.15657  -0.29170   0.22956  -0.13706
  20   30420.2    328.7   0.013590097   0.14707   0.28698  -0.21364  -0.13811
  21   30541.6    327.4   0.238922395   2.57538  -1.09841   1.03969   0.53657
  22   30604.1    326.8   0.029239069   0.31453  -0.12756   0.48490   0.25125
  23   31034.4    322.2   0.021813566   0.23140  -0.20236   0.43623  -0.01210
  24   31401.3    318.5   0.032992389   0.34589   0.33934   0.47397   0.07806
  25   31591.2    316.5   0.153774692   1.60249  -0.86374  -0.05338   0.92390
  26   31726.8    315.2   0.044239106   0.45905   0.25112   0.19169  -0.59936
  27   32469.7    308.0   0.019391009   0.19661   0.33776   0.19608  -0.20994
  28   32830.8    304.6   0.080204960   0.80426   0.26630  -0.72135  -0.46152
  29   32896.1    304.0   0.092210711   0.92281  -0.46562   0.83602   0.08412
  30   33550.0    298.1   0.070502887   0.69181   0.51799  -0.60761  -0.23304
  31   33719.0    296.6   0.764567531   7.46478   2.23504  -0.75124   1.38023
  32   33844.6    295.5   0.025413016   0.24720   0.07019  -0.48040   0.10719
  33   34106.8    293.2   0.107989334   1.04235  -0.32137   0.64070  -0.72704
  34   34241.5    292.0   0.020238439   0.19458  -0.39153   0.04111  -0.19899
  35   34279.5    291.7   0.009277981   0.08910  -0.25534   0.04543  -0.14779
  36   34795.1    287.4   0.054296518   0.51372  -0.64672   0.24979  -0.18188
  37   35080.6    285.1   0.067503833   0.63349  -0.73164   0.18361  -0.25393
  38   35510.9    281.6   0.092940958   0.86163  -0.86506   0.29893  -0.15475
  39   35655.3    280.5   0.130010134   1.20041  -0.37807   0.98918   0.28104
  40   35781.0    279.5   0.471695158   4.33995   0.65758  -1.95842   0.26853
  41   35924.6    278.4   0.139828486   1.28138  -0.43982   0.82445  -0.63892
  42   36032.6    277.5   0.057929036   0.52927   0.71265  -0.05730  -0.13460
  43   36119.9    276.9   0.066746867   0.60836   0.62872  -0.46073   0.02817
  44   36430.9    274.5   0.006968525   0.06297   0.11326  -0.21995   0.04203
  45   37036.8    270.0   0.020861178   0.18543   0.42094  -0.02131   0.08824
  46   37332.1    267.9   0.225416685   1.98783  -0.94149   0.13540   1.04071
  47   37485.7    266.8   0.072889684   0.64014   0.49068  -0.55847   0.29579
  48   37578.3    266.1   0.007747782   0.06788   0.16040  -0.16551  -0.12147
  49   37758.5    264.8   0.030501790   0.26594   0.02144  -0.15649   0.49091
  50   37846.8    264.2   0.152155231   1.32353  -0.83634   0.57870   0.53775
  51   38038.4    262.9   0.038026860   0.32911  -0.30761   0.17504  -0.45150
  52   38350.3    260.8   0.091019566   0.78134  -0.16920   0.60703  -0.61986
  53   38526.5    259.6   0.027236410   0.23274   0.04584   0.29563  -0.37847
  54   38853.0    257.4   0.006293460   0.05333   0.09389  -0.04796   0.20545
  55   39016.8    256.3   0.054100654   0.45649  -0.18624   0.52057  -0.38834
  56   39224.2    254.9   0.086776049   0.72832  -0.50283  -0.19903   0.66021
  57   39400.3    253.8   0.017172286   0.14348  -0.21327   0.00638   0.31299
  58   39434.3    253.6   0.035790973   0.29880   0.37266   0.13401  -0.37678
  59   39751.2    251.6   0.156525770   1.29632  -0.56741   0.09144   0.98286
  60   40029.2    249.8   0.007512005   0.06178   0.01553  -0.09081  -0.23085

FINAL SINGLE POINT ENERGY     -3396.070145458862

DIPOLE MOMENT
-------------
                                X             Y             Z
Electronic contribution:     10.18991       7.61210       6.06746
Nuclear contribution   :    -12.98245      -9.19027      -7.10947
                        -----------------------------------------
Total Dipole Moment    :     -2.79255      -1.57817      -1.04201
                        -----------------------------------------
Magnitude (a.u.)       :      3.37264
Magnitude (Debye)      :      8.57258

Rotational constants in cm-1:     0.002104     0.000193     0.000185
Rotational constants in MHz :    63.065433     5.786587     5.537317

                             ****ORCA TERMINATED NORMALLY****
TOTAL RUN TIME: 0 days 0 hours 11 minutes 27 seconds 728 msec
