                         Program Version 4.2.0 -  RELEASE  -
|  1> # ORCA input file
|  2> # SCF done       -208.258434187547          0.000790101467
|  3> ! CAM-B3LYP def2-SVP def2/J RIJCOSX Grid4 TightSCF
|  4> %maxcore 5000
|  5> %tddft
|  6>     Mode sTDDFT
|  7>     Ethresh 5.0
|  8>     maxcore 5000
|  9> end
| 10>
| 11> %pal
| 12>   nprocs 6
| 13>   end
| 14> * xyz 0 1
| 15>    C       -5.75143         0.59393         9.00437
| 16>    C       -6.31132         0.37267        10.23106
| 17>    F       -6.48707         1.38920        11.08461
| 18>    C       -6.71114        -0.92391        10.61409
| 19>    F       -7.25676        -1.11128        11.82293
| 20>    C       -6.54639        -1.98116         9.76398
| 21>    C       -5.97369        -1.78526         8.49212
| 22>    C       -5.56814        -0.47519         8.10382
| 23>    C       -4.99114        -0.25446         6.83301
| 24>    C       -4.83169        -1.30965         5.97209
| 25>    C       -5.24506        -2.61265         6.36631
| 26>    C       -5.79389        -2.85843         7.59200
| 27>    C       -4.97159        -3.56650         5.27544
| 28>    O       -5.04575        -4.77347         5.33748
| 29>    C       -4.46196        -2.74145         4.14330
| 30>    C       -4.28741        -1.37742         4.61918
| 31>    C       -3.73957        -0.32945         3.93059
| 32>    C       -3.61662         0.97911         4.44650
| 33>    N       -3.47899         2.05861         4.81094
| 34>    C       -3.20485        -0.39758         2.62587
| 35>    N       -2.74788        -0.37195         1.57304
| 36>    C       -4.15950        -3.23043         2.91483
| 37>    C       -4.55212        -4.52997         2.44166
| 38>    C       -5.83095        -5.06881         2.73307
| 39>    N       -6.84860        -4.43853         3.31429
| 40>    S       -8.11360        -5.42262         3.35954
| 41>    N       -7.44693        -6.69134         2.63247
| 42>    C       -6.18268        -6.40178         2.32393
| 43>    C       -5.25696        -7.20022         1.60430
| 44>    C       -4.06776        -6.58617         1.22931
| 45>    C       -3.72967        -5.29569         1.62867
| 46>    C       -5.51123        -8.55689         1.18850
| 47>    N       -6.19583        -9.51270         1.88656
| 48>    C       -6.64341        -9.46023         3.25837
| 49>    C       -5.49238        -9.22705         4.23147
| 50>    C       -6.29063       -10.72217         1.15579
| 51>    O       -6.83948       -11.71885         1.57511
| 52>    C       -5.60770       -10.44034        -0.08342
| 53>    C       -5.11215        -9.11644        -0.02142
| 54>    C       -4.45919        -8.84035        -1.28278
| 55>    O       -3.86964        -7.86548        -1.69876
| 56>    N       -4.62203       -10.02561        -2.03549
| 57>    C       -4.01153       -10.12121        -3.34032
| 58>    C       -2.74249       -10.96933        -3.31774
| 59>    C       -5.30596       -10.98813        -1.32841
| 60>    C       -5.71468       -12.29647        -1.69641
| 61>    C       -5.57520       -12.94388        -2.87882
| 62>    C       -6.03937       -14.27001        -3.15116
| 63>    C       -5.80811       -14.80663        -4.44735
| 64>    N       -5.24281       -14.17454        -5.47374
| 65>    S       -5.20592       -15.15933        -6.74041
| 66>    N       -5.90317       -16.43887        -6.05598
| 67>    C       -6.18971       -16.14888        -4.78736
| 68>    C       -6.82311       -16.98106        -3.82693
| 69>    C       -7.09940       -16.39266        -2.59450
| 70>    C       -6.70673       -15.10384        -2.25837
| 71>    C       -7.21953       -18.33012        -4.08515
| 72>    C       -6.72605       -19.22792        -4.97604
| 73>    C       -7.54918       -20.41977        -5.33296
| 74>    O       -8.52803       -20.82391        -4.75088
| 75>    C       -6.94256       -20.95143        -6.57035
| 76>    C       -7.38131       -21.96275        -7.37543
| 77>    C       -6.64624       -22.28204        -8.53927
| 78>    C       -5.47168       -21.53707        -8.85096
| 79>    C       -4.74968       -21.85375       -10.01933
| 80>    C       -5.17009       -22.86536       -10.83623
| 81>    C       -6.32913       -23.60424       -10.52465
| 82>    C       -7.05297       -23.31944        -9.40088
| 83>    F       -6.71743       -24.59125       -11.34349
| 84>    F       -4.48159       -23.16525       -11.94548
| 85>    C       -5.03701       -20.50066        -7.99352
| 86>    C       -5.75756       -20.21767        -6.86412
| 87>    C       -5.53403       -19.24863        -5.79578
| 88>    C       -4.33549       -18.65401        -5.50614
| 89>    C       -4.08450       -17.92759        -4.32494
| 90>    N       -3.82006       -17.34882        -3.36951
| 91>    C       -3.19428       -18.74374        -6.32826
| 92>    N       -2.24639       -18.75808        -6.97555
| 93>    H       -5.45039         1.59217         8.72730
| 94>    H       -6.85699        -2.96712        10.07239
| 95>    H       -4.69165         0.74755         6.57213
| 96>    H       -6.09239        -3.85833         7.86807
| 97>    H       -3.58803        -2.62949         2.21939
| 98>    H       -3.36867        -7.14118         0.62470
| 99>    H       -2.76834        -4.89765         1.34027
|100>    H       -7.10527       -10.43377         3.44705
|101>    H       -7.39926        -8.67801         3.36582
|102>    H       -4.70727        -9.96399         4.07574
|103>    H       -5.85647        -9.31876         5.25090
|104>    H       -5.06708        -8.23325         4.10870
|105>    H       -3.75611        -9.09390        -3.61867
|106>    H       -4.73647       -10.50412        -4.06249
|107>    H       -2.00551       -10.51341        -2.66103
|108>    H       -2.32474       -11.02999        -4.31870
|109>    H       -2.94582       -11.97662        -2.96228
|110>    H       -6.21751       -12.79699        -0.87889
|111>    H       -5.08485       -12.48181        -3.72074
|112>    H       -7.60265       -16.99042        -1.84860
|113>    H       -6.92595       -14.74716        -1.26451
|114>    H       -8.07985       -18.67966        -3.52097
|115>    H       -8.27717       -22.51209        -7.12890
|116>    H       -3.85805       -21.30078       -10.27040
|117>    H       -7.93814       -23.89392        -9.17690
|118>    H       -4.14871       -19.94843        -8.25556
|119> *
|120>
|121>                          ****END OF INPUT****

CARTESIAN COORDINATES (ANGSTROEM)
---------------------------------
  C     -5.751430    0.593930    9.004370
  C     -6.311320    0.372670   10.231060
  F     -6.487070    1.389200   11.084610
  C     -6.711140   -0.923910   10.614090
  F     -7.256760   -1.111280   11.822930
  C     -6.546390   -1.981160    9.763980
  C     -5.973690   -1.785260    8.492120
  C     -5.568140   -0.475190    8.103820
  C     -4.991140   -0.254460    6.833010
  C     -4.831690   -1.309650    5.972090
  C     -5.245060   -2.612650    6.366310
  C     -5.793890   -2.858430    7.592000
  C     -4.971590   -3.566500    5.275440
  O     -5.045750   -4.773470    5.337480
  C     -4.461960   -2.741450    4.143300
  C     -4.287410   -1.377420    4.619180
  C     -3.739570   -0.329450    3.930590
  C     -3.616620    0.979110    4.446500
  N     -3.478990    2.058610    4.810940
  C     -3.204850   -0.397580    2.625870
  N     -2.747880   -0.371950    1.573040
  C     -4.159500   -3.230430    2.914830
  C     -4.552120   -4.529970    2.441660
  C     -5.830950   -5.068810    2.733070
  N     -6.848600   -4.438530    3.314290
  S     -8.113600   -5.422620    3.359540
  N     -7.446930   -6.691340    2.632470
  C     -6.182680   -6.401780    2.323930
  C     -5.256960   -7.200220    1.604300
  C     -4.067760   -6.586170    1.229310
  C     -3.729670   -5.295690    1.628670
  C     -5.511230   -8.556890    1.188500
  N     -6.195830   -9.512700    1.886560
  C     -6.643410   -9.460230    3.258370
  C     -5.492380   -9.227050    4.231470
  C     -6.290630  -10.722170    1.155790
  O     -6.839480  -11.718850    1.575110
  C     -5.607700  -10.440340   -0.083420
  C     -5.112150   -9.116440   -0.021420
  C     -4.459190   -8.840350   -1.282780
  O     -3.869640   -7.865480   -1.698760
  N     -4.622030  -10.025610   -2.035490
  C     -4.011530  -10.121210   -3.340320
  C     -2.742490  -10.969330   -3.317740
  C     -5.305960  -10.988130   -1.328410
  C     -5.714680  -12.296470   -1.696410
  C     -5.575200  -12.943880   -2.878820
  C     -6.039370  -14.270010   -3.151160
  C     -5.808110  -14.806630   -4.447350
  N     -5.242810  -14.174540   -5.473740
  S     -5.205920  -15.159330   -6.740410
  N     -5.903170  -16.438870   -6.055980
  C     -6.189710  -16.148880   -4.787360
  C     -6.823110  -16.981060   -3.826930
  C     -7.099400  -16.392660   -2.594500
  C     -6.706730  -15.103840   -2.258370
  C     -7.219530  -18.330120   -4.085150
  C     -6.726050  -19.227920   -4.976040
  C     -7.549180  -20.419770   -5.332960
  O     -8.528030  -20.823910   -4.750880
  C     -6.942560  -20.951430   -6.570350
  C     -7.381310  -21.962750   -7.375430
  C     -6.646240  -22.282040   -8.539270
  C     -5.471680  -21.537070   -8.850960
  C     -4.749680  -21.853750  -10.019330
  C     -5.170090  -22.865360  -10.836230
  C     -6.329130  -23.604240  -10.524650
  C     -7.052970  -23.319440   -9.400880
  F     -6.717430  -24.591250  -11.343490
  F     -4.481590  -23.165250  -11.945480
  C     -5.037010  -20.500660   -7.993520
  C     -5.757560  -20.217670   -6.864120
  C     -5.534030  -19.248630   -5.795780
  C     -4.335490  -18.654010   -5.506140
  C     -4.084500  -17.927590   -4.324940
  N     -3.820060  -17.348820   -3.369510
  C     -3.194280  -18.743740   -6.328260
  N     -2.246390  -18.758080   -6.975550
  H     -5.450390    1.592170    8.727300
  H     -6.856990   -2.967120   10.072390
  H     -4.691650    0.747550    6.572130
  H     -6.092390   -3.858330    7.868070
  H     -3.588030   -2.629490    2.219390
  H     -3.368670   -7.141180    0.624700
  H     -2.768340   -4.897650    1.340270
  H     -7.105270  -10.433770    3.447050
  H     -7.399260   -8.678010    3.365820
  H     -4.707270   -9.963990    4.075740
  H     -5.856470   -9.318760    5.250900
  H     -5.067080   -8.233250    4.108700
  H     -3.756110   -9.093900   -3.618670
  H     -4.736470  -10.504120   -4.062490
  H     -2.005510  -10.513410   -2.661030
  H     -2.324740  -11.029990   -4.318700
  H     -2.945820  -11.976620   -2.962280
  H     -6.217510  -12.796990   -0.878890
  H     -5.084850  -12.481810   -3.720740
  H     -7.602650  -16.990420   -1.848600
  H     -6.925950  -14.747160   -1.264510
  H     -8.079850  -18.679660   -3.520970
  H     -8.277170  -22.512090   -7.128900
  H     -3.858050  -21.300780  -10.270400
  H     -7.938140  -23.893920   -9.176900
  H     -4.148710  -19.948430   -8.255560

 Total Charge           Charge          ....    0
 Multiplicity           Mult            ....    1
 Number of Electrons    NEL             ....  544
 Basis Dimension        Dim             .... 1230

ORBITAL ENERGIES
----------------

  NO   OCC          E(Eh)            E(eV)
   0   2.0000     -89.036262     -2422.7998
   1   2.0000     -89.035437     -2422.7774
   2   2.0000     -24.803688      -674.9427
   3   2.0000     -24.802424      -674.9083
   4   2.0000     -24.798315      -674.7965
   5   2.0000     -24.797779      -674.7819
   6   2.0000     -19.224504      -523.1253
   7   2.0000     -19.218103      -522.9512
   8   2.0000     -19.196155      -522.3539
   9   2.0000     -19.194056      -522.2968
  10   2.0000     -14.457746      -393.4153
  11   2.0000     -14.456754      -393.3883
  12   2.0000     -14.450874      -393.2283
  13   2.0000     -14.450715      -393.2239
  14   2.0000     -14.448226      -393.1562
  15   2.0000     -14.446515      -393.1097
  16   2.0000     -14.425612      -392.5409
  17   2.0000     -14.424099      -392.4997
  18   2.0000     -14.417511      -392.3204
  19   2.0000     -14.416429      -392.2910
  20   2.0000     -10.387274      -282.6521
  21   2.0000     -10.386326      -282.6263
  22   2.0000     -10.381323      -282.4902
  23   2.0000     -10.380991      -282.4811
  24   2.0000     -10.378676      -282.4181
  25   2.0000     -10.378188      -282.4049
  26   2.0000     -10.375936      -282.3436
  27   2.0000     -10.368587      -282.1436
  28   2.0000     -10.353358      -281.7292
  29   2.0000     -10.350639      -281.6552
  30   2.0000     -10.350560      -281.6531
  31   2.0000     -10.344007      -281.4747
  32   2.0000     -10.342172      -281.4248
  33   2.0000     -10.339736      -281.3585
  34   2.0000     -10.338495      -281.3247
  35   2.0000     -10.335797      -281.2513
  36   2.0000     -10.333799      -281.1970
  37   2.0000     -10.332979      -281.1746
  38   2.0000     -10.327522      -281.0262
  39   2.0000     -10.326395      -280.9955
  40   2.0000     -10.325801      -280.9793
  41   2.0000     -10.320037      -280.8225
  42   2.0000     -10.319113      -280.7973
  43   2.0000     -10.318265      -280.7743
  44   2.0000     -10.318221      -280.7731
  45   2.0000     -10.316827      -280.7351
  46   2.0000     -10.316474      -280.7255
  47   2.0000     -10.314626      -280.6752
  48   2.0000     -10.314429      -280.6699
  49   2.0000     -10.313356      -280.6407
  50   2.0000     -10.310914      -280.5742
  51   2.0000     -10.310723      -280.5690
  52   2.0000     -10.310274      -280.5568
  53   2.0000     -10.309216      -280.5280
  54   2.0000     -10.309057      -280.5237
  55   2.0000     -10.308810      -280.5170
  56   2.0000     -10.307490      -280.4811
  57   2.0000     -10.307284      -280.4755
  58   2.0000     -10.307186      -280.4728
  59   2.0000     -10.307077      -280.4698
  60   2.0000     -10.306804      -280.4624
  61   2.0000     -10.305948      -280.4391
  62   2.0000     -10.303235      -280.3653
  63   2.0000     -10.302865      -280.3552
  64   2.0000     -10.301645      -280.3220
  65   2.0000     -10.301240      -280.3110
  66   2.0000     -10.301003      -280.3045
  67   2.0000     -10.300377      -280.2875
  68   2.0000     -10.300119      -280.2805
  69   2.0000     -10.299555      -280.2651
  70   2.0000     -10.298910      -280.2476
  71   2.0000     -10.298808      -280.2448
  72   2.0000     -10.294572      -280.1295
  73   2.0000     -10.294033      -280.1149
  74   2.0000     -10.267676      -279.3977
  75   2.0000     -10.267368      -279.3893
  76   2.0000     -10.261888      -279.2402
  77   2.0000     -10.260181      -279.1937
  78   2.0000      -8.127913      -221.1718
  79   2.0000      -8.126885      -221.1438
  80   2.0000      -6.099132      -165.9658
  81   2.0000      -6.098118      -165.9382
  82   2.0000      -6.091340      -165.7538
  83   2.0000      -6.090372      -165.7274
  84   2.0000      -6.090359      -165.7271
  85   2.0000      -6.089306      -165.6984
  86   2.0000      -1.326127       -36.0858
  87   2.0000      -1.320957       -35.9451
  88   2.0000      -1.311203       -35.6796
  89   2.0000      -1.306111       -35.5411
  90   2.0000      -1.142179       -31.0803
  91   2.0000      -1.137628       -30.9564
  92   2.0000      -1.135189       -30.8901
  93   2.0000      -1.134507       -30.8715
  94   2.0000      -1.133363       -30.8404
  95   2.0000      -1.130607       -30.7654
  96   2.0000      -1.067998       -29.0617
  97   2.0000      -1.058226       -28.7958
  98   2.0000      -1.028030       -27.9741
  99   2.0000      -1.021090       -27.7853
 100   2.0000      -1.011546       -27.5256
 101   2.0000      -1.004698       -27.3392
 102   2.0000      -1.003070       -27.2949
 103   2.0000      -0.997225       -27.1359
 104   2.0000      -0.993556       -27.0360
 105   2.0000      -0.990618       -26.9561
 106   2.0000      -0.987780       -26.8789
 107   2.0000      -0.982653       -26.7393
 108   2.0000      -0.979979       -26.6666
 109   2.0000      -0.976764       -26.5791
 110   2.0000      -0.938985       -25.5511
 111   2.0000      -0.932084       -25.3633
 112   2.0000      -0.930978       -25.3332
 113   2.0000      -0.920388       -25.0450
 114   2.0000      -0.916526       -24.9400
 115   2.0000      -0.901691       -24.5363
 116   2.0000      -0.900292       -24.4982
 117   2.0000      -0.895464       -24.3668
 118   2.0000      -0.892501       -24.2862
 119   2.0000      -0.883042       -24.0288
 120   2.0000      -0.874372       -23.7929
 121   2.0000      -0.871743       -23.7213
 122   2.0000      -0.871218       -23.7070
 123   2.0000      -0.861076       -23.4311
 124   2.0000      -0.848291       -23.0832
 125   2.0000      -0.846807       -23.0428
 126   2.0000      -0.840567       -22.8730
 127   2.0000      -0.821048       -22.3419
 128   2.0000      -0.820255       -22.3203
 129   2.0000      -0.810774       -22.0623
 130   2.0000      -0.788306       -21.4509
 131   2.0000      -0.776362       -21.1259
 132   2.0000      -0.774771       -21.0826
 133   2.0000      -0.765827       -20.8392
 134   2.0000      -0.760627       -20.6977
 135   2.0000      -0.755298       -20.5527
 136   2.0000      -0.747607       -20.3434
 137   2.0000      -0.741314       -20.1722
 138   2.0000      -0.737301       -20.0630
 139   2.0000      -0.727686       -19.8014
 140   2.0000      -0.726153       -19.7596
 141   2.0000      -0.723873       -19.6976
 142   2.0000      -0.717327       -19.5194
 143   2.0000      -0.713182       -19.4067
 144   2.0000      -0.709994       -19.3199
 145   2.0000      -0.705834       -19.2067
 146   2.0000      -0.695560       -18.9272
 147   2.0000      -0.692919       -18.8553
 148   2.0000      -0.686075       -18.6691
 149   2.0000      -0.682319       -18.5669
 150   2.0000      -0.675910       -18.3924
 151   2.0000      -0.665516       -18.1096
 152   2.0000      -0.663137       -18.0449
 153   2.0000      -0.654417       -17.8076
 154   2.0000      -0.651055       -17.7161
 155   2.0000      -0.648500       -17.6466
 156   2.0000      -0.645556       -17.5665
 157   2.0000      -0.642462       -17.4823
 158   2.0000      -0.637772       -17.3546
 159   2.0000      -0.625291       -17.0150
 160   2.0000      -0.621824       -16.9207
 161   2.0000      -0.618545       -16.8315
 162   2.0000      -0.612471       -16.6662
 163   2.0000      -0.611126       -16.6296
 164   2.0000      -0.607482       -16.5304
 165   2.0000      -0.598456       -16.2848
 166   2.0000      -0.593195       -16.1417
 167   2.0000      -0.590677       -16.0732
 168   2.0000      -0.590617       -16.0715
 169   2.0000      -0.588293       -16.0083
 170   2.0000      -0.586195       -15.9512
 171   2.0000      -0.585445       -15.9308
 172   2.0000      -0.581699       -15.8288
 173   2.0000      -0.578887       -15.7523
 174   2.0000      -0.577054       -15.7024
 175   2.0000      -0.576066       -15.6756
 176   2.0000      -0.570841       -15.5334
 177   2.0000      -0.566578       -15.4174
 178   2.0000      -0.563331       -15.3290
 179   2.0000      -0.559843       -15.2341
 180   2.0000      -0.559573       -15.2268
 181   2.0000      -0.554366       -15.0851
 182   2.0000      -0.552164       -15.0251
 183   2.0000      -0.549409       -14.9502
 184   2.0000      -0.549070       -14.9409
 185   2.0000      -0.547111       -14.8876
 186   2.0000      -0.546822       -14.8798
 187   2.0000      -0.543557       -14.7909
 188   2.0000      -0.541116       -14.7245
 189   2.0000      -0.537760       -14.6332
 190   2.0000      -0.536066       -14.5871
 191   2.0000      -0.533832       -14.5263
 192   2.0000      -0.532528       -14.4908
 193   2.0000      -0.530411       -14.4332
 194   2.0000      -0.526277       -14.3207
 195   2.0000      -0.524612       -14.2754
 196   2.0000      -0.520132       -14.1535
 197   2.0000      -0.518915       -14.1204
 198   2.0000      -0.517868       -14.0919
 199   2.0000      -0.515011       -14.0141
 200   2.0000      -0.511292       -13.9130
 201   2.0000      -0.508876       -13.8472
 202   2.0000      -0.506144       -13.7729
 203   2.0000      -0.504682       -13.7331
 204   2.0000      -0.503561       -13.7026
 205   2.0000      -0.500305       -13.6140
 206   2.0000      -0.498704       -13.5704
 207   2.0000      -0.495262       -13.4768
 208   2.0000      -0.491907       -13.3855
 209   2.0000      -0.490585       -13.3495
 210   2.0000      -0.486118       -13.2279
 211   2.0000      -0.479834       -13.0569
 212   2.0000      -0.477819       -13.0021
 213   2.0000      -0.476412       -12.9638
 214   2.0000      -0.475909       -12.9501
 215   2.0000      -0.475319       -12.9341
 216   2.0000      -0.473960       -12.8971
 217   2.0000      -0.471370       -12.8266
 218   2.0000      -0.471041       -12.8177
 219   2.0000      -0.469099       -12.7648
 220   2.0000      -0.466953       -12.7064
 221   2.0000      -0.463429       -12.6105
 222   2.0000      -0.462751       -12.5921
 223   2.0000      -0.459958       -12.5161
 224   2.0000      -0.457741       -12.4558
 225   2.0000      -0.455469       -12.3939
 226   2.0000      -0.453831       -12.3494
 227   2.0000      -0.452950       -12.3254
 228   2.0000      -0.451762       -12.2931
 229   2.0000      -0.450606       -12.2616
 230   2.0000      -0.449128       -12.2214
 231   2.0000      -0.448455       -12.2031
 232   2.0000      -0.446135       -12.1400
 233   2.0000      -0.443867       -12.0782
 234   2.0000      -0.441183       -12.0052
 235   2.0000      -0.436638       -11.8815
 236   2.0000      -0.433419       -11.7939
 237   2.0000      -0.432183       -11.7603
 238   2.0000      -0.430671       -11.7191
 239   2.0000      -0.428642       -11.6639
 240   2.0000      -0.428357       -11.6562
 241   2.0000      -0.427595       -11.6354
 242   2.0000      -0.421475       -11.4689
 243   2.0000      -0.419616       -11.4183
 244   2.0000      -0.417091       -11.3496
 245   2.0000      -0.410617       -11.1735
 246   2.0000      -0.408540       -11.1169
 247   2.0000      -0.407835       -11.0978
 248   2.0000      -0.403805       -10.9881
 249   2.0000      -0.399256       -10.8643
 250   2.0000      -0.396993       -10.8027
 251   2.0000      -0.388865       -10.5815
 252   2.0000      -0.386159       -10.5079
 253   2.0000      -0.377424       -10.2702
 254   2.0000      -0.374679       -10.1955
 255   2.0000      -0.365284        -9.9399
 256   2.0000      -0.354644        -9.6503
 257   2.0000      -0.353431        -9.6173
 258   2.0000      -0.350413        -9.5352
 259   2.0000      -0.347951        -9.4682
 260   2.0000      -0.344193        -9.3660
 261   2.0000      -0.339209        -9.2303
 262   2.0000      -0.335635        -9.1331
 263   2.0000      -0.334769        -9.1095
 264   2.0000      -0.323296        -8.7973
 265   2.0000      -0.319114        -8.6835
 266   2.0000      -0.315474        -8.5845
 267   2.0000      -0.312715        -8.5094
 268   2.0000      -0.302928        -8.2431
 269   2.0000      -0.299410        -8.1474
 270   2.0000      -0.293586        -7.9889
 271   2.0000      -0.243894        -6.6367
 272   0.0000      -0.118805        -3.2328
 273   0.0000      -0.104094        -2.8325
 274   0.0000      -0.077715        -2.1147
 275   0.0000      -0.067009        -1.8234
 276   0.0000      -0.059891        -1.6297

MULLIKEN ATOMIC CHARGES
-----------------------
   0 C :   -0.110077
   1 C :    0.244302
   2 F :   -0.169231
   3 C :    0.241441
   4 F :   -0.169910
   5 C :   -0.107671
   6 C :    0.120451
   7 C :    0.117356
   8 C :   -0.089019
   9 C :    0.057127
  10 C :    0.001874
  11 C :   -0.085560
  12 C :    0.155246
  13 O :   -0.147069
  14 C :   -0.050369
  15 C :    0.312422
  16 C :   -0.347249
  17 C :   -0.179300
  18 N :    0.151274
  19 C :   -0.185478
  20 N :    0.159289
  21 C :   -0.046612
  22 C :    0.084314
  23 C :    0.025056
  24 N :   -0.271506
  25 S :    0.521144
  26 N :   -0.284171
  27 C :    0.062535
  28 C :   -0.024252
  29 C :    0.012339
  30 C :   -0.016176
  31 C :    0.102104
  32 N :   -0.255653
  33 C :    0.111264
  34 C :   -0.011983
  35 C :    0.152416
  36 O :   -0.187821
  37 C :   -0.050687
  38 C :   -0.031272
  39 C :    0.131093
  40 O :   -0.198203
  41 N :   -0.267436
  42 C :    0.097443
  43 C :    0.003359
  44 C :    0.124595
  45 C :   -0.007268
  46 C :   -0.020441
  47 C :    0.090106
  48 C :    0.033005
  49 N :   -0.276403
  50 S :    0.524224
  51 N :   -0.284683
  52 C :    0.007110
  53 C :    0.082035
  54 C :    0.009480
  55 C :   -0.032742
  56 C :   -0.006936
  57 C :   -0.115298
  58 C :    0.132160
  59 O :   -0.139093
  60 C :    0.015246
  61 C :   -0.082452
  62 C :    0.111619
  63 C :    0.112607
  64 C :   -0.106448
  65 C :    0.240929
  66 C :    0.237897
  67 C :   -0.102970
  68 F :   -0.172356
  69 F :   -0.171067
  70 C :   -0.085493
  71 C :    0.038980
  72 C :    0.330883
  73 C :   -0.332244
  74 C :   -0.208920
  75 N :    0.170256
  76 C :   -0.189100
  77 N :    0.153661
  78 H :    0.008490
  79 H :   -0.000490
  80 H :   -0.005320
  81 H :   -0.011801
  82 H :    0.033401
  83 H :    0.007156
  84 H :    0.000210
  85 H :    0.037956
  86 H :    0.035628
  87 H :    0.020028
  88 H :    0.022865
  89 H :    0.031392
  90 H :    0.043476
  91 H :    0.030680
  92 H :    0.023447
  93 H :    0.024942
  94 H :    0.025667
  95 H :    0.006676
  96 H :    0.000139
  97 H :   -0.004243
  98 H :    0.000999
  99 H :    0.021865
 100 H :   -0.009467
 101 H :    0.004709
 102 H :   -0.000177
 103 H :   -0.006250
Sum of atomic charges:   -0.0000000

LOEWDIN ATOMIC CHARGES
----------------------
   0 C :   -0.028401
   1 C :    0.067549
   2 F :   -0.047295
   3 C :    0.069073
   4 F :   -0.047890
   5 C :   -0.033368
   6 C :   -0.007501
   7 C :   -0.005928
   8 C :    0.019116
   9 C :   -0.022773
  10 C :   -0.049941
  11 C :    0.029728
  12 C :    0.087213
  13 O :   -0.139168
  14 C :   -0.068914
  15 C :    0.075633
  16 C :   -0.129399
  17 C :   -0.016635
  18 N :   -0.046968
  19 C :   -0.020353
  20 N :   -0.042731
  21 C :    0.077266
  22 C :   -0.027028
  23 C :   -0.033340
  24 N :   -0.277794
  25 S :    0.654877
  26 N :   -0.274924
  27 C :   -0.039620
  28 C :   -0.030093
  29 C :    0.025097
  30 C :    0.016917
  31 C :    0.088801
  32 N :    0.008166
  33 C :    0.028246
  34 C :   -0.062302
  35 C :    0.082469
  36 O :   -0.187966
  37 C :   -0.108194
  38 C :   -0.122464
  39 C :    0.080918
  40 O :   -0.195240
  41 N :   -0.004765
  42 C :    0.034654
  43 C :   -0.061422
  44 C :    0.072582
  45 C :   -0.009922
  46 C :   -0.000076
  47 C :   -0.002413
  48 C :   -0.038033
  49 N :   -0.278859
  50 S :    0.653838
  51 N :   -0.283142
  52 C :   -0.042494
  53 C :   -0.044841
  54 C :    0.030966
  55 C :   -0.002940
  56 C :    0.070787
  57 C :   -0.078562
  58 C :    0.085287
  59 O :   -0.139064
  60 C :   -0.054133
  61 C :    0.030892
  62 C :   -0.010088
  63 C :   -0.005151
  64 C :   -0.030794
  65 C :    0.066863
  66 C :    0.066246
  67 C :   -0.032709
  68 F :   -0.049867
  69 F :   -0.049002
  70 C :    0.012542
  71 C :   -0.015611
  72 C :    0.077627
  73 C :   -0.133600
  74 C :   -0.019421
  75 N :   -0.052484
  76 C :   -0.019515
  77 N :   -0.055281
  78 H :    0.048223
  79 H :    0.044898
  80 H :    0.040245
  81 H :    0.039639
  82 H :    0.048711
  83 H :    0.044215
  84 H :    0.041877
  85 H :    0.033157
  86 H :    0.017943
  87 H :    0.027221
  88 H :    0.032268
  89 H :    0.024173
  90 H :    0.037361
  91 H :    0.023359
  92 H :    0.030694
  93 H :    0.032591
  94 H :    0.024108
  95 H :    0.044239
  96 H :    0.033887
  97 H :    0.039987
  98 H :    0.039342
  99 H :    0.047887
 100 H :    0.040451
 101 H :    0.046825
 102 H :    0.044765
 103 H :    0.038999

  Mayer bond orders larger than 0.100000
B(  0-C ,  1-C ) :   1.4434 B(  0-C ,  5-C ) :   0.1086 B(  0-C ,  7-C ) :   1.1850
B(  0-C , 78-H ) :   1.0074 B(  1-C ,  2-F ) :   1.1367 B(  1-C ,  3-C ) :   1.1880
B(  3-C ,  4-F ) :   1.1355 B(  3-C ,  5-C ) :   1.4451 B(  5-C ,  6-C ) :   1.1892
B(  5-C , 79-H ) :   1.0076 B(  6-C ,  7-C ) :   1.2536 B(  6-C , 11-C ) :   1.1926
B(  7-C ,  8-C ) :   1.2233 B(  8-C ,  9-C ) :   1.4387 B(  8-C , 80-H ) :   0.9897
B(  9-C , 10-C ) :   1.2224 B(  9-C , 15-C ) :   0.9917 B( 10-C , 11-C ) :   1.4673
B( 10-C , 12-C ) :   0.9411 B( 11-C , 81-H ) :   1.0169 B( 12-C , 13-O ) :   2.2315
B( 12-C , 14-C ) :   0.9218 B( 14-C , 15-C ) :   1.0600 B( 14-C , 21-C ) :   1.6917
B( 15-C , 16-C ) :   1.6487 B( 16-C , 17-C ) :   1.1434 B( 16-C , 19-C ) :   1.1421
B( 17-C , 18-N ) :   2.9613 B( 19-C , 20-N ) :   2.9649 B( 21-C , 22-C ) :   1.0637
B( 21-C , 82-H ) :   0.9363 B( 22-C , 23-C ) :   1.1866 B( 22-C , 28-C ) :   0.1087
B( 22-C , 30-C ) :   1.4301 B( 23-C , 24-N ) :   1.5349 B( 23-C , 27-C ) :   1.1601
B( 24-N , 25-S ) :   1.2725 B( 24-N , 26-N ) :   0.1437 B( 25-S , 26-N ) :   1.2604
B( 26-N , 27-C ) :   1.5103 B( 27-C , 28-C ) :   1.1773 B( 28-C , 29-C ) :   1.4921
B( 28-C , 31-C ) :   1.0196 B( 29-C , 30-C ) :   1.2125 B( 29-C , 83-H ) :   0.9949
B( 30-C , 84-H ) :   1.0022 B( 31-C , 32-N ) :   1.2390 B( 31-C , 38-C ) :   1.3898
B( 32-N , 33-C ) :   0.9367 B( 32-N , 35-C ) :   1.0224 B( 33-C , 34-C ) :   1.1177
B( 33-C , 85-H ) :   0.9258 B( 33-C , 86-H ) :   0.9247 B( 34-C , 87-H ) :   0.9649
B( 34-C , 88-H ) :   0.9670 B( 34-C , 89-H ) :   0.9642 B( 35-C , 36-O ) :   2.1225
B( 35-C , 37-C ) :   0.9832 B( 37-C , 38-C ) :   1.2169 B( 37-C , 44-C ) :   1.3506
B( 38-C , 39-C ) :   0.9654 B( 39-C , 40-O ) :   2.1093 B( 39-C , 41-N ) :   1.0459
B( 41-N , 42-C ) :   0.9385 B( 41-N , 44-C ) :   1.1668 B( 42-C , 43-C ) :   1.1178
B( 42-C , 90-H ) :   0.9225 B( 42-C , 91-H ) :   0.9512 B( 43-C , 92-H ) :   0.9616
B( 43-C , 93-H ) :   0.9678 B( 43-C , 94-H ) :   0.9682 B( 44-C , 45-C ) :   1.1837
B( 45-C , 46-C ) :   1.5454 B( 45-C , 95-H ) :   0.9449 B( 46-C , 47-C ) :   1.1307
B( 46-C , 96-H ) :   0.9854 B( 47-C , 48-C ) :   1.1574 B( 47-C , 53-C ) :   0.1030
B( 47-C , 55-C ) :   1.4098 B( 48-C , 49-N ) :   1.5413 B( 48-C , 52-C ) :   1.1682
B( 49-N , 50-S ) :   1.2723 B( 49-N , 51-N ) :   0.1407 B( 50-S , 51-N ) :   1.2506
B( 51-N , 52-C ) :   1.5296 B( 52-C , 53-C ) :   1.1767 B( 53-C , 54-C ) :   1.4068
B( 53-C , 56-C ) :   1.0783 B( 54-C , 55-C ) :   1.2617 B( 54-C , 97-H ) :   0.9935
B( 55-C , 98-H ) :   0.9920 B( 56-C , 57-C ) :   1.6790 B( 56-C , 99-H ) :   0.9440
B( 57-C , 58-C ) :   0.9374 B( 57-C , 72-C ) :   1.0300 B( 58-C , 59-O ) :   2.2714
B( 58-C , 60-C ) :   0.9181 B( 60-C , 61-C ) :   1.4732 B( 60-C , 71-C ) :   1.2179
B( 61-C , 62-C ) :   1.1955 B( 61-C ,100-H ) :   1.0159 B( 62-C , 63-C ) :   1.2570
B( 62-C , 67-C ) :   1.1922 B( 63-C , 64-C ) :   1.1895 B( 63-C , 70-C ) :   1.2139
B( 64-C , 65-C ) :   1.4424 B( 64-C , 67-C ) :   0.1085 B( 64-C ,101-H ) :   1.0070
B( 65-C , 66-C ) :   1.1904 B( 65-C , 69-F ) :   1.1351 B( 66-C , 67-C ) :   1.4442
B( 66-C , 68-F ) :   1.1329 B( 67-C ,102-H ) :   1.0071 B( 70-C , 71-C ) :   1.4554
B( 70-C ,103-H ) :   0.9938 B( 71-C , 72-C ) :   1.0066 B( 72-C , 73-C ) :   1.6477
B( 73-C , 74-C ) :   1.1658 B( 73-C , 76-C ) :   1.1442 B( 74-C , 75-N ) :   3.0057
B( 76-C , 77-N ) :   2.9831

-----------------------------------------------------------------------------
         ABSORPTION SPECTRUM VIA TRANSITION ELECTRIC DIPOLE MOMENTS
-----------------------------------------------------------------------------
State   Energy  Wavelength   fosc         T2         TX        TY        TZ
        (cm-1)    (nm)                  (au**2)     (au)      (au)      (au)
-----------------------------------------------------------------------------
   0   12726.3    785.8   1.216439561  31.46750  -0.03284  -4.43487  -3.43487
   1   16972.7    589.2   0.043646912   0.84660   0.14455  -0.74289  -0.52327
   2   22742.5    439.7   0.251518689   3.64089  -0.01527  -1.87034  -0.37747
   3   23224.1    430.6   0.022118049   0.31353   0.54734  -0.03825  -0.11177
   4   24253.2    412.3   0.004169103   0.05659   0.02983   0.09162   0.21750
   5   24808.1    403.1   0.605587258   8.03634  -0.45734  -2.38282  -1.46606
   6   25295.0    395.3   0.016790544   0.21853   0.13428   0.23548   0.38085
   7   25515.7    391.9   0.091203613   1.17674   0.15657  -0.34807  -1.01542
   8   26181.1    382.0   0.021154446   0.26601   0.14608   0.10041  -0.48434
   9   27184.6    367.9   0.065302263   0.79083  -0.66744  -0.33006   0.48623
  10   27340.2    365.8   0.025519970   0.30729   0.05245   0.54957  -0.05011
  11   27737.2    360.5   0.002256747   0.02679  -0.09835  -0.12239   0.04619
  12   27967.5    357.6   0.022159515   0.26085   0.40011   0.25685  -0.18652
  13   28143.9    355.3   0.256725836   3.00303   0.14730   1.42586   0.97378
  14   28493.6    351.0   0.116624640   1.34747  -0.37857   0.24603   1.06940
  15   29020.0    344.6   0.012169835   0.13806   0.01852   0.28051   0.24296
  16   29555.1    338.4   0.125892439   1.40231   0.58387   1.00075   0.24476
  17   29891.9    334.5   0.014337860   0.15791   0.12476  -0.37728  -0.00074
  18   30940.3    323.2   0.017083891   0.18178  -0.12788   0.27732   0.29752
  19   31474.7    317.7   0.018401355   0.19247   0.31879  -0.05612  -0.29613
  20   31913.9    313.3   0.028605443   0.29508   0.26079   0.39890  -0.26067
  21   32037.0    312.1   0.083287613   0.85586   0.21286  -0.31026  -0.84516
  22   32401.3    308.6   0.056483250   0.57390   0.28338  -0.00043  -0.70256
  23   32956.4    303.4   0.113767229   1.13646  -0.77949   0.15395   0.71074
  24   33225.6    301.0   0.126785208   1.25624  -0.30163  -0.39954  -1.00281
  25   33269.3    300.6   0.255561092   2.52887   0.84344   0.76383  -1.11088
  26   33345.3    299.9   0.331521648   3.27306   0.82594   0.98332   1.27435
  27   33440.4    299.0   0.272075916   2.67852  -0.15343   0.86749   1.37929
  28   33765.0    296.2   0.099459444   0.96974   0.40739   0.10753  -0.89006
  29   34510.8    289.8   0.111860268   1.06708  -0.38504  -0.70657  -0.64775
  30   34679.7    288.4   0.003853629   0.03658   0.17870  -0.05891  -0.03432
  31   34809.0    287.3   0.033982480   0.32140  -0.27881   0.11170   0.48081
  32   34850.7    286.9   0.003535752   0.03340   0.01570   0.14424  -0.11112
  33   35185.5    284.2   0.038061016   0.35612  -0.05328  -0.33579  -0.49043
  34   35621.8    280.7   0.025163607   0.23256   0.07451   0.46035  -0.12283
  35   35815.3    279.2   0.015155418   0.13931  -0.07376  -0.05717   0.36138
  36   35965.7    278.0   0.041304842   0.37808   0.21671   0.41356  -0.40010
  37   36121.7    276.8   0.026062426   0.23753   0.46282   0.15272   0.00253
  38   36534.9    273.7   0.064578032   0.58190   0.02786  -0.59645  -0.47473
  39   36641.8    272.9   0.198323187   1.78186   0.61761   0.47937  -1.08195
  40   37066.3    269.8   0.100939732   0.89652   0.29170   0.87304   0.22187
  41   37132.9    269.3   0.149816334   1.32824   0.31587   0.56155  -0.95558
  42   37393.3    267.4   0.086779517   0.76401   0.45359   0.43637   0.60651
  43   37532.4    266.4   0.105336249   0.92395   0.48538   0.43914   0.70393
  44   37620.5    265.8   0.108097920   0.94595  -0.59828  -0.76679  -0.00687
  45   37851.7    264.2   0.137795425   1.19846  -0.53117  -0.92996   0.22696
  46   38479.1    259.9   0.084636342   0.72411   0.25319   0.80077  -0.13704
  47   38735.6    258.2   0.029373240   0.24964  -0.13719   0.38213   0.29120
  48   39084.8    255.9   0.023180992   0.19525  -0.32767   0.18789   0.22932
  49   39132.1    255.5   0.070105136   0.58978  -0.65097  -0.25094   0.32102
  50   39295.3    254.5   0.002643910   0.02215  -0.02380  -0.14620  -0.01452
  51   39789.2    251.3   0.048503864   0.40132   0.53790  -0.06661  -0.32794
  52   39806.1    251.2   0.053863041   0.44547   0.08122   0.65639   0.08958
  53   40009.4    249.9   0.059906671   0.49293   0.20223  -0.36513  -0.56455
  54   40026.1    249.8   0.025509254   0.20981   0.35891   0.23325   0.16306
  55   40223.7    248.6   0.018338410   0.15009   0.06146  -0.34450  -0.16623

FINAL SINGLE POINT ENERGY     -4265.395188878605

DIPOLE MOMENT
-------------
                                X             Y             Z
Electronic contribution:    -11.04371      -1.28985      -4.88460
Nuclear contribution   :      9.25150       0.76297       5.60270
                        -----------------------------------------
Total Dipole Moment    :     -1.79221      -0.52688       0.71811
                        -----------------------------------------
Magnitude (a.u.)       :      2.00133
Magnitude (Debye)      :      5.08697

Rotational constants in cm-1:     0.003211     0.000163     0.000158
Rotational constants in MHz :    96.256504     4.891424     4.726875

                             ****ORCA TERMINATED NORMALLY****
TOTAL RUN TIME: 0 days 0 hours 11 minutes 38 seconds 909 msec
