                         Program Version 4.2.0 -  RELEASE  -
|  1> # ORCA input file
|  2> # SCF done       -217.803537379483          0.000346246347
|  3> ! CAM-B3LYP def2-SVP def2/J RIJCOSX Grid4 TightSCF
|  4> %maxcore 5000
|  5> %tddft
|  6>     Mode sTDDFT
|  7>     Ethresh 5.0
|  8>     maxcore 5000
|  9> end
| 10>
| 11> %pal
| 12>   nprocs 6
| 13>   end
| 14> * xyz 0 1
| 15>    C       -0.04781         2.36544         7.85103
| 16>    C        0.77687         2.63972         8.90554
| 17>    F        1.02146         3.90856         9.25689
| 18>    C        1.37953         1.59543         9.63606
| 19>    F        2.18412         1.89466        10.66436
| 20>    C        1.14809         0.29058         9.30218
| 21>    C        0.30222        -0.02449         8.22095
| 22>    C       -0.30756         1.03019         7.48120
| 23>    C       -1.16230         0.73860         6.39404
| 24>    C       -1.40432        -0.56838         6.05936
| 25>    C       -0.78868        -1.61298         6.80129
| 26>    C        0.04521        -1.36341         7.85305
| 27>    C       -1.18880        -2.92009         6.24500
| 28>    O       -0.78765        -4.00176         6.61196
| 29>    C       -2.09977        -2.61112         5.11026
| 30>    C       -2.23929        -1.16665         5.02213
| 31>    C       -3.06590        -0.47227         4.17784
| 32>    C       -3.96000        -1.03841         3.24310
| 33>    N       -4.73312        -1.40938         2.47964
| 34>    C       -3.16331         0.93576         4.15210
| 35>    N       -3.28426         2.07463         4.07640
| 36>    C       -2.61311        -3.50107         4.20872
| 37>    C       -2.68452        -4.91421         4.26405
| 38>    C       -2.98235        -5.69548         3.16217
| 39>    C       -3.02425        -7.06537         3.55270
| 40>    C       -2.77340        -7.08041         5.00238
| 41>    C       -2.57912        -5.80091         5.41692
| 42>    C       -2.82673        -8.19122         5.85543
| 43>    N       -2.90330        -9.06738         6.59372
| 44>    C       -3.29084        -8.15813         2.75747
| 45>    C       -3.31612        -9.52092         3.15326
| 46>    C       -3.78290       -10.29227         2.10647
| 47>    C       -4.02126        -9.40634         0.97408
| 48>    C       -3.70292        -8.13772         1.34085
| 49>    C       -3.75980        -7.02440         0.49465
| 50>    N       -3.80363        -6.13730        -0.23347
| 51>    C       -3.97114       -11.69568         2.20948
| 52>    N       -4.83915       -12.47977         1.49050
| 53>    C       -5.72877       -12.07466         0.42741
| 54>    C       -5.08120       -12.26036        -0.94282
| 55>    C       -4.83668       -13.81169         1.93767
| 56>    O       -5.56679       -14.67170         1.48248
| 57>    C       -3.84747       -13.83936         2.99158
| 58>    C       -3.34461       -12.52583         3.14160
| 59>    C       -2.31917       -12.55291         4.16411
| 60>    O       -1.57535       -11.70985         4.60697
| 61>    N       -2.30231       -13.90448         4.59357
| 62>    C       -1.44078       -14.31824         5.67472
| 63>    C       -2.17334       -14.29211         7.01389
| 64>    C       -3.20561       -14.66818         3.91466
| 65>    C       -3.43433       -16.05776         4.16562
| 66>    C       -4.30313       -16.76680         3.43095
| 67>    C       -4.62282       -18.19948         3.66130
| 68>    C       -4.41498       -19.01911         2.37942
| 69>    O       -3.50577       -18.92703         1.61437
| 70>    O       -5.41159       -19.90084         2.23405
| 71>    C       -6.36310       -19.81774         3.28417
| 72>    C       -6.08744       -18.50432         4.04889
| 73>    C       -7.08137       -17.40486         3.66162
| 74>    C       -7.40773       -17.46980         2.17447
| 75>    C       -8.24915       -18.71110         1.87606
| 76>    C       -7.76690       -19.94202         2.67619
| 77>    O       -8.68904       -20.14917         3.73693
| 78>    C       -9.77914       -19.38356         3.62804
| 79>    O      -10.67222       -19.39439         4.41750
| 80>    C       -9.70182       -18.53845         2.34809
| 81>    C      -10.72644       -19.03627         1.39023
| 82>    C      -11.77963       -18.31746         0.87774
| 83>    C      -11.95304       -16.95504         1.18394
| 84>    N      -12.02800       -15.84360         1.45208
| 85>    C      -12.60248       -19.09873         0.01365
| 86>    C      -12.12444       -20.39792        -0.08830
| 87>    S      -10.70383       -20.68816         0.84271
| 88>    S      -13.04543       -21.44573        -1.11832
| 89>    C      -14.10887       -20.10998        -1.42573
| 90>    C      -13.77430       -18.92792        -0.77654
| 91>    C      -14.70618       -17.89406        -1.09291
| 92>    C      -14.67118       -16.56996        -0.61545
| 93>    N      -14.67425       -15.48391        -0.25168
| 94>    C      -15.68168       -18.33168        -1.94751
| 95>    S      -15.52266       -19.98413        -2.40190
| 96>    H       -0.50175         3.17649         7.30332
| 97>    H        1.61662        -0.49730         9.87083
| 98>    H       -1.60200         1.55995         5.85226
| 99>    H        0.49886        -2.17758         8.39758
|100>    H       -3.03602        -3.08884         3.29944
|101>    H       -3.12761        -5.33690         2.16112
|102>    H       -2.39795        -5.48729         6.42559
|103>    H       -3.03668        -9.88227         4.12220
|104>    H       -4.33644        -9.70398        -0.00737
|105>    H       -6.03554       -11.03989         0.59232
|106>    H       -6.61051       -12.71885         0.49541
|107>    H       -4.13990       -11.71902        -1.01194
|108>    H       -5.75149       -11.90377        -1.71993
|109>    H       -4.88067       -13.31514        -1.11333
|110>    H       -0.61639       -13.60036         5.69880
|111>    H       -1.03923       -15.31188         5.46169
|112>    H       -1.50011       -14.60391         7.80718
|113>    H       -3.03477       -14.95662         7.00172
|114>    H       -2.51553       -13.28258         7.22668
|115>    H       -2.89589       -16.51797         4.98221
|116>    H       -4.80606       -16.28878         2.60262
|117>    H       -3.94489       -18.61888         4.41395
|118>    H       -6.21837       -20.68648         3.94095
|119>    H       -6.15961       -18.67930         5.12383
|120>    H       -6.66939       -16.43015         3.92026
|121>    H       -7.99634       -17.53358         4.24440
|122>    H       -6.48959       -17.49938         1.58722
|123>    H       -7.95105       -16.57661         1.86556
|124>    H       -8.21301       -18.92698         0.80637
|125>    H       -7.77002       -20.84317         2.04884
|126>    H       -9.94170       -17.49873         2.58945
|127>    H      -16.49742       -17.75472        -2.33712
|128> *
|129>
|130>                          ****END OF INPUT****

CARTESIAN COORDINATES (ANGSTROEM)
---------------------------------
  C     -0.047810    2.365440    7.851030
  C      0.776870    2.639720    8.905540
  F      1.021460    3.908560    9.256890
  C      1.379530    1.595430    9.636060
  F      2.184120    1.894660   10.664360
  C      1.148090    0.290580    9.302180
  C      0.302220   -0.024490    8.220950
  C     -0.307560    1.030190    7.481200
  C     -1.162300    0.738600    6.394040
  C     -1.404320   -0.568380    6.059360
  C     -0.788680   -1.612980    6.801290
  C      0.045210   -1.363410    7.853050
  C     -1.188800   -2.920090    6.245000
  O     -0.787650   -4.001760    6.611960
  C     -2.099770   -2.611120    5.110260
  C     -2.239290   -1.166650    5.022130
  C     -3.065900   -0.472270    4.177840
  C     -3.960000   -1.038410    3.243100
  N     -4.733120   -1.409380    2.479640
  C     -3.163310    0.935760    4.152100
  N     -3.284260    2.074630    4.076400
  C     -2.613110   -3.501070    4.208720
  C     -2.684520   -4.914210    4.264050
  C     -2.982350   -5.695480    3.162170
  C     -3.024250   -7.065370    3.552700
  C     -2.773400   -7.080410    5.002380
  C     -2.579120   -5.800910    5.416920
  C     -2.826730   -8.191220    5.855430
  N     -2.903300   -9.067380    6.593720
  C     -3.290840   -8.158130    2.757470
  C     -3.316120   -9.520920    3.153260
  C     -3.782900  -10.292270    2.106470
  C     -4.021260   -9.406340    0.974080
  C     -3.702920   -8.137720    1.340850
  C     -3.759800   -7.024400    0.494650
  N     -3.803630   -6.137300   -0.233470
  C     -3.971140  -11.695680    2.209480
  N     -4.839150  -12.479770    1.490500
  C     -5.728770  -12.074660    0.427410
  C     -5.081200  -12.260360   -0.942820
  C     -4.836680  -13.811690    1.937670
  O     -5.566790  -14.671700    1.482480
  C     -3.847470  -13.839360    2.991580
  C     -3.344610  -12.525830    3.141600
  C     -2.319170  -12.552910    4.164110
  O     -1.575350  -11.709850    4.606970
  N     -2.302310  -13.904480    4.593570
  C     -1.440780  -14.318240    5.674720
  C     -2.173340  -14.292110    7.013890
  C     -3.205610  -14.668180    3.914660
  C     -3.434330  -16.057760    4.165620
  C     -4.303130  -16.766800    3.430950
  C     -4.622820  -18.199480    3.661300
  C     -4.414980  -19.019110    2.379420
  O     -3.505770  -18.927030    1.614370
  O     -5.411590  -19.900840    2.234050
  C     -6.363100  -19.817740    3.284170
  C     -6.087440  -18.504320    4.048890
  C     -7.081370  -17.404860    3.661620
  C     -7.407730  -17.469800    2.174470
  C     -8.249150  -18.711100    1.876060
  C     -7.766900  -19.942020    2.676190
  O     -8.689040  -20.149170    3.736930
  C     -9.779140  -19.383560    3.628040
  O    -10.672220  -19.394390    4.417500
  C     -9.701820  -18.538450    2.348090
  C    -10.726440  -19.036270    1.390230
  C    -11.779630  -18.317460    0.877740
  C    -11.953040  -16.955040    1.183940
  N    -12.028000  -15.843600    1.452080
  C    -12.602480  -19.098730    0.013650
  C    -12.124440  -20.397920   -0.088300
  S    -10.703830  -20.688160    0.842710
  S    -13.045430  -21.445730   -1.118320
  C    -14.108870  -20.109980   -1.425730
  C    -13.774300  -18.927920   -0.776540
  C    -14.706180  -17.894060   -1.092910
  C    -14.671180  -16.569960   -0.615450
  N    -14.674250  -15.483910   -0.251680
  C    -15.681680  -18.331680   -1.947510
  S    -15.522660  -19.984130   -2.401900
  H     -0.501750    3.176490    7.303320
  H      1.616620   -0.497300    9.870830
  H     -1.602000    1.559950    5.852260
  H      0.498860   -2.177580    8.397580
  H     -3.036020   -3.088840    3.299440
  H     -3.127610   -5.336900    2.161120
  H     -2.397950   -5.487290    6.425590
  H     -3.036680   -9.882270    4.122200
  H     -4.336440   -9.703980   -0.007370
  H     -6.035540  -11.039890    0.592320
  H     -6.610510  -12.718850    0.495410
  H     -4.139900  -11.719020   -1.011940
  H     -5.751490  -11.903770   -1.719930
  H     -4.880670  -13.315140   -1.113330
  H     -0.616390  -13.600360    5.698800
  H     -1.039230  -15.311880    5.461690
  H     -1.500110  -14.603910    7.807180
  H     -3.034770  -14.956620    7.001720
  H     -2.515530  -13.282580    7.226680
  H     -2.895890  -16.517970    4.982210
  H     -4.806060  -16.288780    2.602620
  H     -3.944890  -18.618880    4.413950
  H     -6.218370  -20.686480    3.940950
  H     -6.159610  -18.679300    5.123830
  H     -6.669390  -16.430150    3.920260
  H     -7.996340  -17.533580    4.244400
  H     -6.489590  -17.499380    1.587220
  H     -7.951050  -16.576610    1.865560
  H     -8.213010  -18.926980    0.806370
  H     -7.770020  -20.843170    2.048840
  H     -9.941700  -17.498730    2.589450
  H    -16.497420  -17.754720   -2.337120

 Total Charge           Charge          ....    0
 Multiplicity           Mult            ....    1
 Number of Electrons    NEL             ....  576
 Basis Dimension        Dim             .... 1306

ORBITAL ENERGIES
----------------

  NO   OCC          E(Eh)            E(eV)
   0   2.0000     -88.995378     -2421.6873
   1   2.0000     -88.993351     -2421.6322
   2   2.0000     -88.992428     -2421.6071
   3   2.0000     -24.801912      -674.8943
   4   2.0000     -24.800841      -674.8652
   5   2.0000     -19.281989      -524.6896
   6   2.0000     -19.279307      -524.6166
   7   2.0000     -19.227787      -523.2147
   8   2.0000     -19.214004      -522.8396
   9   2.0000     -19.213891      -522.8366
  10   2.0000     -19.208686      -522.6949
  11   2.0000     -19.203094      -522.5427
  12   2.0000     -14.469238      -393.7280
  13   2.0000     -14.467724      -393.6868
  14   2.0000     -14.422011      -392.4429
  15   2.0000     -14.421915      -392.4402
  16   2.0000     -14.416033      -392.2802
  17   2.0000     -14.410232      -392.1224
  18   2.0000     -14.405494      -391.9934
  19   2.0000     -14.404554      -391.9678
  20   2.0000     -10.413369      -283.3622
  21   2.0000     -10.411732      -283.3176
  22   2.0000     -10.389600      -282.7154
  23   2.0000     -10.386165      -282.6219
  24   2.0000     -10.385601      -282.6066
  25   2.0000     -10.384931      -282.5883
  26   2.0000     -10.379321      -282.4357
  27   2.0000     -10.360074      -281.9120
  28   2.0000     -10.356895      -281.8255
  29   2.0000     -10.355946      -281.7996
  30   2.0000     -10.351819      -281.6873
  31   2.0000     -10.351535      -281.6796
  32   2.0000     -10.348623      -281.6004
  33   2.0000     -10.344973      -281.5010
  34   2.0000     -10.343865      -281.4709
  35   2.0000     -10.343301      -281.4555
  36   2.0000     -10.333225      -281.1813
  37   2.0000     -10.330668      -281.1118
  38   2.0000     -10.330562      -281.1089
  39   2.0000     -10.329924      -281.0915
  40   2.0000     -10.329138      -281.0701
  41   2.0000     -10.328638      -281.0565
  42   2.0000     -10.326292      -280.9927
  43   2.0000     -10.324272      -280.9377
  44   2.0000     -10.323824      -280.9255
  45   2.0000     -10.321884      -280.8727
  46   2.0000     -10.319311      -280.8027
  47   2.0000     -10.318936      -280.7925
  48   2.0000     -10.318417      -280.7784
  49   2.0000     -10.318145      -280.7710
  50   2.0000     -10.317415      -280.7511
  51   2.0000     -10.316447      -280.7248
  52   2.0000     -10.315328      -280.6943
  53   2.0000     -10.315293      -280.6934
  54   2.0000     -10.315072      -280.6874
  55   2.0000     -10.314052      -280.6596
  56   2.0000     -10.313043      -280.6322
  57   2.0000     -10.312786      -280.6252
  58   2.0000     -10.312611      -280.6204
  59   2.0000     -10.312394      -280.6145
  60   2.0000     -10.309659      -280.5401
  61   2.0000     -10.309134      -280.5258
  62   2.0000     -10.307979      -280.4944
  63   2.0000     -10.307321      -280.4765
  64   2.0000     -10.307228      -280.4739
  65   2.0000     -10.306822      -280.4629
  66   2.0000     -10.306335      -280.4496
  67   2.0000     -10.306277      -280.4481
  68   2.0000     -10.305375      -280.4235
  69   2.0000     -10.305183      -280.4183
  70   2.0000     -10.305144      -280.4172
  71   2.0000     -10.304968      -280.4124
  72   2.0000     -10.304313      -280.3946
  73   2.0000     -10.298804      -280.2447
  74   2.0000     -10.291570      -280.0479
  75   2.0000     -10.285217      -279.8750
  76   2.0000     -10.282215      -279.7933
  77   2.0000     -10.279519      -279.7199
  78   2.0000     -10.273175      -279.5473
  79   2.0000     -10.272321      -279.5241
  80   2.0000     -10.270846      -279.4839
  81   2.0000      -8.090542      -220.1549
  82   2.0000      -8.088431      -220.0974
  83   2.0000      -8.088084      -220.0880
  84   2.0000      -6.060053      -164.9024
  85   2.0000      -6.058428      -164.8582
  86   2.0000      -6.057659      -164.8373
  87   2.0000      -6.055906      -164.7896
  88   2.0000      -6.054200      -164.7432
  89   2.0000      -6.053184      -164.7155
  90   2.0000      -6.052231      -164.6896
  91   2.0000      -6.049891      -164.6259
  92   2.0000      -6.049212      -164.6074
  93   2.0000      -1.324445       -36.0400
  94   2.0000      -1.309525       -35.6340
  95   2.0000      -1.218628       -33.1605
  96   2.0000      -1.212293       -32.9882
  97   2.0000      -1.149372       -31.2760
  98   2.0000      -1.143863       -31.1261
  99   2.0000      -1.141517       -31.0622
 100   2.0000      -1.125788       -30.6343
 101   2.0000      -1.121459       -30.5165
 102   2.0000      -1.079706       -29.3803
 103   2.0000      -1.070474       -29.1291
 104   2.0000      -1.048260       -28.5246
 105   2.0000      -1.026591       -27.9350
 106   2.0000      -1.023054       -27.8387
 107   2.0000      -1.015471       -27.6324
 108   2.0000      -1.009877       -27.4802
 109   2.0000      -1.005056       -27.3490
 110   2.0000      -1.000163       -27.2158
 111   2.0000      -0.994519       -27.0622
 112   2.0000      -0.990850       -26.9624
 113   2.0000      -0.987517       -26.8717
 114   2.0000      -0.985138       -26.8070
 115   2.0000      -0.982149       -26.7256
 116   2.0000      -0.965743       -26.2792
 117   2.0000      -0.955087       -25.9892
 118   2.0000      -0.942204       -25.6387
 119   2.0000      -0.938277       -25.5318
 120   2.0000      -0.934265       -25.4226
 121   2.0000      -0.914400       -24.8821
 122   2.0000      -0.910057       -24.7639
 123   2.0000      -0.899942       -24.4887
 124   2.0000      -0.898671       -24.4541
 125   2.0000      -0.894752       -24.3474
 126   2.0000      -0.890174       -24.2229
 127   2.0000      -0.881432       -23.9850
 128   2.0000      -0.877318       -23.8730
 129   2.0000      -0.874433       -23.7945
 130   2.0000      -0.862630       -23.4734
 131   2.0000      -0.856213       -23.2987
 132   2.0000      -0.849227       -23.1087
 133   2.0000      -0.845439       -23.0056
 134   2.0000      -0.832582       -22.6557
 135   2.0000      -0.831389       -22.6233
 136   2.0000      -0.824790       -22.4437
 137   2.0000      -0.820118       -22.3165
 138   2.0000      -0.802619       -21.8404
 139   2.0000      -0.796046       -21.6615
 140   2.0000      -0.783322       -21.3153
 141   2.0000      -0.773985       -21.0612
 142   2.0000      -0.771562       -20.9953
 143   2.0000      -0.769906       -20.9502
 144   2.0000      -0.754672       -20.5357
 145   2.0000      -0.746496       -20.3132
 146   2.0000      -0.732120       -19.9220
 147   2.0000      -0.727237       -19.7891
 148   2.0000      -0.725594       -19.7444
 149   2.0000      -0.722035       -19.6476
 150   2.0000      -0.719472       -19.5778
 151   2.0000      -0.715022       -19.4567
 152   2.0000      -0.712304       -19.3828
 153   2.0000      -0.708092       -19.2682
 154   2.0000      -0.699985       -19.0476
 155   2.0000      -0.695489       -18.9252
 156   2.0000      -0.689199       -18.7540
 157   2.0000      -0.679749       -18.4969
 158   2.0000      -0.676677       -18.4133
 159   2.0000      -0.673723       -18.3329
 160   2.0000      -0.668655       -18.1950
 161   2.0000      -0.663166       -18.0457
 162   2.0000      -0.662081       -18.0161
 163   2.0000      -0.659033       -17.9332
 164   2.0000      -0.656186       -17.8557
 165   2.0000      -0.649101       -17.6629
 166   2.0000      -0.646394       -17.5893
 167   2.0000      -0.645241       -17.5579
 168   2.0000      -0.641247       -17.4492
 169   2.0000      -0.634686       -17.2707
 170   2.0000      -0.632248       -17.2043
 171   2.0000      -0.618265       -16.8238
 172   2.0000      -0.616412       -16.7734
 173   2.0000      -0.609088       -16.5741
 174   2.0000      -0.602196       -16.3866
 175   2.0000      -0.601558       -16.3692
 176   2.0000      -0.598838       -16.2952
 177   2.0000      -0.588945       -16.0260
 178   2.0000      -0.587187       -15.9782
 179   2.0000      -0.587025       -15.9738
 180   2.0000      -0.581407       -15.8209
 181   2.0000      -0.579566       -15.7708
 182   2.0000      -0.576068       -15.6756
 183   2.0000      -0.571534       -15.5522
 184   2.0000      -0.569845       -15.5063
 185   2.0000      -0.563437       -15.3319
 186   2.0000      -0.558106       -15.1868
 187   2.0000      -0.556434       -15.1413
 188   2.0000      -0.550359       -14.9760
 189   2.0000      -0.549351       -14.9486
 190   2.0000      -0.548613       -14.9285
 191   2.0000      -0.546480       -14.8705
 192   2.0000      -0.545922       -14.8553
 193   2.0000      -0.544732       -14.8229
 194   2.0000      -0.543046       -14.7770
 195   2.0000      -0.540834       -14.7168
 196   2.0000      -0.540313       -14.7027
 197   2.0000      -0.536596       -14.6015
 198   2.0000      -0.534917       -14.5558
 199   2.0000      -0.534198       -14.5363
 200   2.0000      -0.531668       -14.4674
 201   2.0000      -0.529390       -14.4054
 202   2.0000      -0.528505       -14.3813
 203   2.0000      -0.527588       -14.3564
 204   2.0000      -0.526640       -14.3306
 205   2.0000      -0.524907       -14.2835
 206   2.0000      -0.524831       -14.2814
 207   2.0000      -0.518266       -14.1027
 208   2.0000      -0.517861       -14.0917
 209   2.0000      -0.515851       -14.0370
 210   2.0000      -0.513715       -13.9789
 211   2.0000      -0.512086       -13.9346
 212   2.0000      -0.510111       -13.8808
 213   2.0000      -0.505823       -13.7642
 214   2.0000      -0.502591       -13.6762
 215   2.0000      -0.501692       -13.6517
 216   2.0000      -0.499579       -13.5942
 217   2.0000      -0.495141       -13.4735
 218   2.0000      -0.491297       -13.3689
 219   2.0000      -0.490434       -13.3454
 220   2.0000      -0.489148       -13.3104
 221   2.0000      -0.487564       -13.2673
 222   2.0000      -0.485290       -13.2054
 223   2.0000      -0.481913       -13.1135
 224   2.0000      -0.478803       -13.0289
 225   2.0000      -0.476752       -12.9731
 226   2.0000      -0.475237       -12.9319
 227   2.0000      -0.474608       -12.9147
 228   2.0000      -0.473836       -12.8937
 229   2.0000      -0.473012       -12.8713
 230   2.0000      -0.472138       -12.8475
 231   2.0000      -0.469444       -12.7742
 232   2.0000      -0.466533       -12.6950
 233   2.0000      -0.465566       -12.6687
 234   2.0000      -0.462880       -12.5956
 235   2.0000      -0.461826       -12.5669
 236   2.0000      -0.459123       -12.4934
 237   2.0000      -0.455849       -12.4043
 238   2.0000      -0.454292       -12.3619
 239   2.0000      -0.453651       -12.3445
 240   2.0000      -0.451104       -12.2752
 241   2.0000      -0.449953       -12.2438
 242   2.0000      -0.448889       -12.2149
 243   2.0000      -0.446533       -12.1508
 244   2.0000      -0.446220       -12.1423
 245   2.0000      -0.443432       -12.0664
 246   2.0000      -0.439952       -11.9717
 247   2.0000      -0.438816       -11.9408
 248   2.0000      -0.437626       -11.9084
 249   2.0000      -0.435555       -11.8521
 250   2.0000      -0.435324       -11.8458
 251   2.0000      -0.434612       -11.8264
 252   2.0000      -0.433241       -11.7891
 253   2.0000      -0.431587       -11.7441
 254   2.0000      -0.431384       -11.7386
 255   2.0000      -0.428497       -11.6600
 256   2.0000      -0.427056       -11.6208
 257   2.0000      -0.425090       -11.5673
 258   2.0000      -0.420729       -11.4486
 259   2.0000      -0.417862       -11.3706
 260   2.0000      -0.416457       -11.3324
 261   2.0000      -0.413857       -11.2616
 262   2.0000      -0.411962       -11.2101
 263   2.0000      -0.403848       -10.9893
 264   2.0000      -0.402035       -10.9399
 265   2.0000      -0.399746       -10.8777
 266   2.0000      -0.394797       -10.7430
 267   2.0000      -0.390196       -10.6178
 268   2.0000      -0.385845       -10.4994
 269   2.0000      -0.380265       -10.3475
 270   2.0000      -0.378595       -10.3021
 271   2.0000      -0.369066       -10.0428
 272   2.0000      -0.364553        -9.9200
 273   2.0000      -0.362126        -9.8539
 274   2.0000      -0.361766        -9.8441
 275   2.0000      -0.351721        -9.5708
 276   2.0000      -0.350168        -9.5285
 277   2.0000      -0.345872        -9.4117
 278   2.0000      -0.334935        -9.1140
 279   2.0000      -0.330413        -8.9910
 280   2.0000      -0.329266        -8.9598
 281   2.0000      -0.322540        -8.7768
 282   2.0000      -0.320593        -8.7238
 283   2.0000      -0.308847        -8.4042
 284   2.0000      -0.305750        -8.3199
 285   2.0000      -0.298048        -8.1103
 286   2.0000      -0.296582        -8.0704
 287   2.0000      -0.252384        -6.8677
 288   0.0000      -0.142512        -3.8779
 289   0.0000      -0.088507        -2.4084
 290   0.0000      -0.070165        -1.9093
 291   0.0000      -0.064159        -1.7458
 292   0.0000      -0.025965        -0.7065

MULLIKEN ATOMIC CHARGES
-----------------------
   0 C :   -0.105044
   1 C :    0.242443
   2 F :   -0.169385
   3 C :    0.238445
   4 F :   -0.170350
   5 C :   -0.101847
   6 C :    0.114644
   7 C :    0.112173
   8 C :   -0.080913
   9 C :    0.055367
  10 C :   -0.014179
  11 C :   -0.075436
  12 C :    0.146181
  13 O :   -0.142570
  14 C :   -0.069910
  15 C :    0.314001
  16 C :   -0.340557
  17 C :   -0.201114
  18 N :    0.170043
  19 C :   -0.180195
  20 N :    0.153232
  21 C :   -0.040472
  22 C :    0.091947
  23 C :   -0.079997
  24 C :    0.108102
  25 C :   -0.105048
  26 C :    0.043109
  27 C :   -0.178792
  28 N :    0.137146
  29 C :    0.123811
  30 C :   -0.104118
  31 C :    0.048488
  32 C :   -0.021878
  33 C :   -0.089885
  34 C :   -0.184298
  35 N :    0.149326
  36 C :    0.139161
  37 N :   -0.254436
  38 C :    0.102308
  39 C :   -0.000070
  40 C :    0.171221
  41 O :   -0.225463
  42 C :   -0.080312
  43 C :   -0.042836
  44 C :    0.152255
  45 O :   -0.166258
  46 N :   -0.258825
  47 C :    0.096032
  48 C :    0.000843
  49 C :    0.135962
  50 C :   -0.006461
  51 C :    0.041656
  52 C :   -0.074235
  53 C :    0.166214
  54 O :   -0.143426
  55 O :   -0.264260
  56 C :    0.184249
  57 C :   -0.092313
  58 C :    0.074269
  59 C :    0.101427
  60 C :   -0.081824
  61 C :    0.182694
  62 O :   -0.261291
  63 C :    0.180219
  64 O :   -0.139707
  65 C :   -0.096421
  66 C :   -0.152582
  67 C :    0.034215
  68 C :   -0.329555
  69 N :    0.222640
  70 C :    0.150942
  71 C :   -0.237664
  72 S :    0.168041
  73 S :    0.191285
  74 C :   -0.265245
  75 C :    0.172088
  76 C :   -0.078741
  77 C :   -0.251408
  78 N :    0.197624
  79 C :   -0.082401
  80 S :    0.172009
  81 H :    0.009000
  82 H :    0.001667
  83 H :   -0.005856
  84 H :   -0.007548
  85 H :    0.029659
  86 H :    0.021189
  87 H :    0.012840
  88 H :    0.024203
  89 H :   -0.007517
  90 H :    0.028112
  91 H :    0.043090
  92 H :    0.019334
  93 H :    0.030238
  94 H :    0.036557
  95 H :    0.049631
  96 H :    0.026110
  97 H :    0.027246
  98 H :    0.011329
  99 H :    0.046514
 100 H :   -0.024825
 101 H :    0.041122
 102 H :    0.037427
 103 H :    0.029311
 104 H :    0.020958
 105 H :    0.027376
 106 H :    0.019763
 107 H :    0.029061
 108 H :    0.031459
 109 H :    0.027172
 110 H :    0.030056
 111 H :    0.051830
 112 H :    0.039399
Sum of atomic charges:   -0.0000000

LOEWDIN ATOMIC CHARGES
----------------------
   0 C :   -0.028586
   1 C :    0.068191
   2 F :   -0.047239
   3 C :    0.068803
   4 F :   -0.047882
   5 C :   -0.032132
   6 C :   -0.008310
   7 C :   -0.005290
   8 C :    0.018625
   9 C :   -0.023262
  10 C :   -0.054661
  11 C :    0.033045
  12 C :    0.084449
  13 O :   -0.133256
  14 C :   -0.082178
  15 C :    0.072028
  16 C :   -0.128881
  17 C :   -0.026793
  18 N :   -0.037967
  19 C :   -0.016332
  20 N :   -0.046881
  21 C :    0.074342
  22 C :   -0.028760
  23 C :    0.027523
  24 C :    0.034102
  25 C :   -0.088832
  26 C :    0.071047
  27 C :   -0.029761
  28 N :   -0.057619
  29 C :    0.045393
  30 C :    0.007304
  31 C :   -0.024424
  32 C :    0.047374
  33 C :   -0.075589
  34 C :   -0.034365
  35 N :   -0.052276
  36 C :    0.063818
  37 N :    0.005698
  38 C :    0.038023
  39 C :   -0.061665
  40 C :    0.080958
  41 O :   -0.210938
  42 C :   -0.132071
  43 C :   -0.097099
  44 C :    0.087377
  45 O :   -0.160631
  46 N :    0.004971
  47 C :    0.037231
  48 C :   -0.060087
  49 C :    0.098378
  50 C :   -0.051589
  51 C :    0.058575
  52 C :   -0.059614
  53 C :    0.075705
  54 O :   -0.138289
  55 O :   -0.072057
  56 C :    0.073050
  57 C :   -0.024407
  58 C :   -0.028444
  59 C :   -0.021222
  60 C :   -0.029550
  61 C :    0.069279
  62 O :   -0.070123
  63 C :    0.066091
  64 O :   -0.134314
  65 C :   -0.062415
  66 C :   -0.119586
  67 C :   -0.095190
  68 C :   -0.039756
  69 N :   -0.030353
  70 C :   -0.061571
  71 C :   -0.331459
  72 S :    0.450241
  73 S :    0.425199
  74 C :   -0.335006
  75 C :   -0.064071
  76 C :   -0.096576
  77 C :   -0.040802
  78 N :   -0.029500
  79 C :   -0.138104
  80 S :    0.460981
  81 H :    0.048349
  82 H :    0.045608
  83 H :    0.040280
  84 H :    0.041243
  85 H :    0.052329
  86 H :    0.041162
  87 H :    0.037789
  88 H :    0.039933
  89 H :    0.037517
  90 H :    0.025851
  91 H :    0.038773
  92 H :    0.020357
  93 H :    0.033583
  94 H :    0.035742
  95 H :    0.040556
  96 H :    0.024637
  97 H :    0.032522
  98 H :    0.020336
  99 H :    0.038410
 100 H :    0.030355
 101 H :    0.035599
 102 H :    0.050215
 103 H :    0.028520
 104 H :    0.036324
 105 H :    0.033560
 106 H :    0.028150
 107 H :    0.028675
 108 H :    0.037986
 109 H :    0.034209
 110 H :    0.024820
 111 H :    0.059080
 112 H :    0.037492

  Mayer bond orders larger than 0.100000
B(  0-C ,  1-C ) :   1.4428 B(  0-C ,  5-C ) :   0.1078 B(  0-C ,  7-C ) :   1.1882
B(  0-C , 81-H ) :   1.0066 B(  1-C ,  2-F ) :   1.1364 B(  1-C ,  3-C ) :   1.1881
B(  3-C ,  4-F ) :   1.1350 B(  3-C ,  5-C ) :   1.4452 B(  5-C ,  6-C ) :   1.1920
B(  5-C , 82-H ) :   1.0067 B(  6-C ,  7-C ) :   1.2530 B(  6-C , 11-C ) :   1.1925
B(  7-C ,  8-C ) :   1.2209 B(  8-C ,  9-C ) :   1.4457 B(  8-C , 83-H ) :   0.9894
B(  9-C , 10-C ) :   1.2196 B(  9-C , 15-C ) :   0.9868 B( 10-C , 11-C ) :   1.4690
B( 10-C , 12-C ) :   0.9430 B( 11-C , 84-H ) :   1.0160 B( 12-C , 13-O ) :   2.2206
B( 12-C , 14-C ) :   0.9316 B( 14-C , 15-C ) :   1.0597 B( 14-C , 21-C ) :   1.5737
B( 15-C , 16-C ) :   1.6433 B( 16-C , 17-C ) :   1.1373 B( 16-C , 19-C ) :   1.1467
B( 17-C , 18-N ) :   2.9845 B( 19-C , 20-N ) :   2.9602 B( 21-C , 22-C ) :   1.1399
B( 21-C , 85-H ) :   0.9455 B( 22-C , 23-C ) :   1.4843 B( 22-C , 26-C ) :   1.0558
B( 23-C , 24-C ) :   1.1063 B( 23-C , 86-H ) :   1.0077 B( 24-C , 25-C ) :   1.1151
B( 24-C , 29-C ) :   1.3966 B( 25-C , 26-C ) :   1.6611 B( 25-C , 27-C ) :   1.0937
B( 26-C , 87-H ) :   1.0085 B( 27-C , 28-N ) :   2.9787 B( 29-C , 30-C ) :   1.1286
B( 29-C , 33-C ) :   1.0885 B( 30-C , 31-C ) :   1.5543 B( 30-C , 88-H ) :   0.9943
B( 31-C , 32-C ) :   1.0190 B( 31-C , 36-C ) :   1.0381 B( 32-C , 33-C ) :   1.6759
B( 32-C , 89-H ) :   1.0254 B( 33-C , 34-C ) :   1.0855 B( 34-C , 35-N ) :   2.9704
B( 36-C , 37-N ) :   1.1923 B( 36-C , 43-C ) :   1.3793 B( 37-N , 38-C ) :   0.9391
B( 37-N , 40-C ) :   1.0634 B( 38-C , 39-C ) :   1.1182 B( 38-C , 90-H ) :   0.9496
B( 38-C , 91-H ) :   0.9281 B( 39-C , 92-H ) :   0.9647 B( 39-C , 93-H ) :   0.9688
B( 39-C , 94-H ) :   0.9604 B( 40-C , 41-O ) :   1.9951 B( 40-C , 42-C ) :   1.0009
B( 41-O ,101-H ) :   0.1005 B( 42-C , 43-C ) :   1.2490 B( 42-C , 49-C ) :   1.3176
B( 43-C , 44-C ) :   0.9637 B( 44-C , 45-O ) :   2.1250 B( 44-C , 46-N ) :   1.0156
B( 46-N , 47-C ) :   0.9392 B( 46-N , 49-C ) :   1.2044 B( 47-C , 48-C ) :   1.1209
B( 47-C , 95-H ) :   0.9278 B( 47-C , 96-H ) :   0.9508 B( 48-C , 97-H ) :   0.9681
B( 48-C , 98-H ) :   0.9681 B( 48-C , 99-H ) :   0.9636 B( 49-C , 50-C ) :   1.1099
B( 50-C , 51-C ) :   1.7315 B( 50-C ,100-H ) :   0.9758 B( 51-C , 52-C ) :   1.0350
B( 51-C ,101-H ) :   0.9195 B( 52-C , 53-C ) :   0.8891 B( 52-C , 57-C ) :   0.9856
B( 52-C ,102-H ) :   0.8982 B( 53-C , 54-O ) :   2.2571 B( 53-C , 55-O ) :   1.1197
B( 55-O , 56-C ) :   0.9674 B( 56-C , 57-C ) :   0.9912 B( 56-C , 61-C ) :   1.0571
B( 56-C ,103-H ) :   0.9134 B( 57-C , 58-C ) :   1.1059 B( 57-C ,104-H ) :   0.8993
B( 58-C , 59-C ) :   1.1262 B( 58-C ,105-H ) :   0.9055 B( 58-C ,106-H ) :   0.9174
B( 59-C , 60-C ) :   1.0787 B( 59-C ,107-H ) :   0.9154 B( 59-C ,108-H ) :   0.9349
B( 60-C , 61-C ) :   0.9645 B( 60-C , 65-C ) :   0.9737 B( 60-C ,109-H ) :   0.9125
B( 61-C , 62-O ) :   0.9655 B( 61-C ,110-H ) :   0.9123 B( 62-O , 63-C ) :   1.1174
B( 63-C , 64-O ) :   2.2597 B( 63-C , 65-C ) :   0.8876 B( 65-C , 66-C ) :   1.0680
B( 65-C ,111-H ) :   0.8817 B( 66-C , 67-C ) :   1.5873 B( 66-C , 72-S ) :   1.1387
B( 67-C , 68-C ) :   1.1574 B( 67-C , 70-C ) :   1.2424 B( 68-C , 69-N ) :   2.9807
B( 70-C , 71-C ) :   1.4245 B( 70-C , 75-C ) :   1.0658 B( 71-C , 72-S ) :   1.0892
B( 71-C , 73-S ) :   1.0857 B( 73-S , 74-C ) :   1.0852 B( 74-C , 75-C ) :   1.3986
B( 74-C , 80-S ) :   1.1153 B( 75-C , 76-C ) :   1.2457 B( 76-C , 77-C ) :   1.1546
B( 76-C , 79-C ) :   1.5710 B( 77-C , 78-N ) :   3.0309 B( 79-C , 80-S ) :   1.1718
B( 79-C ,112-H ) :   0.9691

-----------------------------------------------------------------------------
         ABSORPTION SPECTRUM VIA TRANSITION ELECTRIC DIPOLE MOMENTS
-----------------------------------------------------------------------------
State   Energy  Wavelength   fosc         T2         TX        TY        TZ
        (cm-1)    (nm)                  (au**2)     (au)      (au)      (au)
-----------------------------------------------------------------------------
   0    8598.8   1163.0   0.372483559  14.26091   0.25165   3.73903   0.46610
   1   16156.2    619.0   0.061029576   1.24358  -0.21157  -0.92360  -0.58803
   2   19099.2    523.6   0.067550458   1.16436  -0.14681   1.00080  -0.37579
   3   21739.4    460.0   0.150160224   2.27396  -0.16420   1.49691   0.07903
   4   22521.6    444.0   0.118031232   1.72534  -0.53335   0.82503  -0.87189
   5   23311.5    429.0   0.077394028   1.09298   0.43118   0.69244   0.65390
   6   23599.8    423.7   0.391986192   5.46811   0.45778   2.12487   0.86226
   7   24390.5    410.0   0.072421321   0.97751   0.20994  -0.80735   0.53069
   8   25082.7    398.7   0.008235906   0.10810   0.20615  -0.19282   0.16859
   9   25675.7    389.5   0.016620633   0.21311  -0.29514   0.11997  -0.33408
  10   26721.9    374.2   0.000207260   0.00255   0.01737   0.03974   0.02594
  11   26931.4    371.3   0.571145561   6.98173   0.85662   1.93823   1.57835
  12   28348.2    352.8   0.159790475   1.85567  -0.16372   1.35192  -0.03445
  13   28738.1    348.0   0.000007055   0.00008  -0.00705  -0.00536  -0.00154
  14   29345.7    340.8   0.133410679   1.49666   0.63833   0.70287   0.77147
  15   30167.1    331.5   0.000960884   0.01049   0.04524   0.01891   0.08990
  16   31127.1    321.3   0.329368996   3.48354  -0.93612  -1.08727  -1.19376
  17   32099.6    311.5   0.037119385   0.38069   0.38725   0.26037   0.40366
  18   32437.6    308.3   0.127565546   1.29467  -0.42000  -1.04351  -0.17132
  19   32698.2    305.8   0.010755590   0.10829   0.06872  -0.25926   0.19067
  20   33254.0    300.7   0.033048018   0.32717   0.11941   0.50342   0.24390
  21   33518.2    298.3   0.146711735   1.44099  -0.79111  -0.51566  -0.74110
  22   33921.9    294.8   0.050551630   0.49060   0.25835   0.18859   0.62313
  23   34178.1    292.6   0.101275209   0.97551   0.42811   0.50090   0.73575
  24   34510.1    289.8   0.061264978   0.58444   0.31664   0.66353   0.20956
  25   34618.5    288.9   0.001474749   0.01402  -0.01378  -0.10026   0.06150
  26   34725.8    288.0   0.007806987   0.07401  -0.05558  -0.23105   0.13243
  27   35813.3    279.2   0.397315601   3.65231   1.18845   0.61198   1.36579
  28   35919.1    278.4   0.310608956   2.84685   1.01611  -0.53231   1.23734
  29   36209.8    276.2   0.054564651   0.49609   0.31970   0.59083   0.21166
  30   36452.3    274.3   0.006695892   0.06047   0.01932   0.01746   0.24453
  31   37122.5    269.4   0.004374578   0.03879   0.05889   0.03138  -0.18532
  32   37320.8    267.9   0.005127665   0.04523  -0.07919   0.19732   0.00503
  33   38042.3    262.9   0.205234932   1.77607   0.21015   1.31566   0.03053
  34   38285.8    261.2   0.002633649   0.02265   0.11707  -0.07069  -0.06280
  35   38962.7    256.7   0.000428749   0.00362   0.03123   0.04546   0.02409
  36   39017.4    256.3   0.107000106   0.90282  -0.46604  -0.66294  -0.49612
  37   39219.2    255.0   0.000122333   0.00103   0.02743   0.01112   0.01228
  38   39299.1    254.5   0.004183609   0.03505   0.08690  -0.14338   0.08329
  39   39406.9    253.8   0.133925305   1.11883   0.02118   1.05676  -0.04053
  40   39707.1    251.8   0.000227629   0.00189  -0.01781  -0.02074  -0.03376

FINAL SINGLE POINT ENERGY     -4697.801598585112

DIPOLE MOMENT
-------------
                                X             Y             Z
Electronic contribution:    -15.27578      56.71220       3.31714
Nuclear contribution   :     16.30146     -60.67576      -3.20051
                        -----------------------------------------
Total Dipole Moment    :      1.02568      -3.96356       0.11663
                        -----------------------------------------
Magnitude (a.u.)       :      4.09579
Magnitude (Debye)      :     10.41066

Rotational constants in cm-1:     0.001396     0.000175     0.000163
Rotational constants in MHz :    41.859225     5.241274     4.876172

                             ****ORCA TERMINATED NORMALLY****
TOTAL RUN TIME: 0 days 0 hours 40 minutes 9 seconds 119 msec
