                         Program Version 4.2.0 -  RELEASE  -
|  1> # ORCA input file
|  2> # SCF done       -177.909070419575          0.000657456860
|  3> ! CAM-B3LYP def2-SVP def2/J RIJCOSX Grid4 TightSCF
|  4> %maxcore 5000
|  5> %tddft
|  6>     Mode sTDDFT
|  7>     Ethresh 5.0
|  8>     maxcore 5000
|  9> end
| 10>
| 11> %pal
| 12>   nprocs 6
| 13>   end
| 14> * xyz 0 1
| 15>    C        3.43565        -2.39858        -1.11778
| 16>    O        3.81448        -1.13280        -1.27223
| 17>    C        4.85026        -0.90129        -0.42486
| 18>    C        5.13237        -2.04674         0.28489
| 19>    C        4.20934        -3.02499        -0.16795
| 20>    C        4.11024        -4.35759         0.26576
| 21>    N        4.04297        -5.44111         0.63159
| 22>    C        5.47835         0.37944        -0.38162
| 23>    C        5.12152         1.41179        -1.17498
| 24>    C        5.74149         2.69209        -1.14915
| 25>    S        6.91353         3.10874         0.06240
| 26>    C        7.11174         4.70574        -0.59337
| 27>    C        6.27423         4.89856        -1.68645
| 28>    C        5.52490         3.75927        -2.01233
| 29>    C        4.65787         3.69612        -3.23334
| 30>    N        4.95300         2.45517        -4.00748
| 31>    O        6.11176         2.20318        -4.21854
| 32>    O        4.00830         1.81460        -4.39561
| 33>    C        4.96645         4.87336        -4.16666
| 34>    C        4.95167         6.17559        -3.37900
| 35>    C        6.12214         6.20878        -2.38691
| 36>    N        5.79874         7.31609        -1.42334
| 37>    O        5.47007         7.01919        -0.30280
| 38>    O        5.83559         8.42888        -1.87533
| 39>    C        8.03914         5.64204        -0.09285
| 40>    C        8.75679         5.53076         1.05618
| 41>    C        9.66452         6.54724         1.43019
| 42>    N       10.39320         6.55964         2.59296
| 43>    C       10.40755         5.53607         3.60946
| 44>    C       11.27974         4.34979         3.20598
| 45>    C       11.20489         7.70401         2.69526
| 46>    O       11.92962         7.92507         3.64485
| 47>    C       10.93393         8.44620         1.48262
| 48>    C        9.98789         7.71611         0.73076
| 49>    C        9.72709         8.44864        -0.48936
| 50>    O        9.00295         8.20346        -1.44074
| 51>    N       10.53784         9.58067        -0.39925
| 52>    C       10.50791        10.60790        -1.41393
| 53>    C        9.66205        11.80309        -0.98379
| 54>    C       11.26922         9.60497         0.77026
| 55>    C       12.18988        10.61777         1.09634
| 56>    C       12.89633        10.62732         2.26668
| 57>    C       13.85395        11.60670         2.60504
| 58>    C       14.29956        12.69076         1.86807
| 59>    C       15.29085        13.38604         2.60553
| 60>    C       15.43789        12.65966         3.88280
| 61>    C       14.58341        11.60557         3.86674
| 62>    C       16.30955        12.96541         4.93519
| 63>    N       17.00969        13.16898         5.82216
| 64>    C       15.99657        14.50371         2.20746
| 65>    C       16.98428        15.22108         2.93709
| 66>    C       17.45070        16.25461         2.15305
| 67>    C       16.75374        16.21545         0.88070
| 68>    C       15.87545        15.17744         0.90202
| 69>    C       15.02701        14.83195        -0.15364
| 70>    N       14.34240        14.57702        -1.04160
| 71>    C       18.43863        17.22439         2.46609
| 72>    O       18.80361        18.12678         1.53270
| 73>    C       19.75046        18.93161         2.06514
| 74>    C       20.00831        18.55547         3.36495
| 75>    C       19.16795        17.45404         3.63619
| 76>    C       19.09026        16.76332         4.85353
| 77>    N       19.05675        16.23584         5.87112
| 78>    C       20.33016        19.99205         1.28644
| 79>    C       20.00004        20.25630         0.02394
| 80>    H        2.62185        -2.76022        -1.71545
| 81>    H        5.89294        -2.17913         1.02638
| 82>    H        6.28834         0.48202         0.32606
| 83>    H        4.30779         1.26492        -1.87160
| 84>    H        3.59177         3.66294        -2.98119
| 85>    H        4.22727         4.91129        -4.96810
| 86>    H        5.95477         4.72253        -4.60825
| 87>    H        4.00856         6.25052        -2.83014
| 88>    H        5.02160         7.03000        -4.05200
| 89>    H        7.04850         6.51281        -2.88739
| 90>    H        8.19493         6.52090        -0.70379
| 91>    H        8.62238         4.67510         1.70222
| 92>    H        9.38309         5.21482         3.81620
| 93>    H       10.81938         6.00516         4.50731
| 94>    H       10.91604         3.89180         2.28876
| 95>    H       11.27493         3.60425         3.99614
| 96>    H       12.30325         4.67975         3.04619
| 97>    H       10.06444        10.14474        -2.29947
| 98>    H       11.52902        10.91763        -1.65186
| 99>    H        8.63578        11.48866        -0.80999
|100>    H        9.66783        12.55621        -1.76651
|101>    H       10.04997        12.24663        -0.06950
|102>    H       12.34279        11.41051         0.37886
|103>    H       12.72858         9.83854         2.98820
|104>    H       13.96474        12.97587         0.89114
|105>    H       14.44796        10.87429         4.64196
|106>    H       17.30594        14.98690         3.93280
|107>    H       16.91931        16.90456         0.07384
|108>    H       20.70638        19.00521         4.04115
|109>    H       21.07397        20.57758         1.80764
|110>    H       19.25954        19.67226        -0.49554
|111>    H       20.45985        21.06030        -0.52217
|112> *
|113>
|114>                          ****END OF INPUT****

CARTESIAN COORDINATES (ANGSTROEM)
---------------------------------
  C      3.435650   -2.398580   -1.117780
  O      3.814480   -1.132800   -1.272230
  C      4.850260   -0.901290   -0.424860
  C      5.132370   -2.046740    0.284890
  C      4.209340   -3.024990   -0.167950
  C      4.110240   -4.357590    0.265760
  N      4.042970   -5.441110    0.631590
  C      5.478350    0.379440   -0.381620
  C      5.121520    1.411790   -1.174980
  C      5.741490    2.692090   -1.149150
  S      6.913530    3.108740    0.062400
  C      7.111740    4.705740   -0.593370
  C      6.274230    4.898560   -1.686450
  C      5.524900    3.759270   -2.012330
  C      4.657870    3.696120   -3.233340
  N      4.953000    2.455170   -4.007480
  O      6.111760    2.203180   -4.218540
  O      4.008300    1.814600   -4.395610
  C      4.966450    4.873360   -4.166660
  C      4.951670    6.175590   -3.379000
  C      6.122140    6.208780   -2.386910
  N      5.798740    7.316090   -1.423340
  O      5.470070    7.019190   -0.302800
  O      5.835590    8.428880   -1.875330
  C      8.039140    5.642040   -0.092850
  C      8.756790    5.530760    1.056180
  C      9.664520    6.547240    1.430190
  N     10.393200    6.559640    2.592960
  C     10.407550    5.536070    3.609460
  C     11.279740    4.349790    3.205980
  C     11.204890    7.704010    2.695260
  O     11.929620    7.925070    3.644850
  C     10.933930    8.446200    1.482620
  C      9.987890    7.716110    0.730760
  C      9.727090    8.448640   -0.489360
  O      9.002950    8.203460   -1.440740
  N     10.537840    9.580670   -0.399250
  C     10.507910   10.607900   -1.413930
  C      9.662050   11.803090   -0.983790
  C     11.269220    9.604970    0.770260
  C     12.189880   10.617770    1.096340
  C     12.896330   10.627320    2.266680
  C     13.853950   11.606700    2.605040
  C     14.299560   12.690760    1.868070
  C     15.290850   13.386040    2.605530
  C     15.437890   12.659660    3.882800
  C     14.583410   11.605570    3.866740
  C     16.309550   12.965410    4.935190
  N     17.009690   13.168980    5.822160
  C     15.996570   14.503710    2.207460
  C     16.984280   15.221080    2.937090
  C     17.450700   16.254610    2.153050
  C     16.753740   16.215450    0.880700
  C     15.875450   15.177440    0.902020
  C     15.027010   14.831950   -0.153640
  N     14.342400   14.577020   -1.041600
  C     18.438630   17.224390    2.466090
  O     18.803610   18.126780    1.532700
  C     19.750460   18.931610    2.065140
  C     20.008310   18.555470    3.364950
  C     19.167950   17.454040    3.636190
  C     19.090260   16.763320    4.853530
  N     19.056750   16.235840    5.871120
  C     20.330160   19.992050    1.286440
  C     20.000040   20.256300    0.023940
  H      2.621850   -2.760220   -1.715450
  H      5.892940   -2.179130    1.026380
  H      6.288340    0.482020    0.326060
  H      4.307790    1.264920   -1.871600
  H      3.591770    3.662940   -2.981190
  H      4.227270    4.911290   -4.968100
  H      5.954770    4.722530   -4.608250
  H      4.008560    6.250520   -2.830140
  H      5.021600    7.030000   -4.052000
  H      7.048500    6.512810   -2.887390
  H      8.194930    6.520900   -0.703790
  H      8.622380    4.675100    1.702220
  H      9.383090    5.214820    3.816200
  H     10.819380    6.005160    4.507310
  H     10.916040    3.891800    2.288760
  H     11.274930    3.604250    3.996140
  H     12.303250    4.679750    3.046190
  H     10.064440   10.144740   -2.299470
  H     11.529020   10.917630   -1.651860
  H      8.635780   11.488660   -0.809990
  H      9.667830   12.556210   -1.766510
  H     10.049970   12.246630   -0.069500
  H     12.342790   11.410510    0.378860
  H     12.728580    9.838540    2.988200
  H     13.964740   12.975870    0.891140
  H     14.447960   10.874290    4.641960
  H     17.305940   14.986900    3.932800
  H     16.919310   16.904560    0.073840
  H     20.706380   19.005210    4.041150
  H     21.073970   20.577580    1.807640
  H     19.259540   19.672260   -0.495540
  H     20.459850   21.060300   -0.522170

 Total Charge           Charge          ....    0
 Multiplicity           Mult            ....    1
 Number of Electrons    NEL             ....  456
 Basis Dimension        Dim             .... 1074

ORBITAL ENERGIES
----------------

  NO   OCC          E(Eh)            E(eV)
   0   2.0000     -88.978286     -2421.2222
   1   2.0000     -19.320366      -525.7339
   2   2.0000     -19.316582      -525.6309
   3   2.0000     -19.258529      -524.0512
   4   2.0000     -19.258134      -524.0405
   5   2.0000     -19.249024      -523.7926
   6   2.0000     -19.248765      -523.7855
   7   2.0000     -19.202009      -522.5132
   8   2.0000     -19.195988      -522.3494
   9   2.0000     -14.655529      -398.7972
  10   2.0000     -14.647021      -398.5657
  11   2.0000     -14.461910      -393.5286
  12   2.0000     -14.458053      -393.4236
  13   2.0000     -14.409753      -392.1093
  14   2.0000     -14.409267      -392.0961
  15   2.0000     -14.406875      -392.0310
  16   2.0000     -14.400141      -391.8478
  17   2.0000     -10.383314      -282.5443
  18   2.0000     -10.378510      -282.4136
  19   2.0000     -10.364086      -282.0211
  20   2.0000     -10.360684      -281.9285
  21   2.0000     -10.353529      -281.7338
  22   2.0000     -10.351998      -281.6922
  23   2.0000     -10.351535      -281.6796
  24   2.0000     -10.348550      -281.5984
  25   2.0000     -10.346130      -281.5325
  26   2.0000     -10.341017      -281.3934
  27   2.0000     -10.329552      -281.0814
  28   2.0000     -10.322573      -280.8915
  29   2.0000     -10.321681      -280.8672
  30   2.0000     -10.320039      -280.8225
  31   2.0000     -10.319426      -280.8059
  32   2.0000     -10.318952      -280.7929
  33   2.0000     -10.315549      -280.7004
  34   2.0000     -10.314299      -280.6663
  35   2.0000     -10.312675      -280.6222
  36   2.0000     -10.311653      -280.5944
  37   2.0000     -10.311522      -280.5908
  38   2.0000     -10.309480      -280.5352
  39   2.0000     -10.308890      -280.5192
  40   2.0000     -10.308627      -280.5120
  41   2.0000     -10.308554      -280.5100
  42   2.0000     -10.308490      -280.5083
  43   2.0000     -10.308399      -280.5058
  44   2.0000     -10.308167      -280.4995
  45   2.0000     -10.307166      -280.4722
  46   2.0000     -10.307097      -280.4704
  47   2.0000     -10.305345      -280.4227
  48   2.0000     -10.303839      -280.3817
  49   2.0000     -10.303044      -280.3601
  50   2.0000     -10.301080      -280.3066
  51   2.0000     -10.300704      -280.2964
  52   2.0000     -10.299730      -280.2699
  53   2.0000     -10.299298      -280.2582
  54   2.0000     -10.299250      -280.2568
  55   2.0000     -10.296416      -280.1797
  56   2.0000     -10.295769      -280.1621
  57   2.0000     -10.292952      -280.0855
  58   2.0000     -10.286428      -279.9079
  59   2.0000     -10.283249      -279.8214
  60   2.0000     -10.279907      -279.7305
  61   2.0000     -10.271101      -279.4909
  62   2.0000     -10.270600      -279.4772
  63   2.0000     -10.266915      -279.3770
  64   2.0000     -10.262059      -279.2448
  65   2.0000      -8.073667      -219.6957
  66   2.0000      -6.042699      -164.4302
  67   2.0000      -6.038951      -164.3282
  68   2.0000      -6.035921      -164.2458
  69   2.0000      -1.339800       -36.4578
  70   2.0000      -1.331307       -36.2267
  71   2.0000      -1.240479       -33.7552
  72   2.0000      -1.235746       -33.6264
  73   2.0000      -1.160629       -31.5823
  74   2.0000      -1.152515       -31.3615
  75   2.0000      -1.141684       -31.0668
  76   2.0000      -1.133154       -30.8347
  77   2.0000      -1.071300       -29.1515
  78   2.0000      -1.061716       -28.8908
  79   2.0000      -1.022961       -27.8362
  80   2.0000      -1.014349       -27.6019
  81   2.0000      -0.997536       -27.1443
  82   2.0000      -0.995044       -27.0765
  83   2.0000      -0.992507       -27.0075
  84   2.0000      -0.984281       -26.7836
  85   2.0000      -0.976569       -26.5738
  86   2.0000      -0.970023       -26.3957
  87   2.0000      -0.948674       -25.8147
  88   2.0000      -0.934940       -25.4410
  89   2.0000      -0.930552       -25.3216
  90   2.0000      -0.927997       -25.2521
  91   2.0000      -0.926490       -25.2111
  92   2.0000      -0.921710       -25.0810
  93   2.0000      -0.915786       -24.9198
  94   2.0000      -0.910370       -24.7724
  95   2.0000      -0.879363       -23.9287
  96   2.0000      -0.874242       -23.7893
  97   2.0000      -0.870052       -23.6753
  98   2.0000      -0.859740       -23.3947
  99   2.0000      -0.857792       -23.3417
 100   2.0000      -0.844629       -22.9835
 101   2.0000      -0.838397       -22.8139
 102   2.0000      -0.829087       -22.5606
 103   2.0000      -0.825523       -22.4636
 104   2.0000      -0.824819       -22.4445
 105   2.0000      -0.801182       -21.8013
 106   2.0000      -0.787770       -21.4363
 107   2.0000      -0.771573       -20.9956
 108   2.0000      -0.764978       -20.8161
 109   2.0000      -0.756530       -20.5862
 110   2.0000      -0.751923       -20.4609
 111   2.0000      -0.745685       -20.2911
 112   2.0000      -0.738829       -20.1046
 113   2.0000      -0.732513       -19.9327
 114   2.0000      -0.723231       -19.6801
 115   2.0000      -0.715224       -19.4622
 116   2.0000      -0.713861       -19.4251
 117   2.0000      -0.706059       -19.2129
 118   2.0000      -0.700137       -19.0517
 119   2.0000      -0.695199       -18.9173
 120   2.0000      -0.692885       -18.8544
 121   2.0000      -0.687806       -18.7162
 122   2.0000      -0.679854       -18.4998
 123   2.0000      -0.675987       -18.3945
 124   2.0000      -0.668190       -18.1824
 125   2.0000      -0.656846       -17.8737
 126   2.0000      -0.654643       -17.8137
 127   2.0000      -0.650756       -17.7080
 128   2.0000      -0.643253       -17.5038
 129   2.0000      -0.638991       -17.3878
 130   2.0000      -0.637758       -17.3543
 131   2.0000      -0.633131       -17.2284
 132   2.0000      -0.628148       -17.0928
 133   2.0000      -0.626476       -17.0473
 134   2.0000      -0.615403       -16.7460
 135   2.0000      -0.607201       -16.5228
 136   2.0000      -0.604934       -16.4611
 137   2.0000      -0.597623       -16.2621
 138   2.0000      -0.595409       -16.2019
 139   2.0000      -0.589237       -16.0340
 140   2.0000      -0.587334       -15.9822
 141   2.0000      -0.582745       -15.8573
 142   2.0000      -0.581653       -15.8276
 143   2.0000      -0.579979       -15.7820
 144   2.0000      -0.578020       -15.7287
 145   2.0000      -0.576762       -15.6945
 146   2.0000      -0.576013       -15.6741
 147   2.0000      -0.572307       -15.5733
 148   2.0000      -0.564746       -15.3675
 149   2.0000      -0.557715       -15.1762
 150   2.0000      -0.555728       -15.1221
 151   2.0000      -0.543354       -14.7854
 152   2.0000      -0.540811       -14.7162
 153   2.0000      -0.537147       -14.6165
 154   2.0000      -0.535943       -14.5837
 155   2.0000      -0.533448       -14.5159
 156   2.0000      -0.529435       -14.4067
 157   2.0000      -0.527526       -14.3547
 158   2.0000      -0.524846       -14.2818
 159   2.0000      -0.523399       -14.2424
 160   2.0000      -0.521566       -14.1925
 161   2.0000      -0.520882       -14.1739
 162   2.0000      -0.518670       -14.1137
 163   2.0000      -0.517334       -14.0774
 164   2.0000      -0.514813       -14.0088
 165   2.0000      -0.513087       -13.9618
 166   2.0000      -0.511777       -13.9262
 167   2.0000      -0.505137       -13.7455
 168   2.0000      -0.502500       -13.6737
 169   2.0000      -0.494536       -13.4570
 170   2.0000      -0.492882       -13.4120
 171   2.0000      -0.488601       -13.2955
 172   2.0000      -0.487130       -13.2555
 173   2.0000      -0.486782       -13.2460
 174   2.0000      -0.485714       -13.2170
 175   2.0000      -0.481914       -13.1136
 176   2.0000      -0.478899       -13.0315
 177   2.0000      -0.476003       -12.9527
 178   2.0000      -0.474862       -12.9217
 179   2.0000      -0.471369       -12.8266
 180   2.0000      -0.466666       -12.6986
 181   2.0000      -0.462627       -12.5887
 182   2.0000      -0.460666       -12.5354
 183   2.0000      -0.459418       -12.5014
 184   2.0000      -0.458593       -12.4790
 185   2.0000      -0.458137       -12.4665
 186   2.0000      -0.455582       -12.3970
 187   2.0000      -0.453598       -12.3430
 188   2.0000      -0.446972       -12.1627
 189   2.0000      -0.445433       -12.1209
 190   2.0000      -0.442532       -12.0419
 191   2.0000      -0.440744       -11.9932
 192   2.0000      -0.440190       -11.9782
 193   2.0000      -0.438748       -11.9389
 194   2.0000      -0.435754       -11.8575
 195   2.0000      -0.434509       -11.8236
 196   2.0000      -0.434367       -11.8197
 197   2.0000      -0.430086       -11.7032
 198   2.0000      -0.428911       -11.6712
 199   2.0000      -0.426813       -11.6142
 200   2.0000      -0.421151       -11.4601
 201   2.0000      -0.420400       -11.4397
 202   2.0000      -0.414133       -11.2691
 203   2.0000      -0.412268       -11.2184
 204   2.0000      -0.405232       -11.0269
 205   2.0000      -0.404334       -11.0025
 206   2.0000      -0.396568       -10.7912
 207   2.0000      -0.392604       -10.6833
 208   2.0000      -0.391885       -10.6637
 209   2.0000      -0.390526       -10.6268
 210   2.0000      -0.384664       -10.4672
 211   2.0000      -0.382297       -10.4028
 212   2.0000      -0.380166       -10.3448
 213   2.0000      -0.376919       -10.2565
 214   2.0000      -0.371220       -10.1014
 215   2.0000      -0.363001        -9.8778
 216   2.0000      -0.360415        -9.8074
 217   2.0000      -0.355645        -9.6776
 218   2.0000      -0.342136        -9.3100
 219   2.0000      -0.339513        -9.2386
 220   2.0000      -0.336324        -9.1519
 221   2.0000      -0.326573        -8.8865
 222   2.0000      -0.321975        -8.7614
 223   2.0000      -0.320810        -8.7297
 224   2.0000      -0.299240        -8.1427
 225   2.0000      -0.278033        -7.5657
 226   2.0000      -0.269624        -7.3368
 227   2.0000      -0.233218        -6.3462
 228   0.0000      -0.131407        -3.5758
 229   0.0000      -0.088530        -2.4090
 230   0.0000      -0.050601        -1.3769
 231   0.0000      -0.029352        -0.7987
 232   0.0000      -0.025224        -0.6864

MULLIKEN ATOMIC CHARGES
-----------------------
   0 C :    0.142576
   1 O :   -0.171452
   2 C :    0.171617
   3 C :   -0.028481
   4 C :   -0.132221
   5 C :   -0.129017
   6 N :    0.137389
   7 C :   -0.016320
   8 C :   -0.016147
   9 C :   -0.081975
  10 S :    0.128548
  11 C :   -0.052967
  12 C :   -0.018045
  13 C :   -0.008404
  14 C :    0.135596
  15 N :    0.176296
  16 O :   -0.207809
  17 O :   -0.222599
  18 C :    0.053751
  19 C :    0.076229
  20 C :    0.098186
  21 N :    0.189386
  22 O :   -0.215096
  23 O :   -0.214743
  24 C :   -0.003879
  25 C :   -0.036075
  26 C :    0.144421
  27 N :   -0.256738
  28 C :    0.100230
  29 C :    0.001066
  30 C :    0.168446
  31 O :   -0.202792
  32 C :   -0.059065
  33 C :   -0.081224
  34 C :    0.182492
  35 O :   -0.239419
  36 N :   -0.250003
  37 C :    0.095656
  38 C :    0.001051
  39 C :    0.142719
  40 C :   -0.009604
  41 C :   -0.006427
  42 C :    0.118664
  43 C :   -0.128889
  44 C :    0.125511
  45 C :   -0.083591
  46 C :   -0.005649
  47 C :   -0.187851
  48 N :    0.153048
  49 C :    0.110301
  50 C :   -0.138084
  51 C :    0.028155
  52 C :   -0.009888
  53 C :   -0.095255
  54 C :   -0.164281
  55 N :    0.121760
  56 C :    0.204480
  57 O :   -0.192185
  58 C :    0.176565
  59 C :   -0.042758
  60 C :   -0.083683
  61 C :   -0.218923
  62 N :    0.180066
  63 C :   -0.025116
  64 C :    0.003442
  65 H :    0.028401
  66 H :   -0.000390
  67 H :    0.007263
  68 H :    0.010390
  69 H :    0.032885
  70 H :    0.034183
  71 H :    0.038018
  72 H :    0.023817
  73 H :    0.042689
  74 H :    0.066513
  75 H :    0.021848
  76 H :   -0.025866
  77 H :    0.025505
  78 H :    0.045020
  79 H :    0.014513
  80 H :    0.026652
  81 H :    0.032171
  82 H :    0.042206
  83 H :    0.032105
  84 H :    0.034916
  85 H :    0.030057
  86 H :    0.016821
  87 H :   -0.011826
  88 H :    0.004453
  89 H :   -0.004562
  90 H :    0.010526
  91 H :    0.024037
  92 H :    0.000421
  93 H :   -0.002975
  94 H :    0.004691
  95 H :    0.031288
  96 H :    0.033237
Sum of atomic charges:   -0.0000000

LOEWDIN ATOMIC CHARGES
----------------------
   0 C :    0.086203
   1 O :    0.038233
   2 C :    0.028896
   3 C :   -0.030050
   4 C :   -0.114885
   5 C :   -0.032589
   6 N :   -0.048622
   7 C :   -0.024758
   8 C :   -0.041150
   9 C :   -0.150617
  10 S :    0.459276
  11 C :   -0.160226
  12 C :   -0.052874
  13 C :   -0.069355
  14 C :    0.018767
  15 N :    0.270479
  16 O :   -0.189163
  17 O :   -0.196855
  18 C :   -0.018335
  19 C :   -0.016824
  20 C :    0.017223
  21 N :    0.272235
  22 O :   -0.192445
  23 O :   -0.184524
  24 C :    0.017703
  25 C :   -0.054876
  26 C :    0.084388
  27 N :    0.001885
  28 C :    0.037324
  29 C :   -0.060830
  30 C :    0.084174
  31 O :   -0.192088
  32 C :   -0.106226
  33 C :   -0.123990
  34 C :    0.080201
  35 O :   -0.218698
  36 N :    0.006952
  37 C :    0.037347
  38 C :   -0.059822
  39 C :    0.065205
  40 C :   -0.015524
  41 C :    0.015977
  42 C :   -0.013019
  43 C :   -0.032402
  44 C :    0.044532
  45 C :   -0.078345
  46 C :    0.059168
  47 C :   -0.038497
  48 N :   -0.046546
  49 C :    0.028254
  50 C :   -0.014153
  51 C :   -0.037796
  52 C :    0.051676
  53 C :   -0.082460
  54 C :   -0.026302
  55 N :   -0.073641
  56 C :    0.062190
  57 O :    0.027679
  58 C :    0.040578
  59 C :   -0.030183
  60 C :   -0.094382
  61 C :   -0.036727
  62 N :   -0.031506
  63 C :   -0.040404
  64 C :   -0.020586
  65 H :    0.036088
  66 H :    0.040369
  67 H :    0.034138
  68 H :    0.033476
  69 H :    0.041763
  70 H :    0.038736
  71 H :    0.035641
  72 H :    0.033235
  73 H :    0.042179
  74 H :    0.054084
  75 H :    0.035868
  76 H :    0.024017
  77 H :    0.024484
  78 H :    0.038361
  79 H :    0.021599
  80 H :    0.031721
  81 H :    0.033097
  82 H :    0.037632
  83 H :    0.025988
  84 H :    0.033913
  85 H :    0.033584
  86 H :    0.022831
  87 H :    0.035367
  88 H :    0.037216
  89 H :    0.029749
  90 H :    0.042052
  91 H :    0.040198
  92 H :    0.037542
  93 H :    0.041273
  94 H :    0.041140
  95 H :    0.027512
  96 H :    0.030875

  Mayer bond orders larger than 0.100000
B(  0-C ,  1-O ) :   1.1889 B(  0-C ,  4-C ) :   1.5108 B(  0-C , 65-H ) :   1.0117
B(  1-O ,  2-C ) :   1.1372 B(  2-C ,  3-C ) :   1.4754 B(  2-C ,  7-C ) :   1.1326
B(  3-C ,  4-C ) :   1.2375 B(  3-C , 66-H ) :   1.0208 B(  4-C ,  5-C ) :   1.0822
B(  5-C ,  6-N ) :   3.0554 B(  7-C ,  8-C ) :   1.6675 B(  7-C , 67-H ) :   0.9647
B(  8-C ,  9-C ) :   1.1332 B(  8-C , 68-H ) :   0.9616 B(  9-C , 10-S ) :   1.1330
B(  9-C , 13-C ) :   1.4908 B( 10-S , 11-C ) :   1.1061 B( 11-C , 12-C ) :   1.4830
B( 11-C , 24-C ) :   1.1733 B( 12-C , 13-C ) :   1.3543 B( 12-C , 20-C ) :   0.9667
B( 13-C , 14-C ) :   0.9637 B( 14-C , 15-N ) :   0.8379 B( 14-C , 18-C ) :   1.0633
B( 14-C , 69-H ) :   0.8935 B( 15-N , 16-O ) :   1.5906 B( 15-N , 17-O ) :   1.5390
B( 16-O , 17-O ) :   0.2709 B( 18-C , 19-C ) :   1.1013 B( 18-C , 70-H ) :   0.9298
B( 18-C , 71-H ) :   0.9258 B( 19-C , 20-C ) :   1.0747 B( 19-C , 72-H ) :   0.9229
B( 19-C , 73-H ) :   0.9239 B( 20-C , 21-N ) :   0.8344 B( 20-C , 74-H ) :   0.8822
B( 21-N , 22-O ) :   1.5938 B( 21-N , 23-O ) :   1.5635 B( 22-O , 23-O ) :   0.2707
B( 24-C , 25-C ) :   1.5657 B( 24-C , 75-H ) :   0.9272 B( 25-C , 26-C ) :   1.1813
B( 25-C , 76-H ) :   0.9733 B( 26-C , 27-N ) :   1.1655 B( 26-C , 33-C ) :   1.3044
B( 27-N , 28-C ) :   0.9453 B( 27-N , 30-C ) :   1.0546 B( 28-C , 29-C ) :   1.1193
B( 28-C , 77-H ) :   0.9503 B( 28-C , 78-H ) :   0.9293 B( 29-C , 79-H ) :   0.9691
B( 29-C , 80-H ) :   0.9684 B( 29-C , 81-H ) :   0.9640 B( 30-C , 31-O ) :   2.0345
B( 30-C , 32-C ) :   0.9807 B( 31-O , 88-H ) :   0.1078 B( 32-C , 33-C ) :   1.2794
B( 32-C , 39-C ) :   1.3187 B( 33-C , 34-C ) :   1.0009 B( 34-C , 35-O ) :   1.9568
B( 34-C , 36-N ) :   1.0911 B( 35-O , 75-H ) :   0.1392 B( 36-N , 37-C ) :   0.9417
B( 36-N , 39-C ) :   1.1465 B( 37-C , 38-C ) :   1.1209 B( 37-C , 82-H ) :   0.9279
B( 37-C , 83-H ) :   0.9496 B( 38-C , 84-H ) :   0.9637 B( 38-C , 85-H ) :   0.9680
B( 38-C , 86-H ) :   0.9686 B( 39-C , 40-C ) :   1.1806 B( 40-C , 41-C ) :   1.5464
B( 40-C , 87-H ) :   0.9656 B( 41-C , 42-C ) :   1.1306 B( 41-C , 88-H ) :   0.9584
B( 42-C , 43-C ) :   1.5017 B( 42-C , 46-C ) :   1.0267 B( 43-C , 44-C ) :   1.1597
B( 43-C , 89-H ) :   0.9935 B( 44-C , 45-C ) :   1.0972 B( 44-C , 49-C ) :   1.3650
B( 45-C , 46-C ) :   1.6723 B( 45-C , 47-C ) :   1.0866 B( 46-C , 90-H ) :   1.0284
B( 47-C , 48-N ) :   2.9770 B( 49-C , 50-C ) :   1.1346 B( 49-C , 53-C ) :   1.1139
B( 50-C , 51-C ) :   1.5547 B( 50-C , 91-H ) :   0.9951 B( 51-C , 52-C ) :   1.0474
B( 51-C , 56-C ) :   1.0510 B( 52-C , 53-C ) :   1.6365 B( 52-C , 92-H ) :   1.0319
B( 53-C , 54-C ) :   1.0835 B( 54-C , 55-N ) :   2.9569 B( 56-C , 57-O ) :   1.1985
B( 56-C , 60-C ) :   1.4440 B( 57-O , 58-C ) :   1.1229 B( 58-C , 59-C ) :   1.4466
B( 58-C , 63-C ) :   1.1162 B( 59-C , 60-C ) :   1.2356 B( 59-C , 93-H ) :   1.0223
B( 60-C , 61-C ) :   1.1358 B( 61-C , 62-N ) :   3.0011 B( 63-C , 64-C ) :   1.9151
B( 63-C , 94-H ) :   0.9595 B( 64-C , 95-H ) :   0.9602 B( 64-C , 96-H ) :   0.9468

-----------------------------------------------------------------------------
         ABSORPTION SPECTRUM VIA TRANSITION ELECTRIC DIPOLE MOMENTS
-----------------------------------------------------------------------------
State   Energy  Wavelength   fosc         T2         TX        TY        TZ
        (cm-1)    (nm)                  (au**2)     (au)      (au)      (au)
-----------------------------------------------------------------------------
   0    8696.3   1149.9   0.917684260  34.74029  -3.59571  -4.65991  -0.31041
   1   14810.8    675.2   0.051060486   1.13497  -0.59692  -0.79703   0.37869
   2   16717.1    598.2   0.427383532   8.41650   1.59926   2.39028   0.38137
   3   18138.9    551.3   0.028840546   0.52344   0.28427   0.66122  -0.07360
   4   21452.7    466.1   0.231511637   3.55276   1.05441   1.41726   0.65755
   5   23532.4    424.9   0.365955735   5.11961  -1.51429  -1.67976  -0.07032
   6   24755.5    403.9   0.013901354   0.18487  -0.22626  -0.33341  -0.15005
   7   25731.7    388.6   0.061740932   0.78991   0.43924   0.71553   0.29154
   8   27027.1    370.0   0.240608018   2.93080   0.68189   1.56324   0.14865
   9   27380.1    365.2   0.002041907   0.02455   0.07091   0.13001  -0.05120
  10   28521.0    350.6   0.264799932   3.05653   1.20295   1.17090   0.48830
  11   28794.2    347.3   0.003565249   0.04076  -0.17376   0.09015  -0.04942
  12   29449.5    339.6   0.000517044   0.00578  -0.03737  -0.04630  -0.04732
  13   29690.8    336.8   0.050352725   0.55831   0.28300   0.10187   0.68399
  14   30752.5    325.2   0.006793650   0.07273   0.13728   0.22995  -0.03167
  15   31708.0    315.4   0.090495454   0.93958  -0.63219  -0.59494  -0.43122
  16   32037.7    312.1   0.059790722   0.61439   0.54039   0.53548   0.18878
  17   32351.1    309.1   0.035617702   0.36245   0.34720   0.05425   0.48884
  18   32965.4    303.3   0.115007137   1.14853  -0.18545  -0.99147   0.36210
  19   33767.5    296.1   0.278405419   2.71428  -1.11289  -1.21401  -0.04374
  20   34217.6    292.2   0.024058704   0.23147   0.19373  -0.07374   0.43417
  21   35011.6    285.6   0.082637699   0.77704  -0.03168   0.77053  -0.42699
  22   35177.0    284.3   0.003944109   0.03691  -0.06052  -0.16498   0.07766
  23   35637.2    280.6   0.047180862   0.43585  -0.03168   0.58781  -0.29887
  24   35674.1    280.3   0.095744872   0.88357   0.05076  -0.82021   0.45633
  25   36882.1    271.1   0.027859424   0.24868  -0.40043  -0.17176  -0.24254
  26   36899.9    271.0   0.011473247   0.10236  -0.07294  -0.30803   0.04645
  27   37373.0    267.6   0.016123902   0.14203   0.07540   0.29378  -0.22369
  28   37731.5    265.0   0.006276878   0.05477   0.22311   0.07062   0.00168
  29   38068.7    262.7   0.127857425   1.10569  -0.56391   0.03042  -0.88700
  30   38274.1    261.3   0.002693479   0.02317  -0.06496  -0.13761  -0.00342
  31   38439.5    260.1   0.222630372   1.90670   0.82790   1.08859  -0.19041
  32   38849.5    257.4   0.001758468   0.01490  -0.05498  -0.09884   0.04592
  33   39050.2    256.1   0.013562685   0.11434  -0.08838   0.17278  -0.27691
  34   39565.0    252.7   0.015716960   0.13078  -0.17793  -0.16873   0.26580
  35   40270.0    248.3   0.052760949   0.43133  -0.36170  -0.19086  -0.51388
  36   40305.7    248.1   0.004123015   0.03368   0.01677  -0.15578   0.09554

FINAL SINGLE POINT ENERGY     -3282.351769772223

DIPOLE MOMENT
-------------
                                X             Y             Z
Electronic contribution:      1.46864      -9.80503       9.37275
Nuclear contribution   :     -1.99725      11.10073     -11.34030
                        -----------------------------------------
Total Dipole Moment    :     -0.52861       1.29570      -1.96755
                        -----------------------------------------
Magnitude (a.u.)       :      2.41444
Magnitude (Debye)      :      6.13702

Rotational constants in cm-1:     0.003162     0.000277     0.000259
Rotational constants in MHz :    94.794852     8.296829     7.777264

                             ****ORCA TERMINATED NORMALLY****
TOTAL RUN TIME: 0 days 0 hours 18 minutes 46 seconds 610 msec
