                         Program Version 4.2.0 -  RELEASE  -
|  1> # ORCA input file
|  2> # SCF done       -213.833964795022          0.000936278171
|  3> ! CAM-B3LYP def2-SVP def2/J RIJCOSX Grid4 TightSCF
|  4> %maxcore 5000
|  5> %tddft
|  6>     Mode sTDDFT
|  7>     Ethresh 5.0
|  8>     maxcore 5000
|  9> end
| 10>
| 11> %pal
| 12>   nprocs 6
| 13>   end
| 14> * xyz 0 1
| 15>    C      -10.49071         2.32362        -3.62403
| 16>    C      -11.43913         3.05468        -2.96544
| 17>    F      -12.01897         4.10210        -3.56598
| 18>    C      -11.81994         2.71808        -1.65078
| 19>    F      -12.75202         3.45301        -1.02945
| 20>    C      -11.24840         1.65261        -1.01368
| 21>    C      -10.27097         0.87736        -1.66723
| 22>    C       -9.88158         1.21906        -2.99504
| 23>    C       -8.90083         0.45666        -3.67014
| 24>    C       -8.33537        -0.61995        -3.03899
| 25>    C       -8.74241        -0.96314        -1.72109
| 26>    C       -9.67628        -0.23875        -1.03834
| 27>    C       -8.02795        -2.17818        -1.28170
| 28>    O       -8.10212        -2.67898        -0.17961
| 29>    C       -7.24258        -2.62310        -2.45717
| 30>    C       -7.32969        -1.58442        -3.47249
| 31>    C       -6.56459        -1.47294        -4.60313
| 32>    C       -5.51661        -2.34346        -4.97301
| 33>    N       -4.63855        -2.99079        -5.33116
| 34>    C       -6.69459        -0.42280        -5.53688
| 35>    N       -6.75708         0.40242        -6.33204
| 36>    C       -6.67385        -3.84698        -2.68592
| 37>    C       -6.57155        -4.98806        -1.86758
| 38>    C       -6.80271        -5.19620        -0.51597
| 39>    C       -6.64522        -6.52727        -0.16182
| 40>    C       -6.28481        -7.36978        -1.23362
| 41>    S       -6.10280        -6.48311        -2.69156
| 42>    C       -6.22869        -8.71033        -0.85650
| 43>    C       -6.54292        -8.88994         0.50223
| 44>    S       -6.87539        -7.39535         1.33113
| 45>    C       -6.59602       -10.22217         0.89053
| 46>    C       -6.32906       -11.08111        -0.16356
| 47>    S       -5.95702       -10.21863        -1.64818
| 48>    C       -6.43673       -12.50069        -0.19657
| 49>    C       -6.91924       -13.29318         0.87147
| 50>    C       -7.22980       -14.68362         0.68828
| 51>    N       -7.74564       -15.38897         1.71492
| 52>    C       -7.93995       -14.81939         2.85843
| 53>    C       -7.61054       -13.45135         3.04505
| 54>    N       -7.12952       -12.73539         2.08305
| 55>    F       -7.78183       -12.86133         4.22504
| 56>    F       -8.44363       -15.55036         3.84578
| 57>    C       -7.04957       -15.36667        -0.53585
| 58>    C       -6.43498       -14.61275        -1.56057
| 59>    C       -6.15259       -13.20897        -1.38583
| 60>    N       -5.62381       -12.67252        -2.48554
| 61>    S       -5.48282       -13.80273        -3.61347
| 62>    N       -6.09292       -15.02957        -2.78134
| 63>    C       -7.55128       -16.68229        -0.73197
| 64>    C       -7.41770       -17.46281        -1.87049
| 65>    C       -8.16328       -18.63156        -1.78657
| 66>    C       -8.88382       -18.74835        -0.58523
| 67>    S       -8.57902       -17.42431         0.47741
| 68>    C       -9.70115       -19.87557        -0.57758
| 69>    C       -9.59511       -20.63138        -1.75708
| 70>    S       -8.46211       -19.94814        -2.88796
| 71>    C      -10.44837       -21.72981        -1.79263
| 72>    C      -11.26107       -21.79191        -0.67570
| 73>    S      -10.88508       -20.52417         0.48604
| 74>    C      -12.27534       -22.74905        -0.42104
| 75>    C      -13.38137       -22.60085         0.35575
| 76>    C      -14.10324       -23.79739         0.87200
| 77>    O      -13.96758       -24.94001         0.50317
| 78>    C      -14.96226       -23.28652         1.96097
| 79>    C      -15.74118       -23.98304         2.83975
| 80>    C      -16.46591       -23.27592         3.82553
| 81>    C      -16.36118       -21.85566         3.88869
| 82>    C      -17.07975       -21.15799         4.88031
| 83>    C      -17.87013       -21.83727         5.76417
| 84>    C      -17.97610       -23.24138         5.69887
| 85>    C      -17.28906       -23.94678         4.75107
| 86>    F      -18.75871       -23.88102         6.57798
| 87>    F      -18.55441       -21.17289         6.70412
| 88>    C      -15.55320       -21.16017         2.96089
| 89>    C      -14.87219       -21.86552         2.00564
| 90>    C      -14.02022       -21.42217         0.90693
| 91>    C      -14.06142       -20.17963         0.33238
| 92>    C      -13.45408       -19.87062        -0.90301
| 93>    N      -13.02035       -19.59574        -1.92956
| 94>    C      -14.79326       -19.09671         0.86068
| 95>    N      -15.36079       -18.18190         1.25824
| 96>    H      -10.20966         2.59632        -4.62927
| 97>    H      -11.55138         1.40668        -0.00797
| 98>    H       -8.63049         0.73842        -4.67488
| 99>    H       -9.96238        -0.51902        -0.03599
|100>    H       -6.29644        -4.01468        -3.68867
|101>    H       -7.09016        -4.41040         0.15748
|102>    H       -6.83568       -10.56783         1.87703
|103>    H       -6.82119       -17.16342        -2.71130
|104>    H      -10.52582       -22.41865        -2.61342
|105>    H      -12.12653       -23.73475        -0.85103
|106>    H      -15.80523       -25.05901         2.78363
|107>    H      -17.01258       -20.08299         4.94093
|108>    H      -17.38095       -25.02099         4.71517
|109>    H      -15.48398       -20.08640         3.03300
|110> *
|111>
|112>                          ****END OF INPUT****

CARTESIAN COORDINATES (ANGSTROEM)
---------------------------------
  C    -10.490710    2.323620   -3.624030
  C    -11.439130    3.054680   -2.965440
  F    -12.018970    4.102100   -3.565980
  C    -11.819940    2.718080   -1.650780
  F    -12.752020    3.453010   -1.029450
  C    -11.248400    1.652610   -1.013680
  C    -10.270970    0.877360   -1.667230
  C     -9.881580    1.219060   -2.995040
  C     -8.900830    0.456660   -3.670140
  C     -8.335370   -0.619950   -3.038990
  C     -8.742410   -0.963140   -1.721090
  C     -9.676280   -0.238750   -1.038340
  C     -8.027950   -2.178180   -1.281700
  O     -8.102120   -2.678980   -0.179610
  C     -7.242580   -2.623100   -2.457170
  C     -7.329690   -1.584420   -3.472490
  C     -6.564590   -1.472940   -4.603130
  C     -5.516610   -2.343460   -4.973010
  N     -4.638550   -2.990790   -5.331160
  C     -6.694590   -0.422800   -5.536880
  N     -6.757080    0.402420   -6.332040
  C     -6.673850   -3.846980   -2.685920
  C     -6.571550   -4.988060   -1.867580
  C     -6.802710   -5.196200   -0.515970
  C     -6.645220   -6.527270   -0.161820
  C     -6.284810   -7.369780   -1.233620
  S     -6.102800   -6.483110   -2.691560
  C     -6.228690   -8.710330   -0.856500
  C     -6.542920   -8.889940    0.502230
  S     -6.875390   -7.395350    1.331130
  C     -6.596020  -10.222170    0.890530
  C     -6.329060  -11.081110   -0.163560
  S     -5.957020  -10.218630   -1.648180
  C     -6.436730  -12.500690   -0.196570
  C     -6.919240  -13.293180    0.871470
  C     -7.229800  -14.683620    0.688280
  N     -7.745640  -15.388970    1.714920
  C     -7.939950  -14.819390    2.858430
  C     -7.610540  -13.451350    3.045050
  N     -7.129520  -12.735390    2.083050
  F     -7.781830  -12.861330    4.225040
  F     -8.443630  -15.550360    3.845780
  C     -7.049570  -15.366670   -0.535850
  C     -6.434980  -14.612750   -1.560570
  C     -6.152590  -13.208970   -1.385830
  N     -5.623810  -12.672520   -2.485540
  S     -5.482820  -13.802730   -3.613470
  N     -6.092920  -15.029570   -2.781340
  C     -7.551280  -16.682290   -0.731970
  C     -7.417700  -17.462810   -1.870490
  C     -8.163280  -18.631560   -1.786570
  C     -8.883820  -18.748350   -0.585230
  S     -8.579020  -17.424310    0.477410
  C     -9.701150  -19.875570   -0.577580
  C     -9.595110  -20.631380   -1.757080
  S     -8.462110  -19.948140   -2.887960
  C    -10.448370  -21.729810   -1.792630
  C    -11.261070  -21.791910   -0.675700
  S    -10.885080  -20.524170    0.486040
  C    -12.275340  -22.749050   -0.421040
  C    -13.381370  -22.600850    0.355750
  C    -14.103240  -23.797390    0.872000
  O    -13.967580  -24.940010    0.503170
  C    -14.962260  -23.286520    1.960970
  C    -15.741180  -23.983040    2.839750
  C    -16.465910  -23.275920    3.825530
  C    -16.361180  -21.855660    3.888690
  C    -17.079750  -21.157990    4.880310
  C    -17.870130  -21.837270    5.764170
  C    -17.976100  -23.241380    5.698870
  C    -17.289060  -23.946780    4.751070
  F    -18.758710  -23.881020    6.577980
  F    -18.554410  -21.172890    6.704120
  C    -15.553200  -21.160170    2.960890
  C    -14.872190  -21.865520    2.005640
  C    -14.020220  -21.422170    0.906930
  C    -14.061420  -20.179630    0.332380
  C    -13.454080  -19.870620   -0.903010
  N    -13.020350  -19.595740   -1.929560
  C    -14.793260  -19.096710    0.860680
  N    -15.360790  -18.181900    1.258240
  H    -10.209660    2.596320   -4.629270
  H    -11.551380    1.406680   -0.007970
  H     -8.630490    0.738420   -4.674880
  H     -9.962380   -0.519020   -0.035990
  H     -6.296440   -4.014680   -3.688670
  H     -7.090160   -4.410400    0.157480
  H     -6.835680  -10.567830    1.877030
  H     -6.821190  -17.163420   -2.711300
  H    -10.525820  -22.418650   -2.613420
  H    -12.126530  -23.734750   -0.851030
  H    -15.805230  -25.059010    2.783630
  H    -17.012580  -20.082990    4.940930
  H    -17.380950  -25.020990    4.715170
  H    -15.483980  -20.086400    3.033000

 Total Charge           Charge          ....    0
 Multiplicity           Mult            ....    1
 Number of Electrons    NEL             ....  600
 Basis Dimension        Dim             .... 1232

ORBITAL ENERGIES
----------------

  NO   OCC          E(Eh)            E(eV)
   0   2.0000     -89.053193     -2423.2606
   1   2.0000     -88.974542     -2421.1204
   2   2.0000     -88.973660     -2421.0964
   3   2.0000     -88.968508     -2420.9562
   4   2.0000     -88.967660     -2420.9331
   5   2.0000     -88.967560     -2420.9304
   6   2.0000     -88.966865     -2420.9115
   7   2.0000     -24.826837      -675.5726
   8   2.0000     -24.825154      -675.5268
   9   2.0000     -24.798976      -674.8145
  10   2.0000     -24.798534      -674.8024
  11   2.0000     -24.797491      -674.7740
  12   2.0000     -24.796396      -674.7442
  13   2.0000     -19.220538      -523.0174
  14   2.0000     -19.217535      -522.9357
  15   2.0000     -14.467511      -393.6810
  16   2.0000     -14.464435      -393.5973
  17   2.0000     -14.461948      -393.5296
  18   2.0000     -14.461858      -393.5272
  19   2.0000     -14.418079      -392.3359
  20   2.0000     -14.414906      -392.2495
  21   2.0000     -14.414234      -392.2313
  22   2.0000     -14.413627      -392.2147
  23   2.0000     -10.442993      -284.1683
  24   2.0000     -10.441756      -284.1346
  25   2.0000     -10.382151      -282.5127
  26   2.0000     -10.381793      -282.5030
  27   2.0000     -10.380499      -282.4677
  28   2.0000     -10.379664      -282.4450
  29   2.0000     -10.371631      -282.2264
  30   2.0000     -10.369452      -282.1671
  31   2.0000     -10.356907      -281.8258
  32   2.0000     -10.354978      -281.7733
  33   2.0000     -10.350387      -281.6483
  34   2.0000     -10.348959      -281.6095
  35   2.0000     -10.345495      -281.5152
  36   2.0000     -10.343627      -281.4644
  37   2.0000     -10.341206      -281.3985
  38   2.0000     -10.340630      -281.3828
  39   2.0000     -10.326499      -280.9983
  40   2.0000     -10.325965      -280.9838
  41   2.0000     -10.325553      -280.9726
  42   2.0000     -10.325377      -280.9678
  43   2.0000     -10.325066      -280.9593
  44   2.0000     -10.324940      -280.9559
  45   2.0000     -10.323373      -280.9133
  46   2.0000     -10.322880      -280.8998
  47   2.0000     -10.322760      -280.8966
  48   2.0000     -10.320995      -280.8486
  49   2.0000     -10.320507      -280.8353
  50   2.0000     -10.317752      -280.7603
  51   2.0000     -10.316780      -280.7339
  52   2.0000     -10.316658      -280.7305
  53   2.0000     -10.316103      -280.7154
  54   2.0000     -10.315123      -280.6888
  55   2.0000     -10.314823      -280.6806
  56   2.0000     -10.313596      -280.6472
  57   2.0000     -10.313382      -280.6414
  58   2.0000     -10.311785      -280.5979
  59   2.0000     -10.311386      -280.5871
  60   2.0000     -10.311088      -280.5790
  61   2.0000     -10.309568      -280.5376
  62   2.0000     -10.309280      -280.5298
  63   2.0000     -10.309240      -280.5287
  64   2.0000     -10.307654      -280.4855
  65   2.0000     -10.306182      -280.4455
  66   2.0000     -10.304129      -280.3896
  67   2.0000     -10.303340      -280.3681
  68   2.0000     -10.302049      -280.3330
  69   2.0000     -10.301480      -280.3175
  70   2.0000     -10.301322      -280.3132
  71   2.0000     -10.301241      -280.3110
  72   2.0000     -10.300840      -280.3001
  73   2.0000     -10.300535      -280.2918
  74   2.0000     -10.300285      -280.2850
  75   2.0000     -10.299439      -280.2620
  76   2.0000     -10.297610      -280.2122
  77   2.0000     -10.295396      -280.1520
  78   2.0000     -10.292815      -280.0817
  79   2.0000     -10.292297      -280.0676
  80   2.0000     -10.290944      -280.0308
  81   2.0000      -8.144258      -221.6165
  82   2.0000      -8.069318      -219.5773
  83   2.0000      -8.068930      -219.5667
  84   2.0000      -8.062743      -219.3984
  85   2.0000      -8.062436      -219.3900
  86   2.0000      -8.062157      -219.3825
  87   2.0000      -8.061202      -219.3565
  88   2.0000      -6.115382      -166.4080
  89   2.0000      -6.107554      -166.1950
  90   2.0000      -6.107035      -166.1809
  91   2.0000      -6.038911      -164.3271
  92   2.0000      -6.038378      -164.3126
  93   2.0000      -6.034792      -164.2150
  94   2.0000      -6.034359      -164.2033
  95   2.0000      -6.032499      -164.1527
  96   2.0000      -6.032193      -164.1443
  97   2.0000      -6.031901      -164.1364
  98   2.0000      -6.031008      -164.1121
  99   2.0000      -6.030847      -164.1077
 100   2.0000      -6.030583      -164.1005
 101   2.0000      -6.028636      -164.0475
 102   2.0000      -6.028039      -164.0313
 103   2.0000      -6.027724      -164.0227
 104   2.0000      -6.026421      -163.9873
 105   2.0000      -6.023934      -163.9196
 106   2.0000      -6.023659      -163.9121
 107   2.0000      -6.023062      -163.8959
 108   2.0000      -6.022774      -163.8880
 109   2.0000      -1.354595       -36.8604
 110   2.0000      -1.340498       -36.4768
 111   2.0000      -1.321805       -35.9681
 112   2.0000      -1.319954       -35.9178
 113   2.0000      -1.306959       -35.5642
 114   2.0000      -1.305069       -35.5127
 115   2.0000      -1.150978       -31.3197
 116   2.0000      -1.135738       -30.9050
 117   2.0000      -1.133250       -30.8373
 118   2.0000      -1.125575       -30.6284
 119   2.0000      -1.051557       -28.6143
 120   2.0000      -1.030694       -28.0466
 121   2.0000      -1.030078       -28.0299
 122   2.0000      -1.021013       -27.7832
 123   2.0000      -1.019052       -27.7298
 124   2.0000      -1.008466       -27.4418
 125   2.0000      -1.004979       -27.3469
 126   2.0000      -1.003412       -27.3042
 127   2.0000      -0.998846       -27.1800
 128   2.0000      -0.994369       -27.0582
 129   2.0000      -0.993117       -27.0241
 130   2.0000      -0.987470       -26.8704
 131   2.0000      -0.982751       -26.7420
 132   2.0000      -0.980368       -26.6772
 133   2.0000      -0.975007       -26.5313
 134   2.0000      -0.943738       -25.6804
 135   2.0000      -0.937881       -25.5210
 136   2.0000      -0.929839       -25.3022
 137   2.0000      -0.927791       -25.2465
 138   2.0000      -0.905068       -24.6282
 139   2.0000      -0.902186       -24.5497
 140   2.0000      -0.896633       -24.3986
 141   2.0000      -0.895266       -24.3614
 142   2.0000      -0.893983       -24.3265
 143   2.0000      -0.891736       -24.2654
 144   2.0000      -0.883332       -24.0367
 145   2.0000      -0.881883       -23.9972
 146   2.0000      -0.866506       -23.5788
 147   2.0000      -0.856464       -23.3056
 148   2.0000      -0.845637       -23.0110
 149   2.0000      -0.844694       -22.9853
 150   2.0000      -0.841732       -22.9047
 151   2.0000      -0.839633       -22.8476
 152   2.0000      -0.828427       -22.5426
 153   2.0000      -0.819163       -22.2906
 154   2.0000      -0.816180       -22.2094
 155   2.0000      -0.807817       -21.9818
 156   2.0000      -0.796299       -21.6684
 157   2.0000      -0.789572       -21.4853
 158   2.0000      -0.780655       -21.2427
 159   2.0000      -0.769478       -20.9386
 160   2.0000      -0.766782       -20.8652
 161   2.0000      -0.764897       -20.8139
 162   2.0000      -0.760593       -20.6968
 163   2.0000      -0.746923       -20.3248
 164   2.0000      -0.738766       -20.1029
 165   2.0000      -0.728191       -19.8151
 166   2.0000      -0.719663       -19.5830
 167   2.0000      -0.717860       -19.5340
 168   2.0000      -0.710673       -19.3384
 169   2.0000      -0.701615       -19.0919
 170   2.0000      -0.696615       -18.9558
 171   2.0000      -0.689066       -18.7504
 172   2.0000      -0.686079       -18.6692
 173   2.0000      -0.684958       -18.6387
 174   2.0000      -0.677630       -18.4392
 175   2.0000      -0.676940       -18.4205
 176   2.0000      -0.667664       -18.1681
 177   2.0000      -0.662356       -18.0236
 178   2.0000      -0.658733       -17.9250
 179   2.0000      -0.655775       -17.8445
 180   2.0000      -0.653861       -17.7925
 181   2.0000      -0.652275       -17.7493
 182   2.0000      -0.643555       -17.5120
 183   2.0000      -0.642030       -17.4705
 184   2.0000      -0.641382       -17.4529
 185   2.0000      -0.639425       -17.3996
 186   2.0000      -0.636261       -17.3135
 187   2.0000      -0.633791       -17.2463
 188   2.0000      -0.629297       -17.1241
 189   2.0000      -0.624509       -16.9938
 190   2.0000      -0.620847       -16.8941
 191   2.0000      -0.616246       -16.7689
 192   2.0000      -0.608958       -16.5706
 193   2.0000      -0.604524       -16.4499
 194   2.0000      -0.592310       -16.1176
 195   2.0000      -0.589995       -16.0546
 196   2.0000      -0.587990       -16.0000
 197   2.0000      -0.586283       -15.9536
 198   2.0000      -0.584531       -15.9059
 199   2.0000      -0.581432       -15.8216
 200   2.0000      -0.580922       -15.8077
 201   2.0000      -0.579150       -15.7595
 202   2.0000      -0.576570       -15.6893
 203   2.0000      -0.573514       -15.6061
 204   2.0000      -0.569266       -15.4905
 205   2.0000      -0.561392       -15.2762
 206   2.0000      -0.557917       -15.1817
 207   2.0000      -0.555379       -15.1126
 208   2.0000      -0.554124       -15.0785
 209   2.0000      -0.552857       -15.0440
 210   2.0000      -0.551147       -14.9975
 211   2.0000      -0.547944       -14.9103
 212   2.0000      -0.546204       -14.8630
 213   2.0000      -0.541509       -14.7352
 214   2.0000      -0.539630       -14.6841
 215   2.0000      -0.537454       -14.6249
 216   2.0000      -0.535574       -14.5737
 217   2.0000      -0.533282       -14.5113
 218   2.0000      -0.532504       -14.4902
 219   2.0000      -0.530972       -14.4485
 220   2.0000      -0.529093       -14.3973
 221   2.0000      -0.528562       -14.3829
 222   2.0000      -0.526347       -14.3226
 223   2.0000      -0.523971       -14.2580
 224   2.0000      -0.523280       -14.2392
 225   2.0000      -0.522025       -14.2050
 226   2.0000      -0.520912       -14.1747
 227   2.0000      -0.516764       -14.0619
 228   2.0000      -0.514561       -14.0019
 229   2.0000      -0.514077       -13.9888
 230   2.0000      -0.505411       -13.7529
 231   2.0000      -0.504276       -13.7221
 232   2.0000      -0.501497       -13.6464
 233   2.0000      -0.498458       -13.5637
 234   2.0000      -0.495776       -13.4907
 235   2.0000      -0.494295       -13.4505
 236   2.0000      -0.491732       -13.3807
 237   2.0000      -0.490638       -13.3509
 238   2.0000      -0.487178       -13.2568
 239   2.0000      -0.486837       -13.2475
 240   2.0000      -0.485231       -13.2038
 241   2.0000      -0.482827       -13.1384
 242   2.0000      -0.478040       -13.0081
 243   2.0000      -0.473682       -12.8895
 244   2.0000      -0.468502       -12.7486
 245   2.0000      -0.468391       -12.7456
 246   2.0000      -0.465788       -12.6747
 247   2.0000      -0.464951       -12.6520
 248   2.0000      -0.462899       -12.5961
 249   2.0000      -0.461795       -12.5661
 250   2.0000      -0.458041       -12.4639
 251   2.0000      -0.454535       -12.3685
 252   2.0000      -0.451952       -12.2982
 253   2.0000      -0.450527       -12.2595
 254   2.0000      -0.447821       -12.1858
 255   2.0000      -0.446699       -12.1553
 256   2.0000      -0.445437       -12.1210
 257   2.0000      -0.444215       -12.0877
 258   2.0000      -0.443256       -12.0616
 259   2.0000      -0.442569       -12.0429
 260   2.0000      -0.441793       -12.0218
 261   2.0000      -0.433472       -11.7954
 262   2.0000      -0.430155       -11.7051
 263   2.0000      -0.429254       -11.6806
 264   2.0000      -0.429052       -11.6751
 265   2.0000      -0.426068       -11.5939
 266   2.0000      -0.424654       -11.5554
 267   2.0000      -0.423789       -11.5319
 268   2.0000      -0.423626       -11.5274
 269   2.0000      -0.421968       -11.4823
 270   2.0000      -0.417368       -11.3572
 271   2.0000      -0.412875       -11.2349
 272   2.0000      -0.411819       -11.2062
 273   2.0000      -0.407405       -11.0861
 274   2.0000      -0.404223       -10.9995
 275   2.0000      -0.401305       -10.9201
 276   2.0000      -0.397412       -10.8141
 277   2.0000      -0.394756       -10.7418
 278   2.0000      -0.386758       -10.5242
 279   2.0000      -0.386290       -10.5115
 280   2.0000      -0.377051       -10.2601
 281   2.0000      -0.375734       -10.2242
 282   2.0000      -0.370652       -10.0860
 283   2.0000      -0.370121       -10.0715
 284   2.0000      -0.353256        -9.6126
 285   2.0000      -0.352839        -9.6013
 286   2.0000      -0.345179        -9.3928
 287   2.0000      -0.341747        -9.2994
 288   2.0000      -0.340449        -9.2641
 289   2.0000      -0.339443        -9.2367
 290   2.0000      -0.332336        -9.0433
 291   2.0000      -0.318262        -8.6604
 292   2.0000      -0.317104        -8.6288
 293   2.0000      -0.308993        -8.4081
 294   2.0000      -0.302008        -8.2181
 295   2.0000      -0.298111        -8.1120
 296   2.0000      -0.292564        -7.9611
 297   2.0000      -0.291064        -7.9203
 298   2.0000      -0.273616        -7.4455
 299   2.0000      -0.241837        -6.5807
 300   0.0000      -0.127494        -3.4693
 301   0.0000      -0.095793        -2.6067
 302   0.0000      -0.091315        -2.4848
 303   0.0000      -0.059713        -1.6249
 304   0.0000      -0.059078        -1.6076

MULLIKEN ATOMIC CHARGES
-----------------------
   0 C :   -0.105043
   1 C :    0.241012
   2 F :   -0.171268
   3 C :    0.236083
   4 F :   -0.172255
   5 C :   -0.102316
   6 C :    0.114642
   7 C :    0.111263
   8 C :   -0.079553
   9 C :    0.050688
  10 C :   -0.001519
  11 C :   -0.081315
  12 C :    0.160734
  13 O :   -0.160012
  14 C :   -0.095901
  15 C :    0.295445
  16 C :   -0.347468
  17 C :   -0.202890
  18 N :    0.157906
  19 C :   -0.183095
  20 N :    0.148327
  21 C :    0.049198
  22 C :   -0.114236
  23 C :    0.000963
  24 C :   -0.037647
  25 C :   -0.064125
  26 S :    0.166300
  27 C :   -0.050597
  28 C :   -0.003835
  29 S :    0.171095
  30 C :   -0.047644
  31 C :   -0.168220
  32 S :    0.176417
  33 C :    0.199642
  34 C :   -0.069925
  35 C :   -0.062474
  36 N :   -0.045239
  37 C :    0.155957
  38 C :    0.142419
  39 N :    0.000735
  40 F :   -0.138398
  41 F :   -0.132514
  42 C :    0.177651
  43 C :   -0.002254
  44 C :   -0.032068
  45 N :   -0.322888
  46 S :    0.559909
  47 N :   -0.293234
  48 C :   -0.164295
  49 C :   -0.044921
  50 C :   -0.008678
  51 C :   -0.036862
  52 S :    0.174337
  53 C :   -0.075620
  54 C :   -0.011644
  55 S :    0.168668
  56 C :    0.024319
  57 C :   -0.117834
  58 S :    0.167864
  59 C :    0.061529
  60 C :   -0.141512
  61 C :    0.140320
  62 O :   -0.138945
  63 C :    0.012954
  64 C :   -0.083197
  65 C :    0.112371
  66 C :    0.111254
  67 C :   -0.106744
  68 C :    0.241134
  69 C :    0.238761
  70 C :   -0.105041
  71 F :   -0.171679
  72 F :   -0.171071
  73 C :   -0.080959
  74 C :    0.036650
  75 C :    0.249061
  76 C :   -0.319915
  77 C :   -0.201601
  78 N :    0.176464
  79 C :   -0.176481
  80 N :    0.152772
  81 H :    0.006434
  82 H :   -0.001633
  83 H :   -0.005032
  84 H :   -0.011622
  85 H :    0.014975
  86 H :    0.021219
  87 H :    0.005240
  88 H :    0.001940
  89 H :    0.000697
  90 H :    0.029905
  91 H :   -0.007353
  92 H :    0.006570
  93 H :    0.000854
  94 H :   -0.002101
Sum of atomic charges:   -0.0000000

LOEWDIN ATOMIC CHARGES
----------------------
   0 C :   -0.029271
   1 C :    0.066067
   2 F :   -0.049182
   3 C :    0.067068
   4 F :   -0.049678
   5 C :   -0.033499
   6 C :   -0.008898
   7 C :   -0.006798
   8 C :    0.017250
   9 C :   -0.022581
  10 C :   -0.051042
  11 C :    0.028358
  12 C :    0.087741
  13 O :   -0.143706
  14 C :   -0.099170
  15 C :    0.076314
  16 C :   -0.143350
  17 C :   -0.026556
  18 N :   -0.051037
  19 C :   -0.017813
  20 N :   -0.055538
  21 C :    0.047453
  22 C :   -0.173002
  23 C :   -0.013438
  24 C :   -0.192330
  25 C :   -0.195212
  26 S :    0.444066
  27 C :   -0.222776
  28 C :   -0.180104
  29 S :    0.414146
  30 C :   -0.050730
  31 C :   -0.150004
  32 S :    0.465644
  33 C :   -0.044796
  34 C :   -0.005419
  35 C :   -0.014081
  36 N :   -0.052083
  37 C :    0.062945
  38 C :    0.061377
  39 N :   -0.031282
  40 F :   -0.027082
  41 F :   -0.022248
  42 C :   -0.038598
  43 C :   -0.038402
  44 C :   -0.046063
  45 N :   -0.297432
  46 S :    0.682178
  47 N :   -0.278239
  48 C :   -0.155808
  49 C :   -0.045155
  50 C :   -0.182574
  51 C :   -0.217718
  52 S :    0.464914
  53 C :   -0.194799
  54 C :   -0.187246
  55 S :    0.414448
  56 C :   -0.016125
  57 C :   -0.175771
  58 S :    0.456358
  59 C :    0.053200
  60 C :   -0.098635
  61 C :    0.082561
  62 O :   -0.141355
  63 C :   -0.054070
  64 C :    0.030242
  65 C :   -0.009645
  66 C :   -0.005368
  67 C :   -0.030777
  68 C :    0.066962
  69 C :    0.066563
  70 C :   -0.032937
  71 F :   -0.049396
  72 F :   -0.048644
  73 C :    0.012985
  74 C :   -0.019164
  75 C :    0.058615
  76 C :   -0.138101
  77 C :   -0.033200
  78 N :   -0.047206
  79 C :   -0.018918
  80 N :   -0.052084
  81 H :    0.047463
  82 H :    0.044451
  83 H :    0.039926
  84 H :    0.039448
  85 H :    0.043913
  86 H :    0.039336
  87 H :    0.033577
  88 H :    0.034020
  89 H :    0.041374
  90 H :    0.052158
  91 H :    0.040903
  92 H :    0.047296
  93 H :    0.045040
  94 H :    0.039778

  Mayer bond orders larger than 0.100000
B(  0-C ,  1-C ) :   1.4421 B(  0-C ,  5-C ) :   0.1085 B(  0-C ,  7-C ) :   1.1899
B(  0-C , 81-H ) :   1.0060 B(  1-C ,  2-F ) :   1.1342 B(  1-C ,  3-C ) :   1.1920
B(  3-C ,  4-F ) :   1.1324 B(  3-C ,  5-C ) :   1.4437 B(  5-C ,  6-C ) :   1.1940
B(  5-C , 82-H ) :   1.0062 B(  6-C ,  7-C ) :   1.2540 B(  6-C , 11-C ) :   1.1898
B(  7-C ,  8-C ) :   1.2161 B(  8-C ,  9-C ) :   1.4556 B(  8-C , 83-H ) :   0.9897
B(  9-C , 10-C ) :   1.2212 B(  9-C , 15-C ) :   0.9818 B( 10-C , 11-C ) :   1.4745
B( 10-C , 12-C ) :   0.9496 B( 11-C , 84-H ) :   1.0152 B( 12-C , 13-O ) :   2.1675
B( 12-C , 14-C ) :   0.9465 B( 14-C , 15-C ) :   1.0772 B( 14-C , 21-C ) :   1.5787
B( 15-C , 16-C ) :   1.6309 B( 16-C , 17-C ) :   1.1374 B( 16-C , 19-C ) :   1.1459
B( 17-C , 18-N ) :   2.9933 B( 19-C , 20-N ) :   2.9694 B( 21-C , 22-C ) :   1.2377
B( 21-C , 85-H ) :   0.9189 B( 22-C , 23-C ) :   1.4365 B( 22-C , 26-S ) :   1.0621
B( 23-C , 24-C ) :   1.3042 B( 23-C , 86-H ) :   0.9777 B( 24-C , 25-C ) :   1.3933
B( 24-C , 29-S ) :   1.0445 B( 25-C , 26-S ) :   1.1037 B( 25-C , 27-C ) :   1.3220
B( 27-C , 28-C ) :   1.4157 B( 27-C , 32-S ) :   1.0420 B( 28-C , 29-S ) :   1.0507
B( 28-C , 30-C ) :   1.2645 B( 30-C , 31-C ) :   1.4661 B( 30-C , 87-H ) :   0.9910
B( 31-C , 32-S ) :   1.0994 B( 31-C , 33-C ) :   1.1866 B( 33-C , 34-C ) :   1.3012
B( 33-C , 42-C ) :   0.1214 B( 33-C , 44-C ) :   1.1850 B( 34-C , 35-C ) :   1.1234
B( 34-C , 39-N ) :   1.4200 B( 35-C , 36-N ) :   1.3795 B( 35-C , 42-C ) :   1.2869
B( 36-N , 37-C ) :   1.6543 B( 37-C , 38-C ) :   1.1038 B( 37-C , 41-F ) :   1.1903
B( 38-C , 39-N ) :   1.6689 B( 38-C , 40-F ) :   1.1765 B( 42-C , 43-C ) :   1.2059
B( 42-C , 48-C ) :   1.1965 B( 43-C , 44-C ) :   1.1170 B( 43-C , 47-N ) :   1.5013
B( 44-C , 45-N ) :   1.4742 B( 45-N , 46-S ) :   1.2766 B( 45-N , 47-N ) :   0.1521
B( 46-S , 47-N ) :   1.2830 B( 48-C , 49-C ) :   1.4708 B( 48-C , 52-S ) :   1.0859
B( 49-C , 50-C ) :   1.2687 B( 49-C , 88-H ) :   0.9888 B( 50-C , 51-C ) :   1.4141
B( 50-C , 55-S ) :   1.0524 B( 51-C , 52-S ) :   1.0374 B( 51-C , 53-C ) :   1.3329
B( 53-C , 54-C ) :   1.4161 B( 53-C , 58-S ) :   1.0847 B( 54-C , 55-S ) :   1.0460
B( 54-C , 56-C ) :   1.2961 B( 56-C , 57-C ) :   1.4486 B( 56-C , 89-H ) :   1.0022
B( 57-C , 58-S ) :   1.0891 B( 57-C , 59-C ) :   1.1248 B( 59-C , 60-C ) :   1.6504
B( 59-C , 90-H ) :   0.9493 B( 60-C , 61-C ) :   0.9397 B( 60-C , 75-C ) :   1.0347
B( 61-C , 62-O ) :   2.2804 B( 61-C , 63-C ) :   0.9156 B( 63-C , 64-C ) :   1.4759
B( 63-C , 74-C ) :   1.2232 B( 64-C , 65-C ) :   1.1966 B( 64-C , 91-H ) :   1.0151
B( 65-C , 66-C ) :   1.2557 B( 65-C , 70-C ) :   1.1943 B( 66-C , 67-C ) :   1.1903
B( 66-C , 73-C ) :   1.2169 B( 67-C , 68-C ) :   1.4428 B( 67-C , 70-C ) :   0.1085
B( 67-C , 92-H ) :   1.0060 B( 68-C , 69-C ) :   1.1901 B( 68-C , 72-F ) :   1.1353
B( 69-C , 70-C ) :   1.4451 B( 69-C , 71-F ) :   1.1339 B( 70-C , 93-H ) :   1.0059
B( 73-C , 74-C ) :   1.4573 B( 73-C , 94-H ) :   0.9938 B( 74-C , 75-C ) :   1.0010
B( 75-C , 76-C ) :   1.6618 B( 76-C , 77-C ) :   1.1528 B( 76-C , 79-C ) :   1.1377
B( 77-C , 78-N ) :   3.0188 B( 79-C , 80-N ) :   2.9884

-----------------------------------------------------------------------------
         ABSORPTION SPECTRUM VIA TRANSITION ELECTRIC DIPOLE MOMENTS
-----------------------------------------------------------------------------
State   Energy  Wavelength   fosc         T2         TX        TY        TZ
        (cm-1)    (nm)                  (au**2)     (au)      (au)      (au)
-----------------------------------------------------------------------------
   0   10073.9    992.7   1.061642774  34.69407  -1.62695  -5.63738   0.51680
   1   17781.0    562.4   0.358424957   6.63616   2.55919  -0.29442   0.00579
   2   18594.9    537.8   0.328966240   5.82416   0.75018   1.98571  -1.14820
   3   19815.3    504.7   0.776594470  12.90235   0.64089  -3.36494   1.08112
   4   20337.0    491.7   0.042772781   0.69240  -0.35567  -0.38740   0.64485
   5   20568.7    486.2   0.013060300   0.20904  -0.00126  -0.06530  -0.45252
   6   24646.0    405.7   0.005918588   0.07906   0.12117  -0.24006   0.08214
   7   25304.8    395.2   0.085917034   1.11777   0.51672   0.67202  -0.63179
   8   26240.2    381.1   0.050798227   0.63732  -0.07426  -0.58739  -0.53551
   9   26544.9    376.7   0.078653821   0.97547   0.11288  -0.78236  -0.59216
  10   26581.8    376.2   0.004655159   0.05765   0.03321  -0.19526  -0.13573
  11   27089.0    369.2   0.077598519   0.94305  -0.37724  -0.89463   0.01964
  12   27229.3    367.3   0.127417336   1.54052  -0.46424  -1.08689   0.37905
  13   27627.3    362.0   0.181096770   2.15798  -0.32179   1.40507   0.28320
  14   27854.1    359.0   0.207020802   2.44681   1.15976   0.22201  -1.02591
  15   28266.7    353.8   0.111169876   1.29476  -0.79246   0.79488  -0.18688
  16   28535.4    350.4   0.057246915   0.66046  -0.40567  -0.65326   0.26293
  17   29330.9    340.9   0.047079546   0.52842   0.16173  -0.69351   0.14598
  18   29509.3    338.9   0.020612546   0.22996   0.35830  -0.28392  -0.14480
  19   29725.4    336.4   0.010917815   0.12092  -0.03334   0.27255  -0.21336
  20   29824.6    335.3   0.231364273   2.55386   0.95763   0.05681  -1.27812
  21   30297.2    330.1   0.015078581   0.16384  -0.22385  -0.25822  -0.21693
  22   30608.9    326.7   0.051321244   0.55198   0.60467   0.05203  -0.42854
  23   31127.5    321.3   0.014242867   0.15064   0.05066   0.35787  -0.14142
  24   31210.7    320.4   0.379137451   3.99917   0.21264   1.98498   0.11751
  25   31564.1    316.8   0.041125676   0.42894   0.05152  -0.03182   0.65213
  26   31782.7    314.6   0.048182728   0.49909  -0.25503   0.65881   0.00376
  27   31885.2    313.6   0.100304910   1.03564  -1.00851   0.13418   0.02333
  28   32707.0    305.7   0.098781779   0.99429  -0.76426  -0.23627   0.59529
  29   33117.1    302.0   0.148375324   1.47497  -0.26634   1.15167  -0.27873
  30   33366.5    299.7   0.206420657   2.03666  -0.12309  -0.33017   1.38293
  31   33644.9    297.2   0.418559802   4.09556   1.48572  -0.53131  -1.26725
  32   33912.7    294.9   0.072651258   0.70527  -0.13334  -0.82708  -0.05859
  33   34554.6    289.4   0.002043531   0.01947  -0.01945   0.09812   0.09728
  34   34701.5    288.2   0.082690825   0.78448  -0.27383  -0.52928   0.65526
  35   34836.1    287.1   0.064570993   0.61022   0.21900   0.48094  -0.57529
  36   34963.0    286.0   0.011651377   0.10971   0.23949   0.06256   0.22009
  37   35068.9    285.2   0.018468231   0.17337  -0.28476  -0.25464   0.16566
  38   35419.6    282.3   0.255239926   2.37236   1.25069  -0.25741  -0.86132
  39   35666.8    280.4   0.097951141   0.90411  -0.51901   0.39797   0.69019
  40   35786.6    279.4   0.327407460   3.01192   0.51740   0.86728  -1.41140
  41   35961.2    278.1   0.194105389   1.77696   0.56539   0.20847  -1.18905
  42   36095.9    277.0   0.240467207   2.19318   0.93940  -0.14292  -1.13591
  43   36263.3    275.8   0.062192688   0.56461  -0.58421   0.46835   0.06286
  44   36385.2    274.8   0.044547776   0.40307   0.48925   0.00092  -0.40459
  45   36483.3    274.1   0.047561032   0.42917  -0.20006   0.40861   0.47137
  46   36946.9    270.7   0.221214659   1.97111  -0.57670   0.79069   1.00665
  47   36984.9    270.4   0.079967267   0.71181  -0.28221  -0.37045   0.70352
  48   37072.7    269.7   0.061467606   0.54584   0.16812  -0.14311  -0.70505
  49   37864.5    264.1   0.005367242   0.04667   0.08479  -0.16142  -0.11584
  50   38034.8    262.9   0.048324424   0.41827   0.27428   0.09594  -0.57779
  51   38138.1    262.2   0.012052320   0.10404  -0.09539   0.29761  -0.07978
  52   38560.3    259.3   0.005506247   0.04701  -0.00553   0.17801  -0.12366
  53   38718.6    258.3   0.006869245   0.05841   0.09651   0.19828  -0.09888
  54   39272.3    254.6   0.044678766   0.37453  -0.11478   0.56336  -0.20973
  55   39395.6    253.8   0.147771485   1.23486  -0.26401  -0.02439   1.07915
  56   39649.9    252.2   0.030540138   0.25357   0.02183  -0.36912   0.34183
  57   39747.4    251.6   0.043445990   0.35985   0.07605   0.06543  -0.59142
  58   39967.5    250.2   0.017311654   0.14260  -0.18968  -0.14444  -0.29284
  59   40092.7    249.4   0.012988803   0.10665   0.13437  -0.16982   0.24446
  60   40204.0    248.7   0.012754152   0.10444  -0.11685   0.28137   0.10777

FINAL SINGLE POINT ENERGY     -6188.379330125622

DIPOLE MOMENT
-------------
                                X             Y             Z
Electronic contribution:      0.32636       0.21989      16.18607
Nuclear contribution   :      0.23326      -2.61880     -14.75154
                        -----------------------------------------
Total Dipole Moment    :      0.55962      -2.39891       1.43453
                        -----------------------------------------
Magnitude (a.u.)       :      2.85058
Magnitude (Debye)      :      7.24559

Rotational constants in cm-1:     0.000946     0.000164     0.000150
Rotational constants in MHz :    28.372975     4.911991     4.483493

                             ****ORCA TERMINATED NORMALLY****
TOTAL RUN TIME: 0 days 0 hours 13 minutes 35 seconds 947 msec
