                         Program Version 4.2.0 -  RELEASE  -
|  1> # ORCA input file
|  2> # SCF done       -205.480407055074          0.000495497039
|  3> ! CAM-B3LYP def2-SVP def2/J RIJCOSX Grid4 TightSCF
|  4> %maxcore 5000
|  5> %tddft
|  6>     Mode sTDDFT
|  7>     Ethresh 5.0
|  8>     maxcore 5000
|  9> end
| 10>
| 11> %pal
| 12>   nprocs 6
| 13>   end
| 14> * xyz 0 1
| 15>    C        3.56344         6.59848         3.85402
| 16>    C        4.20943         6.74968         2.65549
| 17>    C        5.26465         7.66028         2.44431
| 18>    N        6.12514         8.38547         2.21880
| 19>    C        3.96021         5.93783         1.52989
| 20>    N        3.81707         5.27013         0.60692
| 21>    C        3.97506         7.20505         5.11356
| 22>    C        3.46375         6.41358         6.18456
| 23>    C        3.73596         6.71490         7.48821
| 24>    C        4.53266         7.84448         7.78278
| 25>    C        5.02550         8.65181         6.71648
| 26>    C        4.73483         8.31255         5.37520
| 27>    C        5.81029         9.78113         7.02560
| 28>    C        6.10166        10.09643         8.32483
| 29>    C        5.61952         9.29942         9.37385
| 30>    C        4.85153         8.19811         9.10878
| 31>    C        2.64743         5.31670         5.63541
| 32>    O        2.10262         4.41464         6.22838
| 33>    C        2.57257         5.58806         4.16881
| 34>    C        1.61723         4.98609         3.41374
| 35>    C        1.12576         5.38576         2.14508
| 36>    C        0.50322         4.57800         1.21029
| 37>    C        0.12670         5.26829         0.05671
| 38>    C        0.42294         6.63532         0.12733
| 39>    S        1.17471         7.05165         1.62018
| 40>    C        0.21191         7.44503        -0.99827
| 41>    C       -0.37557         6.87742        -2.13077
| 42>    C       -0.92474         5.48409        -2.07637
| 43>    O       -0.41615         4.67367        -1.01623
| 44>    C       -0.40299         7.75196        -3.20187
| 45>    C        0.14235         8.99941        -2.90365
| 46>    S        0.69322         9.08579        -1.25106
| 47>    C        0.30616        10.09654        -3.77776
| 48>    C        0.84500        11.32042        -3.30684
| 49>    C        1.09151        12.46134        -4.15562
| 50>    N        1.58268        13.58127        -3.60829
| 51>    C        1.84455        13.62308        -2.32310
| 52>    C        1.62365        12.48529        -1.48651
| 53>    N        1.13187        11.38438        -2.00467
| 54>    C        1.91512        12.53104        -0.10205
| 55>    N        2.15540        12.60147         1.01587
| 56>    C        2.34627        14.82706        -1.76746
| 57>    N        2.74664        15.78900        -1.29185
| 58>    C        0.83373        12.40559        -5.54816
| 59>    C        0.26988        11.19237        -6.01024
| 60>    C       -0.00395        10.06262        -5.15720
| 61>    N       -0.53197         9.04844        -5.84158
| 62>    S       -0.67008         9.46241        -7.38826
| 63>    N       -0.06859        10.94784        -7.27398
| 64>    C        1.13834        13.44627        -6.46428
| 65>    C        1.65916        14.70711        -6.20869
| 66>    C        1.86625        15.45484        -7.36335
| 67>    C        1.52295        14.75326        -8.52980
| 68>    S        0.89506        13.18359        -8.17398
| 69>    C        1.82055        15.32957        -9.77492
| 70>    C        2.28835        16.64831        -9.81712
| 71>    C        2.30901        17.45825        -8.55614
| 72>    O        2.41239        16.68308        -7.36400
| 73>    C        2.64163        17.05829       -11.08848
| 74>    C        2.45694        16.07387       -12.05646
| 75>    S        1.81206        14.60376       -11.33155
| 76>    C        2.70602        16.02504       -13.43766
| 77>    C        3.24544        16.94120       -14.30573
| 78>    C        3.47348        16.66429       -15.71522
| 79>    C        3.10749        15.54391       -16.41925
| 80>    C        3.36831        15.35564       -17.79319
| 81>    N        3.54363        15.12588       -18.90469
| 82>    C        2.41210        14.42057       -15.92537
| 83>    N        1.84438        13.46596       -15.62904
| 84>    C        4.16035        17.81452       -16.29402
| 85>    C        4.30487        18.80551       -15.28449
| 86>    C        3.72916        18.31244       -14.02279
| 87>    O        3.67726        18.94029       -12.98261
| 88>    C        4.90511        20.00699       -15.52679
| 89>    C        5.40659        20.27687       -16.81953
| 90>    C        5.27586        19.28686       -17.83523
| 91>    C        4.64454        18.05324       -17.55303
| 92>    C        5.78503        19.56248       -19.12049
| 93>    C        6.39153        20.75878       -19.39175
| 94>    C        6.51708        21.73391       -18.39124
| 95>    C        6.03548        21.49777       -17.13211
| 96>    H        3.34949         6.09896         8.28660
| 97>    H        5.10944         8.94439         4.58493
| 98>    H        6.18097        10.38958         6.21400
| 99>    H        6.70606        10.96188         8.55143
|100>    H        5.85903         9.56278        10.39322
|101>    H        4.47696         7.58160         9.91283
|102>    H        1.12832         4.12881         3.86631
|103>    H        0.37565         3.51918         1.33646
|104>    H       -0.70124         4.94054        -3.00006
|105>    H       -2.02120         5.52910        -1.96468
|106>    H       -0.79348         7.52479        -4.17654
|107>    H        1.88334        15.05956        -5.22073
|108>    H        1.38772        18.06233        -8.49597
|109>    H        3.16436        18.13892        -8.54193
|110>    H        3.02299        18.03279       -11.33313
|111>    H        2.43948        15.06940       -13.87305
|112>    H        4.99737        20.74143       -14.74037
|113>    H        4.56437        17.32747       -18.34606
|114>    H        5.68539        18.80887       -19.88790
|115>    H        6.77781        20.96041       -20.37967
|116>    H        6.99755        22.67277       -18.62284
|117>    H        6.12983        22.24430       -16.35698
|118> *
|119>
|120>                          ****END OF INPUT****

CARTESIAN COORDINATES (ANGSTROEM)
---------------------------------
  C      3.563440    6.598480    3.854020
  C      4.209430    6.749680    2.655490
  C      5.264650    7.660280    2.444310
  N      6.125140    8.385470    2.218800
  C      3.960210    5.937830    1.529890
  N      3.817070    5.270130    0.606920
  C      3.975060    7.205050    5.113560
  C      3.463750    6.413580    6.184560
  C      3.735960    6.714900    7.488210
  C      4.532660    7.844480    7.782780
  C      5.025500    8.651810    6.716480
  C      4.734830    8.312550    5.375200
  C      5.810290    9.781130    7.025600
  C      6.101660   10.096430    8.324830
  C      5.619520    9.299420    9.373850
  C      4.851530    8.198110    9.108780
  C      2.647430    5.316700    5.635410
  O      2.102620    4.414640    6.228380
  C      2.572570    5.588060    4.168810
  C      1.617230    4.986090    3.413740
  C      1.125760    5.385760    2.145080
  C      0.503220    4.578000    1.210290
  C      0.126700    5.268290    0.056710
  C      0.422940    6.635320    0.127330
  S      1.174710    7.051650    1.620180
  C      0.211910    7.445030   -0.998270
  C     -0.375570    6.877420   -2.130770
  C     -0.924740    5.484090   -2.076370
  O     -0.416150    4.673670   -1.016230
  C     -0.402990    7.751960   -3.201870
  C      0.142350    8.999410   -2.903650
  S      0.693220    9.085790   -1.251060
  C      0.306160   10.096540   -3.777760
  C      0.845000   11.320420   -3.306840
  C      1.091510   12.461340   -4.155620
  N      1.582680   13.581270   -3.608290
  C      1.844550   13.623080   -2.323100
  C      1.623650   12.485290   -1.486510
  N      1.131870   11.384380   -2.004670
  C      1.915120   12.531040   -0.102050
  N      2.155400   12.601470    1.015870
  C      2.346270   14.827060   -1.767460
  N      2.746640   15.789000   -1.291850
  C      0.833730   12.405590   -5.548160
  C      0.269880   11.192370   -6.010240
  C     -0.003950   10.062620   -5.157200
  N     -0.531970    9.048440   -5.841580
  S     -0.670080    9.462410   -7.388260
  N     -0.068590   10.947840   -7.273980
  C      1.138340   13.446270   -6.464280
  C      1.659160   14.707110   -6.208690
  C      1.866250   15.454840   -7.363350
  C      1.522950   14.753260   -8.529800
  S      0.895060   13.183590   -8.173980
  C      1.820550   15.329570   -9.774920
  C      2.288350   16.648310   -9.817120
  C      2.309010   17.458250   -8.556140
  O      2.412390   16.683080   -7.364000
  C      2.641630   17.058290  -11.088480
  C      2.456940   16.073870  -12.056460
  S      1.812060   14.603760  -11.331550
  C      2.706020   16.025040  -13.437660
  C      3.245440   16.941200  -14.305730
  C      3.473480   16.664290  -15.715220
  C      3.107490   15.543910  -16.419250
  C      3.368310   15.355640  -17.793190
  N      3.543630   15.125880  -18.904690
  C      2.412100   14.420570  -15.925370
  N      1.844380   13.465960  -15.629040
  C      4.160350   17.814520  -16.294020
  C      4.304870   18.805510  -15.284490
  C      3.729160   18.312440  -14.022790
  O      3.677260   18.940290  -12.982610
  C      4.905110   20.006990  -15.526790
  C      5.406590   20.276870  -16.819530
  C      5.275860   19.286860  -17.835230
  C      4.644540   18.053240  -17.553030
  C      5.785030   19.562480  -19.120490
  C      6.391530   20.758780  -19.391750
  C      6.517080   21.733910  -18.391240
  C      6.035480   21.497770  -17.132110
  H      3.349490    6.098960    8.286600
  H      5.109440    8.944390    4.584930
  H      6.180970   10.389580    6.214000
  H      6.706060   10.961880    8.551430
  H      5.859030    9.562780   10.393220
  H      4.476960    7.581600    9.912830
  H      1.128320    4.128810    3.866310
  H      0.375650    3.519180    1.336460
  H     -0.701240    4.940540   -3.000060
  H     -2.021200    5.529100   -1.964680
  H     -0.793480    7.524790   -4.176540
  H      1.883340   15.059560   -5.220730
  H      1.387720   18.062330   -8.495970
  H      3.164360   18.138920   -8.541930
  H      3.022990   18.032790  -11.333130
  H      2.439480   15.069400  -13.873050
  H      4.997370   20.741430  -14.740370
  H      4.564370   17.327470  -18.346060
  H      5.685390   18.808870  -19.887900
  H      6.777810   20.960410  -20.379670
  H      6.997550   22.672770  -18.622840
  H      6.129830   22.244300  -16.356980

 Total Charge           Charge          ....    0
 Multiplicity           Mult            ....    1
 Number of Electrons    NEL             ....  576
 Basis Dimension        Dim             .... 1264

ORBITAL ENERGIES
----------------

  NO   OCC          E(Eh)            E(eV)
   0   2.0000     -89.055592     -2423.3259
   1   2.0000     -88.976252     -2421.1669
   2   2.0000     -88.974042     -2421.1068
   3   2.0000     -88.972564     -2421.0665
   4   2.0000     -88.967430     -2420.9269
   5   2.0000     -19.269774      -524.3572
   6   2.0000     -19.261888      -524.1426
   7   2.0000     -19.214792      -522.8611
   8   2.0000     -19.211292      -522.7658
   9   2.0000     -14.474406      -393.8686
  10   2.0000     -14.468587      -393.7103
  11   2.0000     -14.467055      -393.6686
  12   2.0000     -14.463748      -393.5786
  13   2.0000     -14.436012      -392.8238
  14   2.0000     -14.435584      -392.8122
  15   2.0000     -14.414229      -392.2311
  16   2.0000     -14.413123      -392.2010
  17   2.0000     -14.409653      -392.1066
  18   2.0000     -14.405307      -391.9883
  19   2.0000     -10.390428      -282.7379
  20   2.0000     -10.389681      -282.7176
  21   2.0000     -10.366502      -282.0869
  22   2.0000     -10.362305      -281.9727
  23   2.0000     -10.358494      -281.8689
  24   2.0000     -10.358231      -281.8618
  25   2.0000     -10.356258      -281.8081
  26   2.0000     -10.354718      -281.7662
  27   2.0000     -10.352623      -281.7092
  28   2.0000     -10.352385      -281.7027
  29   2.0000     -10.348992      -281.6104
  30   2.0000     -10.344947      -281.5003
  31   2.0000     -10.343037      -281.4483
  32   2.0000     -10.340888      -281.3899
  33   2.0000     -10.333125      -281.1786
  34   2.0000     -10.331898      -281.1452
  35   2.0000     -10.331420      -281.1322
  36   2.0000     -10.330545      -281.1084
  37   2.0000     -10.329659      -281.0843
  38   2.0000     -10.328525      -281.0535
  39   2.0000     -10.327209      -281.0176
  40   2.0000     -10.325399      -280.9684
  41   2.0000     -10.323740      -280.9233
  42   2.0000     -10.323306      -280.9114
  43   2.0000     -10.322865      -280.8994
  44   2.0000     -10.322104      -280.8787
  45   2.0000     -10.320881      -280.8454
  46   2.0000     -10.317458      -280.7523
  47   2.0000     -10.316394      -280.7233
  48   2.0000     -10.315293      -280.6934
  49   2.0000     -10.314615      -280.6749
  50   2.0000     -10.313181      -280.6359
  51   2.0000     -10.309265      -280.5294
  52   2.0000     -10.307864      -280.4912
  53   2.0000     -10.302585      -280.3476
  54   2.0000     -10.301282      -280.3121
  55   2.0000     -10.298420      -280.2342
  56   2.0000     -10.298295      -280.2309
  57   2.0000     -10.296668      -280.1866
  58   2.0000     -10.296533      -280.1829
  59   2.0000     -10.296247      -280.1751
  60   2.0000     -10.295923      -280.1663
  61   2.0000     -10.295436      -280.1531
  62   2.0000     -10.295372      -280.1513
  63   2.0000     -10.293339      -280.0960
  64   2.0000     -10.291654      -280.0501
  65   2.0000     -10.291553      -280.0474
  66   2.0000     -10.291284      -280.0401
  67   2.0000     -10.290016      -280.0056
  68   2.0000     -10.289662      -279.9959
  69   2.0000     -10.289054      -279.9794
  70   2.0000     -10.288276      -279.9582
  71   2.0000     -10.285194      -279.8744
  72   2.0000     -10.284705      -279.8610
  73   2.0000     -10.284254      -279.8488
  74   2.0000     -10.283531      -279.8291
  75   2.0000     -10.281557      -279.7754
  76   2.0000     -10.281260      -279.7673
  77   2.0000     -10.281008      -279.7605
  78   2.0000     -10.280648      -279.7507
  79   2.0000     -10.280406      -279.7441
  80   2.0000     -10.280123      -279.7364
  81   2.0000      -8.146660      -221.6819
  82   2.0000      -8.071154      -219.6273
  83   2.0000      -8.068096      -219.5440
  84   2.0000      -8.067343      -219.5236
  85   2.0000      -8.061367      -219.3610
  86   2.0000      -6.117793      -166.4736
  87   2.0000      -6.110019      -166.2621
  88   2.0000      -6.109323      -166.2431
  89   2.0000      -6.040596      -164.3730
  90   2.0000      -6.037250      -164.2819
  91   2.0000      -6.037055      -164.2766
  92   2.0000      -6.036517      -164.2620
  93   2.0000      -6.033277      -164.1738
  94   2.0000      -6.032902      -164.1636
  95   2.0000      -6.032257      -164.1461
  96   2.0000      -6.031010      -164.1121
  97   2.0000      -6.030241      -164.0912
  98   2.0000      -6.029332      -164.0665
  99   2.0000      -6.026564      -163.9911
 100   2.0000      -6.023098      -163.8968
 101   2.0000      -1.177523       -32.0420
 102   2.0000      -1.170218       -31.8433
 103   2.0000      -1.153378       -31.3850
 104   2.0000      -1.131332       -30.7851
 105   2.0000      -1.129923       -30.7468
 106   2.0000      -1.125544       -30.6276
 107   2.0000      -1.058668       -28.8078
 108   2.0000      -1.021763       -27.8036
 109   2.0000      -1.019639       -27.7458
 110   2.0000      -1.016100       -27.6495
 111   2.0000      -1.011496       -27.5242
 112   2.0000      -1.010182       -27.4885
 113   2.0000      -1.009103       -27.4591
 114   2.0000      -1.004910       -27.3450
 115   2.0000      -0.999382       -27.1946
 116   2.0000      -0.997168       -27.1343
 117   2.0000      -0.992132       -26.9973
 118   2.0000      -0.991353       -26.9761
 119   2.0000      -0.988070       -26.8867
 120   2.0000      -0.985681       -26.8217
 121   2.0000      -0.975574       -26.5467
 122   2.0000      -0.970204       -26.4006
 123   2.0000      -0.964707       -26.2510
 124   2.0000      -0.925320       -25.1792
 125   2.0000      -0.921086       -25.0640
 126   2.0000      -0.918401       -24.9910
 127   2.0000      -0.916423       -24.9372
 128   2.0000      -0.907148       -24.6847
 129   2.0000      -0.903790       -24.5934
 130   2.0000      -0.885576       -24.0978
 131   2.0000      -0.883902       -24.0522
 132   2.0000      -0.882246       -24.0071
 133   2.0000      -0.879713       -23.9382
 134   2.0000      -0.874624       -23.7997
 135   2.0000      -0.866939       -23.5906
 136   2.0000      -0.860895       -23.4262
 137   2.0000      -0.855142       -23.2696
 138   2.0000      -0.848637       -23.0926
 139   2.0000      -0.843170       -22.9438
 140   2.0000      -0.842440       -22.9240
 141   2.0000      -0.827260       -22.5109
 142   2.0000      -0.825271       -22.4568
 143   2.0000      -0.822217       -22.3737
 144   2.0000      -0.814365       -22.1600
 145   2.0000      -0.804617       -21.8947
 146   2.0000      -0.795620       -21.6499
 147   2.0000      -0.793946       -21.6044
 148   2.0000      -0.781218       -21.2580
 149   2.0000      -0.761105       -20.7107
 150   2.0000      -0.755590       -20.5606
 151   2.0000      -0.749145       -20.3853
 152   2.0000      -0.746587       -20.3157
 153   2.0000      -0.735965       -20.0266
 154   2.0000      -0.722746       -19.6669
 155   2.0000      -0.716382       -19.4937
 156   2.0000      -0.708737       -19.2857
 157   2.0000      -0.706710       -19.2305
 158   2.0000      -0.700640       -19.0654
 159   2.0000      -0.698789       -19.0150
 160   2.0000      -0.694127       -18.8882
 161   2.0000      -0.691930       -18.8284
 162   2.0000      -0.689103       -18.7514
 163   2.0000      -0.685310       -18.6482
 164   2.0000      -0.676412       -18.4061
 165   2.0000      -0.674017       -18.3409
 166   2.0000      -0.669585       -18.2203
 167   2.0000      -0.663381       -18.0515
 168   2.0000      -0.661111       -17.9898
 169   2.0000      -0.651583       -17.7305
 170   2.0000      -0.647174       -17.6105
 171   2.0000      -0.640398       -17.4261
 172   2.0000      -0.632269       -17.2049
 173   2.0000      -0.631628       -17.1875
 174   2.0000      -0.627459       -17.0740
 175   2.0000      -0.625407       -17.0182
 176   2.0000      -0.615254       -16.7419
 177   2.0000      -0.610381       -16.6093
 178   2.0000      -0.606502       -16.5038
 179   2.0000      -0.605599       -16.4792
 180   2.0000      -0.600261       -16.3339
 181   2.0000      -0.597468       -16.2579
 182   2.0000      -0.590844       -16.0777
 183   2.0000      -0.588417       -16.0116
 184   2.0000      -0.586928       -15.9711
 185   2.0000      -0.580638       -15.8000
 186   2.0000      -0.576713       -15.6931
 187   2.0000      -0.570456       -15.5229
 188   2.0000      -0.569267       -15.4905
 189   2.0000      -0.567543       -15.4436
 190   2.0000      -0.562619       -15.3097
 191   2.0000      -0.559782       -15.2324
 192   2.0000      -0.553490       -15.0612
 193   2.0000      -0.548548       -14.9268
 194   2.0000      -0.546486       -14.8706
 195   2.0000      -0.544101       -14.8057
 196   2.0000      -0.541037       -14.7224
 197   2.0000      -0.539502       -14.6806
 198   2.0000      -0.538313       -14.6482
 199   2.0000      -0.535064       -14.5598
 200   2.0000      -0.532063       -14.4782
 201   2.0000      -0.530653       -14.4398
 202   2.0000      -0.527628       -14.3575
 203   2.0000      -0.523772       -14.2526
 204   2.0000      -0.519170       -14.1273
 205   2.0000      -0.516632       -14.0583
 206   2.0000      -0.514020       -13.9872
 207   2.0000      -0.512705       -13.9514
 208   2.0000      -0.512354       -13.9418
 209   2.0000      -0.510243       -13.8844
 210   2.0000      -0.509799       -13.8723
 211   2.0000      -0.508695       -13.8423
 212   2.0000      -0.506852       -13.7921
 213   2.0000      -0.504300       -13.7227
 214   2.0000      -0.501414       -13.6442
 215   2.0000      -0.499319       -13.5872
 216   2.0000      -0.495766       -13.4905
 217   2.0000      -0.494346       -13.4518
 218   2.0000      -0.492942       -13.4136
 219   2.0000      -0.491948       -13.3866
 220   2.0000      -0.490465       -13.3462
 221   2.0000      -0.489773       -13.3274
 222   2.0000      -0.484153       -13.1745
 223   2.0000      -0.483903       -13.1677
 224   2.0000      -0.483143       -13.1470
 225   2.0000      -0.479394       -13.0450
 226   2.0000      -0.477995       -13.0069
 227   2.0000      -0.472805       -12.8657
 228   2.0000      -0.468822       -12.7573
 229   2.0000      -0.468173       -12.7396
 230   2.0000      -0.464217       -12.6320
 231   2.0000      -0.460850       -12.5404
 232   2.0000      -0.459551       -12.5050
 233   2.0000      -0.458851       -12.4860
 234   2.0000      -0.456411       -12.4196
 235   2.0000      -0.453632       -12.3440
 236   2.0000      -0.451260       -12.2794
 237   2.0000      -0.448898       -12.2151
 238   2.0000      -0.447681       -12.1820
 239   2.0000      -0.443273       -12.0621
 240   2.0000      -0.442440       -12.0394
 241   2.0000      -0.440208       -11.9787
 242   2.0000      -0.439661       -11.9638
 243   2.0000      -0.437969       -11.9177
 244   2.0000      -0.435590       -11.8530
 245   2.0000      -0.434769       -11.8307
 246   2.0000      -0.433793       -11.8041
 247   2.0000      -0.432408       -11.7664
 248   2.0000      -0.430756       -11.7215
 249   2.0000      -0.428318       -11.6551
 250   2.0000      -0.427611       -11.6359
 251   2.0000      -0.426776       -11.6132
 252   2.0000      -0.426661       -11.6100
 253   2.0000      -0.426177       -11.5969
 254   2.0000      -0.424628       -11.5547
 255   2.0000      -0.423632       -11.5276
 256   2.0000      -0.419771       -11.4226
 257   2.0000      -0.416407       -11.3310
 258   2.0000      -0.415811       -11.3148
 259   2.0000      -0.411581       -11.1997
 260   2.0000      -0.408222       -11.1083
 261   2.0000      -0.405983       -11.0474
 262   2.0000      -0.401668       -10.9299
 263   2.0000      -0.397368       -10.8129
 264   2.0000      -0.397026       -10.8036
 265   2.0000      -0.394632       -10.7385
 266   2.0000      -0.382546       -10.4096
 267   2.0000      -0.378462       -10.2985
 268   2.0000      -0.375554       -10.2193
 269   2.0000      -0.371117       -10.0986
 270   2.0000      -0.367216        -9.9925
 271   2.0000      -0.359224        -9.7750
 272   2.0000      -0.356659        -9.7052
 273   2.0000      -0.349130        -9.5003
 274   2.0000      -0.339041        -9.2258
 275   2.0000      -0.337235        -9.1766
 276   2.0000      -0.336206        -9.1486
 277   2.0000      -0.332819        -9.0565
 278   2.0000      -0.330931        -9.0051
 279   2.0000      -0.319678        -8.6989
 280   2.0000      -0.315025        -8.5723
 281   2.0000      -0.312817        -8.5122
 282   2.0000      -0.307248        -8.3606
 283   2.0000      -0.300547        -8.1783
 284   2.0000      -0.292635        -7.9630
 285   2.0000      -0.287174        -7.8144
 286   2.0000      -0.261271        -7.1095
 287   2.0000      -0.231393        -6.2965
 288   0.0000      -0.138613        -3.7719
 289   0.0000      -0.094778        -2.5790
 290   0.0000      -0.088590        -2.4107
 291   0.0000      -0.062116        -1.6903
 292   0.0000      -0.055547        -1.5115

MULLIKEN ATOMIC CHARGES
-----------------------
   0 C :    0.245029
   1 C :   -0.311731
   2 C :   -0.176956
   3 N :    0.157304
   4 C :   -0.202161
   5 N :    0.169382
   6 C :    0.032055
   7 C :    0.015652
   8 C :   -0.078319
   9 C :    0.092078
  10 C :    0.091109
  11 C :   -0.072852
  12 C :   -0.013487
  13 C :    0.035410
  14 C :    0.035679
  15 C :   -0.015108
  16 C :    0.138979
  17 O :   -0.140562
  18 C :   -0.134770
  19 C :    0.058136
  20 C :   -0.089989
  21 C :    0.007041
  22 C :    0.226338
  23 C :   -0.175833
  24 S :    0.181198
  25 C :   -0.001513
  26 C :   -0.122109
  27 C :    0.356525
  28 O :   -0.291990
  29 C :   -0.026914
  30 C :   -0.172675
  31 S :    0.184005
  32 C :    0.199454
  33 C :   -0.058058
  34 C :   -0.071258
  35 N :    0.050798
  36 C :   -0.122297
  37 C :   -0.094109
  38 N :   -0.013406
  39 C :   -0.238707
  40 N :    0.248196
  41 C :   -0.229278
  42 N :    0.248720
  43 C :    0.212067
  44 C :   -0.025080
  45 C :   -0.004858
  46 N :   -0.288242
  47 S :    0.563341
  48 N :   -0.327956
  49 C :   -0.154734
  50 C :   -0.072516
  51 C :    0.238374
  52 C :   -0.150590
  53 S :    0.175109
  54 C :   -0.035897
  55 C :   -0.141067
  56 C :    0.353772
  57 O :   -0.288720
  58 C :    0.000017
  59 C :   -0.107810
  60 S :    0.171748
  61 C :    0.050542
  62 C :   -0.098279
  63 C :    0.330685
  64 C :   -0.375585
  65 C :   -0.183448
  66 N :    0.140729
  67 C :   -0.183145
  68 N :    0.142413
  69 C :    0.048822
  70 C :    0.003783
  71 C :    0.157838
  72 O :   -0.168669
  73 C :   -0.091537
  74 C :    0.103256
  75 C :    0.099791
  76 C :   -0.090215
  77 C :   -0.024118
  78 C :    0.037395
  79 C :    0.036810
  80 C :   -0.020328
  81 H :   -0.011858
  82 H :   -0.001933
  83 H :   -0.008409
  84 H :   -0.003659
  85 H :   -0.005562
  86 H :   -0.017893
  87 H :    0.030265
  88 H :   -0.002729
  89 H :    0.031496
  90 H :    0.035529
  91 H :   -0.005476
  92 H :   -0.000266
  93 H :    0.035190
  94 H :    0.034189
  95 H :    0.009665
  96 H :   -0.003169
  97 H :   -0.016444
  98 H :   -0.008689
  99 H :   -0.008957
 100 H :   -0.007335
 101 H :   -0.007778
 102 H :   -0.018879
Sum of atomic charges:   -0.0000000

LOEWDIN ATOMIC CHARGES
----------------------
   0 C :    0.059158
   1 C :   -0.136830
   2 C :   -0.019466
   3 N :   -0.048298
   4 C :   -0.033100
   5 N :   -0.049112
   6 C :   -0.022611
   7 C :   -0.057890
   8 C :    0.033205
   9 C :   -0.009098
  10 C :   -0.004550
  11 C :    0.018121
  12 C :   -0.004933
  13 C :   -0.012002
  14 C :   -0.012652
  15 C :   -0.009378
  16 C :    0.083485
  17 O :   -0.141808
  18 C :   -0.086690
  19 C :    0.045784
  20 C :   -0.161913
  21 C :   -0.031581
  22 C :    0.043431
  23 C :   -0.225116
  24 S :    0.474609
  25 C :   -0.174111
  26 C :   -0.079069
  27 C :    0.109605
  28 O :   -0.085171
  29 C :   -0.021496
  30 C :   -0.165936
  31 S :    0.485956
  32 C :   -0.031327
  33 C :   -0.014490
  34 C :   -0.000378
  35 N :    0.007057
  36 C :   -0.020720
  37 C :   -0.026937
  38 N :   -0.015492
  39 C :   -0.038775
  40 N :   -0.002451
  41 C :   -0.037758
  42 N :   -0.000315
  43 C :   -0.055484
  44 C :   -0.041407
  45 C :   -0.040395
  46 N :   -0.274086
  47 S :    0.681361
  48 N :   -0.297031
  49 C :   -0.144388
  50 C :   -0.058996
  51 C :    0.040303
  52 C :   -0.249223
  53 S :    0.473539
  54 C :   -0.158286
  55 C :   -0.085508
  56 C :    0.108344
  57 O :   -0.086748
  58 C :   -0.002198
  59 C :   -0.178856
  60 S :    0.462272
  61 C :    0.043019
  62 C :   -0.106118
  63 C :    0.078094
  64 C :   -0.150508
  65 C :   -0.016623
  66 N :   -0.062490
  67 C :   -0.023881
  68 N :   -0.059832
  69 C :   -0.025529
  70 C :   -0.053836
  71 C :    0.087533
  72 O :   -0.154324
  73 C :    0.028283
  74 C :   -0.009050
  75 C :   -0.007041
  76 C :    0.017826
  77 C :   -0.005919
  78 C :   -0.015462
  79 C :   -0.014193
  80 C :   -0.011118
  81 H :    0.039360
  82 H :    0.039972
  83 H :    0.035343
  84 H :    0.033550
  85 H :    0.032635
  86 H :    0.031696
  87 H :    0.052688
  88 H :    0.043028
  89 H :    0.035725
  90 H :    0.028565
  91 H :    0.032009
  92 H :    0.036104
  93 H :    0.027809
  94 H :    0.038121
  95 H :    0.035321
  96 H :    0.041721
  97 H :    0.037189
  98 H :    0.038652
  99 H :    0.034494
 100 H :    0.032244
 101 H :    0.031783
 102 H :    0.030989

  Mayer bond orders larger than 0.100000
B(  0-C ,  1-C ) :   1.6659 B(  0-C ,  6-C ) :   1.0030 B(  0-C , 18-C ) :   1.0266
B(  1-C ,  2-C ) :   1.1344 B(  1-C ,  4-C ) :   1.1523 B(  2-C ,  3-N ) :   2.9946
B(  4-C ,  5-N ) :   3.0189 B(  6-C ,  7-C ) :   1.2130 B(  6-C , 11-C ) :   1.4592
B(  7-C ,  8-C ) :   1.4729 B(  7-C , 16-C ) :   0.9217 B(  8-C ,  9-C ) :   1.1879
B(  8-C , 81-H ) :   1.0153 B(  9-C , 10-C ) :   1.2557 B(  9-C , 15-C ) :   1.2441
B( 10-C , 11-C ) :   1.2065 B( 10-C , 12-C ) :   1.2412 B( 11-C , 82-H ) :   0.9938
B( 12-C , 13-C ) :   1.4891 B( 12-C , 83-H ) :   0.9976 B( 13-C , 14-C ) :   1.2597
B( 13-C , 84-H ) :   0.9890 B( 14-C , 15-C ) :   1.4909 B( 14-C , 85-H ) :   0.9891
B( 15-C , 86-H ) :   0.9973 B( 16-C , 17-O ) :   2.2773 B( 16-C , 18-C ) :   0.9314
B( 18-C , 19-C ) :   1.6688 B( 19-C , 20-C ) :   1.1138 B( 19-C , 87-H ) :   0.9488
B( 20-C , 21-C ) :   1.4025 B( 20-C , 24-S ) :   1.1174 B( 21-C , 22-C ) :   1.2800
B( 21-C , 88-H ) :   1.0129 B( 22-C , 23-C ) :   1.3926 B( 22-C , 28-O ) :   1.1737
B( 23-C , 24-S ) :   1.0910 B( 23-C , 25-C ) :   1.2036 B( 25-C , 26-C ) :   1.4508
B( 25-C , 31-S ) :   1.0829 B( 26-C , 27-C ) :   1.0213 B( 26-C , 29-C ) :   1.3231
B( 27-C , 28-O ) :   0.9376 B( 27-C , 89-H ) :   0.9369 B( 27-C , 90-H ) :   0.9360
B( 29-C , 30-C ) :   1.3940 B( 29-C , 91-H ) :   0.9907 B( 30-C , 31-S ) :   1.0949
B( 30-C , 32-C ) :   1.2466 B( 32-C , 33-C ) :   1.2194 B( 32-C , 43-C ) :   0.1135
B( 32-C , 45-C ) :   1.1896 B( 33-C , 34-C ) :   1.1035 B( 33-C , 38-N ) :   1.4167
B( 34-C , 35-N ) :   1.4526 B( 34-C , 43-C ) :   1.2558 B( 35-N , 36-C ) :   1.7240
B( 36-C , 37-C ) :   1.2235 B( 36-C , 41-C ) :   1.1589 B( 37-C , 38-N ) :   1.6718
B( 37-C , 39-C ) :   1.1665 B( 39-C , 40-N ) :   3.0359 B( 41-C , 42-N ) :   3.0473
B( 43-C , 44-C ) :   1.1778 B( 43-C , 49-C ) :   1.2011 B( 44-C , 45-C ) :   1.1094
B( 44-C , 48-N ) :   1.4850 B( 45-C , 46-N ) :   1.5196 B( 46-N , 47-S ) :   1.2792
B( 46-N , 48-N ) :   0.1474 B( 47-S , 48-N ) :   1.2650 B( 49-C , 50-C ) :   1.3933
B( 49-C , 53-S ) :   1.1198 B( 50-C , 51-C ) :   1.2522 B( 50-C , 92-H ) :   1.0099
B( 51-C , 52-C ) :   1.3814 B( 51-C , 57-O ) :   1.1832 B( 52-C , 53-S ) :   1.0424
B( 52-C , 54-C ) :   1.1961 B( 54-C , 55-C ) :   1.4284 B( 54-C , 60-S ) :   1.1609
B( 55-C , 56-C ) :   1.0230 B( 55-C , 58-C ) :   1.3370 B( 56-C , 57-O ) :   0.9409
B( 56-C , 93-H ) :   0.9350 B( 56-C , 94-H ) :   0.9371 B( 58-C , 59-C ) :   1.3834
B( 58-C , 95-H ) :   0.9800 B( 59-C , 60-S ) :   1.0783 B( 59-C , 61-C ) :   1.2611
B( 61-C , 62-C ) :   1.5463 B( 61-C , 96-H ) :   0.9032 B( 62-C , 63-C ) :   1.1005
B( 62-C , 71-C ) :   0.9459 B( 63-C , 64-C ) :   1.5948 B( 63-C , 69-C ) :   0.9767
B( 64-C , 65-C ) :   1.1576 B( 64-C , 67-C ) :   1.1428 B( 65-C , 66-N ) :   2.9573
B( 67-C , 68-N ) :   2.9550 B( 69-C , 70-C ) :   1.2171 B( 69-C , 76-C ) :   1.4518
B( 70-C , 71-C ) :   0.9547 B( 70-C , 73-C ) :   1.4721 B( 71-C , 72-O ) :   2.1485
B( 73-C , 74-C ) :   1.1730 B( 73-C , 97-H ) :   1.0163 B( 74-C , 75-C ) :   1.2587
B( 74-C , 80-C ) :   1.2453 B( 75-C , 76-C ) :   1.2032 B( 75-C , 77-C ) :   1.2406
B( 76-C , 98-H ) :   0.9889 B( 77-C , 78-C ) :   1.4893 B( 77-C , 99-H ) :   0.9970
B( 78-C , 79-C ) :   1.2616 B( 78-C ,100-H ) :   0.9876 B( 79-C , 80-C ) :   1.4878
B( 79-C ,101-H ) :   0.9880 B( 80-C ,102-H ) :   0.9973

-----------------------------------------------------------------------------
         ABSORPTION SPECTRUM VIA TRANSITION ELECTRIC DIPOLE MOMENTS
-----------------------------------------------------------------------------
State   Energy  Wavelength   fosc         T2         TX        TY        TZ
        (cm-1)    (nm)                  (au**2)     (au)      (au)      (au)
-----------------------------------------------------------------------------
   0    5831.8   1714.7   0.581189090  32.80877  -0.37652  -3.44734   4.55882
   1   13169.1    759.4   0.041584709   1.03957  -0.86773   0.43556   0.31129
   2   16286.3    614.0   0.397820274   8.04156   1.12432  -0.75277   2.49215
   3   17450.7    573.0   1.124925765  21.22203   1.06321   1.27865  -4.29612
   4   19774.6    505.7   0.009207773   0.15329  -0.34426   0.06742  -0.17387
   5   21635.3    462.2   0.065348177   0.99436   0.21501   0.55996  -0.79661
   6   22103.4    452.4   0.044694147   0.66568   0.58645   0.56678   0.02271
   7   22787.2    438.8   0.028157653   0.40680  -0.26620  -0.31597   0.48590
   8   23066.5    433.5   0.030466680   0.43483  -0.06458  -0.61794  -0.22092
   9   24029.7    416.2   0.013356064   0.18298   0.12274  -0.05042   0.40666
  10   24291.6    411.7   0.008519618   0.11546   0.00168   0.05149  -0.33587
  11   24721.9    404.5   0.106613350   1.41973  -0.54665  -0.91923   0.52529
  12   24986.5    400.2   0.016101216   0.21214   0.16058  -0.18352   0.39074
  13   25636.5    390.1   0.215369785   2.76567   0.06879  -1.31178   1.01989
  14   25987.5    384.8   0.032353505   0.40986   0.50826   0.38370   0.06562
  15   26130.8    382.7   0.045996794   0.57950  -0.02108   0.18532   0.73804
  16   26296.9    380.3   0.031655370   0.39629   0.45791   0.42511   0.07676
  17   26469.5    377.8   0.092007479   1.14433  -0.04790  -0.38588   0.99656
  18   27682.1    361.2   0.126897126   1.50914  -0.17740  -0.00053  -1.21559
  19   27906.6    358.3   0.033634846   0.39679   0.41809   0.01304   0.47097
  20   28394.6    352.2   0.003853733   0.04468   0.12111   0.15795  -0.07118
  21   28564.5    350.1   0.084804758   0.97739   0.11998  -0.09762   0.97646
  22   28804.5    347.2   0.161020857   1.84033   0.47555   1.26155  -0.15061
  23   29179.0    342.7   0.095905007   1.08205   0.80558   0.61735   0.22795
  24   29285.6    341.5   0.093510277   1.05119  -0.39337  -0.83100  -0.45375
  25   29920.6    334.2   0.017423087   0.19170   0.03181  -0.14191  -0.41298
  26   29951.7    333.9   0.055667321   0.61186   0.31974   0.64541  -0.30509
  27   30294.8    330.1   0.007077750   0.07691   0.23227   0.10431  -0.10993
  28   30484.2    328.0   0.081745467   0.88280  -0.55524  -0.49167  -0.57687
  29   30538.3    327.5   0.007906902   0.08524   0.13964  -0.12239   0.22530
  30   30834.3    324.3   0.233069809   2.48844   0.32485   0.69337   1.37919
  31   31217.8    320.3   0.132054376   1.39260   0.72306   0.86073  -0.35907
  32   31600.6    316.4   0.184860604   1.92586   0.27529   0.26683   1.33375
  33   31690.0    315.6   0.108598660   1.12818   0.11157   0.38829   0.98232
  34   32031.9    312.2   0.026341925   0.27073  -0.10696  -0.19165   0.47177
  35   32553.7    307.2   0.136583430   1.38125  -0.77176  -0.79768  -0.38647
  36   32650.4    306.3   0.012974986   0.13083  -0.29967  -0.10251   0.17469
  37   33854.5    295.4   0.311056614   3.02481   0.11318   0.53395  -1.65133
  38   33964.6    294.4   0.659721338   6.39454  -0.71339  -1.33288  -2.02708
  39   34279.2    291.7   0.037037516   0.35570   0.06262  -0.27930  -0.52323
  40   34356.9    291.1   0.001139949   0.01092   0.09740  -0.00456  -0.03762
  41   34375.0    290.9   0.000885541   0.00848   0.01028   0.05560   0.07269
  42   34640.3    288.7   0.009449106   0.08980   0.17072   0.24627  -0.00228
  43   34775.1    287.6   0.467695908   4.42762  -1.08322  -1.76010   0.39534
  44   34877.4    286.7   0.136623897   1.28961   0.55555   0.96886   0.20564
  45   35097.9    284.9   0.175129938   1.64268  -0.38827  -0.70018  -1.00084
  46   35467.2    282.0   0.010664077   0.09899   0.22571   0.21909  -0.00634
  47   35730.7    279.9   0.121733619   1.12162  -0.53546  -0.91171   0.06073
  48   36463.5    274.2   0.068232301   0.61604  -0.17753  -0.37279  -0.66749
  49   36627.9    273.0   0.006860099   0.06166  -0.07220  -0.21906   0.09197
  50   37026.5    270.1   0.047395757   0.42141  -0.32397  -0.52365   0.20551
  51   37072.0    269.7   0.064842333   0.57582   0.26487   0.61977  -0.34864
  52   37499.6    266.7   0.039983110   0.35101   0.16713   0.35636   0.44282
  53   37522.1    266.5   0.028856967   0.25319  -0.05254   0.09661  -0.49101
  54   37899.2    263.9   0.062179838   0.54013  -0.11666  -0.45018  -0.56908
  55   38055.0    262.8   0.004017553   0.03476   0.01657   0.18440  -0.02186
  56   38205.0    261.7   0.036996398   0.31880   0.00118   0.41441   0.38348
  57   38516.8    259.6   0.120683759   1.03151   0.26779   0.40868   0.89038
  58   38871.8    257.3   0.249084470   2.10954  -0.48045  -1.07864  -0.84571
  59   39074.0    255.9   0.003723781   0.03137   0.05455   0.16586   0.02978
  60   39320.6    254.3   0.045612450   0.38189  -0.33110   0.04727   0.51964
  61   39536.1    252.9   0.041635996   0.34670   0.27764   0.49576  -0.15438
  62   39577.9    252.7   0.101961190   0.84812   0.44619   0.67923   0.43322
  63   39725.9    251.7   0.001415585   0.01173   0.06048   0.03867  -0.08110
  64   39878.3    250.8   0.008585943   0.07088   0.01518   0.11945   0.23745
  65   40081.3    249.5   0.231237817   1.89930  -0.84219  -1.00102  -0.43356

FINAL SINGLE POINT ENERGY     -5210.413852987976

DIPOLE MOMENT
-------------
                                X             Y             Z
Electronic contribution:    -23.13077     -23.32699       4.19663
Nuclear contribution   :     21.76416      23.77859      -2.75089
                        -----------------------------------------
Total Dipole Moment    :     -1.36661       0.45160       1.44573
                        -----------------------------------------
Magnitude (a.u.)       :      2.04002
Magnitude (Debye)      :      5.18533

Rotational constants in cm-1:     0.001623     0.000178     0.000167
Rotational constants in MHz :    48.660443     5.329069     5.015035

                             ****ORCA TERMINATED NORMALLY****
TOTAL RUN TIME: 0 days 0 hours 12 minutes 19 seconds 159 msec
