                         Program Version 4.2.0 -  RELEASE  -
|  1> # ORCA input file
|  2> # SCF done       -173.722597748975          0.000453028454
|  3> ! CAM-B3LYP def2-SVP def2/J RIJCOSX Grid4 TightSCF
|  4> %maxcore 5000
|  5> %tddft
|  6>     Mode sTDDFT
|  7>     Ethresh 5.0
|  8>     maxcore 5000
|  9> end
| 10>
| 11> %pal
| 12>   nprocs 6
| 13>   end
| 14> * xyz 0 1
| 15>    C       -7.03443        -2.46170        -1.88085
| 16>    C       -5.84258        -2.14049        -1.27529
| 17>    C       -5.28371        -2.85706        -0.19768
| 18>    N       -4.76368        -3.39471         0.67403
| 19>    C       -4.99090        -1.07765        -1.63105
| 20>    N       -4.24718        -0.23046        -1.85935
| 21>    C       -7.90892        -3.55419        -1.46189
| 22>    C       -9.01770        -3.60937        -2.34097
| 23>    C      -10.05560        -4.49316        -2.18021
| 24>    C       -9.99149        -5.37467        -1.09561
| 25>    C       -8.86904        -5.33415        -0.23712
| 26>    C       -7.82244        -4.43370        -0.39902
| 27>    S       -8.99194        -6.52006         1.02827
| 28>    C      -10.53474        -7.03621         0.39818
| 29>    C      -10.93712        -6.36100        -0.70353
| 30>   Br      -11.46229        -8.42180         1.25662
| 31>    C       -8.84885        -2.58301        -3.38220
| 32>    O       -9.51825        -2.47276        -4.39861
| 33>    C       -7.67398        -1.79781        -3.00031
| 34>    C       -7.18191        -0.65963        -3.60114
| 35>    N       -7.73328         0.20156        -4.46751
| 36>    C       -9.01900         0.42625        -4.90376
| 37>    S      -10.42923        -0.17718        -4.10404
| 38>    C      -11.45205         0.68454        -5.18402
| 39>    N      -13.87169        -2.50411        -2.95038
| 40>    O      -14.87844        -2.09408        -2.43117
| 41>    O      -13.30859        -3.53459        -2.65888
| 42>    C      -10.74444         1.42898        -6.07704
| 43>    C       -9.34390         1.32745        -5.91195
| 44>    C       -8.39181         2.13064        -6.63945
| 45>    C       -8.73569         3.32792        -7.14392
| 46>    N       -7.92513         4.21129        -7.79961
| 47>    C       -6.61619         4.00830        -8.20479
| 48>    C       -6.11577         2.85567        -8.73847
| 49>    S       -4.48110         3.01313        -9.23964
| 50>    C       -4.44805         4.65242        -8.73406
| 51>    C       -5.63446         5.05782        -8.19016
| 52>    N       -5.84503         6.34664        -7.72972
| 53>    C       -6.62928         6.75083        -6.68630
| 54>    C       -6.61211         8.03543        -6.25331
| 55>    C       -7.34880         8.60382        -5.18991
| 56>    C       -8.35565         8.10456        -4.41034
| 57>    C       -8.93291         8.82507        -3.32965
| 58>    C       -9.92295         8.17482        -2.67019
| 59>    C      -10.22479         6.89067        -3.18825
| 60>    S       -9.16803         6.54156        -4.55080
| 61>    C      -11.18824         6.03255        -2.71095
| 62>    C      -11.97666         6.22507        -1.54660
| 63>    C      -12.84034         5.21519        -1.28041
| 64>    C      -12.81051         4.14396        -2.21845
| 65>    S      -11.62690         4.51275        -3.47892
| 66>    C      -13.50554         2.97816        -2.12535
| 67>    C      -13.43873         1.91535        -3.07846
| 68>    C      -13.57290         0.49742        -2.73916
| 69>    C      -13.29173        -0.24722        -3.81372
| 70>    C      -13.28295        -1.72073        -4.05797
| 71>    C      -14.06014        -1.99118        -5.31536
| 72>    C      -14.70428        -3.09134        -5.73860
| 73>    C      -15.27247        -2.82760        -7.06390
| 74>    C      -14.94910        -1.55454        -7.42052
| 75>    C      -14.18646        -0.95685        -6.34795
| 76>    C      -13.67548         0.27670        -6.22347
| 77>    C      -12.94755         0.65365        -4.97782
| 78>    C      -13.18214         2.02111        -4.40398
| 79>    C      -16.03284        -3.81816        -7.78618
| 80>    C      -16.55182        -3.65461        -9.00054
| 81>    H      -10.90544        -4.49615        -2.84415
| 82>    H       -6.99649        -4.43550         0.29206
| 83>    H      -11.86352        -6.53663        -1.21887
| 84>    H       -6.17633        -0.36661        -3.32719
| 85>    H       -7.08845         0.88622        -4.84764
| 86>    H      -11.20570         2.01758        -6.84760
| 87>    H       -7.37268         1.78183        -6.71769
| 88>    H       -9.73831         3.70266        -7.00101
| 89>    H       -8.27237         5.15227        -7.90351
| 90>    H       -6.63325         1.93394        -8.90643
| 91>    H       -3.55312         5.22882        -8.85441
| 92>    H       -5.16246         7.02468        -8.04404
| 93>    H       -7.23385         5.99859        -6.20653
| 94>    H       -5.93225         8.71547        -6.75377
| 95>    H       -7.06402         9.61885        -4.93932
| 96>    H       -8.58242         9.81007        -3.07498
| 97>    H      -10.45840         8.58593        -1.83392
| 98>    H      -11.86373         7.09544        -0.92554
| 99>    H      -13.50354         5.18765        -0.43382
|100>    H      -14.09947         2.81756        -1.23606
|101>    H      -13.84928         0.14958        -1.76066
|102>    H      -12.25132        -2.08753        -4.18488
|103>    H      -14.80744        -4.02928        -5.22298
|104>    H      -15.20608        -1.04256        -8.32715
|105>    H      -13.77321         1.02189        -6.99837
|106>    H      -13.06223         2.91495        -4.98294
|107>    H      -16.17261        -4.75884        -7.26840
|108>    H      -16.43530        -2.73669        -9.55061
|109>    H      -17.11113        -4.43602        -9.48491
|110> *
|111>
|112>                          ****END OF INPUT****

CARTESIAN COORDINATES (ANGSTROEM)
---------------------------------
  C     -7.034430   -2.461700   -1.880850
  C     -5.842580   -2.140490   -1.275290
  C     -5.283710   -2.857060   -0.197680
  N     -4.763680   -3.394710    0.674030
  C     -4.990900   -1.077650   -1.631050
  N     -4.247180   -0.230460   -1.859350
  C     -7.908920   -3.554190   -1.461890
  C     -9.017700   -3.609370   -2.340970
  C    -10.055600   -4.493160   -2.180210
  C     -9.991490   -5.374670   -1.095610
  C     -8.869040   -5.334150   -0.237120
  C     -7.822440   -4.433700   -0.399020
  S     -8.991940   -6.520060    1.028270
  C    -10.534740   -7.036210    0.398180
  C    -10.937120   -6.361000   -0.703530
  Br   -11.462290   -8.421800    1.256620
  C     -8.848850   -2.583010   -3.382200
  O     -9.518250   -2.472760   -4.398610
  C     -7.673980   -1.797810   -3.000310
  C     -7.181910   -0.659630   -3.601140
  N     -7.733280    0.201560   -4.467510
  C     -9.019000    0.426250   -4.903760
  S    -10.429230   -0.177180   -4.104040
  C    -11.452050    0.684540   -5.184020
  N    -13.871690   -2.504110   -2.950380
  O    -14.878440   -2.094080   -2.431170
  O    -13.308590   -3.534590   -2.658880
  C    -10.744440    1.428980   -6.077040
  C     -9.343900    1.327450   -5.911950
  C     -8.391810    2.130640   -6.639450
  C     -8.735690    3.327920   -7.143920
  N     -7.925130    4.211290   -7.799610
  C     -6.616190    4.008300   -8.204790
  C     -6.115770    2.855670   -8.738470
  S     -4.481100    3.013130   -9.239640
  C     -4.448050    4.652420   -8.734060
  C     -5.634460    5.057820   -8.190160
  N     -5.845030    6.346640   -7.729720
  C     -6.629280    6.750830   -6.686300
  C     -6.612110    8.035430   -6.253310
  C     -7.348800    8.603820   -5.189910
  C     -8.355650    8.104560   -4.410340
  C     -8.932910    8.825070   -3.329650
  C     -9.922950    8.174820   -2.670190
  C    -10.224790    6.890670   -3.188250
  S     -9.168030    6.541560   -4.550800
  C    -11.188240    6.032550   -2.710950
  C    -11.976660    6.225070   -1.546600
  C    -12.840340    5.215190   -1.280410
  C    -12.810510    4.143960   -2.218450
  S    -11.626900    4.512750   -3.478920
  C    -13.505540    2.978160   -2.125350
  C    -13.438730    1.915350   -3.078460
  C    -13.572900    0.497420   -2.739160
  C    -13.291730   -0.247220   -3.813720
  C    -13.282950   -1.720730   -4.057970
  C    -14.060140   -1.991180   -5.315360
  C    -14.704280   -3.091340   -5.738600
  C    -15.272470   -2.827600   -7.063900
  C    -14.949100   -1.554540   -7.420520
  C    -14.186460   -0.956850   -6.347950
  C    -13.675480    0.276700   -6.223470
  C    -12.947550    0.653650   -4.977820
  C    -13.182140    2.021110   -4.403980
  C    -16.032840   -3.818160   -7.786180
  C    -16.551820   -3.654610   -9.000540
  H    -10.905440   -4.496150   -2.844150
  H     -6.996490   -4.435500    0.292060
  H    -11.863520   -6.536630   -1.218870
  H     -6.176330   -0.366610   -3.327190
  H     -7.088450    0.886220   -4.847640
  H    -11.205700    2.017580   -6.847600
  H     -7.372680    1.781830   -6.717690
  H     -9.738310    3.702660   -7.001010
  H     -8.272370    5.152270   -7.903510
  H     -6.633250    1.933940   -8.906430
  H     -3.553120    5.228820   -8.854410
  H     -5.162460    7.024680   -8.044040
  H     -7.233850    5.998590   -6.206530
  H     -5.932250    8.715470   -6.753770
  H     -7.064020    9.618850   -4.939320
  H     -8.582420    9.810070   -3.074980
  H    -10.458400    8.585930   -1.833920
  H    -11.863730    7.095440   -0.925540
  H    -13.503540    5.187650   -0.433820
  H    -14.099470    2.817560   -1.236060
  H    -13.849280    0.149580   -1.760660
  H    -12.251320   -2.087530   -4.184880
  H    -14.807440   -4.029280   -5.222980
  H    -15.206080   -1.042560   -8.327150
  H    -13.773210    1.021890   -6.998370
  H    -13.062230    2.914950   -4.982940
  H    -16.172610   -4.758840   -7.268400
  H    -16.435300   -2.736690   -9.550610
  H    -17.111130   -4.436020   -9.484910

 Total Charge           Charge          ....    0
 Multiplicity           Mult            ....    1
 Number of Electrons    NEL             ....  516
 Basis Dimension        Dim             .... 1107

ORBITAL ENERGIES
----------------

  NO   OCC          E(Eh)            E(eV)
   0   2.0000    -482.873389    -13139.6529
   1   2.0000     -88.961922     -2420.7770
   2   2.0000     -88.961537     -2420.7665
   3   2.0000     -88.958218     -2420.6762
   4   2.0000     -88.947309     -2420.3793
   5   2.0000     -88.940336     -2420.1896
   6   2.0000     -62.551133     -1702.1029
   7   2.0000     -56.385066     -1534.3156
   8   2.0000     -56.382382     -1534.2426
   9   2.0000     -56.382338     -1534.2414
  10   2.0000     -19.243677      -523.6471
  11   2.0000     -19.242912      -523.6263
  12   2.0000     -19.203504      -522.5539
  13   2.0000     -14.641580      -398.4177
  14   2.0000     -14.494647      -394.4194
  15   2.0000     -14.462601      -393.5474
  16   2.0000     -14.454438      -393.3252
  17   2.0000     -14.407023      -392.0350
  18   2.0000     -14.400086      -391.8463
  19   2.0000     -10.352548      -281.7071
  20   2.0000     -10.351789      -281.6865
  21   2.0000     -10.344873      -281.4983
  22   2.0000     -10.332360      -281.1578
  23   2.0000     -10.331589      -281.1368
  24   2.0000     -10.329870      -281.0901
  25   2.0000     -10.328688      -281.0579
  26   2.0000     -10.327168      -281.0165
  27   2.0000     -10.326121      -280.9880
  28   2.0000     -10.324819      -280.9526
  29   2.0000     -10.321693      -280.8676
  30   2.0000     -10.311052      -280.5780
  31   2.0000     -10.310384      -280.5598
  32   2.0000     -10.310205      -280.5549
  33   2.0000     -10.306828      -280.4631
  34   2.0000     -10.304590      -280.4022
  35   2.0000     -10.304547      -280.4010
  36   2.0000     -10.303260      -280.3660
  37   2.0000     -10.302727      -280.3515
  38   2.0000     -10.301366      -280.3144
  39   2.0000     -10.300223      -280.2833
  40   2.0000     -10.296742      -280.1886
  41   2.0000     -10.296433      -280.1802
  42   2.0000     -10.292902      -280.0841
  43   2.0000     -10.291543      -280.0471
  44   2.0000     -10.291402      -280.0433
  45   2.0000     -10.285696      -279.8880
  46   2.0000     -10.283901      -279.8392
  47   2.0000     -10.283668      -279.8328
  48   2.0000     -10.283385      -279.8251
  49   2.0000     -10.282064      -279.7892
  50   2.0000     -10.282005      -279.7876
  51   2.0000     -10.281984      -279.7870
  52   2.0000     -10.280534      -279.7476
  53   2.0000     -10.280026      -279.7337
  54   2.0000     -10.279194      -279.7111
  55   2.0000     -10.278547      -279.6935
  56   2.0000     -10.277151      -279.6555
  57   2.0000     -10.276628      -279.6413
  58   2.0000     -10.276608      -279.6407
  59   2.0000     -10.275844      -279.6199
  60   2.0000     -10.272609      -279.5319
  61   2.0000     -10.271329      -279.4971
  62   2.0000     -10.271067      -279.4900
  63   2.0000     -10.270860      -279.4843
  64   2.0000     -10.268735      -279.4265
  65   2.0000     -10.267843      -279.4022
  66   2.0000     -10.267434      -279.3911
  67   2.0000     -10.266726      -279.3718
  68   2.0000     -10.261872      -279.2397
  69   2.0000     -10.258401      -279.1453
  70   2.0000      -8.780573      -238.9316
  71   2.0000      -8.057805      -219.2640
  72   2.0000      -8.057443      -219.2542
  73   2.0000      -8.052265      -219.1133
  74   2.0000      -8.042714      -218.8534
  75   2.0000      -8.035848      -218.6665
  76   2.0000      -6.616819      -180.0528
  77   2.0000      -6.602310      -179.6580
  78   2.0000      -6.602169      -179.6541
  79   2.0000      -6.027499      -164.0166
  80   2.0000      -6.026875      -163.9996
  81   2.0000      -6.023242      -163.9007
  82   2.0000      -6.022576      -163.8826
  83   2.0000      -6.021693      -163.8586
  84   2.0000      -6.019432      -163.7971
  85   2.0000      -6.019065      -163.7871
  86   2.0000      -6.017286      -163.7387
  87   2.0000      -6.014428      -163.6609
  88   2.0000      -6.012522      -163.6090
  89   2.0000      -6.008563      -163.5013
  90   2.0000      -6.005709      -163.4237
  91   2.0000      -6.003669      -163.3681
  92   2.0000      -6.001661      -163.3135
  93   2.0000      -5.996645      -163.1770
  94   2.0000      -2.732720       -74.3611
  95   2.0000      -2.728652       -74.2504
  96   2.0000      -2.728464       -74.2453
  97   2.0000      -2.716985       -73.9329
  98   2.0000      -2.716973       -73.9326
  99   2.0000      -1.323420       -36.0121
 100   2.0000      -1.142880       -31.0994
 101   2.0000      -1.119103       -30.4523
 102   2.0000      -1.084240       -29.5037
 103   2.0000      -1.074432       -29.2368
 104   2.0000      -1.045793       -28.4575
 105   2.0000      -1.009756       -27.4768
 106   2.0000      -1.006844       -27.3976
 107   2.0000      -1.001061       -27.2403
 108   2.0000      -0.988573       -26.9004
 109   2.0000      -0.982867       -26.7452
 110   2.0000      -0.978530       -26.6272
 111   2.0000      -0.976478       -26.5713
 112   2.0000      -0.973345       -26.4861
 113   2.0000      -0.967756       -26.3340
 114   2.0000      -0.958401       -26.0794
 115   2.0000      -0.927953       -25.2509
 116   2.0000      -0.920487       -25.0477
 117   2.0000      -0.903504       -24.5856
 118   2.0000      -0.896027       -24.3821
 119   2.0000      -0.895284       -24.3619
 120   2.0000      -0.885482       -24.0952
 121   2.0000      -0.878713       -23.9110
 122   2.0000      -0.873870       -23.7792
 123   2.0000      -0.871025       -23.7018
 124   2.0000      -0.857980       -23.3468
 125   2.0000      -0.848612       -23.0919
 126   2.0000      -0.842280       -22.9196
 127   2.0000      -0.839649       -22.8480
 128   2.0000      -0.833842       -22.6900
 129   2.0000      -0.822617       -22.3845
 130   2.0000      -0.819680       -22.3046
 131   2.0000      -0.814330       -22.1590
 132   2.0000      -0.813282       -22.1305
 133   2.0000      -0.800155       -21.7733
 134   2.0000      -0.794776       -21.6270
 135   2.0000      -0.789995       -21.4969
 136   2.0000      -0.781680       -21.2706
 137   2.0000      -0.765599       -20.8330
 138   2.0000      -0.750254       -20.4155
 139   2.0000      -0.744452       -20.2576
 140   2.0000      -0.736584       -20.0435
 141   2.0000      -0.734639       -19.9905
 142   2.0000      -0.716923       -19.5085
 143   2.0000      -0.710051       -19.3215
 144   2.0000      -0.705898       -19.2085
 145   2.0000      -0.695187       -18.9170
 146   2.0000      -0.689964       -18.7749
 147   2.0000      -0.684236       -18.6190
 148   2.0000      -0.675952       -18.3936
 149   2.0000      -0.667681       -18.1685
 150   2.0000      -0.666573       -18.1384
 151   2.0000      -0.658228       -17.9113
 152   2.0000      -0.656656       -17.8685
 153   2.0000      -0.652645       -17.7594
 154   2.0000      -0.647661       -17.6237
 155   2.0000      -0.646375       -17.5888
 156   2.0000      -0.642302       -17.4779
 157   2.0000      -0.638332       -17.3699
 158   2.0000      -0.627253       -17.0684
 159   2.0000      -0.623430       -16.9644
 160   2.0000      -0.621451       -16.9105
 161   2.0000      -0.618431       -16.8284
 162   2.0000      -0.614301       -16.7160
 163   2.0000      -0.611901       -16.6507
 164   2.0000      -0.607044       -16.5185
 165   2.0000      -0.605663       -16.4809
 166   2.0000      -0.597680       -16.2637
 167   2.0000      -0.592267       -16.1164
 168   2.0000      -0.588114       -16.0034
 169   2.0000      -0.584636       -15.9088
 170   2.0000      -0.582365       -15.8470
 171   2.0000      -0.576627       -15.6908
 172   2.0000      -0.571783       -15.5590
 173   2.0000      -0.571295       -15.5457
 174   2.0000      -0.566016       -15.4021
 175   2.0000      -0.560034       -15.2393
 176   2.0000      -0.556270       -15.1369
 177   2.0000      -0.546464       -14.8700
 178   2.0000      -0.541254       -14.7283
 179   2.0000      -0.535964       -14.5843
 180   2.0000      -0.534434       -14.5427
 181   2.0000      -0.530688       -14.4407
 182   2.0000      -0.525186       -14.2910
 183   2.0000      -0.524568       -14.2742
 184   2.0000      -0.522948       -14.2301
 185   2.0000      -0.518816       -14.1177
 186   2.0000      -0.513593       -13.9756
 187   2.0000      -0.512638       -13.9496
 188   2.0000      -0.509771       -13.8716
 189   2.0000      -0.508186       -13.8284
 190   2.0000      -0.505233       -13.7481
 191   2.0000      -0.502872       -13.6839
 192   2.0000      -0.500648       -13.6233
 193   2.0000      -0.496373       -13.5070
 194   2.0000      -0.494562       -13.4577
 195   2.0000      -0.492925       -13.4132
 196   2.0000      -0.491989       -13.3877
 197   2.0000      -0.488191       -13.2844
 198   2.0000      -0.486923       -13.2498
 199   2.0000      -0.484633       -13.1875
 200   2.0000      -0.480516       -13.0755
 201   2.0000      -0.480226       -13.0676
 202   2.0000      -0.476671       -12.9709
 203   2.0000      -0.472793       -12.8654
 204   2.0000      -0.470245       -12.7960
 205   2.0000      -0.464595       -12.6423
 206   2.0000      -0.462020       -12.5722
 207   2.0000      -0.461524       -12.5587
 208   2.0000      -0.459367       -12.5000
 209   2.0000      -0.453598       -12.3430
 210   2.0000      -0.452910       -12.3243
 211   2.0000      -0.449318       -12.2266
 212   2.0000      -0.448417       -12.2020
 213   2.0000      -0.444224       -12.0880
 214   2.0000      -0.440807       -11.9950
 215   2.0000      -0.440657       -11.9909
 216   2.0000      -0.440164       -11.9775
 217   2.0000      -0.436207       -11.8698
 218   2.0000      -0.434368       -11.8197
 219   2.0000      -0.431828       -11.7506
 220   2.0000      -0.430151       -11.7050
 221   2.0000      -0.429599       -11.6900
 222   2.0000      -0.427360       -11.6291
 223   2.0000      -0.425741       -11.5850
 224   2.0000      -0.422747       -11.5035
 225   2.0000      -0.416935       -11.3454
 226   2.0000      -0.415962       -11.3189
 227   2.0000      -0.413538       -11.2529
 228   2.0000      -0.407818       -11.0973
 229   2.0000      -0.404368       -11.0034
 230   2.0000      -0.397956       -10.8289
 231   2.0000      -0.396349       -10.7852
 232   2.0000      -0.395054       -10.7500
 233   2.0000      -0.386157       -10.5079
 234   2.0000      -0.382190       -10.3999
 235   2.0000      -0.375624       -10.2212
 236   2.0000      -0.372683       -10.1412
 237   2.0000      -0.369966       -10.0673
 238   2.0000      -0.365531        -9.9466
 239   2.0000      -0.362985        -9.8773
 240   2.0000      -0.358657        -9.7596
 241   2.0000      -0.354734        -9.6528
 242   2.0000      -0.350858        -9.5473
 243   2.0000      -0.334268        -9.0959
 244   2.0000      -0.333797        -9.0831
 245   2.0000      -0.325173        -8.8484
 246   2.0000      -0.318148        -8.6573
 247   2.0000      -0.315927        -8.5968
 248   2.0000      -0.309709        -8.4276
 249   2.0000      -0.308019        -8.3816
 250   2.0000      -0.297793        -8.1034
 251   2.0000      -0.294576        -8.0158
 252   2.0000      -0.280509        -7.6330
 253   2.0000      -0.275335        -7.4922
 254   2.0000      -0.268951        -7.3185
 255   2.0000      -0.265736        -7.2311
 256   2.0000      -0.236593        -6.4380
 257   2.0000      -0.207902        -5.6573
 258   0.0000      -0.068980        -1.8771
 259   0.0000      -0.064317        -1.7501
 260   0.0000      -0.047828        -1.3015
 261   0.0000      -0.036426        -0.9912
 262   0.0000      -0.015567        -0.4236

MULLIKEN ATOMIC CHARGES
-----------------------
   0 C :    0.315339
   1 C :   -0.368863
   2 C :   -0.182163
   3 N :    0.139301
   4 C :   -0.189366
   5 N :    0.125248
   6 C :    0.011874
   7 C :    0.009560
   8 C :   -0.073911
   9 C :    0.104816
  10 C :   -0.095007
  11 C :   -0.025529
  12 S :    0.176818
  13 C :   -0.123963
  14 C :    0.046674
  15 Br:    0.014504
  16 C :    0.126600
  17 O :   -0.180959
  18 C :   -0.131662
  19 C :    0.004550
  20 N :    0.041462
  21 C :   -0.104117
  22 S :    0.157367
  23 C :   -0.031225
  24 N :    0.182162
  25 O :   -0.214216
  26 O :   -0.237728
  27 C :   -0.042347
  28 C :    0.142911
  29 C :   -0.114935
  30 C :    0.065259
  31 N :   -0.070722
  32 C :    0.093041
  33 C :   -0.181516
  34 S :    0.126784
  35 C :   -0.185523
  36 C :    0.113813
  37 N :   -0.048333
  38 C :    0.036815
  39 C :   -0.026973
  40 C :   -0.008975
  41 C :   -0.033758
  42 C :    0.039782
  43 C :    0.017592
  44 C :   -0.039410
  45 S :    0.037219
  46 C :   -0.061588
  47 C :    0.036311
  48 C :    0.030635
  49 C :   -0.018907
  50 S :    0.062257
  51 C :   -0.020670
  52 C :    0.066803
  53 C :    0.002357
  54 C :   -0.145286
  55 C :    0.418929
  56 C :   -0.067441
  57 C :   -0.064139
  58 C :    0.085972
  59 C :   -0.065706
  60 C :    0.118481
  61 C :    0.012484
  62 C :   -0.097339
  63 C :   -0.021618
  64 C :   -0.000041
  65 C :   -0.001206
  66 H :   -0.010996
  67 H :   -0.007316
  68 H :    0.001141
  69 H :    0.026834
  70 H :    0.152507
  71 H :   -0.033460
  72 H :   -0.018451
  73 H :    0.009658
  74 H :    0.133157
  75 H :    0.027313
  76 H :    0.007003
  77 H :    0.124559
  78 H :    0.027865
  79 H :   -0.027413
  80 H :   -0.012794
  81 H :   -0.015837
  82 H :   -0.016786
  83 H :   -0.014515
  84 H :   -0.012291
  85 H :   -0.014155
  86 H :   -0.019725
  87 H :    0.058570
  88 H :   -0.022521
  89 H :   -0.037768
  90 H :   -0.009809
  91 H :   -0.004070
  92 H :   -0.016448
  93 H :    0.013792
  94 H :    0.023374
Sum of atomic charges:   -0.0000000

LOEWDIN ATOMIC CHARGES
----------------------
   0 C :    0.087400
   1 C :   -0.163855
   2 C :   -0.018941
   3 N :   -0.066201
   4 C :   -0.021831
   5 N :   -0.070530
   6 C :   -0.024167
   7 C :   -0.049606
   8 C :    0.022212
   9 C :   -0.032459
  10 C :   -0.147567
  11 C :   -0.011401
  12 S :    0.424786
  13 C :   -0.274387
  14 C :   -0.064966
  15 Br:    0.129784
  16 C :    0.060536
  17 O :   -0.181868
  18 C :   -0.161861
  19 C :    0.092657
  20 N :    0.092032
  21 C :   -0.161937
  22 S :    0.520688
  23 C :   -0.147042
  24 N :    0.282833
  25 O :   -0.184809
  26 O :   -0.207404
  27 C :   -0.071767
  28 C :   -0.064341
  29 C :   -0.122345
  30 C :    0.042465
  31 N :    0.016759
  32 C :   -0.035272
  33 C :   -0.213078
  34 S :    0.445836
  35 C :   -0.229483
  36 C :   -0.031694
  37 N :    0.026866
  38 C :    0.031771
  39 C :   -0.114343
  40 C :   -0.046124
  41 C :   -0.166418
  42 C :   -0.024879
  43 C :   -0.050691
  44 C :   -0.169258
  45 S :    0.344463
  46 C :   -0.190460
  47 C :   -0.028219
  48 C :   -0.039271
  49 C :   -0.128293
  50 S :    0.363405
  51 C :   -0.067800
  52 C :   -0.035460
  53 C :    0.003508
  54 C :   -0.040663
  55 C :    0.015142
  56 C :   -0.035013
  57 C :   -0.012986
  58 C :   -0.021514
  59 C :   -0.032678
  60 C :   -0.014666
  61 C :    0.059858
  62 C :   -0.047582
  63 C :   -0.011372
  64 C :   -0.026915
  65 C :   -0.027377
  66 H :    0.037356
  67 H :    0.040063
  68 H :    0.041242
  69 H :    0.043077
  70 H :    0.106231
  71 H :    0.021681
  72 H :    0.017610
  73 H :    0.029021
  74 H :    0.083784
  75 H :    0.026188
  76 H :    0.020920
  77 H :    0.091383
  78 H :    0.016459
  79 H :    0.024094
  80 H :    0.036233
  81 H :    0.032406
  82 H :    0.030255
  83 H :    0.030865
  84 H :    0.033089
  85 H :    0.032877
  86 H :    0.026856
  87 H :    0.041598
  88 H :    0.024472
  89 H :    0.019986
  90 H :    0.031775
  91 H :    0.012292
  92 H :    0.028792
  93 H :    0.021485
  94 H :    0.025701

  Mayer bond orders larger than 0.100000
B(  0-C ,  1-C ) :   1.5857 B(  0-C ,  6-C ) :   1.0073 B(  0-C , 18-C ) :   1.1425
B(  1-C ,  2-C ) :   1.1508 B(  1-C ,  4-C ) :   1.1465 B(  2-C ,  3-N ) :   2.9648
B(  4-C ,  5-N ) :   2.9470 B(  6-C ,  7-C ) :   1.2729 B(  6-C , 11-C ) :   1.4147
B(  7-C ,  8-C ) :   1.4206 B(  7-C , 16-C ) :   0.9360 B(  8-C ,  9-C ) :   1.2496
B(  8-C , 66-H ) :   1.0139 B(  9-C , 10-C ) :   1.3108 B(  9-C , 14-C ) :   1.1698
B( 10-C , 11-C ) :   1.3267 B( 10-C , 12-S ) :   1.0824 B( 11-C , 67-H ) :   0.9793
B( 12-S , 13-C ) :   1.0840 B( 13-C , 14-C ) :   1.6150 B( 13-C , 15-Br) :   1.0132
B( 14-C , 68-H ) :   1.0003 B( 16-C , 17-O ) :   2.1345 B( 16-C , 18-C ) :   0.9790
B( 18-C , 19-C ) :   1.4567 B( 19-C , 20-N ) :   1.3818 B( 19-C , 69-H ) :   0.9130
B( 20-N , 21-C ) :   1.1092 B( 20-N , 70-H ) :   0.8931 B( 21-C , 22-S ) :   1.1073
B( 21-C , 28-C ) :   1.4552 B( 22-S , 23-C ) :   1.1981 B( 23-C , 27-C ) :   1.5409
B( 23-C , 62-C ) :   0.9214 B( 24-N , 25-O ) :   1.5944 B( 24-N , 26-O ) :   1.5216
B( 24-N , 55-C ) :   0.8263 B( 25-O , 26-O ) :   0.2729 B( 27-C , 28-C ) :   1.2657
B( 27-C , 71-H ) :   0.9885 B( 28-C , 29-C ) :   1.0534 B( 29-C , 30-C ) :   1.7295
B( 29-C , 72-H ) :   0.9505 B( 30-C , 31-N ) :   1.1535 B( 30-C , 73-H ) :   0.9617
B( 31-N , 32-C ) :   1.0791 B( 31-N , 74-H ) :   0.9243 B( 32-C , 33-C ) :   1.5320
B( 32-C , 36-C ) :   1.2595 B( 33-C , 34-S ) :   1.1664 B( 33-C , 75-H ) :   0.9708
B( 34-S , 35-C ) :   1.1559 B( 35-C , 36-C ) :   1.5138 B( 35-C , 76-H ) :   0.9759
B( 36-C , 37-N ) :   1.0950 B( 37-N , 38-C ) :   1.1631 B( 37-N , 77-H ) :   0.9209
B( 38-C , 39-C ) :   1.6215 B( 38-C , 78-H ) :   0.9497 B( 39-C , 40-C ) :   1.2120
B( 39-C , 79-H ) :   0.9578 B( 40-C , 41-C ) :   1.6136 B( 40-C , 80-H ) :   0.9552
B( 41-C , 42-C ) :   1.1395 B( 41-C , 45-S ) :   1.0051 B( 42-C , 43-C ) :   1.6066
B( 42-C , 81-H ) :   0.9971 B( 43-C , 44-C ) :   1.1680 B( 43-C , 82-H ) :   0.9923
B( 44-C , 45-S ) :   1.0347 B( 44-C , 46-C ) :   1.5515 B( 46-C , 47-C ) :   1.1645
B( 46-C , 50-S ) :   1.0197 B( 47-C , 48-C ) :   1.6212 B( 47-C , 83-H ) :   0.9919
B( 48-C , 49-C ) :   1.1165 B( 48-C , 84-H ) :   0.9970 B( 49-C , 50-S ) :   1.0303
B( 49-C , 51-C ) :   1.6620 B( 51-C , 52-C ) :   1.0552 B( 51-C , 85-H ) :   0.9633
B( 52-C , 53-C ) :   1.0377 B( 52-C , 63-C ) :   1.6939 B( 53-C , 54-C ) :   1.7925
B( 53-C , 86-H ) :   1.0118 B( 54-C , 55-C ) :   0.9180 B( 54-C , 62-C ) :   1.0239
B( 55-C , 56-C ) :   0.9399 B( 55-C , 87-H ) :   0.8607 B( 56-C , 57-C ) :   1.7145
B( 56-C , 60-C ) :   1.0942 B( 57-C , 58-C ) :   1.0519 B( 57-C , 88-H ) :   1.0112
B( 58-C , 59-C ) :   1.6389 B( 58-C , 64-C ) :   1.0733 B( 59-C , 60-C ) :   1.0521
B( 59-C , 89-H ) :   1.0120 B( 60-C , 61-C ) :   1.7067 B( 61-C , 62-C ) :   0.9520
B( 61-C , 90-H ) :   0.9709 B( 62-C , 63-C ) :   0.9760 B( 63-C , 91-H ) :   0.9844
B( 64-C , 65-C ) :   1.9465 B( 64-C , 92-H ) :   0.9651 B( 65-C , 93-H ) :   0.9521
B( 65-C , 94-H ) :   0.9489

-----------------------------------------------------------------------------
         ABSORPTION SPECTRUM VIA TRANSITION ELECTRIC DIPOLE MOMENTS
-----------------------------------------------------------------------------
State   Energy  Wavelength   fosc         T2         TX        TY        TZ
        (cm-1)    (nm)                  (au**2)     (au)      (au)      (au)
-----------------------------------------------------------------------------
   0   16975.7    589.1   0.805345952  15.61822  -2.72381  -2.28323   1.72798
   1   18728.5    533.9   0.154817858   2.72140  -1.64633   0.10480  -0.00301
   2   20902.6    478.4   0.386741226   6.09110   1.15408  -1.76364   1.28405
   3   21919.1    456.2   0.035786682   0.53750   0.27818  -0.00553  -0.67829
   4   22345.1    447.5   0.138793341   2.04485   0.11525   0.22311  -1.40776
   5   24390.5    410.0   0.088746343   1.19786  -0.46021   0.95053  -0.28731
   6   25741.4    388.5   0.020308369   0.25973  -0.08272  -0.23241   0.44595
   7   26279.5    380.5   0.062796246   0.78667   0.55550   0.48364  -0.49415
   8   26663.8    375.0   0.054316902   0.67064  -0.35860  -0.48229   0.55627
   9   27957.7    357.7   0.079340561   0.93426   0.86522  -0.04233  -0.42879
  10   28652.1    349.0   0.179863450   2.06663  -0.18846   1.16515   0.82069
  11   28882.0    346.2   0.078874477   0.89905  -0.37287   0.45427   0.74408
  12   29478.1    339.2   0.370180036   4.13417   0.17501  -1.71312  -1.08109
  13   29674.1    337.0   0.451478692   5.00883   1.61240   0.85830  -1.29318
  14   30078.6    332.5   0.084901683   0.92925   0.67768   0.68492  -0.02977
  15   30736.3    325.3   0.102596674   1.09890  -0.96592  -0.35487  -0.19993
  16   31332.9    319.2   0.066936226   0.70329   0.05698  -0.71475   0.43495
  17   31401.3    318.5   0.031780837   0.33319  -0.10653   0.47537   0.30962
  18   31778.4    314.7   0.145832990   1.51078   0.09930   0.96227  -0.75826
  19   31926.4    313.2   0.006708520   0.06918  -0.16648  -0.07530  -0.18918
  20   32272.3    309.9   0.155675898   1.58806  -1.08699  -0.47174  -0.42892
  21   32674.3    306.1   0.082967243   0.83594  -0.34264  -0.78937  -0.30891
  22   32809.2    304.8   0.006345905   0.06368   0.18411   0.06081   0.16149
  23   33102.5    302.1   0.139519896   1.38756   0.05535  -1.11287  -0.38213
  24   33621.7    297.4   0.019192714   0.18793  -0.19924  -0.38013  -0.06112
  25   33812.0    295.8   0.006387243   0.06219   0.03895  -0.04896  -0.24140
  26   33901.4    295.0   0.007620811   0.07400  -0.24410  -0.11176  -0.04392
  27   34115.9    293.1   0.047669407   0.46000  -0.38075  -0.48774   0.27775
  28   34579.4    289.2   0.064902156   0.61790   0.44745   0.54525  -0.34698
  29   34769.8    287.6   0.296807290   2.81027  -1.16900  -0.71660   0.96447
  30   34998.1    285.7   0.147856373   1.39082  -0.81671  -0.18485  -0.83044
  31   35254.9    283.6   0.069019095   0.64450   0.45661  -0.14306   0.64462
  32   35747.7    279.7   0.041893797   0.38581  -0.48988  -0.37279  -0.08283
  33   35818.5    279.2   0.113283237   1.04120  -0.55221  -0.82625   0.23148
  34   36059.4    277.3   0.025073771   0.22892   0.11273  -0.41342   0.21283
  35   36197.2    276.3   0.053372491   0.48542  -0.64918   0.10620  -0.22958
  36   36674.9    272.7   0.039927214   0.35841  -0.23897  -0.52923  -0.14566
  37   36901.9    271.0   0.018226311   0.16260  -0.06714  -0.36059   0.16754
  38   37417.5    267.3   0.046951069   0.41309  -0.46627  -0.37569  -0.23354
  39   37604.7    265.9   0.067367671   0.58977   0.13765  -0.53834   0.53011
  40   37738.4    265.0   0.029075403   0.25364   0.07593  -0.37108   0.33193
  41   37915.5    263.7   0.143292543   1.24418  -0.55544   0.88163  -0.39799
  42   38184.9    261.9   0.033933553   0.29256  -0.44934  -0.23420   0.18923
  43   38418.5    260.3   0.134141242   1.14947   0.00456  -0.77756   0.73814
  44   38743.0    258.1   0.076074000   0.64643   0.43615  -0.42079   0.52834
  45   39093.4    255.8   0.055761579   0.46958  -0.20121  -0.64614   0.10769
  46   39377.3    254.0   0.001610260   0.01346  -0.05045  -0.09333   0.04698
  47   39454.8    253.5   0.044613644   0.37226  -0.40590  -0.44436  -0.10022
  48   39946.1    250.3   0.021396811   0.17634   0.03398   0.41312  -0.06723
  49   40190.7    248.8   0.169570352   1.38899  -0.55965   0.45012  -0.93444

FINAL SINGLE POINT ENERGY     -7075.896190751369

DIPOLE MOMENT
-------------
                                X             Y             Z
Electronic contribution:      1.15390    -125.49146      82.82225
Nuclear contribution   :     -1.75611     129.12728     -85.62978
                        -----------------------------------------
Total Dipole Moment    :     -0.60221       3.63582      -2.80753
                        -----------------------------------------
Magnitude (a.u.)       :      4.63293
Magnitude (Debye)      :     11.77598

Rotational constants in cm-1:     0.001175     0.000513     0.000455
Rotational constants in MHz :    35.211627    15.371848    13.651107

                             ****ORCA TERMINATED NORMALLY****
TOTAL RUN TIME: 0 days 0 hours 10 minutes 47 seconds 410 msec
