                         Program Version 4.2.0 -  RELEASE  -
|  1> # ORCA input file
|  2> # SCF done       -189.482712270440          0.000573268554
|  3> ! CAM-B3LYP def2-SVP def2/J RIJCOSX Grid4 TightSCF
|  4> %maxcore 5000
|  5> %tddft
|  6>     Mode sTDDFT
|  7>     Ethresh 5.0
|  8>     maxcore 5000
|  9> end
| 10>
| 11> %pal
| 12>   nprocs 6
| 13>   end
| 14> * xyz 0 1
| 15>    C       -9.10344         4.22550         0.46090
| 16>    C       -9.22174         3.32488         1.50019
| 17>    C       -8.68283         3.52329         2.78165
| 18>    N       -8.24286         3.59480         3.84222
| 19>    C       -9.87029         2.07847         1.43994
| 20>    N      -10.37380         1.04533         1.49631
| 21>    C       -8.49358         5.55015         0.56808
| 22>    C       -8.58251         6.18966        -0.69171
| 23>    C       -8.09943         7.45353        -0.91710
| 24>    C       -7.49494         8.12204         0.15452
| 25>    C       -7.41386         7.47768         1.40954
| 26>    C       -7.90708         6.19752         1.63758
| 27>    S       -6.63021         8.48114         2.59357
| 28>    C       -6.42447         9.73482         1.39968
| 29>    C       -6.91678         9.42097         0.17825
| 30>   Br       -5.57734        11.33958         1.87804
| 31>    C       -9.24870         5.27950        -1.65081
| 32>    O       -9.48340         5.52035        -2.82001
| 33>    C       -9.54338         4.05231        -0.89260
| 34>    C      -10.09308         2.90406        -1.43907
| 35>    C      -10.47562         2.75596        -2.76260
| 36>    C      -10.95913         1.56588        -3.28049
| 37>    C      -11.34919         1.32489        -4.61424
| 38>    C      -11.76133         0.04478        -4.85535
| 39>    C      -11.71893        -0.78499        -3.71880
| 40>    S      -11.14191         0.11290        -2.32768
| 41>    C      -12.05317        -2.12511        -3.62819
| 42>    C      -12.49041        -2.98595        -4.65969
| 43>    C      -12.71945        -4.26710        -4.25914
| 44>    C      -12.48180        -4.49156        -2.88227
| 45>    S      -11.94958        -2.98730        -2.11575
| 46>    C      -12.61087        -5.66356        -2.19302
| 47>    N      -12.37271        -5.76396        -0.87099
| 48>    C      -12.45445        -6.89699        -0.08969
| 49>    C      -12.89482        -8.12765        -0.49605
| 50>    S      -12.94392        -9.26488         0.78467
| 51>    C      -12.35178        -8.10014         1.89355
| 52>    C      -12.11881        -6.88584         1.30966
| 53>    N      -11.67043        -5.78618         2.01865
| 54>    C      -10.81163        -4.81090         1.59686
| 55>    C      -10.43329        -3.78483         2.39849
| 56>    C       -9.54907        -2.75913         2.01285
| 57>    C       -9.14306        -1.75942         2.85586
| 58>    C       -8.25611        -0.69110         2.57604
| 59>    C       -8.03976         0.14674         3.62714
| 60>    C       -8.74143        -0.21380         4.79990
| 61>    S       -9.68462        -1.65021         4.52624
| 62>    C       -8.71642         0.40964         6.03556
| 63>    C       -8.07469         1.61018         6.39751
| 64>    C       -8.22165         1.92991         7.71726
| 65>    C       -8.97883         0.99782         8.45872
| 66>    S       -9.52182        -0.29560         7.42226
| 67>    C       -9.24237         1.03550         9.81794
| 68>    C      -10.00284         0.07769        10.47046
| 69>    C      -10.26434        -0.04193        11.82293
| 70>    C       -9.65519         0.55488        12.97499
| 71>    C       -8.37377         1.05208        13.08145
| 72>    C       -7.83977         1.60308        14.26047
| 73>    N       -7.35863         2.08461        15.18668
| 74>    C       -7.39696         0.96279        12.07215
| 75>    N       -6.53858         0.87067        11.31353
| 76>    C      -10.55637         0.33900        14.10971
| 77>    C      -11.59561        -0.53165        13.69963
| 78>    C      -11.42168        -0.84280        12.26275
| 79>    O      -12.10899        -1.57819        11.58294
| 80>    C      -12.57750        -0.96453        14.55463
| 81>    C      -12.53906        -0.50856        15.87777
| 82>    C      -11.50721         0.37186        16.27272
| 83>    C      -10.50764         0.80506        15.40797
| 84>    S      -11.65310         0.81772        17.94712
| 85>    C      -13.07657        -0.17889        18.09089
| 86>    C      -13.42843        -0.80967        16.94665
| 87>   Br      -13.96524        -0.29185        19.74027
| 88>    H       -8.18231         7.91425        -1.88898
| 89>    H       -7.82187         5.75173         2.61442
| 90>    H       -6.87448        10.07638        -0.67245
| 91>    H      -10.21886         2.04241        -0.79392
| 92>    H      -10.38213         3.59632        -3.43474
| 93>    H      -11.31068         2.10263        -5.35582
| 94>    H      -12.09123        -0.31339        -5.81400
| 95>    H      -12.61807        -2.63648        -5.66780
| 96>    H      -13.05249        -5.05793        -4.90721
| 97>    H      -12.90110        -6.56150        -2.71579
| 98>    H      -12.16880        -4.89821        -0.38492
| 99>    H      -13.21769        -8.42893        -1.47079
|100>    H      -12.20517        -8.36585         2.92079
|101>    H      -11.84597        -5.81009         3.01453
|102>    H      -10.41046        -4.90903         0.59854
|103>    H      -10.82501        -3.73936         3.40660
|104>    H       -9.16791        -2.75445         1.00096
|105>    H       -7.80852        -0.57924         1.60443
|106>    H       -7.39837         1.00880         3.60046
|107>    H       -7.55427         2.21781         5.68006
|108>    H       -7.79951         2.80266         8.18218
|109>    H       -8.83228         1.87101        10.36579
|110>    H      -10.53538        -0.63695         9.84853
|111>    H      -13.35135        -1.63601        14.21693
|112>    H       -9.74293         1.47901        15.75661
|113>    H      -14.27844        -1.46126        16.85661
|114> *
|115>
|116>                          ****END OF INPUT****

CARTESIAN COORDINATES (ANGSTROEM)
---------------------------------
  C     -9.103440    4.225500    0.460900
  C     -9.221740    3.324880    1.500190
  C     -8.682830    3.523290    2.781650
  N     -8.242860    3.594800    3.842220
  C     -9.870290    2.078470    1.439940
  N    -10.373800    1.045330    1.496310
  C     -8.493580    5.550150    0.568080
  C     -8.582510    6.189660   -0.691710
  C     -8.099430    7.453530   -0.917100
  C     -7.494940    8.122040    0.154520
  C     -7.413860    7.477680    1.409540
  C     -7.907080    6.197520    1.637580
  S     -6.630210    8.481140    2.593570
  C     -6.424470    9.734820    1.399680
  C     -6.916780    9.420970    0.178250
  Br    -5.577340   11.339580    1.878040
  C     -9.248700    5.279500   -1.650810
  O     -9.483400    5.520350   -2.820010
  C     -9.543380    4.052310   -0.892600
  C    -10.093080    2.904060   -1.439070
  C    -10.475620    2.755960   -2.762600
  C    -10.959130    1.565880   -3.280490
  C    -11.349190    1.324890   -4.614240
  C    -11.761330    0.044780   -4.855350
  C    -11.718930   -0.784990   -3.718800
  S    -11.141910    0.112900   -2.327680
  C    -12.053170   -2.125110   -3.628190
  C    -12.490410   -2.985950   -4.659690
  C    -12.719450   -4.267100   -4.259140
  C    -12.481800   -4.491560   -2.882270
  S    -11.949580   -2.987300   -2.115750
  C    -12.610870   -5.663560   -2.193020
  N    -12.372710   -5.763960   -0.870990
  C    -12.454450   -6.896990   -0.089690
  C    -12.894820   -8.127650   -0.496050
  S    -12.943920   -9.264880    0.784670
  C    -12.351780   -8.100140    1.893550
  C    -12.118810   -6.885840    1.309660
  N    -11.670430   -5.786180    2.018650
  C    -10.811630   -4.810900    1.596860
  C    -10.433290   -3.784830    2.398490
  C     -9.549070   -2.759130    2.012850
  C     -9.143060   -1.759420    2.855860
  C     -8.256110   -0.691100    2.576040
  C     -8.039760    0.146740    3.627140
  C     -8.741430   -0.213800    4.799900
  S     -9.684620   -1.650210    4.526240
  C     -8.716420    0.409640    6.035560
  C     -8.074690    1.610180    6.397510
  C     -8.221650    1.929910    7.717260
  C     -8.978830    0.997820    8.458720
  S     -9.521820   -0.295600    7.422260
  C     -9.242370    1.035500    9.817940
  C    -10.002840    0.077690   10.470460
  C    -10.264340   -0.041930   11.822930
  C     -9.655190    0.554880   12.974990
  C     -8.373770    1.052080   13.081450
  C     -7.839770    1.603080   14.260470
  N     -7.358630    2.084610   15.186680
  C     -7.396960    0.962790   12.072150
  N     -6.538580    0.870670   11.313530
  C    -10.556370    0.339000   14.109710
  C    -11.595610   -0.531650   13.699630
  C    -11.421680   -0.842800   12.262750
  O    -12.108990   -1.578190   11.582940
  C    -12.577500   -0.964530   14.554630
  C    -12.539060   -0.508560   15.877770
  C    -11.507210    0.371860   16.272720
  C    -10.507640    0.805060   15.407970
  S    -11.653100    0.817720   17.947120
  C    -13.076570   -0.178890   18.090890
  C    -13.428430   -0.809670   16.946650
  Br   -13.965240   -0.291850   19.740270
  H     -8.182310    7.914250   -1.888980
  H     -7.821870    5.751730    2.614420
  H     -6.874480   10.076380   -0.672450
  H    -10.218860    2.042410   -0.793920
  H    -10.382130    3.596320   -3.434740
  H    -11.310680    2.102630   -5.355820
  H    -12.091230   -0.313390   -5.814000
  H    -12.618070   -2.636480   -5.667800
  H    -13.052490   -5.057930   -4.907210
  H    -12.901100   -6.561500   -2.715790
  H    -12.168800   -4.898210   -0.384920
  H    -13.217690   -8.428930   -1.470790
  H    -12.205170   -8.365850    2.920790
  H    -11.845970   -5.810090    3.014530
  H    -10.410460   -4.909030    0.598540
  H    -10.825010   -3.739360    3.406600
  H     -9.167910   -2.754450    1.000960
  H     -7.808520   -0.579240    1.604430
  H     -7.398370    1.008800    3.600460
  H     -7.554270    2.217810    5.680060
  H     -7.799510    2.802660    8.182180
  H     -8.832280    1.871010   10.365790
  H    -10.535380   -0.636950    9.848530
  H    -13.351350   -1.636010   14.216930
  H     -9.742930    1.479010   15.756610
  H    -14.278440   -1.461260   16.856610

 Total Charge           Charge          ....    0
 Multiplicity           Mult            ....    1
 Number of Electrons    NEL             ....  602
 Basis Dimension        Dim             .... 1216

ORBITAL ENERGIES
----------------

  NO   OCC          E(Eh)            E(eV)
   0   2.0000    -482.878681    -13139.7969
   1   2.0000    -482.867167    -13139.4836
   2   2.0000     -88.981926     -2421.3213
   3   2.0000     -88.981683     -2421.3147
   4   2.0000     -88.967359     -2420.9249
   5   2.0000     -88.965463     -2420.8733
   6   2.0000     -88.952882     -2420.5310
   7   2.0000     -88.947350     -2420.3804
   8   2.0000     -88.940664     -2420.1985
   9   2.0000     -62.556400     -1702.2462
  10   2.0000     -62.544915     -1701.9337
  11   2.0000     -56.390343     -1534.4592
  12   2.0000     -56.387643     -1534.3858
  13   2.0000     -56.387602     -1534.3847
  14   2.0000     -56.378839     -1534.1462
  15   2.0000     -56.376173     -1534.0737
  16   2.0000     -56.376125     -1534.0723
  17   2.0000     -19.201769      -522.5067
  18   2.0000     -19.179482      -521.9002
  19   2.0000     -14.501910      -394.6170
  20   2.0000     -14.478886      -393.9905
  21   2.0000     -14.409733      -392.1088
  22   2.0000     -14.406816      -392.0294
  23   2.0000     -14.383350      -391.3909
  24   2.0000     -14.379722      -391.2921
  25   2.0000     -10.372471      -282.2493
  26   2.0000     -10.354159      -281.7510
  27   2.0000     -10.351750      -281.6854
  28   2.0000     -10.350971      -281.6642
  29   2.0000     -10.350599      -281.6541
  30   2.0000     -10.349423      -281.6221
  31   2.0000     -10.345727      -281.5215
  32   2.0000     -10.336500      -281.2705
  33   2.0000     -10.332411      -281.1592
  34   2.0000     -10.331720      -281.1404
  35   2.0000     -10.330292      -281.1015
  36   2.0000     -10.328690      -281.0579
  37   2.0000     -10.324293      -280.9383
  38   2.0000     -10.323868      -280.9267
  39   2.0000     -10.323559      -280.9183
  40   2.0000     -10.319940      -280.8198
  41   2.0000     -10.319125      -280.7977
  42   2.0000     -10.316546      -280.7275
  43   2.0000     -10.315920      -280.7104
  44   2.0000     -10.315596      -280.7016
  45   2.0000     -10.311569      -280.5921
  46   2.0000     -10.311039      -280.5776
  47   2.0000     -10.309541      -280.5369
  48   2.0000     -10.308759      -280.5156
  49   2.0000     -10.306882      -280.4645
  50   2.0000     -10.305270      -280.4207
  51   2.0000     -10.304476      -280.3990
  52   2.0000     -10.300506      -280.2910
  53   2.0000     -10.300061      -280.2789
  54   2.0000     -10.299484      -280.2632
  55   2.0000     -10.297572      -280.2112
  56   2.0000     -10.297014      -280.1960
  57   2.0000     -10.296688      -280.1871
  58   2.0000     -10.295664      -280.1593
  59   2.0000     -10.294084      -280.1163
  60   2.0000     -10.290147      -280.0091
  61   2.0000     -10.289422      -279.9894
  62   2.0000     -10.288820      -279.9730
  63   2.0000     -10.287994      -279.9505
  64   2.0000     -10.286559      -279.9115
  65   2.0000     -10.283906      -279.8393
  66   2.0000     -10.281443      -279.7723
  67   2.0000     -10.280508      -279.7468
  68   2.0000     -10.280052      -279.7344
  69   2.0000     -10.279543      -279.7206
  70   2.0000     -10.279415      -279.7171
  71   2.0000     -10.278928      -279.7038
  72   2.0000     -10.277424      -279.6629
  73   2.0000     -10.276115      -279.6273
  74   2.0000     -10.275533      -279.6115
  75   2.0000     -10.274234      -279.5761
  76   2.0000     -10.273587      -279.5585
  77   2.0000     -10.267244      -279.3859
  78   2.0000     -10.263078      -279.2725
  79   2.0000     -10.258326      -279.1432
  80   2.0000     -10.253801      -279.0201
  81   2.0000      -8.785829      -239.0746
  82   2.0000      -8.774358      -238.7624
  83   2.0000      -8.077769      -219.8073
  84   2.0000      -8.077754      -219.8069
  85   2.0000      -8.063272      -219.4128
  86   2.0000      -8.061409      -219.3621
  87   2.0000      -8.048869      -219.0209
  88   2.0000      -8.043863      -218.8846
  89   2.0000      -8.037021      -218.6985
  90   2.0000      -6.622093      -180.1963
  91   2.0000      -6.610564      -179.8826
  92   2.0000      -6.607561      -179.8009
  93   2.0000      -6.607410      -179.7968
  94   2.0000      -6.596106      -179.4892
  95   2.0000      -6.595997      -179.4862
  96   2.0000      -6.047494      -164.5607
  97   2.0000      -6.047177      -164.5521
  98   2.0000      -6.043466      -164.4511
  99   2.0000      -6.042872      -164.4349
 100   2.0000      -6.039809      -164.3515
 101   2.0000      -6.038725      -164.3221
 102   2.0000      -6.032963      -164.1653
 103   2.0000      -6.030939      -164.1102
 104   2.0000      -6.028704      -164.0494
 105   2.0000      -6.027009      -164.0032
 106   2.0000      -6.024518      -163.9355
 107   2.0000      -6.022665      -163.8850
 108   2.0000      -6.018578      -163.7738
 109   2.0000      -6.014313      -163.6578
 110   2.0000      -6.013485      -163.6352
 111   2.0000      -6.010071      -163.5423
 112   2.0000      -6.009532      -163.5277
 113   2.0000      -6.006579      -163.4473
 114   2.0000      -6.004875      -163.4009
 115   2.0000      -6.002592      -163.3388
 116   2.0000      -5.998216      -163.2198
 117   2.0000      -2.737970       -74.5040
 118   2.0000      -2.733898       -74.3932
 119   2.0000      -2.733755       -74.3892
 120   2.0000      -2.726413       -74.1895
 121   2.0000      -2.722418       -74.0808
 122   2.0000      -2.722290       -74.0773
 123   2.0000      -2.722221       -74.0754
 124   2.0000      -2.722200       -74.0748
 125   2.0000      -2.710815       -73.7650
 126   2.0000      -2.710801       -73.7646
 127   2.0000      -1.114800       -30.3352
 128   2.0000      -1.110116       -30.2078
 129   2.0000      -1.093259       -29.7491
 130   2.0000      -1.075697       -29.2712
 131   2.0000      -1.021193       -27.7881
 132   2.0000      -1.013447       -27.5773
 133   2.0000      -1.006095       -27.3772
 134   2.0000      -1.001065       -27.2404
 135   2.0000      -0.995937       -27.1008
 136   2.0000      -0.994103       -27.0509
 137   2.0000      -0.992984       -27.0205
 138   2.0000      -0.988075       -26.8869
 139   2.0000      -0.982297       -26.7297
 140   2.0000      -0.978782       -26.6340
 141   2.0000      -0.970438       -26.4070
 142   2.0000      -0.960814       -26.1451
 143   2.0000      -0.958445       -26.0806
 144   2.0000      -0.933618       -25.4050
 145   2.0000      -0.918069       -24.9819
 146   2.0000      -0.917045       -24.9541
 147   2.0000      -0.914670       -24.8894
 148   2.0000      -0.899756       -24.4836
 149   2.0000      -0.898274       -24.4433
 150   2.0000      -0.888993       -24.1907
 151   2.0000      -0.880622       -23.9630
 152   2.0000      -0.878548       -23.9065
 153   2.0000      -0.876078       -23.8393
 154   2.0000      -0.869678       -23.6651
 155   2.0000      -0.867926       -23.6175
 156   2.0000      -0.859387       -23.3851
 157   2.0000      -0.853179       -23.2162
 158   2.0000      -0.848872       -23.0990
 159   2.0000      -0.844595       -22.9826
 160   2.0000      -0.844490       -22.9797
 161   2.0000      -0.830050       -22.5868
 162   2.0000      -0.826511       -22.4905
 163   2.0000      -0.819554       -22.3012
 164   2.0000      -0.817869       -22.2553
 165   2.0000      -0.807338       -21.9688
 166   2.0000      -0.803136       -21.8544
 167   2.0000      -0.798676       -21.7331
 168   2.0000      -0.777626       -21.1603
 169   2.0000      -0.770615       -20.9695
 170   2.0000      -0.751447       -20.4479
 171   2.0000      -0.747434       -20.3387
 172   2.0000      -0.741442       -20.1757
 173   2.0000      -0.730411       -19.8755
 174   2.0000      -0.727388       -19.7932
 175   2.0000      -0.718349       -19.5473
 176   2.0000      -0.712343       -19.3838
 177   2.0000      -0.699162       -19.0252
 178   2.0000      -0.689191       -18.7538
 179   2.0000      -0.686974       -18.6935
 180   2.0000      -0.683703       -18.6045
 181   2.0000      -0.680488       -18.5170
 182   2.0000      -0.673975       -18.3398
 183   2.0000      -0.669265       -18.2116
 184   2.0000      -0.666430       -18.1345
 185   2.0000      -0.659232       -17.9386
 186   2.0000      -0.658705       -17.9243
 187   2.0000      -0.648525       -17.6473
 188   2.0000      -0.642869       -17.4934
 189   2.0000      -0.641850       -17.4656
 190   2.0000      -0.635866       -17.3028
 191   2.0000      -0.632221       -17.2036
 192   2.0000      -0.627444       -17.0736
 193   2.0000      -0.624975       -17.0064
 194   2.0000      -0.622039       -16.9266
 195   2.0000      -0.613474       -16.6935
 196   2.0000      -0.609047       -16.5730
 197   2.0000      -0.606353       -16.4997
 198   2.0000      -0.600483       -16.3400
 199   2.0000      -0.594493       -16.1770
 200   2.0000      -0.590337       -16.0639
 201   2.0000      -0.588604       -16.0167
 202   2.0000      -0.584188       -15.8966
 203   2.0000      -0.576525       -15.6880
 204   2.0000      -0.569459       -15.4958
 205   2.0000      -0.567833       -15.4515
 206   2.0000      -0.566353       -15.4113
 207   2.0000      -0.559601       -15.2275
 208   2.0000      -0.553278       -15.0555
 209   2.0000      -0.549413       -14.9503
 210   2.0000      -0.547204       -14.8902
 211   2.0000      -0.537588       -14.6285
 212   2.0000      -0.535771       -14.5791
 213   2.0000      -0.531976       -14.4758
 214   2.0000      -0.528425       -14.3792
 215   2.0000      -0.524746       -14.2791
 216   2.0000      -0.523398       -14.2424
 217   2.0000      -0.521019       -14.1777
 218   2.0000      -0.520477       -14.1629
 219   2.0000      -0.518179       -14.1004
 220   2.0000      -0.515888       -14.0380
 221   2.0000      -0.511893       -13.9293
 222   2.0000      -0.509008       -13.8508
 223   2.0000      -0.507996       -13.8233
 224   2.0000      -0.505251       -13.7486
 225   2.0000      -0.504654       -13.7323
 226   2.0000      -0.501415       -13.6442
 227   2.0000      -0.500903       -13.6303
 228   2.0000      -0.498908       -13.5760
 229   2.0000      -0.496854       -13.5201
 230   2.0000      -0.494649       -13.4601
 231   2.0000      -0.491982       -13.3875
 232   2.0000      -0.487927       -13.2772
 233   2.0000      -0.485742       -13.2177
 234   2.0000      -0.484335       -13.1794
 235   2.0000      -0.483284       -13.1508
 236   2.0000      -0.481697       -13.1076
 237   2.0000      -0.480869       -13.0851
 238   2.0000      -0.479845       -13.0572
 239   2.0000      -0.479396       -13.0450
 240   2.0000      -0.472559       -12.8590
 241   2.0000      -0.469273       -12.7696
 242   2.0000      -0.465541       -12.6680
 243   2.0000      -0.464784       -12.6474
 244   2.0000      -0.461818       -12.5667
 245   2.0000      -0.461450       -12.5567
 246   2.0000      -0.459629       -12.5071
 247   2.0000      -0.458220       -12.4688
 248   2.0000      -0.455464       -12.3938
 249   2.0000      -0.454514       -12.3679
 250   2.0000      -0.451055       -12.2738
 251   2.0000      -0.448786       -12.2121
 252   2.0000      -0.443409       -12.0658
 253   2.0000      -0.440721       -11.9926
 254   2.0000      -0.438118       -11.9218
 255   2.0000      -0.438084       -11.9209
 256   2.0000      -0.433244       -11.7892
 257   2.0000      -0.430965       -11.7272
 258   2.0000      -0.427626       -11.6363
 259   2.0000      -0.422893       -11.5075
 260   2.0000      -0.421664       -11.4741
 261   2.0000      -0.420677       -11.4472
 262   2.0000      -0.420324       -11.4376
 263   2.0000      -0.418439       -11.3863
 264   2.0000      -0.417242       -11.3537
 265   2.0000      -0.415913       -11.3176
 266   2.0000      -0.415102       -11.2955
 267   2.0000      -0.411584       -11.1998
 268   2.0000      -0.408798       -11.1240
 269   2.0000      -0.401811       -10.9338
 270   2.0000      -0.400940       -10.9101
 271   2.0000      -0.396360       -10.7855
 272   2.0000      -0.394472       -10.7341
 273   2.0000      -0.389453       -10.5975
 274   2.0000      -0.387086       -10.5331
 275   2.0000      -0.380582       -10.3562
 276   2.0000      -0.378917       -10.3108
 277   2.0000      -0.373095       -10.1524
 278   2.0000      -0.368231       -10.0201
 279   2.0000      -0.368000       -10.0138
 280   2.0000      -0.365700        -9.9512
 281   2.0000      -0.361328        -9.8322
 282   2.0000      -0.357064        -9.7162
 283   2.0000      -0.352759        -9.5991
 284   2.0000      -0.346814        -9.4373
 285   2.0000      -0.343003        -9.3336
 286   2.0000      -0.331945        -9.0327
 287   2.0000      -0.329275        -8.9600
 288   2.0000      -0.324562        -8.8318
 289   2.0000      -0.322163        -8.7665
 290   2.0000      -0.316416        -8.6101
 291   2.0000      -0.307838        -8.3767
 292   2.0000      -0.306185        -8.3317
 293   2.0000      -0.300015        -8.1638
 294   2.0000      -0.291569        -7.9340
 295   2.0000      -0.289662        -7.8821
 296   2.0000      -0.284532        -7.7425
 297   2.0000      -0.270341        -7.3564
 298   2.0000      -0.263097        -7.1592
 299   2.0000      -0.231284        -6.2936
 300   2.0000      -0.207764        -5.6536
 301   0.0000      -0.108959        -2.9649
 302   0.0000      -0.088242        -2.4012
 303   0.0000      -0.060904        -1.6573
 304   0.0000      -0.041259        -1.1227
 305   0.0000      -0.038491        -1.0474

MULLIKEN ATOMIC CHARGES
-----------------------
   0 C :    0.337604
   1 C :   -0.387325
   2 C :   -0.169514
   3 N :    0.119248
   4 C :   -0.184725
   5 N :    0.123826
   6 C :    0.014424
   7 C :   -0.006399
   8 C :   -0.082462
   9 C :    0.121779
  10 C :   -0.092394
  11 C :   -0.031382
  12 S :    0.179534
  13 C :   -0.123191
  14 C :    0.035204
  15 Br:    0.017472
  16 C :    0.137256
  17 O :   -0.166475
  18 C :   -0.096014
  19 C :   -0.039938
  20 C :   -0.030437
  21 C :    0.011148
  22 C :    0.018734
  23 C :    0.044836
  24 C :   -0.061598
  25 S :    0.098158
  26 C :   -0.020399
  27 C :    0.012120
  28 C :    0.063741
  29 C :   -0.070515
  30 S :    0.074801
  31 C :    0.067353
  32 N :   -0.037917
  33 C :    0.102785
  34 C :   -0.213573
  35 S :    0.148936
  36 C :   -0.172038
  37 C :    0.118208
  38 N :   -0.054554
  39 C :    0.034261
  40 C :   -0.015255
  41 C :    0.010160
  42 C :   -0.029197
  43 C :    0.081223
  44 C :    0.023755
  45 C :   -0.022013
  46 S :    0.076692
  47 C :   -0.069778
  48 C :    0.061229
  49 C :    0.023815
  50 C :   -0.009035
  51 S :    0.093256
  52 C :   -0.007325
  53 C :    0.018354
  54 C :   -0.131562
  55 C :    0.293350
  56 C :   -0.362999
  57 C :   -0.179089
  58 N :    0.125780
  59 C :   -0.220980
  60 N :    0.152906
  61 C :    0.005369
  62 C :   -0.003326
  63 C :    0.133473
  64 O :   -0.167462
  65 C :   -0.083831
  66 C :    0.117234
  67 C :   -0.090211
  68 C :   -0.031433
  69 S :    0.172622
  70 C :   -0.125168
  71 C :    0.035446
  72 Br:    0.005121
  73 H :   -0.016101
  74 H :   -0.012627
  75 H :   -0.005686
  76 H :    0.007273
  77 H :    0.015804
  78 H :   -0.000582
  79 H :   -0.006677
  80 H :   -0.006440
  81 H :   -0.001005
  82 H :    0.020080
  83 H :    0.144518
  84 H :    0.019408
  85 H :    0.018086
  86 H :    0.137016
  87 H :    0.015481
  88 H :    0.000335
  89 H :   -0.014132
  90 H :   -0.011322
  91 H :   -0.000612
  92 H :    0.003129
  93 H :   -0.003684
  94 H :    0.004234
  95 H :    0.009659
  96 H :   -0.019452
  97 H :   -0.008919
  98 H :   -0.009482
Sum of atomic charges:   -0.0000000

LOEWDIN ATOMIC CHARGES
----------------------
   0 C :    0.079350
   1 C :   -0.175738
   2 C :   -0.002311
   3 N :   -0.085680
   4 C :   -0.018015
   5 N :   -0.073773
   6 C :   -0.020055
   7 C :   -0.047132
   8 C :    0.016890
   9 C :   -0.035380
  10 C :   -0.146976
  11 C :   -0.015532
  12 S :    0.427336
  13 C :   -0.274269
  14 C :   -0.071025
  15 Br:    0.131498
  16 C :    0.081912
  17 O :   -0.159846
  18 C :   -0.119544
  19 C :    0.048873
  20 C :   -0.083299
  21 C :   -0.098298
  22 C :   -0.051914
  23 C :   -0.003592
  24 C :   -0.210465
  25 S :    0.404291
  26 C :   -0.132241
  27 C :   -0.057897
  28 C :   -0.000106
  29 C :   -0.210787
  30 S :    0.373055
  31 C :    0.050442
  32 N :    0.053256
  33 C :   -0.032531
  34 C :   -0.229399
  35 S :    0.464920
  36 C :   -0.216241
  37 C :   -0.032703
  38 N :    0.025441
  39 C :    0.026323
  40 C :   -0.092367
  41 C :   -0.019480
  42 C :   -0.155270
  43 C :    0.001583
  44 C :   -0.039506
  45 C :   -0.134030
  46 S :    0.383525
  47 C :   -0.198694
  48 C :    0.009952
  49 C :   -0.047486
  50 C :   -0.093450
  51 S :    0.396188
  52 C :   -0.080012
  53 C :    0.051258
  54 C :   -0.123257
  55 C :    0.068308
  56 C :   -0.164264
  57 C :   -0.019757
  58 N :   -0.077253
  59 C :   -0.023933
  60 N :   -0.070198
  61 C :   -0.013438
  62 C :   -0.049480
  63 C :    0.076025
  64 O :   -0.168715
  65 C :    0.013968
  66 C :   -0.039912
  67 C :   -0.146395
  68 C :   -0.019162
  69 S :    0.421772
  70 C :   -0.278603
  71 C :   -0.071382
  72 Br:    0.122336
  73 H :    0.038789
  74 H :    0.038627
  75 H :    0.037714
  76 H :    0.029278
  77 H :    0.038405
  78 H :    0.038452
  79 H :    0.034876
  80 H :    0.035170
  81 H :    0.038492
  82 H :    0.041275
  83 H :    0.080566
  84 H :    0.021566
  85 H :    0.026502
  86 H :    0.096965
  87 H :    0.026347
  88 H :    0.022779
  89 H :    0.034461
  90 H :    0.034272
  91 H :    0.034773
  92 H :    0.034445
  93 H :    0.038238
  94 H :    0.036419
  95 H :    0.031534
  96 H :    0.037183
  97 H :    0.039077
  98 H :    0.036084

  Mayer bond orders larger than 0.100000
B(  0-C ,  1-C ) :   1.5297 B(  0-C ,  6-C ) :   0.9870 B(  0-C , 18-C ) :   1.1477
B(  1-C ,  2-C ) :   1.1703 B(  1-C ,  4-C ) :   1.1746 B(  2-C ,  3-N ) :   2.8992
B(  4-C ,  5-N ) :   2.8962 B(  6-C ,  7-C ) :   1.2795 B(  6-C , 11-C ) :   1.4183
B(  7-C ,  8-C ) :   1.4356 B(  7-C , 16-C ) :   0.9319 B(  8-C ,  9-C ) :   1.2318
B(  8-C , 73-H ) :   1.0171 B(  9-C , 10-C ) :   1.3203 B(  9-C , 14-C ) :   1.1616
B( 10-C , 11-C ) :   1.3183 B( 10-C , 12-S ) :   1.0831 B( 11-C , 74-H ) :   0.9806
B( 12-S , 13-C ) :   1.0866 B( 13-C , 14-C ) :   1.6187 B( 13-C , 15-Br) :   1.0152
B( 14-C , 75-H ) :   1.0006 B( 16-C , 17-O ) :   2.1853 B( 16-C , 18-C ) :   0.9702
B( 18-C , 19-C ) :   1.4273 B( 19-C , 20-C ) :   1.3065 B( 19-C , 76-H ) :   0.9447
B( 20-C , 21-C ) :   1.3728 B( 20-C , 77-H ) :   0.9786 B( 21-C , 22-C ) :   1.2042
B( 21-C , 25-S ) :   1.0990 B( 22-C , 23-C ) :   1.5135 B( 22-C , 78-H ) :   1.0028
B( 23-C , 24-C ) :   1.2401 B( 23-C , 79-H ) :   0.9946 B( 24-C , 25-S ) :   1.0352
B( 24-C , 26-C ) :   1.4471 B( 26-C , 27-C ) :   1.2131 B( 26-C , 30-S ) :   1.0948
B( 27-C , 28-C ) :   1.5738 B( 27-C , 80-H ) :   0.9935 B( 28-C , 29-C ) :   1.1828
B( 28-C , 81-H ) :   0.9931 B( 29-C , 30-S ) :   0.9990 B( 29-C , 31-C ) :   1.5362
B( 31-C , 32-N ) :   1.2432 B( 31-C , 82-H ) :   0.9682 B( 32-N , 33-C ) :   1.1078
B( 32-N , 83-H ) :   0.9007 B( 33-C , 34-C ) :   1.5092 B( 33-C , 37-C ) :   1.2456
B( 34-C , 35-S ) :   1.1656 B( 34-C , 84-H ) :   0.9749 B( 35-S , 36-C ) :   1.1677
B( 36-C , 37-C ) :   1.5231 B( 36-C , 85-H ) :   0.9776 B( 37-C , 38-N ) :   1.0855
B( 38-N , 39-C ) :   1.1480 B( 38-N , 86-H ) :   0.9188 B( 39-C , 40-C ) :   1.6357
B( 39-C , 87-H ) :   0.9533 B( 40-C , 41-C ) :   1.1665 B( 40-C , 88-H ) :   0.9644
B( 41-C , 42-C ) :   1.5965 B( 41-C , 89-H ) :   0.9783 B( 42-C , 43-C ) :   1.1450
B( 42-C , 46-S ) :   1.0177 B( 43-C , 44-C ) :   1.5721 B( 43-C , 90-H ) :   0.9976
B( 44-C , 45-C ) :   1.2091 B( 44-C , 91-H ) :   0.9898 B( 45-C , 46-S ) :   1.0870
B( 45-C , 47-C ) :   1.4578 B( 47-C , 48-C ) :   1.2332 B( 47-C , 51-S ) :   1.0333
B( 48-C , 49-C ) :   1.5227 B( 48-C , 92-H ) :   0.9804 B( 49-C , 50-C ) :   1.1999
B( 49-C , 93-H ) :   1.0022 B( 50-C , 51-S ) :   1.0983 B( 50-C , 52-C ) :   1.4515
B( 52-C , 53-C ) :   1.2709 B( 52-C , 94-H ) :   0.9635 B( 53-C , 54-C ) :   1.4709
B( 53-C , 95-H ) :   0.9384 B( 54-C , 55-C ) :   1.1169 B( 54-C , 63-C ) :   0.9810
B( 55-C , 56-C ) :   1.5730 B( 55-C , 61-C ) :   0.9980 B( 56-C , 57-C ) :   1.1393
B( 56-C , 59-C ) :   1.1721 B( 57-C , 58-N ) :   2.9702 B( 59-C , 60-N ) :   3.0112
B( 61-C , 62-C ) :   1.2806 B( 61-C , 68-C ) :   1.4256 B( 62-C , 63-C ) :   0.9147
B( 62-C , 65-C ) :   1.4369 B( 63-C , 64-O ) :   2.2346 B( 65-C , 66-C ) :   1.2369
B( 65-C , 96-H ) :   1.0166 B( 66-C , 67-C ) :   1.3257 B( 66-C , 71-C ) :   1.1578
B( 67-C , 68-C ) :   1.3125 B( 67-C , 69-S ) :   1.0793 B( 68-C , 97-H ) :   0.9817
B( 69-S , 70-C ) :   1.0843 B( 70-C , 71-C ) :   1.6233 B( 70-C , 72-Br) :   1.0078
B( 71-C , 98-H ) :   1.0003

-----------------------------------------------------------------------------
         ABSORPTION SPECTRUM VIA TRANSITION ELECTRIC DIPOLE MOMENTS
-----------------------------------------------------------------------------
State   Energy  Wavelength   fosc         T2         TX        TY        TZ
        (cm-1)    (nm)                  (au**2)     (au)      (au)      (au)
-----------------------------------------------------------------------------
   0   10156.1    984.6   0.085799095   2.78119  -0.27059  -0.88868   1.38500
   1   11842.6    844.4   0.492566911  13.69290  -1.07419  -2.14664   2.81619
   2   12661.8    789.8   1.991570416  51.78149   1.21804   4.66923   5.33818
   3   19059.5    524.7   0.040621583   0.70165  -0.32386  -0.76384   0.11538
   4   20268.5    493.4   0.020080737   0.32616  -0.18162  -0.05349  -0.53881
   5   21397.2    467.4   0.048048317   0.73926   0.10124  -0.73019  -0.44254
   6   21977.9    455.0   0.169613947   2.54069   0.00353   1.19453  -1.05536
   7   22241.6    449.6   0.039312597   0.58189  -0.34004  -0.52723  -0.43393
   8   23522.9    425.1   0.046309620   0.64812  -0.00967  -0.78336   0.18541
   9   24626.9    406.1   0.263382818   3.52090   0.17091   1.40068  -1.23685
  10   25424.2    393.3   0.410381047   5.31393   0.67977   2.18486   0.27974
  11   25703.3    389.1   0.159451497   2.04228  -0.48543  -1.23685   0.52617
  12   26356.3    379.4   0.047779463   0.59680   0.42158   0.17777   0.62247
  13   26839.6    372.6   0.480277554   5.89104   1.83021   1.58879  -0.13077
  14   27428.1    364.6   0.575472940   6.90724  -0.26765  -1.26133   2.29012
  15   27604.0    362.3   0.031202736   0.37213   0.00119   0.26613  -0.54891
  16   28538.4    350.4   0.012534496   0.14459   0.23700   0.18623   0.23183
  17   28617.9    349.4   0.009789515   0.11262   0.27980  -0.13849  -0.12306
  18   28787.3    347.4   0.009033943   0.10331  -0.00664  -0.10011   0.30536
  19   29715.4    336.5   0.002147722   0.02379   0.07676   0.07409  -0.11141
  20   29950.0    333.9   0.006149130   0.06759   0.04074   0.02698  -0.25535
  21   30559.8    327.2   0.027860913   0.30014  -0.16835  -0.41515   0.31534
  22   30891.0    323.7   0.001756162   0.01872  -0.06570  -0.07844   0.09081
  23   31234.5    320.2   0.045396966   0.47848  -0.32418  -0.58823   0.16547
  24   31696.3    315.5   0.090026794   0.93506  -0.52186  -0.79037   0.19503
  25   31731.9    315.1   0.089297331   0.92644  -0.50826  -0.64564   0.50126
  26   31843.9    314.0   0.033958168   0.35107  -0.12093  -0.25579  -0.52060
  27   31946.2    313.0   0.430130658   4.43258   1.16169   1.75190  -0.11792
  28   32151.0    311.0   0.046170081   0.47276  -0.24340  -0.59206  -0.25096
  29   32215.0    310.4   0.088192259   0.90126   0.70711   0.02437  -0.63298
  30   32608.2    306.7   0.025032033   0.25272  -0.42952   0.15947   0.20690
  31   32703.9    305.8   0.017173570   0.17288   0.09531   0.21624  -0.34210
  32   33003.4    303.0   0.098896978   0.98651  -0.68491  -0.01769   0.71909
  33   33102.1    302.1   0.035673717   0.35479  -0.26771   0.04547   0.53014
  34   33362.7    299.7   0.010516844   0.10378  -0.17137  -0.23495  -0.13859
  35   33417.0    299.2   0.102905071   1.01378   0.73472   0.49240  -0.48115
  36   33749.5    296.3   0.013672870   0.13337   0.31212   0.04614  -0.18391
  37   33936.1    294.7   0.294834688   2.86017  -1.20936  -0.55234   1.04525
  38   34251.7    292.0   0.062382781   0.59960   0.63610   0.28485  -0.33739
  39   34451.1    290.3   0.136113415   1.30069  -0.29109  -1.09133   0.15794
  40   34744.4    287.8   0.094044468   0.89109  -0.41178  -0.77728  -0.34259
  41   35009.8    285.6   0.009737256   0.09156  -0.25677   0.09131   0.13151
  42   35214.4    284.0   0.003388873   0.03168   0.09188  -0.14000   0.06033
  43   35469.3    281.9   0.007045626   0.06539  -0.03494  -0.24888   0.04727
  44   35648.3    280.5   0.017061079   0.15756  -0.09812  -0.05723   0.38034
  45   35878.3    278.7   0.012963949   0.11895   0.05473   0.34015   0.01612
  46   36093.8    277.1   0.109739942   1.00094   0.02686  -0.47464   0.88030
  47   36272.8    275.7   0.071433154   0.64833   0.10380  -0.31045   0.73565
  48   36399.2    274.7   0.052691003   0.47656   0.22537   0.05016   0.65058
  49   36818.8    271.6   0.082883656   0.74110   0.76388   0.39696  -0.00332
  50   37189.3    268.9   0.030681502   0.27160   0.15132   0.47377   0.15571
  51   37231.0    268.6   0.012567025   0.11112  -0.01920   0.22893   0.24155
  52   37687.7    265.3   0.087379855   0.76329   0.74969   0.44861  -0.00121
  53   37836.3    264.3   0.044603257   0.38809   0.26461   0.15086  -0.54343
  54   38129.9    262.3   0.021288799   0.18381  -0.14753   0.40194   0.02207
  55   38319.8    261.0   0.012499276   0.10738  -0.31195  -0.02906  -0.09606
  56   38390.0    260.5   0.002154417   0.01848   0.01754   0.05312  -0.12388
  57   38684.6    258.5   0.016015269   0.13629  -0.06922   0.01086  -0.36247
  58   39096.8    255.8   0.025373619   0.21366  -0.23274  -0.26076   0.30248
  59   39275.1    254.6   0.106347591   0.89143   0.20269  -0.21119   0.89763
  60   39423.0    253.7   0.042848318   0.35782  -0.27948  -0.46162  -0.25810
  61   39505.4    253.1   0.006323764   0.05270   0.04850  -0.22214   0.03164
  62   39765.2    251.5   0.051520376   0.42653   0.19626  -0.15553   0.60318
  63   39925.9    250.5   0.046648242   0.38464  -0.11448  -0.20518  -0.57397
  64   40257.0    248.4   0.214324757   1.75269   0.70468   0.80482   0.78000

FINAL SINGLE POINT ENERGY    -10559.496100243536

DIPOLE MOMENT
-------------
                                X             Y             Z
Electronic contribution:     12.67721     119.25692     159.38670
Nuclear contribution   :    -15.39612    -123.68030    -168.31101
                        -----------------------------------------
Total Dipole Moment    :     -2.71891      -4.42338      -8.92430
                        -----------------------------------------
Magnitude (a.u.)       :     10.32482
Magnitude (Debye)      :     26.24361

Rotational constants in cm-1:     0.000491     0.000251     0.000173
Rotational constants in MHz :    14.726372     7.510774     5.184096

                             ****ORCA TERMINATED NORMALLY****
TOTAL RUN TIME: 0 days 0 hours 9 minutes 49 seconds 360 msec
