                         Program Version 4.2.0 -  RELEASE  -
|  1> # ORCA input file
|  2> # SCF done       -177.684534475400          0.002070172668
|  3> ! CAM-B3LYP def2-SVP def2/J RIJCOSX Grid4 TightSCF
|  4> %maxcore 5000
|  5> %tddft
|  6>     Mode sTDDFT
|  7>     Ethresh 5.0
|  8>     maxcore 5000
|  9> end
| 10>
| 11> %pal
| 12>   nprocs 6
| 13>   end
| 14> * xyz 0 1
| 15>    C       -3.89697         2.49413         3.26524
| 16>    C       -2.55811         2.33586         3.52699
| 17>    C       -2.02358         2.10488         4.80924
| 18>    N       -1.54174         1.92279         5.83592
| 19>    C       -1.55581         2.37302         2.53806
| 20>    N       -0.71218         2.38767         1.75895
| 21>    C       -4.97600         2.42368         4.24763
| 22>    C       -6.21841         2.57983         3.57871
| 23>    C       -7.42199         2.56549         4.24010
| 24>    C       -7.40138         2.40086         5.62969
| 25>    C       -6.15849         2.25261         6.28837
| 26>    C       -4.94009         2.25715         5.61799
| 27>    S       -6.36092         2.07916         8.00477
| 28>    C       -8.08982         2.20853         7.81756
| 29>    C       -8.49641         2.37020         6.53590
| 30>   Br       -9.19481         2.12065         9.33068
| 31>    C       -5.96080         2.78240         2.14713
| 32>    O       -6.78867         2.97099         1.25735
| 33>    C       -4.50783         2.75183         1.98521
| 34>    C       -3.91404         3.03810         0.77614
| 35>    N       -4.66930         3.31449        -0.29043
| 36>    C       -4.24941         3.78044        -1.49296
| 37>    S       -2.56194         3.99705        -1.85267
| 38>    C       -3.00565         4.68878        -3.37879
| 39>    N       -1.99355         5.05598        -4.26530
| 40>    O       -2.32857         5.53486        -5.33849
| 41>    O       -0.84173         4.85988        -3.91332
| 42>    C       -4.35858         4.74364        -3.58695
| 43>    C       -5.10101         4.19439        -2.52480
| 44>    C       -6.51786         3.96256        -2.53929
| 45>    C       -7.33524         4.45332        -3.49213
| 46>    N       -8.63148         4.06930        -3.63537
| 47>    C       -9.53896         4.49954        -4.59047
| 48>    C      -10.88113         4.51953        -4.32367
| 49>    S      -11.82159         5.12455        -5.62128
| 50>    C      -10.41145         5.34664        -6.56710
| 51>    C       -9.26388         4.96242        -5.92685
| 52>    N       -8.02845         5.05684        -6.54832
| 53>    C       -6.97198         4.20777        -6.38931
| 54>    C       -5.75571         4.43309        -6.94920
| 55>    C       -4.56458         3.71156        -6.69942
| 56>    C       -4.35432         2.64481        -5.86567
| 57>    C       -3.08264         2.12142        -5.50870
| 58>    C       -3.11223         1.10863        -4.60063
| 59>    C       -4.41588         0.72392        -4.21334
| 60>    S       -5.60191         1.73049        -5.02185
| 61>    C       -4.81793        -0.30100        -3.38712
| 62>    C       -4.03597        -1.18756        -2.61021
| 63>    C       -4.75955        -2.13889        -1.96515
| 64>    C       -6.16522        -2.08613        -2.20001
| 65>    S       -6.51906        -0.70732        -3.23421
| 66>    C       -7.05417        -3.03708        -1.79453
| 67>    C       -8.44490        -3.16740        -2.05829
| 68>    S       -9.04342        -4.81194        -2.17785
| 69>    C      -10.62095        -4.25624        -2.54022
| 70>    C      -10.70759        -2.89580        -2.54258
| 71>    C       -9.47115        -2.26529        -2.25897
| 72>    C       -9.38558        -0.78380        -2.07565
| 73>    C      -10.76577        -0.22635        -1.72556
| 74>    C      -11.18174        -0.69908        -0.34158
| 75>    O      -10.44666        -1.18408         0.47516
| 76>    O      -12.48515        -0.48021        -0.11904
| 77>    C      -12.97509        -0.87869         1.15377
| 78>    C      -11.77474        -0.64058        -2.79927
| 79>    C      -11.98888        -2.15327        -2.77568
| 80>    H       -8.35140         2.68366         3.70533
| 81>    H       -4.01952         2.14224         6.16542
| 82>    H       -9.52546         2.46587         6.24061
| 83>    H       -2.84030         3.08508         0.65173
| 84>    H       -5.68683         3.26719        -0.10337
| 85>    H       -4.77351         5.14317        -4.49223
| 86>    H       -6.91917         3.28228        -1.80114
| 87>    H       -6.98168         5.17891        -4.20495
| 88>    H       -9.01572         3.49826        -2.89499
| 89>    H      -11.36062         4.22261        -3.41257
| 90>    H      -10.49312         5.73895        -7.56072
| 91>    H       -7.96345         5.73339        -7.29687
| 92>    H       -7.15829         3.35898        -5.75386
| 93>    H       -5.65148         5.29187        -7.60095
| 94>    H       -3.67288         4.11323        -7.16222
| 95>    H       -2.18021         2.53074        -5.92844
| 96>    H       -2.23837         0.61320        -4.21590
| 97>    H       -2.96558        -1.09655        -2.55474
| 98>    H       -4.33506        -2.90534        -1.34025
| 99>    H       -6.61475        -3.88747        -1.28581
|100>    H      -11.40337        -4.96540        -2.72642
|101>    H       -9.03558        -0.30539        -2.99422
|102>    H       -8.67429        -0.55621        -1.28012
|103>    H      -10.71742         0.86787        -1.67571
|104>    H      -12.69854        -1.91502         1.35823
|105>    H      -14.05556        -0.76735         1.11559
|106>    H      -12.55409        -0.24437         1.93627
|107>    H      -11.38067        -0.33669        -3.77144
|108>    H      -12.72712        -0.13369        -2.64179
|109>    H      -12.43821        -2.48150        -3.71611
|110>    H      -12.69175        -2.41178        -1.97850
|111> *
|112>
|113>                          ****END OF INPUT****

CARTESIAN COORDINATES (ANGSTROEM)
---------------------------------
  C     -3.896970    2.494130    3.265240
  C     -2.558110    2.335860    3.526990
  C     -2.023580    2.104880    4.809240
  N     -1.541740    1.922790    5.835920
  C     -1.555810    2.373020    2.538060
  N     -0.712180    2.387670    1.758950
  C     -4.976000    2.423680    4.247630
  C     -6.218410    2.579830    3.578710
  C     -7.421990    2.565490    4.240100
  C     -7.401380    2.400860    5.629690
  C     -6.158490    2.252610    6.288370
  C     -4.940090    2.257150    5.617990
  S     -6.360920    2.079160    8.004770
  C     -8.089820    2.208530    7.817560
  C     -8.496410    2.370200    6.535900
  Br    -9.194810    2.120650    9.330680
  C     -5.960800    2.782400    2.147130
  O     -6.788670    2.970990    1.257350
  C     -4.507830    2.751830    1.985210
  C     -3.914040    3.038100    0.776140
  N     -4.669300    3.314490   -0.290430
  C     -4.249410    3.780440   -1.492960
  S     -2.561940    3.997050   -1.852670
  C     -3.005650    4.688780   -3.378790
  N     -1.993550    5.055980   -4.265300
  O     -2.328570    5.534860   -5.338490
  O     -0.841730    4.859880   -3.913320
  C     -4.358580    4.743640   -3.586950
  C     -5.101010    4.194390   -2.524800
  C     -6.517860    3.962560   -2.539290
  C     -7.335240    4.453320   -3.492130
  N     -8.631480    4.069300   -3.635370
  C     -9.538960    4.499540   -4.590470
  C    -10.881130    4.519530   -4.323670
  S    -11.821590    5.124550   -5.621280
  C    -10.411450    5.346640   -6.567100
  C     -9.263880    4.962420   -5.926850
  N     -8.028450    5.056840   -6.548320
  C     -6.971980    4.207770   -6.389310
  C     -5.755710    4.433090   -6.949200
  C     -4.564580    3.711560   -6.699420
  C     -4.354320    2.644810   -5.865670
  C     -3.082640    2.121420   -5.508700
  C     -3.112230    1.108630   -4.600630
  C     -4.415880    0.723920   -4.213340
  S     -5.601910    1.730490   -5.021850
  C     -4.817930   -0.301000   -3.387120
  C     -4.035970   -1.187560   -2.610210
  C     -4.759550   -2.138890   -1.965150
  C     -6.165220   -2.086130   -2.200010
  S     -6.519060   -0.707320   -3.234210
  C     -7.054170   -3.037080   -1.794530
  C     -8.444900   -3.167400   -2.058290
  S     -9.043420   -4.811940   -2.177850
  C    -10.620950   -4.256240   -2.540220
  C    -10.707590   -2.895800   -2.542580
  C     -9.471150   -2.265290   -2.258970
  C     -9.385580   -0.783800   -2.075650
  C    -10.765770   -0.226350   -1.725560
  C    -11.181740   -0.699080   -0.341580
  O    -10.446660   -1.184080    0.475160
  O    -12.485150   -0.480210   -0.119040
  C    -12.975090   -0.878690    1.153770
  C    -11.774740   -0.640580   -2.799270
  C    -11.988880   -2.153270   -2.775680
  H     -8.351400    2.683660    3.705330
  H     -4.019520    2.142240    6.165420
  H     -9.525460    2.465870    6.240610
  H     -2.840300    3.085080    0.651730
  H     -5.686830    3.267190   -0.103370
  H     -4.773510    5.143170   -4.492230
  H     -6.919170    3.282280   -1.801140
  H     -6.981680    5.178910   -4.204950
  H     -9.015720    3.498260   -2.894990
  H    -11.360620    4.222610   -3.412570
  H    -10.493120    5.738950   -7.560720
  H     -7.963450    5.733390   -7.296870
  H     -7.158290    3.358980   -5.753860
  H     -5.651480    5.291870   -7.600950
  H     -3.672880    4.113230   -7.162220
  H     -2.180210    2.530740   -5.928440
  H     -2.238370    0.613200   -4.215900
  H     -2.965580   -1.096550   -2.554740
  H     -4.335060   -2.905340   -1.340250
  H     -6.614750   -3.887470   -1.285810
  H    -11.403370   -4.965400   -2.726420
  H     -9.035580   -0.305390   -2.994220
  H     -8.674290   -0.556210   -1.280120
  H    -10.717420    0.867870   -1.675710
  H    -12.698540   -1.915020    1.358230
  H    -14.055560   -0.767350    1.115590
  H    -12.554090   -0.244370    1.936270
  H    -11.380670   -0.336690   -3.771440
  H    -12.727120   -0.133690   -2.641790
  H    -12.438210   -2.481500   -3.716110
  H    -12.691750   -2.411780   -1.978500

 Total Charge           Charge          ....    0
 Multiplicity           Mult            ....    1
 Number of Electrons    NEL             ....  526
 Basis Dimension        Dim             .... 1107

ORBITAL ENERGIES
----------------

  NO   OCC          E(Eh)            E(eV)
   0   2.0000    -482.886226    -13140.0022
   1   2.0000     -88.977085     -2421.1896
   2   2.0000     -88.976135     -2421.1637
   3   2.0000     -88.962015     -2420.7795
   4   2.0000     -88.936395     -2420.0823
   5   2.0000     -88.936276     -2420.0791
   6   2.0000     -88.932975     -2419.9893
   7   2.0000     -62.563924     -1702.4509
   8   2.0000     -56.397875     -1534.6642
   9   2.0000     -56.395160     -1534.5903
  10   2.0000     -56.395127     -1534.5894
  11   2.0000     -19.259588      -524.0800
  12   2.0000     -19.232632      -523.3465
  13   2.0000     -19.231960      -523.3282
  14   2.0000     -19.227351      -523.2028
  15   2.0000     -19.200933      -522.4840
  16   2.0000     -14.643067      -398.4581
  17   2.0000     -14.488896      -394.2629
  18   2.0000     -14.457679      -393.4134
  19   2.0000     -14.457574      -393.4106
  20   2.0000     -14.414473      -392.2378
  21   2.0000     -14.410791      -392.1376
  22   2.0000     -10.391928      -282.7787
  23   2.0000     -10.374218      -282.2968
  24   2.0000     -10.362850      -281.9875
  25   2.0000     -10.359170      -281.8873
  26   2.0000     -10.355585      -281.7898
  27   2.0000     -10.341822      -281.4153
  28   2.0000     -10.336662      -281.2749
  29   2.0000     -10.336220      -281.2628
  30   2.0000     -10.330850      -281.1167
  31   2.0000     -10.329820      -281.0887
  32   2.0000     -10.325592      -280.9736
  33   2.0000     -10.323696      -280.9221
  34   2.0000     -10.322441      -280.8879
  35   2.0000     -10.319620      -280.8111
  36   2.0000     -10.317228      -280.7461
  37   2.0000     -10.314421      -280.6697
  38   2.0000     -10.308302      -280.5032
  39   2.0000     -10.307561      -280.4830
  40   2.0000     -10.305421      -280.4248
  41   2.0000     -10.303124      -280.3623
  42   2.0000     -10.299626      -280.2671
  43   2.0000     -10.298288      -280.2307
  44   2.0000     -10.297577      -280.2113
  45   2.0000     -10.297462      -280.2082
  46   2.0000     -10.297279      -280.2032
  47   2.0000     -10.296803      -280.1902
  48   2.0000     -10.296208      -280.1741
  49   2.0000     -10.295950      -280.1670
  50   2.0000     -10.294699      -280.1330
  51   2.0000     -10.292026      -280.0603
  52   2.0000     -10.291044      -280.0336
  53   2.0000     -10.284141      -279.8457
  54   2.0000     -10.283299      -279.8228
  55   2.0000     -10.276342      -279.6335
  56   2.0000     -10.274292      -279.5777
  57   2.0000     -10.273722      -279.5622
  58   2.0000     -10.273332      -279.5516
  59   2.0000     -10.273074      -279.5446
  60   2.0000     -10.272607      -279.5318
  61   2.0000     -10.272448      -279.5275
  62   2.0000     -10.269641      -279.4511
  63   2.0000     -10.268072      -279.4084
  64   2.0000     -10.266172      -279.3567
  65   2.0000     -10.265925      -279.3500
  66   2.0000     -10.263425      -279.2820
  67   2.0000     -10.263255      -279.2774
  68   2.0000     -10.261712      -279.2354
  69   2.0000      -8.793340      -239.2790
  70   2.0000      -8.072106      -219.6532
  71   2.0000      -8.072063      -219.6520
  72   2.0000      -8.058040      -219.2704
  73   2.0000      -8.032414      -218.5731
  74   2.0000      -8.031555      -218.5497
  75   2.0000      -8.028818      -218.4753
  76   2.0000      -6.629634      -180.4015
  77   2.0000      -6.615077      -180.0054
  78   2.0000      -6.614880      -180.0000
  79   2.0000      -6.041782      -164.4053
  80   2.0000      -6.041750      -164.4044
  81   2.0000      -6.037513      -164.2891
  82   2.0000      -6.037505      -164.2889
  83   2.0000      -6.033412      -164.1775
  84   2.0000      -6.033357      -164.1760
  85   2.0000      -6.027396      -164.0138
  86   2.0000      -6.023220      -163.9001
  87   2.0000      -6.020045      -163.8137
  88   2.0000      -6.001669      -163.3137
  89   2.0000      -6.001370      -163.3056
  90   2.0000      -5.998692      -163.2327
  91   2.0000      -5.997533      -163.2012
  92   2.0000      -5.997334      -163.1957
  93   2.0000      -5.994583      -163.1209
  94   2.0000      -5.994578      -163.1208
  95   2.0000      -5.992566      -163.0660
  96   2.0000      -5.989577      -162.9847
  97   2.0000      -2.745527       -74.7096
  98   2.0000      -2.741394       -74.5971
  99   2.0000      -2.741283       -74.5941
 100   2.0000      -2.729706       -74.2791
 101   2.0000      -2.729682       -74.2784
 102   2.0000      -1.311366       -35.6841
 103   2.0000      -1.190441       -32.3936
 104   2.0000      -1.140928       -31.0462
 105   2.0000      -1.129874       -30.7454
 106   2.0000      -1.095004       -29.7966
 107   2.0000      -1.094947       -29.7950
 108   2.0000      -1.072929       -29.1959
 109   2.0000      -1.046797       -28.4848
 110   2.0000      -1.022681       -27.8286
 111   2.0000      -1.011804       -27.5326
 112   2.0000      -0.999708       -27.2034
 113   2.0000      -0.992118       -26.9969
 114   2.0000      -0.988268       -26.8921
 115   2.0000      -0.983286       -26.7566
 116   2.0000      -0.977619       -26.6024
 117   2.0000      -0.972849       -26.4726
 118   2.0000      -0.958616       -26.0853
 119   2.0000      -0.941447       -25.6181
 120   2.0000      -0.919158       -25.0116
 121   2.0000      -0.912018       -24.8173
 122   2.0000      -0.908516       -24.7220
 123   2.0000      -0.895898       -24.3786
 124   2.0000      -0.892102       -24.2753
 125   2.0000      -0.886052       -24.1107
 126   2.0000      -0.875262       -23.8171
 127   2.0000      -0.874768       -23.8037
 128   2.0000      -0.853086       -23.2137
 129   2.0000      -0.847529       -23.0624
 130   2.0000      -0.845408       -23.0047
 131   2.0000      -0.836594       -22.7649
 132   2.0000      -0.835164       -22.7260
 133   2.0000      -0.830889       -22.6096
 134   2.0000      -0.829875       -22.5820
 135   2.0000      -0.810840       -22.0641
 136   2.0000      -0.809021       -22.0146
 137   2.0000      -0.801599       -21.8126
 138   2.0000      -0.800110       -21.7721
 139   2.0000      -0.789281       -21.4774
 140   2.0000      -0.783649       -21.3242
 141   2.0000      -0.761424       -20.7194
 142   2.0000      -0.756802       -20.5936
 143   2.0000      -0.749404       -20.3923
 144   2.0000      -0.731790       -19.9130
 145   2.0000      -0.724787       -19.7225
 146   2.0000      -0.717383       -19.5210
 147   2.0000      -0.715433       -19.4679
 148   2.0000      -0.705297       -19.1921
 149   2.0000      -0.693246       -18.8642
 150   2.0000      -0.689205       -18.7542
 151   2.0000      -0.685492       -18.6532
 152   2.0000      -0.677598       -18.4384
 153   2.0000      -0.676361       -18.4047
 154   2.0000      -0.668312       -18.1857
 155   2.0000      -0.659451       -17.9446
 156   2.0000      -0.656116       -17.8538
 157   2.0000      -0.650938       -17.7129
 158   2.0000      -0.641703       -17.4616
 159   2.0000      -0.640711       -17.4346
 160   2.0000      -0.640416       -17.4266
 161   2.0000      -0.629555       -17.1311
 162   2.0000      -0.625480       -17.0202
 163   2.0000      -0.624032       -16.9808
 164   2.0000      -0.619216       -16.8497
 165   2.0000      -0.615212       -16.7408
 166   2.0000      -0.612588       -16.6694
 167   2.0000      -0.609882       -16.5957
 168   2.0000      -0.602918       -16.4062
 169   2.0000      -0.600755       -16.3474
 170   2.0000      -0.596833       -16.2407
 171   2.0000      -0.590194       -16.0600
 172   2.0000      -0.586683       -15.9644
 173   2.0000      -0.576195       -15.6791
 174   2.0000      -0.571587       -15.5537
 175   2.0000      -0.567926       -15.4541
 176   2.0000      -0.563230       -15.3263
 177   2.0000      -0.561714       -15.2850
 178   2.0000      -0.556308       -15.1379
 179   2.0000      -0.553307       -15.0563
 180   2.0000      -0.551627       -15.0105
 181   2.0000      -0.549319       -14.9477
 182   2.0000      -0.546040       -14.8585
 183   2.0000      -0.545245       -14.8369
 184   2.0000      -0.535753       -14.5786
 185   2.0000      -0.534257       -14.5379
 186   2.0000      -0.531699       -14.4683
 187   2.0000      -0.529365       -14.4048
 188   2.0000      -0.527578       -14.3561
 189   2.0000      -0.522721       -14.2240
 190   2.0000      -0.517678       -14.0867
 191   2.0000      -0.516817       -14.0633
 192   2.0000      -0.512373       -13.9424
 193   2.0000      -0.511449       -13.9172
 194   2.0000      -0.510187       -13.8829
 195   2.0000      -0.507735       -13.8162
 196   2.0000      -0.503934       -13.7127
 197   2.0000      -0.502030       -13.6609
 198   2.0000      -0.497337       -13.5332
 199   2.0000      -0.495176       -13.4744
 200   2.0000      -0.492581       -13.4038
 201   2.0000      -0.488999       -13.3063
 202   2.0000      -0.484715       -13.1898
 203   2.0000      -0.481641       -13.1061
 204   2.0000      -0.481295       -13.0967
 205   2.0000      -0.479486       -13.0475
 206   2.0000      -0.476873       -12.9764
 207   2.0000      -0.475055       -12.9269
 208   2.0000      -0.473951       -12.8969
 209   2.0000      -0.470132       -12.7929
 210   2.0000      -0.466633       -12.6977
 211   2.0000      -0.460423       -12.5287
 212   2.0000      -0.459485       -12.5032
 213   2.0000      -0.457801       -12.4574
 214   2.0000      -0.455902       -12.4057
 215   2.0000      -0.453455       -12.3391
 216   2.0000      -0.448414       -12.2020
 217   2.0000      -0.447605       -12.1800
 218   2.0000      -0.446109       -12.1393
 219   2.0000      -0.444195       -12.0872
 220   2.0000      -0.442877       -12.0513
 221   2.0000      -0.441391       -12.0109
 222   2.0000      -0.440906       -11.9977
 223   2.0000      -0.439075       -11.9478
 224   2.0000      -0.434588       -11.8257
 225   2.0000      -0.429456       -11.6861
 226   2.0000      -0.425272       -11.5722
 227   2.0000      -0.425077       -11.5669
 228   2.0000      -0.424407       -11.5487
 229   2.0000      -0.421553       -11.4710
 230   2.0000      -0.416478       -11.3330
 231   2.0000      -0.411227       -11.1901
 232   2.0000      -0.410591       -11.1728
 233   2.0000      -0.407890       -11.0992
 234   2.0000      -0.399407       -10.8684
 235   2.0000      -0.396790       -10.7972
 236   2.0000      -0.390765       -10.6333
 237   2.0000      -0.388418       -10.5694
 238   2.0000      -0.387254       -10.5377
 239   2.0000      -0.383208       -10.4276
 240   2.0000      -0.380648       -10.3580
 241   2.0000      -0.378684       -10.3045
 242   2.0000      -0.377807       -10.2807
 243   2.0000      -0.375660       -10.2222
 244   2.0000      -0.370695       -10.0871
 245   2.0000      -0.368631       -10.0310
 246   2.0000      -0.360623        -9.8130
 247   2.0000      -0.354900        -9.6573
 248   2.0000      -0.350770        -9.5449
 249   2.0000      -0.345968        -9.4143
 250   2.0000      -0.334022        -9.0892
 251   2.0000      -0.327604        -8.9146
 252   2.0000      -0.323482        -8.8024
 253   2.0000      -0.318231        -8.6595
 254   2.0000      -0.317634        -8.6433
 255   2.0000      -0.310896        -8.4599
 256   2.0000      -0.295042        -8.0285
 257   2.0000      -0.293672        -7.9912
 258   2.0000      -0.289504        -7.8778
 259   2.0000      -0.284819        -7.7503
 260   2.0000      -0.256074        -6.9681
 261   2.0000      -0.242044        -6.5863
 262   2.0000      -0.196917        -5.3584
 263   0.0000      -0.083050        -2.2599
 264   0.0000      -0.065147        -1.7727
 265   0.0000      -0.058757        -1.5989
 266   0.0000      -0.034984        -0.9520
 267   0.0000      -0.005746        -0.1564

MULLIKEN ATOMIC CHARGES
-----------------------
   0 C :    0.321939
   1 C :   -0.344101
   2 C :   -0.186359
   3 N :    0.145167
   4 C :   -0.198918
   5 N :    0.144086
   6 C :    0.007619
   7 C :   -0.003328
   8 C :   -0.064974
   9 C :    0.114738
  10 C :   -0.091065
  11 C :   -0.018393
  12 S :    0.188731
  13 C :   -0.124628
  14 C :    0.037702
  15 Br:    0.022366
  16 C :    0.167723
  17 O :   -0.229134
  18 C :   -0.130015
  19 C :    0.026070
  20 N :   -0.000754
  21 C :   -0.135915
  22 S :    0.158496
  23 C :   -0.015229
  24 N :    0.269975
  25 O :   -0.259945
  26 O :   -0.262715
  27 C :    0.050413
  28 C :    0.134169
  29 C :   -0.049348
  30 C :    0.031370
  31 N :   -0.046349
  32 C :    0.101137
  33 C :   -0.185330
  34 S :    0.130181
  35 C :   -0.174134
  36 C :    0.087654
  37 N :   -0.058715
  38 C :    0.012231
  39 C :   -0.024554
  40 C :   -0.003071
  41 C :   -0.063782
  42 C :    0.053877
  43 C :    0.008913
  44 C :   -0.031934
  45 S :    0.020070
  46 C :   -0.048775
  47 C :    0.028037
  48 C :    0.025927
  49 C :   -0.010720
  50 S :    0.035789
  51 C :   -0.017460
  52 C :   -0.170160
  53 S :    0.102716
  54 C :   -0.129043
  55 C :   -0.076464
  56 C :   -0.035258
  57 C :    0.188428
  58 C :   -0.126746
  59 C :    0.164033
  60 O :   -0.197268
  61 O :   -0.303551
  62 C :    0.182033
  63 C :    0.081746
  64 C :    0.112345
  65 H :   -0.013483
  66 H :   -0.006587
  67 H :   -0.004713
  68 H :    0.046958
  69 H :    0.177078
  70 H :   -0.004758
  71 H :   -0.018087
  72 H :    0.042462
  73 H :    0.126142
  74 H :    0.004865
  75 H :    0.005791
  76 H :    0.125840
  77 H :    0.057778
  78 H :   -0.022516
  79 H :   -0.000251
  80 H :   -0.004550
  81 H :   -0.014611
  82 H :   -0.011488
  83 H :   -0.012748
  84 H :   -0.012244
  85 H :    0.003812
  86 H :    0.025333
  87 H :    0.022657
  88 H :    0.008957
  89 H :    0.038400
  90 H :    0.033051
  91 H :    0.028353
  92 H :    0.006131
  93 H :    0.007110
  94 H :    0.012727
  95 H :    0.015043
Sum of atomic charges:   -0.0000000

LOEWDIN ATOMIC CHARGES
----------------------
   0 C :    0.079905
   1 C :   -0.153761
   2 C :   -0.019646
   3 N :   -0.059136
   4 C :   -0.020920
   5 N :   -0.057584
   6 C :   -0.017274
   7 C :   -0.049346
   8 C :    0.023061
   9 C :   -0.034782
  10 C :   -0.144525
  11 C :   -0.008032
  12 S :    0.435400
  13 C :   -0.272599
  14 C :   -0.070548
  15 Br:    0.135670
  16 C :    0.095886
  17 O :   -0.183222
  18 C :   -0.151097
  19 C :    0.111058
  20 N :    0.088477
  21 C :   -0.127436
  22 S :    0.456317
  23 C :   -0.202157
  24 N :    0.276935
  25 O :   -0.225928
  26 O :   -0.229024
  27 C :    0.005911
  28 C :   -0.068164
  29 C :   -0.116954
  30 C :    0.044550
  31 N :    0.024616
  32 C :   -0.029124
  33 C :   -0.230522
  34 S :    0.445800
  35 C :   -0.223941
  36 C :   -0.035256
  37 N :    0.022011
  38 C :    0.028483
  39 C :   -0.114408
  40 C :   -0.045831
  41 C :   -0.168939
  42 C :   -0.029177
  43 C :   -0.049730
  44 C :   -0.177426
  45 S :    0.371466
  46 C :   -0.189555
  47 C :   -0.037542
  48 C :   -0.035849
  49 C :   -0.148287
  50 S :    0.372444
  51 C :   -0.081136
  52 C :   -0.173963
  53 S :    0.425703
  54 C :   -0.196930
  55 C :   -0.070791
  56 C :   -0.060718
  57 C :   -0.028520
  58 C :   -0.055910
  59 C :    0.086682
  60 O :   -0.163858
  61 O :   -0.094834
  62 C :    0.079476
  63 C :   -0.019786
  64 C :   -0.028538
  65 H :    0.040208
  66 H :    0.041601
  67 H :    0.038103
  68 H :    0.035614
  69 H :    0.086288
  70 H :    0.041147
  71 H :    0.023084
  72 H :    0.032581
  73 H :    0.091182
  74 H :    0.019853
  75 H :    0.020989
  76 H :    0.090202
  77 H :    0.013491
  78 H :    0.026195
  79 H :    0.038096
  80 H :    0.034117
  81 H :    0.031846
  82 H :    0.032516
  83 H :    0.032142
  84 H :    0.032139
  85 H :    0.018118
  86 H :    0.019406
  87 H :    0.033255
  88 H :    0.036183
  89 H :    0.024307
  90 H :    0.024524
  91 H :    0.021365
  92 H :    0.025134
  93 H :    0.025370
  94 H :    0.034161
  95 H :    0.029631

  Mayer bond orders larger than 0.100000
B(  0-C ,  1-C ) :   1.6173 B(  0-C ,  6-C ) :   1.0022 B(  0-C , 18-C ) :   1.1125
B(  1-C ,  2-C ) :   1.1446 B(  1-C ,  4-C ) :   1.1487 B(  2-C ,  3-N ) :   2.9668
B(  4-C ,  5-N ) :   2.9609 B(  6-C ,  7-C ) :   1.2727 B(  6-C , 11-C ) :   1.4285
B(  7-C ,  8-C ) :   1.4287 B(  7-C , 16-C ) :   0.9794 B(  8-C ,  9-C ) :   1.2408
B(  8-C , 65-H ) :   1.0173 B(  9-C , 10-C ) :   1.3145 B(  9-C , 14-C ) :   1.1609
B( 10-C , 11-C ) :   1.3159 B( 10-C , 12-S ) :   1.0880 B( 11-C , 66-H ) :   0.9809
B( 12-S , 13-C ) :   1.0883 B( 13-C , 14-C ) :   1.6186 B( 13-C , 15-Br) :   1.0182
B( 14-C , 67-H ) :   1.0004 B( 16-C , 17-O ) :   2.0281 B( 16-C , 18-C ) :   1.0143
B( 17-O , 69-H ) :   0.1458 B( 18-C , 19-C ) :   1.4198 B( 19-C , 20-N ) :   1.3660
B( 19-C , 68-H ) :   0.9338 B( 20-N , 21-C ) :   1.1772 B( 20-N , 69-H ) :   0.8266
B( 21-C , 22-S ) :   1.1165 B( 21-C , 28-C ) :   1.3870 B( 22-S , 23-C ) :   1.0797
B( 23-C , 24-N ) :   0.9806 B( 23-C , 27-C ) :   1.4986 B( 24-N , 25-O ) :   1.5100
B( 24-N , 26-O ) :   1.5084 B( 25-O , 26-O ) :   0.2504 B( 27-C , 28-C ) :   1.2399
B( 27-C , 70-H ) :   0.9756 B( 28-C , 29-C ) :   1.1058 B( 29-C , 30-C ) :   1.6911
B( 29-C , 71-H ) :   0.9560 B( 30-C , 31-N ) :   1.1600 B( 30-C , 72-H ) :   0.9512
B( 31-N , 32-C ) :   1.0907 B( 31-N , 73-H ) :   0.9173 B( 32-C , 33-C ) :   1.5157
B( 32-C , 36-C ) :   1.2480 B( 33-C , 34-S ) :   1.1638 B( 33-C , 74-H ) :   0.9735
B( 34-S , 35-C ) :   1.1674 B( 35-C , 36-C ) :   1.5202 B( 35-C , 75-H ) :   0.9735
B( 36-C , 37-N ) :   1.0816 B( 37-N , 38-C ) :   1.1492 B( 37-N , 76-H ) :   0.9214
B( 38-C , 39-C ) :   1.6174 B( 38-C , 77-H ) :   0.9364 B( 39-C , 40-C ) :   1.2086
B( 39-C , 78-H ) :   0.9631 B( 40-C , 41-C ) :   1.5967 B( 40-C , 79-H ) :   0.9569
B( 41-C , 42-C ) :   1.1428 B( 41-C , 45-S ) :   1.0233 B( 42-C , 43-C ) :   1.5926
B( 42-C , 80-H ) :   0.9994 B( 43-C , 44-C ) :   1.1747 B( 43-C , 81-H ) :   0.9957
B( 44-C , 45-S ) :   1.0372 B( 44-C , 46-C ) :   1.5273 B( 46-C , 47-C ) :   1.1727
B( 46-C , 50-S ) :   1.0273 B( 47-C , 48-C ) :   1.6129 B( 47-C , 82-H ) :   0.9942
B( 48-C , 49-C ) :   1.1201 B( 48-C , 83-H ) :   0.9975 B( 49-C , 50-S ) :   1.0214
B( 49-C , 51-C ) :   1.6697 B( 51-C , 52-C ) :   1.0984 B( 51-C , 84-H ) :   0.9422
B( 52-C , 53-S ) :   1.1278 B( 52-C , 56-C ) :   1.5178 B( 53-S , 54-C ) :   1.1545
B( 54-C , 55-C ) :   1.5711 B( 54-C , 85-H ) :   0.9728 B( 55-C , 56-C ) :   1.2917
B( 55-C , 64-C ) :   1.0260 B( 56-C , 57-C ) :   1.0482 B( 57-C , 58-C ) :   1.0551
B( 57-C , 86-H ) :   0.8916 B( 57-C , 87-H ) :   0.9071 B( 58-C , 59-C ) :   0.9248
B( 58-C , 63-C ) :   1.0533 B( 58-C , 88-H ) :   0.8874 B( 59-C , 60-O ) :   2.1260
B( 59-C , 61-O ) :   1.1931 B( 61-O , 62-C ) :   0.9248 B( 62-C , 89-H ) :   0.9736
B( 62-C , 90-H ) :   0.9811 B( 62-C , 91-H ) :   0.9795 B( 63-C , 64-C ) :   1.1035
B( 63-C , 92-H ) :   0.9404 B( 63-C , 93-H ) :   0.9241 B( 64-C , 94-H ) :   0.9225
B( 64-C , 95-H ) :   0.9124

-----------------------------------------------------------------------------
         ABSORPTION SPECTRUM VIA TRANSITION ELECTRIC DIPOLE MOMENTS
-----------------------------------------------------------------------------
State   Energy  Wavelength   fosc         T2         TX        TY        TZ
        (cm-1)    (nm)                  (au**2)     (au)      (au)      (au)
-----------------------------------------------------------------------------
   0   10479.6    954.2   0.026389628   0.82902   0.39651   0.50747   0.64364
   1   15500.9    645.1   0.019081869   0.40527  -0.17975  -0.56020   0.24318
   2   15747.1    635.0   0.626906832  13.10623   0.63295   3.32502  -1.28447
   3   19213.8    520.5   0.525896208   9.01076   0.32990  -1.18389   2.73868
   4   19449.4    514.2   0.324061708   5.48526  -0.03583   1.15666  -2.03620
   5   22436.0    445.7   0.062996546   0.92437   0.67072   0.33476  -0.60203
   6   23254.0    430.0   0.056416323   0.79870  -0.41622  -0.56026   0.55818
   7   24113.2    414.7   0.072733846   0.99302  -0.00001  -0.27292   0.95840
   8   25244.9    396.1   0.004156897   0.05421  -0.09532   0.16640  -0.13203
   9   27375.6    365.3   0.095997407   1.15444  -0.42982  -0.39532   0.90190
  10   27733.1    360.6   0.272066571   3.22962  -1.05992   0.27423  -1.42513
  11   28060.5    356.4   0.035698076   0.41882   0.09881  -0.27528   0.57730
  12   28621.8    349.4   0.036629078   0.42131  -0.60181   0.12117  -0.21085
  13   29303.4    341.3   0.449521789   5.05020  -2.22577  -0.20753  -0.23039
  14   29939.2    334.0   0.849640455   9.34265  -2.45020  -0.23789   1.81179
  15   30664.8    326.1   0.059482968   0.63860  -0.68788  -0.05429   0.40307
  16   31171.3    320.8   0.015949874   0.16845  -0.34196  -0.00642   0.22688
  17   31878.9    313.7   0.010336726   0.10675  -0.16443   0.14228   0.24386
  18   32000.9    312.5   0.340524547   3.50317  -1.53080  -0.20878   1.05651
  19   32290.0    309.7   0.115799824   1.18063  -1.06426  -0.06062   0.21048
  20   32633.7    306.4   0.037730335   0.38063  -0.60124  -0.01991   0.13689
  21   33168.4    301.5   0.009480622   0.09410   0.29909  -0.05805   0.03571
  22   33502.7    298.5   0.024894858   0.24463   0.17204  -0.31941   0.33617
  23   33802.1    295.8   0.006876326   0.06697  -0.15363   0.10034  -0.18249
  24   34071.5    293.5   0.017649294   0.17053   0.27475   0.13430  -0.27751
  25   34134.5    293.0   0.009296357   0.08966   0.22651  -0.04093   0.19151
  26   34467.3    290.1   0.076762795   0.73320  -0.29612  -0.36945   0.71345
  27   34470.5    290.1   0.277399537   2.64932  -1.61016   0.18504   0.14989
  28   34747.3    287.8   0.016702966   0.15825   0.18246  -0.08741   0.34252
  29   35003.1    285.7   0.006875711   0.06467   0.22456   0.11830  -0.01559
  30   35197.1    284.1   0.030652886   0.28671   0.38149  -0.37353  -0.04067
  31   35978.1    277.9   0.151376298   1.38514  -1.05327   0.38340  -0.35884
  32   35986.4    277.9   0.029581709   0.27062  -0.37797   0.14879  -0.32499
  33   36090.7    277.1   0.232815743   2.12370  -1.32354  -0.07233  -0.60557
  34   36741.5    272.2   0.005262686   0.04715   0.11967  -0.01587   0.18051
  35   36791.8    271.8   0.023027034   0.20605   0.20139   0.15190   0.37738
  36   37075.3    269.7   0.173963482   1.54472   1.21408  -0.03088   0.26416
  37   37312.2    268.0   0.407934606   3.59928   1.81411  -0.24477   0.49837
  38   37875.6    264.0   0.027476388   0.23882   0.38746  -0.28322   0.09212
  39   38051.4    262.8   0.003873758   0.03351   0.14564   0.03436   0.10547
  40   38256.6    261.4   0.049413143   0.42522  -0.03563   0.20399  -0.61833
  41   38341.2    260.8   0.011956129   0.10266  -0.14287  -0.05903   0.28065
  42   38577.4    259.2   0.006324115   0.05397   0.00242  -0.16039   0.16804
  43   38726.3    258.2   0.000781139   0.00664   0.05964  -0.04891   0.02629
  44   39062.6    256.0   0.189041709   1.59321  -0.68083  -0.33085   1.01006
  45   39561.9    252.8   0.117174177   0.97506  -0.00107  -0.00786   0.98742
  46   39737.1    251.7   0.027295748   0.22614   0.40038  -0.03196   0.25458
  47   39974.6    250.2   0.036406275   0.29982  -0.28573   0.12128  -0.45108

FINAL SINGLE POINT ENERGY     -7473.358547240658

DIPOLE MOMENT
-------------
                                X             Y             Z
Electronic contribution:     11.02219      16.74685     141.20697
Nuclear contribution   :    -15.77666     -16.01209    -141.73993
                        -----------------------------------------
Total Dipole Moment    :     -4.75448       0.73476      -0.53296
                        -----------------------------------------
Magnitude (a.u.)       :      4.84035
Magnitude (Debye)      :     12.30318

Rotational constants in cm-1:     0.000962     0.000575     0.000470
Rotational constants in MHz :    28.831639    17.248398    14.095217

                             ****ORCA TERMINATED NORMALLY****
TOTAL RUN TIME: 0 days 0 hours 10 minutes 19 seconds 798 msec
