                         Program Version 4.2.0 -  RELEASE  -
|  1> # ORCA input file
|  2> # SCF done       -197.476677776039          0.001302607407
|  3> ! CAM-B3LYP def2-SVP def2/J RIJCOSX Grid4 TightSCF
|  4> %maxcore 5000
|  5> %tddft
|  6>     Mode sTDDFT
|  7>     Ethresh 5.0
|  8>     maxcore 5000
|  9> end
| 10>
| 11> %pal
| 12>   nprocs 6
| 13>   end
| 14> * xyz 0 1
| 15>    C       -1.97943         1.00539         2.69873
| 16>    C       -1.88519        -0.10261         3.50149
| 17>    C       -0.90954        -0.27609         4.50336
| 18>    N       -0.13970        -0.47120         5.33226
| 19>    C       -2.75086        -1.21166         3.41663
| 20>    N       -3.43076        -2.13633         3.37848
| 21>    C       -1.09868         2.17012         2.74089
| 22>    C       -1.49626         3.08636         1.73237
| 23>    C       -0.86137         4.28785         1.52986
| 24>    C        0.21667         4.60399         2.36346
| 25>    C        0.60686         3.68463         3.36601
| 26>    C       -0.03424         2.46763         3.56920
| 27>    S        1.95677         4.27576         4.28487
| 28>    C        1.97714         5.73197         3.32585
| 29>    C        1.02416         5.77396         2.36436
| 30>   Br        3.25386         7.05826         3.68360
| 31>    C       -2.65301         2.53175         1.01981
| 32>    O       -3.26652         3.03665         0.08301
| 33>    C       -2.94779         1.24503         1.65493
| 34>    C       -4.02860         0.48716         1.27018
| 35>    N       -4.82272         0.91223         0.28263
| 36>    C       -5.96687         0.33631        -0.16579
| 37>    S       -6.57272        -1.15248         0.49034
| 38>    C       -7.95107        -1.01888        -0.55300
| 39>    N       -8.91416        -2.03470        -0.49704
| 40>    O       -9.88074        -1.93670        -1.22973
| 41>    O       -8.70852        -2.94295         0.28853
| 42>    C       -7.93933         0.09884        -1.34508
| 43>    C       -6.79700         0.89447        -1.14358
| 44>    C       -6.49605         2.12095        -1.84373
| 45>    C       -7.42430         2.91965        -2.39237
| 46>    C       -7.13159         4.15218        -3.09669
| 47>    C       -5.94214         4.31534        -3.81987
| 48>    C       -5.70085         5.50304        -4.46789
| 49>    C       -6.59854         6.57784        -4.33208
| 50>    C       -7.78676         6.42077        -3.63343
| 51>    C       -8.05747         5.19967        -3.04954
| 52>    C       -6.03916         7.73414        -4.99671
| 53>    C       -4.81887         7.36325        -5.58665
| 54>    C       -4.53735         5.89350        -5.35104
| 55>    C       -3.17976         5.66467        -4.67174
| 56>    C       -3.05563         6.41699        -3.35174
| 57>    C       -4.61198         5.19193        -6.72833
| 58>    C       -4.54317         3.67066        -6.70699
| 59>    C       -4.08351         8.27862        -6.29799
| 60>    C       -4.52198         9.60989        -6.37974
| 61>    C       -5.72660         9.96991        -5.75993
| 62>    C       -6.49416         9.04234        -5.08674
| 63>    C       -3.73613        10.57012        -7.11557
| 64>    C       -3.67805        11.89450        -6.84030
| 65>    C       -2.94539        12.86757        -7.56578
| 66>    C       -2.52560        12.81007        -8.86643
| 67>    C       -1.80833        13.83473        -9.54318
| 68>    C       -1.62352        13.61494       -10.87069
| 69>    C       -2.18904        12.40399       -11.33704
| 70>    S       -2.90856        11.52290       -10.00447
| 71>    C       -2.24625        11.94541       -12.63578
| 72>    C       -1.70548        12.55792       -13.79113
| 73>    C       -1.99009        11.90255       -14.94734
| 74>    C       -2.77870        10.73466       -14.77646
| 75>    S       -3.10536        10.47911       -13.07116
| 76>    C       -3.26232         9.93714       -15.77899
| 77>    C       -4.05201         8.78466       -15.57650
| 78>    O       -4.23936         8.33992       -14.29653
| 79>    C       -4.93894         7.22016       -14.31852
| 80>    C       -5.24941         6.88114       -15.61981
| 81>    N       -5.97667         5.75488       -16.02718
| 82>    O       -6.43575         5.03099       -15.16706
| 83>    O       -6.10793         5.56749       -17.23103
| 84>    C       -4.69290         7.90326       -16.46252
| 85>    N       -4.83856         7.91179       -17.80877
| 86>    C       -4.64938         8.95157       -18.68681
| 87>    C       -4.81146         8.81780       -19.99930
| 88>    H       -1.18839         4.96553         0.75684
| 89>    H        0.29951         1.80239         4.34791
| 90>    H        0.89366         6.59598         1.68449
| 91>    H       -4.28419        -0.44960         1.74825
| 92>    H       -4.53283         1.82111        -0.12368
| 93>    H       -8.71797         0.30953        -2.05485
| 94>    H       -5.45482         2.40976        -1.89057
| 95>    H       -8.47282         2.68475        -2.26450
| 96>    H       -5.23810         3.49953        -3.87333
| 97>    H       -8.48971         7.23610        -3.55129
| 98>    H       -8.98242         5.05590        -2.50959
| 99>    H       -2.38811         5.98775        -5.35119
|100>    H       -3.04712         4.59835        -4.48446
|101>    H       -3.17725         7.48713        -3.50553
|102>    H       -2.07649         6.24026        -2.91198
|103>    H       -3.81409         6.08245        -2.64729
|104>    H       -3.79327         5.57785        -7.33985
|105>    H       -5.54858         5.49232        -7.20546
|106>    H       -3.63033         3.31969        -6.23268
|107>    H       -4.55556         3.29685        -7.72867
|108>    H       -5.39837         3.25032        -6.18472
|109>    H       -3.15388         8.00047        -6.77378
|110>    H       -6.07457        10.98843        -5.84415
|111>    H       -7.43135         9.33133        -4.63483
|112>    H       -3.10749        10.16419        -7.89667
|113>    H       -4.18663        12.26230        -5.95787
|114>    H       -2.73233        13.79455        -7.04747
|115>    H       -1.46623        14.70981        -9.01875
|116>    H       -1.12076        14.29737       -11.53219
|117>    H       -1.12932        13.46409       -13.73694
|118>    H       -1.67205        12.22168       -15.92431
|119>    H       -3.00193        10.19530       -16.79240
|120>    H       -5.16784         6.72829       -13.39457
|121>    H       -5.26480         7.06553       -18.18462
|122>    H       -4.38912         9.89815       -18.24032
|123>    H       -5.08349         7.87466       -20.44045
|124>    H       -4.67975         9.65042       -20.66300
|125> *
|126>
|127>                          ****END OF INPUT****

CARTESIAN COORDINATES (ANGSTROEM)
---------------------------------
  C     -1.979430    1.005390    2.698730
  C     -1.885190   -0.102610    3.501490
  C     -0.909540   -0.276090    4.503360
  N     -0.139700   -0.471200    5.332260
  C     -2.750860   -1.211660    3.416630
  N     -3.430760   -2.136330    3.378480
  C     -1.098680    2.170120    2.740890
  C     -1.496260    3.086360    1.732370
  C     -0.861370    4.287850    1.529860
  C      0.216670    4.603990    2.363460
  C      0.606860    3.684630    3.366010
  C     -0.034240    2.467630    3.569200
  S      1.956770    4.275760    4.284870
  C      1.977140    5.731970    3.325850
  C      1.024160    5.773960    2.364360
  Br     3.253860    7.058260    3.683600
  C     -2.653010    2.531750    1.019810
  O     -3.266520    3.036650    0.083010
  C     -2.947790    1.245030    1.654930
  C     -4.028600    0.487160    1.270180
  N     -4.822720    0.912230    0.282630
  C     -5.966870    0.336310   -0.165790
  S     -6.572720   -1.152480    0.490340
  C     -7.951070   -1.018880   -0.553000
  N     -8.914160   -2.034700   -0.497040
  O     -9.880740   -1.936700   -1.229730
  O     -8.708520   -2.942950    0.288530
  C     -7.939330    0.098840   -1.345080
  C     -6.797000    0.894470   -1.143580
  C     -6.496050    2.120950   -1.843730
  C     -7.424300    2.919650   -2.392370
  C     -7.131590    4.152180   -3.096690
  C     -5.942140    4.315340   -3.819870
  C     -5.700850    5.503040   -4.467890
  C     -6.598540    6.577840   -4.332080
  C     -7.786760    6.420770   -3.633430
  C     -8.057470    5.199670   -3.049540
  C     -6.039160    7.734140   -4.996710
  C     -4.818870    7.363250   -5.586650
  C     -4.537350    5.893500   -5.351040
  C     -3.179760    5.664670   -4.671740
  C     -3.055630    6.416990   -3.351740
  C     -4.611980    5.191930   -6.728330
  C     -4.543170    3.670660   -6.706990
  C     -4.083510    8.278620   -6.297990
  C     -4.521980    9.609890   -6.379740
  C     -5.726600    9.969910   -5.759930
  C     -6.494160    9.042340   -5.086740
  C     -3.736130   10.570120   -7.115570
  C     -3.678050   11.894500   -6.840300
  C     -2.945390   12.867570   -7.565780
  C     -2.525600   12.810070   -8.866430
  C     -1.808330   13.834730   -9.543180
  C     -1.623520   13.614940  -10.870690
  C     -2.189040   12.403990  -11.337040
  S     -2.908560   11.522900  -10.004470
  C     -2.246250   11.945410  -12.635780
  C     -1.705480   12.557920  -13.791130
  C     -1.990090   11.902550  -14.947340
  C     -2.778700   10.734660  -14.776460
  S     -3.105360   10.479110  -13.071160
  C     -3.262320    9.937140  -15.778990
  C     -4.052010    8.784660  -15.576500
  O     -4.239360    8.339920  -14.296530
  C     -4.938940    7.220160  -14.318520
  C     -5.249410    6.881140  -15.619810
  N     -5.976670    5.754880  -16.027180
  O     -6.435750    5.030990  -15.167060
  O     -6.107930    5.567490  -17.231030
  C     -4.692900    7.903260  -16.462520
  N     -4.838560    7.911790  -17.808770
  C     -4.649380    8.951570  -18.686810
  C     -4.811460    8.817800  -19.999300
  H     -1.188390    4.965530    0.756840
  H      0.299510    1.802390    4.347910
  H      0.893660    6.595980    1.684490
  H     -4.284190   -0.449600    1.748250
  H     -4.532830    1.821110   -0.123680
  H     -8.717970    0.309530   -2.054850
  H     -5.454820    2.409760   -1.890570
  H     -8.472820    2.684750   -2.264500
  H     -5.238100    3.499530   -3.873330
  H     -8.489710    7.236100   -3.551290
  H     -8.982420    5.055900   -2.509590
  H     -2.388110    5.987750   -5.351190
  H     -3.047120    4.598350   -4.484460
  H     -3.177250    7.487130   -3.505530
  H     -2.076490    6.240260   -2.911980
  H     -3.814090    6.082450   -2.647290
  H     -3.793270    5.577850   -7.339850
  H     -5.548580    5.492320   -7.205460
  H     -3.630330    3.319690   -6.232680
  H     -4.555560    3.296850   -7.728670
  H     -5.398370    3.250320   -6.184720
  H     -3.153880    8.000470   -6.773780
  H     -6.074570   10.988430   -5.844150
  H     -7.431350    9.331330   -4.634830
  H     -3.107490   10.164190   -7.896670
  H     -4.186630   12.262300   -5.957870
  H     -2.732330   13.794550   -7.047470
  H     -1.466230   14.709810   -9.018750
  H     -1.120760   14.297370  -11.532190
  H     -1.129320   13.464090  -13.736940
  H     -1.672050   12.221680  -15.924310
  H     -3.001930   10.195300  -16.792400
  H     -5.167840    6.728290  -13.394570
  H     -5.264800    7.065530  -18.184620
  H     -4.389120    9.898150  -18.240320
  H     -5.083490    7.874660  -20.440450
  H     -4.679750    9.650420  -20.663000

 Total Charge           Charge          ....    0
 Multiplicity           Mult            ....    1
 Number of Electrons    NEL             ....  562
 Basis Dimension        Dim             .... 1241

ORBITAL ENERGIES
----------------

  NO   OCC          E(Eh)            E(eV)
   0   2.0000    -482.889843    -13140.1007
   1   2.0000     -88.989906     -2421.5385
   2   2.0000     -88.981088     -2421.2985
   3   2.0000     -88.941595     -2420.2238
   4   2.0000     -88.941335     -2420.2168
   5   2.0000     -62.567561     -1702.5499
   6   2.0000     -56.401518     -1534.7633
   7   2.0000     -56.398789     -1534.6891
   8   2.0000     -56.398759     -1534.6882
   9   2.0000     -19.319407      -525.7078
  10   2.0000     -19.251658      -523.8642
  11   2.0000     -19.249387      -523.8024
  12   2.0000     -19.238203      -523.4981
  13   2.0000     -19.237465      -523.4780
  14   2.0000     -19.235719      -523.4305
  15   2.0000     -14.661013      -398.9465
  16   2.0000     -14.649779      -398.6407
  17   2.0000     -14.497192      -394.4886
  18   2.0000     -14.450023      -393.2051
  19   2.0000     -14.421561      -392.4306
  20   2.0000     -14.417331      -392.3155
  21   2.0000     -10.382292      -282.5165
  22   2.0000     -10.372294      -282.2445
  23   2.0000     -10.370298      -282.1901
  24   2.0000     -10.364715      -282.0382
  25   2.0000     -10.363793      -282.0131
  26   2.0000     -10.349057      -281.6122
  27   2.0000     -10.346915      -281.5539
  28   2.0000     -10.344656      -281.4924
  29   2.0000     -10.344020      -281.4751
  30   2.0000     -10.341740      -281.4131
  31   2.0000     -10.332188      -281.1531
  32   2.0000     -10.331380      -281.1311
  33   2.0000     -10.323886      -280.9272
  34   2.0000     -10.320516      -280.8355
  35   2.0000     -10.314855      -280.6815
  36   2.0000     -10.314035      -280.6592
  37   2.0000     -10.313341      -280.6403
  38   2.0000     -10.311608      -280.5931
  39   2.0000     -10.310544      -280.5642
  40   2.0000     -10.309178      -280.5270
  41   2.0000     -10.308290      -280.5028
  42   2.0000     -10.305993      -280.4403
  43   2.0000     -10.305783      -280.4346
  44   2.0000     -10.305570      -280.4288
  45   2.0000     -10.303094      -280.3614
  46   2.0000     -10.301896      -280.3289
  47   2.0000     -10.301258      -280.3115
  48   2.0000     -10.301165      -280.3089
  49   2.0000     -10.291087      -280.0347
  50   2.0000     -10.288705      -279.9699
  51   2.0000     -10.286836      -279.9190
  52   2.0000     -10.285600      -279.8854
  53   2.0000     -10.284713      -279.8613
  54   2.0000     -10.284192      -279.8471
  55   2.0000     -10.281366      -279.7702
  56   2.0000     -10.279891      -279.7300
  57   2.0000     -10.278830      -279.7012
  58   2.0000     -10.274224      -279.5758
  59   2.0000     -10.273986      -279.5694
  60   2.0000     -10.272565      -279.5307
  61   2.0000     -10.272107      -279.5182
  62   2.0000     -10.271856      -279.5114
  63   2.0000     -10.271674      -279.5065
  64   2.0000     -10.270121      -279.4642
  65   2.0000     -10.269747      -279.4540
  66   2.0000     -10.269304      -279.4420
  67   2.0000     -10.268512      -279.4204
  68   2.0000     -10.267550      -279.3943
  69   2.0000     -10.266521      -279.3662
  70   2.0000     -10.265973      -279.3513
  71   2.0000     -10.265569      -279.3403
  72   2.0000     -10.263867      -279.2940
  73   2.0000     -10.263632      -279.2876
  74   2.0000     -10.255554      -279.0678
  75   2.0000     -10.252158      -278.9754
  76   2.0000     -10.247875      -278.8589
  77   2.0000      -8.796996      -239.3784
  78   2.0000      -8.085055      -220.0055
  79   2.0000      -8.077076      -219.7884
  80   2.0000      -8.037439      -218.7098
  81   2.0000      -8.037269      -218.7052
  82   2.0000      -6.633331      -180.5021
  83   2.0000      -6.618717      -180.1044
  84   2.0000      -6.618510      -180.0988
  85   2.0000      -6.054676      -164.7561
  86   2.0000      -6.050343      -164.6382
  87   2.0000      -6.046747      -164.5404
  88   2.0000      -6.046575      -164.5357
  89   2.0000      -6.042473      -164.4240
  90   2.0000      -6.038318      -164.3110
  91   2.0000      -6.007223      -163.4648
  92   2.0000      -6.007131      -163.4623
  93   2.0000      -6.003106      -163.3528
  94   2.0000      -6.002929      -163.3480
  95   2.0000      -5.998376      -163.2241
  96   2.0000      -5.998042      -163.2150
  97   2.0000      -2.749191       -74.8093
  98   2.0000      -2.745094       -74.6978
  99   2.0000      -2.744941       -74.6936
 100   2.0000      -2.733330       -74.3777
 101   2.0000      -2.733313       -74.3772
 102   2.0000      -1.329381       -36.1743
 103   2.0000      -1.319367       -35.9018
 104   2.0000      -1.239665       -33.7330
 105   2.0000      -1.150124       -31.2965
 106   2.0000      -1.147993       -31.2385
 107   2.0000      -1.138425       -30.9781
 108   2.0000      -1.104544       -30.0562
 109   2.0000      -1.056985       -28.7620
 110   2.0000      -1.028832       -27.9959
 111   2.0000      -1.018227       -27.7074
 112   2.0000      -1.010426       -27.4951
 113   2.0000      -0.998784       -27.1783
 114   2.0000      -0.994971       -27.0745
 115   2.0000      -0.991672       -26.9848
 116   2.0000      -0.986803       -26.8523
 117   2.0000      -0.970655       -26.4129
 118   2.0000      -0.949445       -25.8357
 119   2.0000      -0.947976       -25.7957
 120   2.0000      -0.947247       -25.7759
 121   2.0000      -0.926604       -25.2142
 122   2.0000      -0.916724       -24.9453
 123   2.0000      -0.914305       -24.8795
 124   2.0000      -0.910648       -24.7800
 125   2.0000      -0.900938       -24.5158
 126   2.0000      -0.896024       -24.3821
 127   2.0000      -0.891907       -24.2700
 128   2.0000      -0.885174       -24.0868
 129   2.0000      -0.875760       -23.8306
 130   2.0000      -0.865673       -23.5562
 131   2.0000      -0.854278       -23.2461
 132   2.0000      -0.853393       -23.2220
 133   2.0000      -0.845665       -23.0117
 134   2.0000      -0.836919       -22.7737
 135   2.0000      -0.835550       -22.7365
 136   2.0000      -0.835384       -22.7320
 137   2.0000      -0.831872       -22.6364
 138   2.0000      -0.830871       -22.6091
 139   2.0000      -0.823334       -22.4041
 140   2.0000      -0.817346       -22.2411
 141   2.0000      -0.814129       -22.1536
 142   2.0000      -0.801778       -21.8175
 143   2.0000      -0.794716       -21.6253
 144   2.0000      -0.775239       -21.0953
 145   2.0000      -0.768120       -20.9016
 146   2.0000      -0.763648       -20.7799
 147   2.0000      -0.755899       -20.5691
 148   2.0000      -0.742800       -20.2126
 149   2.0000      -0.733151       -19.9500
 150   2.0000      -0.723934       -19.6992
 151   2.0000      -0.714460       -19.4414
 152   2.0000      -0.711779       -19.3685
 153   2.0000      -0.706614       -19.2279
 154   2.0000      -0.700871       -19.0717
 155   2.0000      -0.695771       -18.9329
 156   2.0000      -0.692426       -18.8419
 157   2.0000      -0.690221       -18.7819
 158   2.0000      -0.680361       -18.5136
 159   2.0000      -0.676520       -18.4091
 160   2.0000      -0.667229       -18.1562
 161   2.0000      -0.663935       -18.0666
 162   2.0000      -0.659862       -17.9558
 163   2.0000      -0.654135       -17.7999
 164   2.0000      -0.651272       -17.7220
 165   2.0000      -0.645996       -17.5785
 166   2.0000      -0.644757       -17.5447
 167   2.0000      -0.640936       -17.4407
 168   2.0000      -0.636638       -17.3238
 169   2.0000      -0.631518       -17.1845
 170   2.0000      -0.630980       -17.1698
 171   2.0000      -0.628843       -17.1117
 172   2.0000      -0.625816       -17.0293
 173   2.0000      -0.623390       -16.9633
 174   2.0000      -0.620144       -16.8750
 175   2.0000      -0.617199       -16.7948
 176   2.0000      -0.607635       -16.5346
 177   2.0000      -0.598159       -16.2767
 178   2.0000      -0.597420       -16.2566
 179   2.0000      -0.594650       -16.1813
 180   2.0000      -0.591501       -16.0956
 181   2.0000      -0.588720       -16.0199
 182   2.0000      -0.583886       -15.8884
 183   2.0000      -0.578984       -15.7550
 184   2.0000      -0.577287       -15.7088
 185   2.0000      -0.573910       -15.6169
 186   2.0000      -0.570084       -15.5128
 187   2.0000      -0.566143       -15.4055
 188   2.0000      -0.561834       -15.2883
 189   2.0000      -0.560034       -15.2393
 190   2.0000      -0.552966       -15.0470
 191   2.0000      -0.551760       -15.0142
 192   2.0000      -0.549260       -14.9461
 193   2.0000      -0.545107       -14.8331
 194   2.0000      -0.542215       -14.7544
 195   2.0000      -0.539909       -14.6917
 196   2.0000      -0.538012       -14.6401
 197   2.0000      -0.536343       -14.5946
 198   2.0000      -0.531948       -14.4750
 199   2.0000      -0.529521       -14.4090
 200   2.0000      -0.526926       -14.3384
 201   2.0000      -0.524238       -14.2652
 202   2.0000      -0.522246       -14.2110
 203   2.0000      -0.520418       -14.1613
 204   2.0000      -0.517416       -14.0796
 205   2.0000      -0.514222       -13.9927
 206   2.0000      -0.513706       -13.9786
 207   2.0000      -0.507828       -13.8187
 208   2.0000      -0.506939       -13.7945
 209   2.0000      -0.502821       -13.6825
 210   2.0000      -0.502220       -13.6661
 211   2.0000      -0.500428       -13.6173
 212   2.0000      -0.497169       -13.5287
 213   2.0000      -0.492980       -13.4147
 214   2.0000      -0.492010       -13.3883
 215   2.0000      -0.488094       -13.2817
 216   2.0000      -0.485911       -13.2223
 217   2.0000      -0.484968       -13.1967
 218   2.0000      -0.482066       -13.1177
 219   2.0000      -0.477052       -12.9813
 220   2.0000      -0.473207       -12.8766
 221   2.0000      -0.472722       -12.8634
 222   2.0000      -0.467576       -12.7234
 223   2.0000      -0.465954       -12.6793
 224   2.0000      -0.464807       -12.6481
 225   2.0000      -0.462314       -12.5802
 226   2.0000      -0.461582       -12.5603
 227   2.0000      -0.456637       -12.4257
 228   2.0000      -0.454295       -12.3620
 229   2.0000      -0.453771       -12.3477
 230   2.0000      -0.453211       -12.3325
 231   2.0000      -0.450023       -12.2457
 232   2.0000      -0.448388       -12.2013
 233   2.0000      -0.447384       -12.1739
 234   2.0000      -0.444763       -12.1026
 235   2.0000      -0.442749       -12.0478
 236   2.0000      -0.441435       -12.0121
 237   2.0000      -0.436679       -11.8826
 238   2.0000      -0.432360       -11.7651
 239   2.0000      -0.431491       -11.7415
 240   2.0000      -0.431060       -11.7298
 241   2.0000      -0.427668       -11.6374
 242   2.0000      -0.423572       -11.5260
 243   2.0000      -0.420068       -11.4306
 244   2.0000      -0.417120       -11.3504
 245   2.0000      -0.415890       -11.3169
 246   2.0000      -0.414312       -11.2740
 247   2.0000      -0.412131       -11.2147
 248   2.0000      -0.408103       -11.1050
 249   2.0000      -0.401947       -10.9375
 250   2.0000      -0.396578       -10.7914
 251   2.0000      -0.394030       -10.7221
 252   2.0000      -0.392826       -10.6893
 253   2.0000      -0.391381       -10.6500
 254   2.0000      -0.389786       -10.6066
 255   2.0000      -0.386265       -10.5108
 256   2.0000      -0.385090       -10.4788
 257   2.0000      -0.381301       -10.3757
 258   2.0000      -0.379836       -10.3359
 259   2.0000      -0.379385       -10.3236
 260   2.0000      -0.379278       -10.3207
 261   2.0000      -0.378884       -10.3100
 262   2.0000      -0.377219       -10.2646
 263   2.0000      -0.375524       -10.2185
 264   2.0000      -0.366801        -9.9812
 265   2.0000      -0.359959        -9.7950
 266   2.0000      -0.358419        -9.7531
 267   2.0000      -0.343819        -9.3558
 268   2.0000      -0.340672        -9.2702
 269   2.0000      -0.332419        -9.0456
 270   2.0000      -0.323877        -8.8131
 271   2.0000      -0.323237        -8.7957
 272   2.0000      -0.320808        -8.7296
 273   2.0000      -0.318819        -8.6755
 274   2.0000      -0.312927        -8.5152
 275   2.0000      -0.303575        -8.2607
 276   2.0000      -0.299076        -8.1383
 277   2.0000      -0.284594        -7.7442
 278   2.0000      -0.267915        -7.2903
 279   2.0000      -0.251286        -6.8378
 280   2.0000      -0.205665        -5.5964
 281   0.0000      -0.090424        -2.4606
 282   0.0000      -0.075011        -2.0412
 283   0.0000      -0.071730        -1.9519
 284   0.0000      -0.050538        -1.3752
 285   0.0000      -0.043035        -1.1710

MULLIKEN ATOMIC CHARGES
-----------------------
   0 C :    0.326995
   1 C :   -0.343936
   2 C :   -0.184823
   3 N :    0.150850
   4 C :   -0.198839
   5 N :    0.149333
   6 C :    0.007530
   7 C :   -0.002427
   8 C :   -0.070812
   9 C :    0.115238
  10 C :   -0.091147
  11 C :   -0.019440
  12 S :    0.191667
  13 C :   -0.124421
  14 C :    0.038458
  15 Br:    0.027247
  16 C :    0.165988
  17 O :   -0.222424
  18 C :   -0.133851
  19 C :    0.030776
  20 N :   -0.006082
  21 C :   -0.121717
  22 S :    0.177860
  23 C :    0.002447
  24 N :    0.276357
  25 O :   -0.248102
  26 O :   -0.257197
  27 C :    0.002154
  28 C :    0.125290
  29 C :   -0.048454
  30 C :   -0.003467
  31 C :    0.103319
  32 C :   -0.092164
  33 C :    0.016304
  34 C :    0.106770
  35 C :   -0.060485
  36 C :   -0.006038
  37 C :    0.097347
  38 C :    0.025338
  39 C :   -0.128882
  40 C :    0.051766
  41 C :    0.026218
  42 C :    0.079279
  43 C :    0.030895
  44 C :   -0.106709
  45 C :    0.112128
  46 C :   -0.014777
  47 C :   -0.044616
  48 C :   -0.027091
  49 C :    0.009983
  50 C :   -0.013949
  51 C :   -0.026016
  52 C :    0.035503
  53 C :    0.029420
  54 C :   -0.057470
  55 S :    0.072770
  56 C :   -0.048721
  57 C :    0.028586
  58 C :    0.028068
  59 C :   -0.019903
  60 S :    0.093158
  61 C :   -0.083964
  62 C :    0.017014
  63 O :   -0.180199
  64 C :    0.093166
  65 C :    0.102609
  66 N :    0.286820
  67 O :   -0.239122
  68 O :   -0.270547
  69 C :    0.063699
  70 N :   -0.018952
  71 C :    0.048288
  72 C :   -0.065089
  73 H :   -0.007965
  74 H :   -0.005205
  75 H :   -0.000789
  76 H :    0.045935
  77 H :    0.180266
  78 H :    0.014706
  79 H :    0.007687
  80 H :   -0.005758
  81 H :   -0.035837
  82 H :   -0.032430
  83 H :   -0.030459
  84 H :   -0.002111
  85 H :    0.004738
  86 H :    0.022175
  87 H :    0.002717
  88 H :    0.021757
  89 H :   -0.004472
  90 H :    0.004720
  91 H :    0.001595
  92 H :    0.012207
  93 H :    0.021222
  94 H :   -0.041852
  95 H :   -0.026866
  96 H :   -0.038452
  97 H :    0.001958
  98 H :   -0.010547
  99 H :   -0.015612
 100 H :   -0.014731
 101 H :   -0.015980
 102 H :   -0.015665
 103 H :   -0.015555
 104 H :   -0.006476
 105 H :    0.029235
 106 H :    0.136036
 107 H :    0.012878
 108 H :    0.018122
 109 H :    0.024010
Sum of atomic charges:   -0.0000000

LOEWDIN ATOMIC CHARGES
----------------------
   0 C :    0.078890
   1 C :   -0.148846
   2 C :   -0.019952
   3 N :   -0.053863
   4 C :   -0.020998
   5 N :   -0.052472
   6 C :   -0.018111
   7 C :   -0.051260
   8 C :    0.023809
   9 C :   -0.033936
  10 C :   -0.143693
  11 C :   -0.007326
  12 S :    0.437718
  13 C :   -0.271364
  14 C :   -0.070111
  15 Br:    0.139172
  16 C :    0.096033
  17 O :   -0.177225
  18 C :   -0.147849
  19 C :    0.112906
  20 N :    0.081016
  21 C :   -0.118038
  22 S :    0.471211
  23 C :   -0.201686
  24 N :    0.273443
  25 O :   -0.214092
  26 O :   -0.223828
  27 C :    0.001588
  28 C :   -0.081045
  29 C :   -0.041946
  30 C :    0.002829
  31 C :   -0.031901
  32 C :   -0.017859
  33 C :    0.004667
  34 C :   -0.011087
  35 C :   -0.020600
  36 C :   -0.016171
  37 C :   -0.022777
  38 C :    0.005206
  39 C :   -0.034392
  40 C :   -0.015737
  41 C :   -0.056689
  42 C :   -0.008914
  43 C :   -0.059296
  44 C :   -0.022392
  45 C :   -0.021224
  46 C :   -0.018181
  47 C :   -0.017749
  48 C :   -0.026066
  49 C :   -0.036393
  50 C :   -0.063984
  51 C :   -0.141153
  52 C :   -0.033607
  53 C :   -0.036137
  54 C :   -0.182649
  55 S :    0.377450
  56 C :   -0.181025
  57 C :   -0.035312
  58 C :   -0.035029
  59 C :   -0.149047
  60 S :    0.374710
  61 C :   -0.084009
  62 C :   -0.019640
  63 O :    0.039517
  64 C :    0.089234
  65 C :   -0.103948
  66 N :    0.295621
  67 O :   -0.200805
  68 O :   -0.220054
  69 C :    0.003613
  70 N :    0.030304
  71 C :    0.023440
  72 C :   -0.110636
  73 H :    0.042008
  74 H :    0.042083
  75 H :    0.039482
  76 H :    0.036577
  77 H :    0.086213
  78 H :    0.046310
  79 H :    0.029016
  80 H :    0.029626
  81 H :    0.023292
  82 H :    0.027364
  83 H :    0.026293
  84 H :    0.020488
  85 H :    0.019106
  86 H :    0.025581
  87 H :    0.021404
  88 H :    0.025788
  89 H :    0.019904
  90 H :    0.026814
  91 H :    0.019145
  92 H :    0.027879
  93 H :    0.024419
  94 H :    0.023508
  95 H :    0.025795
  96 H :    0.025864
  97 H :    0.016073
  98 H :    0.027894
  99 H :    0.032087
 100 H :    0.032282
 101 H :    0.030482
 102 H :    0.030683
 103 H :    0.031673
 104 H :    0.038446
 105 H :    0.039176
 106 H :    0.079912
 107 H :    0.026201
 108 H :    0.022957
 109 H :    0.027898

  Mayer bond orders larger than 0.100000
B(  0-C ,  1-C ) :   1.6287 B(  0-C ,  6-C ) :   1.0024 B(  0-C , 18-C ) :   1.1008
B(  1-C ,  2-C ) :   1.1420 B(  1-C ,  4-C ) :   1.1489 B(  2-C ,  3-N ) :   2.9694
B(  4-C ,  5-N ) :   2.9577 B(  6-C ,  7-C ) :   1.2737 B(  6-C , 11-C ) :   1.4264
B(  7-C ,  8-C ) :   1.4217 B(  7-C , 16-C ) :   0.9821 B(  8-C ,  9-C ) :   1.2416
B(  8-C , 73-H ) :   1.0186 B(  9-C , 10-C ) :   1.3107 B(  9-C , 14-C ) :   1.1639
B( 10-C , 11-C ) :   1.3189 B( 10-C , 12-S ) :   1.0903 B( 11-C , 74-H ) :   0.9804
B( 12-S , 13-C ) :   1.0882 B( 13-C , 14-C ) :   1.6165 B( 13-C , 15-Br) :   1.0208
B( 14-C , 75-H ) :   1.0000 B( 16-C , 17-O ) :   2.0317 B( 16-C , 18-C ) :   1.0054
B( 17-O , 77-H ) :   0.1456 B( 18-C , 19-C ) :   1.4480 B( 19-C , 20-N ) :   1.3483
B( 19-C , 76-H ) :   0.9315 B( 20-N , 21-C ) :   1.1845 B( 20-N , 77-H ) :   0.8217
B( 21-C , 22-S ) :   1.1330 B( 21-C , 28-C ) :   1.3907 B( 22-S , 23-C ) :   1.0865
B( 23-C , 24-N ) :   0.9664 B( 23-C , 27-C ) :   1.4890 B( 24-N , 25-O ) :   1.5361
B( 24-N , 26-O ) :   1.5156 B( 25-O , 26-O ) :   0.2618 B( 27-C , 28-C ) :   1.2319
B( 27-C , 78-H ) :   1.0024 B( 28-C , 29-C ) :   1.0494 B( 29-C , 30-C ) :   1.7743
B( 29-C , 79-H ) :   0.9578 B( 30-C , 31-C ) :   1.0343 B( 30-C , 80-H ) :   0.9769
B( 31-C , 32-C ) :   1.3083 B( 31-C , 36-C ) :   1.3492 B( 32-C , 33-C ) :   1.4043
B( 32-C , 81-H ) :   0.9943 B( 33-C , 34-C ) :   1.3755 B( 33-C , 39-C ) :   0.9182
B( 34-C , 35-C ) :   1.3429 B( 34-C , 37-C ) :   0.9980 B( 35-C , 36-C ) :   1.3740
B( 35-C , 82-H ) :   0.9918 B( 36-C , 83-H ) :   0.9929 B( 37-C , 38-C ) :   1.3742
B( 37-C , 47-C ) :   1.3350 B( 38-C , 39-C ) :   0.9244 B( 38-C , 44-C ) :   1.3845
B( 39-C , 40-C ) :   1.0346 B( 39-C , 42-C ) :   1.0122 B( 40-C , 41-C ) :   1.1042
B( 40-C , 84-H ) :   0.9399 B( 40-C , 85-H ) :   0.9376 B( 41-C , 86-H ) :   0.9640
B( 41-C , 87-H ) :   0.9644 B( 41-C , 88-H ) :   0.9635 B( 42-C , 43-C ) :   1.1138
B( 42-C , 89-H ) :   0.9373 B( 42-C , 90-H ) :   0.9394 B( 43-C , 91-H ) :   0.9632
B( 43-C , 92-H ) :   0.9589 B( 43-C , 93-H ) :   0.9610 B( 44-C , 45-C ) :   1.2917
B( 44-C , 94-H ) :   1.0098 B( 45-C , 46-C ) :   1.3536 B( 45-C , 48-C ) :   1.0688
B( 46-C , 47-C ) :   1.3879 B( 46-C , 95-H ) :   0.9854 B( 47-C , 96-H ) :   0.9910
B( 48-C , 49-C ) :   1.6856 B( 48-C , 97-H ) :   0.9548 B( 49-C , 50-C ) :   1.1589
B( 49-C , 98-H ) :   0.9629 B( 50-C , 51-C ) :   1.6140 B( 50-C , 99-H ) :   0.9594
B( 51-C , 52-C ) :   1.1344 B( 51-C , 55-S ) :   1.0320 B( 52-C , 53-C ) :   1.6045
B( 52-C ,100-H ) :   0.9970 B( 53-C , 54-C ) :   1.1775 B( 53-C ,101-H ) :   0.9927
B( 54-C , 55-S ) :   1.0357 B( 54-C , 56-C ) :   1.5283 B( 56-C , 57-C ) :   1.1799
B( 56-C , 60-S ) :   1.0256 B( 57-C , 58-C ) :   1.5994 B( 57-C ,102-H ) :   0.9941
B( 58-C , 59-C ) :   1.1343 B( 58-C ,103-H ) :   0.9999 B( 59-C , 60-S ) :   1.0380
B( 59-C , 61-C ) :   1.5843 B( 61-C , 62-C ) :   1.1746 B( 61-C ,104-H ) :   0.9646
B( 62-C , 63-O ) :   1.0693 B( 62-C , 69-C ) :   1.3380 B( 63-O , 64-C ) :   1.2171
B( 64-C , 65-C ) :   1.4113 B( 64-C ,105-H ) :   1.0155 B( 65-C , 66-N ) :   0.9563
B( 65-C , 69-C ) :   1.2458 B( 66-N , 67-O ) :   1.5522 B( 66-N , 68-O ) :   1.4712
B( 67-O , 68-O ) :   0.2563 B( 69-C , 70-N ) :   1.2625 B( 70-N , 71-C ) :   1.1007
B( 70-N ,106-H ) :   0.8706 B( 71-C , 72-C ) :   1.9122 B( 71-C ,107-H ) :   0.9589
B( 72-C ,108-H ) :   0.9619 B( 72-C ,109-H ) :   0.9547

-----------------------------------------------------------------------------
         ABSORPTION SPECTRUM VIA TRANSITION ELECTRIC DIPOLE MOMENTS
-----------------------------------------------------------------------------
State   Energy  Wavelength   fosc         T2         TX        TY        TZ
        (cm-1)    (nm)                  (au**2)     (au)      (au)      (au)
-----------------------------------------------------------------------------
   0   14699.8    680.3   1.136788179  25.45920   0.21209   0.78150   4.98031
   1   17827.0    560.9   0.248910017   4.59663   0.14008   0.57474  -2.06075
   2   18371.3    544.3   0.027409405   0.49117  -0.54516   0.42545   0.11386
   3   21710.3    460.6   0.281121889   4.26289  -1.65458   0.31530  -1.19408
   4   22111.8    452.2   0.346956028   5.16566   1.70917  -0.07418   1.49629
   5   23721.5    421.6   0.051877564   0.71997  -0.55600  -0.51936   0.37562
   6   25096.5    398.5   0.045464414   0.59639  -0.66452  -0.32075  -0.22787
   7   25986.5    384.8   1.443920281  18.29241   2.10716   3.69878  -0.41388
   8   27337.9    365.8   0.275106998   3.31292  -1.51478  -0.70188  -0.72508
   9   28431.7    351.7   0.120309757   1.39307   0.63075   0.97894   0.19209
  10   28481.8    351.1   0.014697761   0.16989   0.40745   0.06063   0.01382
  11   29422.5    339.9   0.047157677   0.52765  -0.03536  -0.63987   0.34200
  12   29440.2    339.7   0.404577984   4.52415  -1.31424  -1.66888  -0.10841
  13   30200.4    331.1   0.260176066   2.83616  -1.13495  -1.23434  -0.15638
  14   30768.6    325.0   0.159113248   1.70245  -0.08590   1.14215  -0.62494
  15   31208.7    320.4   0.074414507   0.78498  -0.61507  -0.22237  -0.59767
  16   31295.2    319.5   0.139392346   1.46635  -0.61625  -1.01284   0.24646
  17   32030.4    312.2   0.173447421   1.78271  -0.72103  -1.10675   0.19475
  18   33427.0    299.2   0.012994014   0.12797  -0.12122  -0.20883   0.26395
  19   33829.2    295.6   0.001763822   0.01716  -0.01132   0.11138  -0.06805
  20   34274.8    291.8   0.201450891   1.93495   0.40140   1.25410  -0.44840
  21   34440.2    290.4   0.089598470   0.85647  -0.05558  -0.80648   0.45052
  22   34482.7    290.0   0.069177231   0.66045  -0.09615   0.69187  -0.41535
  23   34917.2    286.4   0.247150764   2.33023  -0.31919  -1.33247   0.67295
  24   35279.5    283.5   0.046737336   0.43613  -0.03554  -0.59577   0.28270
  25   35365.3    282.8   0.140842354   1.31109  -0.53353  -0.99815   0.17355
  26   35600.9    280.9   0.136319116   1.26058   0.38772   0.90695  -0.53638
  27   35634.4    280.6   0.183345227   1.69385  -0.17538  -1.15150   0.58064
  28   35919.1    278.4   0.010589716   0.09706   0.17448  -0.07265   0.24766
  29   36015.0    277.7   0.009351748   0.08548  -0.06827  -0.24333   0.14701
  30   36080.8    277.2   0.009204513   0.08398  -0.13965  -0.24408   0.07005
  31   36597.4    273.2   0.008492869   0.07640  -0.23810   0.06160   0.12614
  32   36789.8    271.8   0.057949109   0.51856  -0.27932  -0.04762  -0.66202
  33   36870.0    271.2   0.000079792   0.00071  -0.02082  -0.01132   0.01228
  34   37151.6    269.2   0.074109755   0.65671   0.16562   0.76859  -0.19633
  35   37750.9    264.9   0.031329949   0.27322   0.32157   0.26617  -0.31459
  36   37954.5    263.5   0.065426424   0.56750  -0.33075  -0.62712   0.25461
  37   38284.8    261.2   0.017587006   0.15123  -0.38506  -0.05202  -0.01591
  38   38554.5    259.4   0.194817624   1.66352  -1.00781  -0.56034  -0.57780
  39   38992.9    256.5   0.034890392   0.29457  -0.19789   0.46342  -0.20163
  40   39368.5    254.0   0.056358682   0.47129  -0.29372   0.54177  -0.30249
  41   39565.0    252.7   0.098298312   0.81792   0.22458  -0.59349   0.64440
  42   39867.7    250.8   0.040940204   0.33807   0.30250  -0.44370   0.22291

FINAL SINGLE POINT ENERGY     -7098.376072717167

DIPOLE MOMENT
-------------
                                X             Y             Z
Electronic contribution:     86.98467     -27.60745     155.83477
Nuclear contribution   :    -84.96438      32.60173    -157.69733
                        -----------------------------------------
Total Dipole Moment    :      2.02029       4.99428      -1.86256
                        -----------------------------------------
Magnitude (a.u.)       :      5.70031
Magnitude (Debye)      :     14.48904

Rotational constants in cm-1:     0.000797     0.000237     0.000196
Rotational constants in MHz :    23.904094     7.097511     5.877308

                             ****ORCA TERMINATED NORMALLY****
TOTAL RUN TIME: 0 days 0 hours 12 minutes 40 seconds 602 msec
