                         Program Version 4.2.0 -  RELEASE  -
|  1> # ORCA input file
|  2> # SCF done       -195.492483119671          0.000449226850
|  3> ! CAM-B3LYP def2-SVP def2/J RIJCOSX Grid4 TightSCF
|  4> %maxcore 5000
|  5> %tddft
|  6>     Mode sTDDFT
|  7>     Ethresh 5.0
|  8>     maxcore 5000
|  9> end
| 10>
| 11> %pal
| 12>   nprocs 6
| 13>   end
| 14> * xyz 0 1
| 15>    C       -7.61568        -1.88530        -0.65820
| 16>    C       -7.75878        -3.05536        -1.35852
| 17>    C       -7.22196        -4.29308        -0.95297
| 18>    N       -6.81021        -5.32593        -0.66691
| 19>    C       -8.47196        -3.16527        -2.56886
| 20>    N       -9.04337        -3.29729        -3.55578
| 21>    C       -6.87051        -1.71927         0.58935
| 22>    C       -6.95323        -0.36151         0.99550
| 23>    C       -6.32878         0.11705         2.12198
| 24>    C       -5.57634        -0.78389         2.88255
| 25>    C       -5.50547        -2.13846         2.47646
| 26>    C       -6.15203        -2.62487         1.34512
| 27>    S       -4.51688        -3.07751         3.55098
| 28>    C       -4.21785        -1.65985         4.52048
| 29>    C       -4.82625        -0.53841         4.06359
| 30>   Br       -3.13540        -1.78939         6.04631
| 31>    C       -7.78149         0.36776         0.03182
| 32>    O       -8.10513         1.55462         0.08141
| 33>    C       -8.16298        -0.59462        -1.00055
| 34>    C       -8.94470        -0.22275        -2.07215
| 35>    N       -9.37179         1.03786        -2.15828
| 36>    C      -10.16500         1.60886        -3.09727
| 37>    S      -10.71205         0.75461        -4.50438
| 38>    C      -11.52752         2.19259        -5.02442
| 39>    N      -12.24224         2.14915        -6.22767
| 40>    O      -12.80428         3.16884        -6.58514
| 41>    O      -12.24727         1.09009        -6.82960
| 42>    C      -11.38583         3.25314        -4.16727
| 43>    C      -10.60615         2.93926        -3.03935
| 44>    C      -10.26177         3.81682        -1.95580
| 45>    C      -10.44182         5.15272        -1.93781
| 46>    N       -9.94611         5.98169        -0.96756
| 47>    C       -9.12844         5.56549         0.09074
| 48>    C       -9.35105         5.89172         1.39520
| 49>    S       -8.14439         5.26634         2.43941
| 50>    C       -7.30676         4.56015         1.11414
| 51>    C       -7.92132         4.80013        -0.08034
| 52>    N       -7.47014         4.42391        -1.32508
| 53>    C       -6.58544         3.41943        -1.60897
| 54>    C       -6.36335         3.00186        -2.86571
| 55>    C       -5.40838         2.00190        -3.28832
| 56>    C       -4.84020         1.06874        -2.40767
| 57>    C       -3.87004         0.20329        -2.85765
| 58>    C       -3.48540         0.21989        -4.21052
| 59>    C       -4.07710         1.09982        -5.10403
| 60>    C       -5.02870         1.98010        -4.63605
| 61>    C       -2.46027        -0.77568        -4.41932
| 62>    C       -2.20495        -1.41997        -3.19693
| 63>    C       -3.12513        -0.89127        -2.11231
| 64>    C       -2.26908        -0.37807        -0.93870
| 65>    C       -3.02192         0.12759         0.28596
| 66>    C       -4.16629        -1.95648        -1.70571
| 67>    C       -3.61053        -3.20675        -1.03759
| 68>    C       -1.21281        -2.36466        -3.10684
| 69>    C       -0.48666        -2.72993        -4.25273
| 70>    C       -0.77615        -2.09260        -5.46814
| 71>    C       -1.74420        -1.11527        -5.55872
| 72>    C        0.53940        -3.74005        -4.23043
| 73>    C        0.92119        -4.47624        -3.16448
| 74>    C        1.92366        -5.47877        -3.19034
| 75>    S        2.79094        -5.90710        -4.62585
| 76>    C        3.70963        -7.10519        -3.82075
| 77>    C        3.38379        -7.19648        -2.48836
| 78>    C        2.35788        -6.26436        -2.11451
| 79>    C        1.92262        -6.23457        -0.78371
| 80>    C        2.45366        -7.07648         0.16549
| 81>    C        1.90219        -6.93134         1.54583
| 82>    O        1.05800        -6.10939         1.80189
| 83>    O        2.37244        -7.74097         2.49712
| 84>    C        3.47247        -8.00679        -0.21970
| 85>    O        3.99481        -8.84793         0.73299
| 86>    C        3.92164        -8.06132        -1.50718
| 87>    H       -6.41532         1.15346         2.40881
| 88>    H       -6.07521        -3.66713         1.08635
| 89>    H       -4.74886         0.42182         4.53966
| 90>    H       -9.24028        -0.91282        -2.85137
| 91>    H       -9.03391         1.63299        -1.37765
| 92>    H      -11.84743         4.20396        -4.35865
| 93>    H       -9.79073         3.36320        -1.09705
| 94>    H      -10.96363         5.66878        -2.73104
| 95>    H      -10.42745         6.85680        -0.82377
| 96>    H      -10.16275         6.46390         1.79790
| 97>    H       -6.39740         4.02736         1.29559
| 98>    H       -7.98063         4.80077        -2.11084
| 99>    H       -6.07884         2.99862        -0.75688
|100>    H       -6.89416         3.50494        -3.66657
|101>    H       -5.18372         1.03676        -1.38475
|102>    H       -3.79497         1.09862        -6.14617
|103>    H       -5.48677         2.68315        -5.31734
|104>    H       -1.63621         0.42680        -1.32206
|105>    H       -1.60814        -1.18805        -0.62602
|106>    H       -3.60291         1.01508         0.05348
|107>    H       -2.30663         0.39084         1.06306
|108>    H       -3.68741        -0.63357         0.68492
|109>    H       -4.70290        -2.25214        -2.61252
|110>    H       -4.88974        -1.47872        -1.04247
|111>    H       -2.94549        -3.73873        -1.71102
|112>    H       -4.42641        -3.88007        -0.78518
|113>    H       -3.07256        -2.96630        -0.12426
|114>    H       -0.97535        -2.82340        -2.16087
|115>    H       -0.21599        -2.37317        -6.34879
|116>    H       -1.93950        -0.62120        -6.49871
|117>    H        1.03577        -3.92260        -5.17671
|118>    H        0.45412        -4.33103        -2.20145
|119>    H        4.43437        -7.67389        -4.36761
|120>    H        1.15601        -5.54669        -0.46195
|121>    H        3.04954        -8.34667         2.15035
|122>    H        4.66545        -9.41436         0.33255
|123>    H        4.69248        -8.76583        -1.78987
|124> *
|125>
|126>                          ****END OF INPUT****

CARTESIAN COORDINATES (ANGSTROEM)
---------------------------------
  C     -7.615680   -1.885300   -0.658200
  C     -7.758780   -3.055360   -1.358520
  C     -7.221960   -4.293080   -0.952970
  N     -6.810210   -5.325930   -0.666910
  C     -8.471960   -3.165270   -2.568860
  N     -9.043370   -3.297290   -3.555780
  C     -6.870510   -1.719270    0.589350
  C     -6.953230   -0.361510    0.995500
  C     -6.328780    0.117050    2.121980
  C     -5.576340   -0.783890    2.882550
  C     -5.505470   -2.138460    2.476460
  C     -6.152030   -2.624870    1.345120
  S     -4.516880   -3.077510    3.550980
  C     -4.217850   -1.659850    4.520480
  C     -4.826250   -0.538410    4.063590
  Br    -3.135400   -1.789390    6.046310
  C     -7.781490    0.367760    0.031820
  O     -8.105130    1.554620    0.081410
  C     -8.162980   -0.594620   -1.000550
  C     -8.944700   -0.222750   -2.072150
  N     -9.371790    1.037860   -2.158280
  C    -10.165000    1.608860   -3.097270
  S    -10.712050    0.754610   -4.504380
  C    -11.527520    2.192590   -5.024420
  N    -12.242240    2.149150   -6.227670
  O    -12.804280    3.168840   -6.585140
  O    -12.247270    1.090090   -6.829600
  C    -11.385830    3.253140   -4.167270
  C    -10.606150    2.939260   -3.039350
  C    -10.261770    3.816820   -1.955800
  C    -10.441820    5.152720   -1.937810
  N     -9.946110    5.981690   -0.967560
  C     -9.128440    5.565490    0.090740
  C     -9.351050    5.891720    1.395200
  S     -8.144390    5.266340    2.439410
  C     -7.306760    4.560150    1.114140
  C     -7.921320    4.800130   -0.080340
  N     -7.470140    4.423910   -1.325080
  C     -6.585440    3.419430   -1.608970
  C     -6.363350    3.001860   -2.865710
  C     -5.408380    2.001900   -3.288320
  C     -4.840200    1.068740   -2.407670
  C     -3.870040    0.203290   -2.857650
  C     -3.485400    0.219890   -4.210520
  C     -4.077100    1.099820   -5.104030
  C     -5.028700    1.980100   -4.636050
  C     -2.460270   -0.775680   -4.419320
  C     -2.204950   -1.419970   -3.196930
  C     -3.125130   -0.891270   -2.112310
  C     -2.269080   -0.378070   -0.938700
  C     -3.021920    0.127590    0.285960
  C     -4.166290   -1.956480   -1.705710
  C     -3.610530   -3.206750   -1.037590
  C     -1.212810   -2.364660   -3.106840
  C     -0.486660   -2.729930   -4.252730
  C     -0.776150   -2.092600   -5.468140
  C     -1.744200   -1.115270   -5.558720
  C      0.539400   -3.740050   -4.230430
  C      0.921190   -4.476240   -3.164480
  C      1.923660   -5.478770   -3.190340
  S      2.790940   -5.907100   -4.625850
  C      3.709630   -7.105190   -3.820750
  C      3.383790   -7.196480   -2.488360
  C      2.357880   -6.264360   -2.114510
  C      1.922620   -6.234570   -0.783710
  C      2.453660   -7.076480    0.165490
  C      1.902190   -6.931340    1.545830
  O      1.058000   -6.109390    1.801890
  O      2.372440   -7.740970    2.497120
  C      3.472470   -8.006790   -0.219700
  O      3.994810   -8.847930    0.732990
  C      3.921640   -8.061320   -1.507180
  H     -6.415320    1.153460    2.408810
  H     -6.075210   -3.667130    1.086350
  H     -4.748860    0.421820    4.539660
  H     -9.240280   -0.912820   -2.851370
  H     -9.033910    1.632990   -1.377650
  H    -11.847430    4.203960   -4.358650
  H     -9.790730    3.363200   -1.097050
  H    -10.963630    5.668780   -2.731040
  H    -10.427450    6.856800   -0.823770
  H    -10.162750    6.463900    1.797900
  H     -6.397400    4.027360    1.295590
  H     -7.980630    4.800770   -2.110840
  H     -6.078840    2.998620   -0.756880
  H     -6.894160    3.504940   -3.666570
  H     -5.183720    1.036760   -1.384750
  H     -3.794970    1.098620   -6.146170
  H     -5.486770    2.683150   -5.317340
  H     -1.636210    0.426800   -1.322060
  H     -1.608140   -1.188050   -0.626020
  H     -3.602910    1.015080    0.053480
  H     -2.306630    0.390840    1.063060
  H     -3.687410   -0.633570    0.684920
  H     -4.702900   -2.252140   -2.612520
  H     -4.889740   -1.478720   -1.042470
  H     -2.945490   -3.738730   -1.711020
  H     -4.426410   -3.880070   -0.785180
  H     -3.072560   -2.966300   -0.124260
  H     -0.975350   -2.823400   -2.160870
  H     -0.215990   -2.373170   -6.348790
  H     -1.939500   -0.621200   -6.498710
  H      1.035770   -3.922600   -5.176710
  H      0.454120   -4.331030   -2.201450
  H      4.434370   -7.673890   -4.367610
  H      1.156010   -5.546690   -0.461950
  H      3.049540   -8.346670    2.150350
  H      4.665450   -9.414360    0.332550
  H      4.692480   -8.765830   -1.789870

 Total Charge           Charge          ....    0
 Multiplicity           Mult            ....    1
 Number of Electrons    NEL             ....  556
 Basis Dimension        Dim             .... 1227

ORBITAL ENERGIES
----------------

  NO   OCC          E(Eh)            E(eV)
   0   2.0000    -482.884967    -13139.9680
   1   2.0000     -88.985672     -2421.4232
   2   2.0000     -88.977633     -2421.2045
   3   2.0000     -88.963106     -2420.8092
   4   2.0000     -88.955429     -2420.6003
   5   2.0000     -62.562683     -1702.4171
   6   2.0000     -56.396642     -1534.6307
   7   2.0000     -56.393913     -1534.5564
   8   2.0000     -56.393877     -1534.5554
   9   2.0000     -19.273526      -524.4593
  10   2.0000     -19.236905      -523.4628
  11   2.0000     -19.235890      -523.4352
  12   2.0000     -19.233727      -523.3763
  13   2.0000     -19.229722      -523.2673
  14   2.0000     -19.172185      -521.7017
  15   2.0000     -14.648249      -398.5991
  16   2.0000     -14.491479      -394.3332
  17   2.0000     -14.458113      -393.4253
  18   2.0000     -14.441772      -392.9806
  19   2.0000     -14.417061      -392.3082
  20   2.0000     -14.414132      -392.2285
  21   2.0000     -10.382242      -282.5152
  22   2.0000     -10.379139      -282.4307
  23   2.0000     -10.367373      -282.1105
  24   2.0000     -10.363143      -281.9955
  25   2.0000     -10.360027      -281.9107
  26   2.0000     -10.348540      -281.5981
  27   2.0000     -10.345219      -281.5077
  28   2.0000     -10.345096      -281.5044
  29   2.0000     -10.339986      -281.3653
  30   2.0000     -10.330740      -281.1137
  31   2.0000     -10.328403      -281.0501
  32   2.0000     -10.320350      -280.8310
  33   2.0000     -10.319545      -280.8091
  34   2.0000     -10.319188      -280.7994
  35   2.0000     -10.317448      -280.7520
  36   2.0000     -10.312306      -280.6121
  37   2.0000     -10.310494      -280.5628
  38   2.0000     -10.309880      -280.5461
  39   2.0000     -10.308638      -280.5123
  40   2.0000     -10.308585      -280.5108
  41   2.0000     -10.307278      -280.4753
  42   2.0000     -10.305892      -280.4376
  43   2.0000     -10.303972      -280.3853
  44   2.0000     -10.298985      -280.2496
  45   2.0000     -10.298378      -280.2331
  46   2.0000     -10.296196      -280.1737
  47   2.0000     -10.295426      -280.1528
  48   2.0000     -10.288226      -279.9569
  49   2.0000     -10.285050      -279.8704
  50   2.0000     -10.284667      -279.8600
  51   2.0000     -10.282630      -279.8046
  52   2.0000     -10.282445      -279.7995
  53   2.0000     -10.277567      -279.6668
  54   2.0000     -10.277283      -279.6591
  55   2.0000     -10.275559      -279.6122
  56   2.0000     -10.274761      -279.5905
  57   2.0000     -10.273816      -279.5648
  58   2.0000     -10.273281      -279.5502
  59   2.0000     -10.271450      -279.5004
  60   2.0000     -10.270150      -279.4650
  61   2.0000     -10.262942      -279.2689
  62   2.0000     -10.262647      -279.2608
  63   2.0000     -10.262193      -279.2485
  64   2.0000     -10.262043      -279.2444
  65   2.0000     -10.261945      -279.2417
  66   2.0000     -10.261705      -279.2352
  67   2.0000     -10.260488      -279.2021
  68   2.0000     -10.260019      -279.1893
  69   2.0000     -10.258455      -279.1468
  70   2.0000     -10.257951      -279.1330
  71   2.0000     -10.257634      -279.1244
  72   2.0000     -10.257463      -279.1198
  73   2.0000     -10.255187      -279.0578
  74   2.0000     -10.251381      -278.9543
  75   2.0000     -10.243778      -278.7474
  76   2.0000      -8.792112      -239.2455
  77   2.0000      -8.080886      -219.8921
  78   2.0000      -8.073454      -219.6899
  79   2.0000      -8.058361      -219.2791
  80   2.0000      -8.051364      -219.0888
  81   2.0000      -6.628471      -180.3699
  82   2.0000      -6.613813      -179.9710
  83   2.0000      -6.613611      -179.9655
  84   2.0000      -6.050501      -164.6425
  85   2.0000      -6.046209      -164.5257
  86   2.0000      -6.043101      -164.4411
  87   2.0000      -6.042358      -164.4209
  88   2.0000      -6.038821      -164.3247
  89   2.0000      -6.034778      -164.2147
  90   2.0000      -6.027230      -164.0093
  91   2.0000      -6.023068      -163.8960
  92   2.0000      -6.021473      -163.8526
  93   2.0000      -6.020779      -163.8337
  94   2.0000      -6.016548      -163.7186
  95   2.0000      -6.013336      -163.6312
  96   2.0000      -2.744339       -74.6773
  97   2.0000      -2.740232       -74.5655
  98   2.0000      -2.740044       -74.5604
  99   2.0000      -2.728417       -74.2440
 100   2.0000      -2.728402       -74.2436
 101   2.0000      -1.317701       -35.8565
 102   2.0000      -1.169605       -31.8266
 103   2.0000      -1.151528       -31.3347
 104   2.0000      -1.148223       -31.2447
 105   2.0000      -1.136620       -30.9290
 106   2.0000      -1.099180       -29.9102
 107   2.0000      -1.070021       -29.1168
 108   2.0000      -1.068427       -29.0734
 109   2.0000      -1.037612       -28.2348
 110   2.0000      -1.025520       -27.9058
 111   2.0000      -1.014545       -27.6072
 112   2.0000      -1.007071       -27.4038
 113   2.0000      -0.995130       -27.0789
 114   2.0000      -0.992757       -27.0143
 115   2.0000      -0.991714       -26.9859
 116   2.0000      -0.978093       -26.6153
 117   2.0000      -0.970221       -26.4011
 118   2.0000      -0.943784       -25.6817
 119   2.0000      -0.938650       -25.5420
 120   2.0000      -0.930229       -25.3128
 121   2.0000      -0.917403       -24.9638
 122   2.0000      -0.912622       -24.8337
 123   2.0000      -0.910577       -24.7781
 124   2.0000      -0.895232       -24.3605
 125   2.0000      -0.890436       -24.2300
 126   2.0000      -0.888984       -24.1905
 127   2.0000      -0.878488       -23.9049
 128   2.0000      -0.877337       -23.8736
 129   2.0000      -0.859595       -23.3908
 130   2.0000      -0.850201       -23.1352
 131   2.0000      -0.845881       -23.0176
 132   2.0000      -0.842173       -22.9167
 133   2.0000      -0.834790       -22.7158
 134   2.0000      -0.832592       -22.6560
 135   2.0000      -0.829408       -22.5693
 136   2.0000      -0.826579       -22.4924
 137   2.0000      -0.823031       -22.3958
 138   2.0000      -0.814917       -22.1750
 139   2.0000      -0.810180       -22.0461
 140   2.0000      -0.793571       -21.5942
 141   2.0000      -0.788347       -21.4520
 142   2.0000      -0.766867       -20.8675
 143   2.0000      -0.764896       -20.8139
 144   2.0000      -0.762131       -20.7386
 145   2.0000      -0.752023       -20.4636
 146   2.0000      -0.736766       -20.0484
 147   2.0000      -0.732766       -19.9396
 148   2.0000      -0.730393       -19.8750
 149   2.0000      -0.716295       -19.4914
 150   2.0000      -0.707976       -19.2650
 151   2.0000      -0.703098       -19.1323
 152   2.0000      -0.700548       -19.0629
 153   2.0000      -0.697279       -18.9739
 154   2.0000      -0.692743       -18.8505
 155   2.0000      -0.692057       -18.8318
 156   2.0000      -0.682547       -18.5730
 157   2.0000      -0.675381       -18.3781
 158   2.0000      -0.671695       -18.2778
 159   2.0000      -0.668954       -18.2032
 160   2.0000      -0.661640       -18.0041
 161   2.0000      -0.658054       -17.9066
 162   2.0000      -0.656563       -17.8660
 163   2.0000      -0.647799       -17.6275
 164   2.0000      -0.645000       -17.5513
 165   2.0000      -0.637772       -17.3547
 166   2.0000      -0.635637       -17.2966
 167   2.0000      -0.633684       -17.2434
 168   2.0000      -0.629527       -17.1303
 169   2.0000      -0.625300       -17.0153
 170   2.0000      -0.621011       -16.8986
 171   2.0000      -0.618339       -16.8259
 172   2.0000      -0.612997       -16.6805
 173   2.0000      -0.603983       -16.4352
 174   2.0000      -0.599388       -16.3102
 175   2.0000      -0.598964       -16.2986
 176   2.0000      -0.593849       -16.1595
 177   2.0000      -0.590358       -16.0645
 178   2.0000      -0.583987       -15.8911
 179   2.0000      -0.582495       -15.8505
 180   2.0000      -0.579617       -15.7722
 181   2.0000      -0.568056       -15.4576
 182   2.0000      -0.565159       -15.3788
 183   2.0000      -0.559391       -15.2218
 184   2.0000      -0.558792       -15.2055
 185   2.0000      -0.556299       -15.1377
 186   2.0000      -0.550200       -14.9717
 187   2.0000      -0.548571       -14.9274
 188   2.0000      -0.542815       -14.7708
 189   2.0000      -0.540967       -14.7205
 190   2.0000      -0.539226       -14.6731
 191   2.0000      -0.537934       -14.6379
 192   2.0000      -0.534758       -14.5515
 193   2.0000      -0.529002       -14.3949
 194   2.0000      -0.527766       -14.3612
 195   2.0000      -0.526060       -14.3148
 196   2.0000      -0.523596       -14.2478
 197   2.0000      -0.522396       -14.2151
 198   2.0000      -0.519868       -14.1463
 199   2.0000      -0.515098       -14.0165
 200   2.0000      -0.511979       -13.9317
 201   2.0000      -0.510148       -13.8818
 202   2.0000      -0.507591       -13.8122
 203   2.0000      -0.505160       -13.7461
 204   2.0000      -0.501474       -13.6458
 205   2.0000      -0.499776       -13.5996
 206   2.0000      -0.498497       -13.5648
 207   2.0000      -0.496592       -13.5130
 208   2.0000      -0.496132       -13.5004
 209   2.0000      -0.495382       -13.4800
 210   2.0000      -0.490849       -13.3567
 211   2.0000      -0.489341       -13.3156
 212   2.0000      -0.486883       -13.2488
 213   2.0000      -0.482625       -13.1329
 214   2.0000      -0.482206       -13.1215
 215   2.0000      -0.479593       -13.0504
 216   2.0000      -0.478379       -13.0174
 217   2.0000      -0.477626       -12.9969
 218   2.0000      -0.476283       -12.9603
 219   2.0000      -0.471047       -12.8178
 220   2.0000      -0.466796       -12.7022
 221   2.0000      -0.465188       -12.6584
 222   2.0000      -0.461695       -12.5634
 223   2.0000      -0.461050       -12.5458
 224   2.0000      -0.458898       -12.4872
 225   2.0000      -0.452867       -12.3231
 226   2.0000      -0.452046       -12.3008
 227   2.0000      -0.450889       -12.2693
 228   2.0000      -0.448902       -12.2152
 229   2.0000      -0.446044       -12.1375
 230   2.0000      -0.444342       -12.0912
 231   2.0000      -0.442974       -12.0539
 232   2.0000      -0.440820       -11.9953
 233   2.0000      -0.439546       -11.9606
 234   2.0000      -0.434080       -11.8119
 235   2.0000      -0.431791       -11.7496
 236   2.0000      -0.430536       -11.7155
 237   2.0000      -0.428209       -11.6522
 238   2.0000      -0.427501       -11.6329
 239   2.0000      -0.426201       -11.5975
 240   2.0000      -0.424470       -11.5504
 241   2.0000      -0.420498       -11.4423
 242   2.0000      -0.418172       -11.3790
 243   2.0000      -0.416194       -11.3252
 244   2.0000      -0.413493       -11.2517
 245   2.0000      -0.410914       -11.1815
 246   2.0000      -0.409833       -11.1521
 247   2.0000      -0.407456       -11.0874
 248   2.0000      -0.405309       -11.0290
 249   2.0000      -0.393681       -10.7126
 250   2.0000      -0.390486       -10.6257
 251   2.0000      -0.386095       -10.5062
 252   2.0000      -0.384284       -10.4569
 253   2.0000      -0.381006       -10.3677
 254   2.0000      -0.375959       -10.2304
 255   2.0000      -0.374288       -10.1849
 256   2.0000      -0.374119       -10.1803
 257   2.0000      -0.372303       -10.1309
 258   2.0000      -0.368905       -10.0384
 259   2.0000      -0.367107        -9.9895
 260   2.0000      -0.365451        -9.9444
 261   2.0000      -0.362988        -9.8774
 262   2.0000      -0.356871        -9.7110
 263   2.0000      -0.343201        -9.3390
 264   2.0000      -0.338987        -9.2243
 265   2.0000      -0.331533        -9.0215
 266   2.0000      -0.323740        -8.8094
 267   2.0000      -0.319891        -8.7047
 268   2.0000      -0.314133        -8.5480
 269   2.0000      -0.313300        -8.5253
 270   2.0000      -0.306577        -8.3424
 271   2.0000      -0.304261        -8.2794
 272   2.0000      -0.297083        -8.0840
 273   2.0000      -0.290387        -7.9018
 274   2.0000      -0.282914        -7.6985
 275   2.0000      -0.253368        -6.8945
 276   2.0000      -0.244764        -6.6604
 277   2.0000      -0.223445        -6.0802
 278   0.0000      -0.086295        -2.3482
 279   0.0000      -0.070485        -1.9180
 280   0.0000      -0.054778        -1.4906
 281   0.0000      -0.039178        -1.0661
 282   0.0000      -0.010365        -0.2821

MULLIKEN ATOMIC CHARGES
-----------------------
   0 C :    0.326832
   1 C :   -0.355134
   2 C :   -0.182425
   3 N :    0.154945
   4 C :   -0.198739
   5 N :    0.148302
   6 C :    0.010800
   7 C :    0.007762
   8 C :   -0.081744
   9 C :    0.119844
  10 C :   -0.099808
  11 C :   -0.023310
  12 S :    0.203892
  13 C :   -0.122591
  14 C :    0.033269
  15 Br:    0.031652
  16 C :    0.159351
  17 O :   -0.228909
  18 C :   -0.128639
  19 C :    0.040595
  20 N :   -0.010562
  21 C :   -0.126617
  22 S :    0.180569
  23 C :    0.001265
  24 N :    0.273316
  25 O :   -0.253057
  26 O :   -0.256855
  27 C :   -0.009031
  28 C :    0.153723
  29 C :   -0.124500
  30 C :    0.032602
  31 N :   -0.073654
  32 C :    0.093179
  33 C :   -0.168963
  34 S :    0.111005
  35 C :   -0.202046
  36 C :    0.120573
  37 N :   -0.041682
  38 C :    0.082281
  39 C :   -0.060741
  40 C :    0.140044
  41 C :   -0.126193
  42 C :    0.054804
  43 C :    0.074900
  44 C :   -0.045160
  45 C :   -0.035042
  46 C :    0.096543
  47 C :    0.040171
  48 C :   -0.122491
  49 C :    0.047836
  50 C :    0.040258
  51 C :    0.045764
  52 C :    0.041081
  53 C :   -0.104743
  54 C :    0.123909
  55 C :   -0.020065
  56 C :   -0.048490
  57 C :   -0.016362
  58 C :    0.012877
  59 C :   -0.102111
  60 S :    0.149119
  61 C :   -0.146583
  62 C :    0.116236
  63 C :    0.145997
  64 C :   -0.079965
  65 C :   -0.087933
  66 C :    0.152811
  67 O :   -0.196982
  68 O :   -0.159592
  69 C :    0.180911
  70 O :   -0.233192
  71 C :   -0.095716
  72 H :   -0.021722
  73 H :   -0.004524
  74 H :   -0.005119
  75 H :    0.041442
  76 H :    0.202797
  77 H :    0.004127
  78 H :    0.027908
  79 H :    0.004031
  80 H :    0.132502
  81 H :    0.004052
  82 H :    0.006642
  83 H :    0.127548
  84 H :    0.002876
  85 H :   -0.035498
  86 H :   -0.057312
  87 H :   -0.038079
  88 H :   -0.036406
  89 H :    0.006499
  90 H :    0.006129
  91 H :    0.004034
  92 H :    0.010499
  93 H :    0.010218
  94 H :    0.007510
  95 H :    0.002781
  96 H :    0.020031
  97 H :    0.009955
  98 H :    0.000726
  99 H :   -0.037449
 100 H :   -0.031422
 101 H :   -0.037953
 102 H :   -0.023435
 103 H :   -0.012633
 104 H :    0.011226
 105 H :    0.000262
 106 H :    0.176590
 107 H :    0.195011
 108 H :   -0.053232
Sum of atomic charges:   -0.0000000

LOEWDIN ATOMIC CHARGES
----------------------
   0 C :    0.079690
   1 C :   -0.149653
   2 C :   -0.017247
   3 N :   -0.055202
   4 C :   -0.019917
   5 N :   -0.053743
   6 C :   -0.020218
   7 C :   -0.053817
   8 C :    0.020405
   9 C :   -0.034675
  10 C :   -0.146379
  11 C :   -0.004590
  12 S :    0.446277
  13 C :   -0.270005
  14 C :   -0.071700
  15 Br:    0.142559
  16 C :    0.096190
  17 O :   -0.172940
  18 C :   -0.148181
  19 C :    0.118632
  20 N :    0.090791
  21 C :   -0.127341
  22 S :    0.469459
  23 C :   -0.200306
  24 N :    0.273214
  25 O :   -0.219270
  26 O :   -0.223374
  27 C :   -0.008088
  28 C :   -0.071586
  29 C :   -0.118689
  30 C :    0.028545
  31 N :    0.008028
  32 C :   -0.044500
  33 C :   -0.215647
  34 S :    0.436659
  35 C :   -0.232989
  36 C :   -0.020964
  37 N :    0.026756
  38 C :    0.041156
  39 C :   -0.106704
  40 C :   -0.014393
  41 C :   -0.040553
  42 C :    0.010426
  43 C :   -0.029168
  44 C :   -0.016403
  45 C :   -0.031031
  46 C :   -0.010626
  47 C :    0.004747
  48 C :   -0.030733
  49 C :   -0.014778
  50 C :   -0.060412
  51 C :   -0.016763
  52 C :   -0.060814
  53 C :   -0.015475
  54 C :   -0.031513
  55 C :   -0.016307
  56 C :   -0.023786
  57 C :   -0.011576
  58 C :   -0.046683
  59 C :   -0.161324
  60 S :    0.484347
  61 C :   -0.215991
  62 C :   -0.039323
  63 C :   -0.063707
  64 C :    0.050946
  65 C :   -0.114247
  66 C :    0.080247
  67 O :   -0.182975
  68 O :   -0.032999
  69 C :    0.059138
  70 O :   -0.054093
  71 C :   -0.084350
  72 H :    0.038190
  73 H :    0.041518
  74 H :    0.038135
  75 H :    0.037436
  76 H :    0.083502
  77 H :    0.041384
  78 H :    0.031736
  79 H :    0.025790
  80 H :    0.088881
  81 H :    0.021333
  82 H :    0.016495
  83 H :    0.081677
  84 H :    0.022726
  85 H :    0.020286
  86 H :    0.015279
  87 H :    0.025888
  88 H :    0.023124
  89 H :    0.028043
  90 H :    0.020976
  91 H :    0.018338
  92 H :    0.028181
  93 H :    0.020208
  94 H :    0.028273
  95 H :    0.014737
  96 H :    0.027088
  97 H :    0.025454
  98 H :    0.019122
  99 H :    0.021677
 100 H :    0.025056
 101 H :    0.025933
 102 H :    0.020352
 103 H :    0.032352
 104 H :    0.020992
 105 H :    0.038424
 106 H :    0.062018
 107 H :    0.104057
 108 H :    0.024876

  Mayer bond orders larger than 0.100000
B(  0-C ,  1-C ) :   1.6293 B(  0-C ,  6-C ) :   0.9951 B(  0-C , 18-C ) :   1.1047
B(  1-C ,  2-C ) :   1.1598 B(  1-C ,  4-C ) :   1.1466 B(  2-C ,  3-N ) :   2.9208
B(  4-C ,  5-N ) :   2.9565 B(  6-C ,  7-C ) :   1.2765 B(  6-C , 11-C ) :   1.4204
B(  7-C ,  8-C ) :   1.4182 B(  7-C , 16-C ) :   0.9831 B(  8-C ,  9-C ) :   1.2334
B(  8-C , 72-H ) :   1.0195 B(  9-C , 10-C ) :   1.3072 B(  9-C , 14-C ) :   1.1648
B( 10-C , 11-C ) :   1.3191 B( 10-C , 12-S ) :   1.0946 B( 11-C , 73-H ) :   0.9827
B( 12-S , 13-C ) :   1.0898 B( 13-C , 14-C ) :   1.6128 B( 13-C , 15-Br) :   1.0236
B( 14-C , 74-H ) :   1.0005 B( 16-C , 17-O ) :   1.9799 B( 16-C , 18-C ) :   1.0244
B( 17-O , 76-H ) :   0.1373 B( 18-C , 19-C ) :   1.4186 B( 19-C , 20-N ) :   1.3690
B( 19-C , 75-H ) :   0.9320 B( 20-N , 21-C ) :   1.1843 B( 20-N , 76-H ) :   0.8113
B( 21-C , 22-S ) :   1.1209 B( 21-C , 28-C ) :   1.3852 B( 22-S , 23-C ) :   1.0937
B( 23-C , 24-N ) :   0.9666 B( 23-C , 27-C ) :   1.4883 B( 24-N , 25-O ) :   1.5303
B( 24-N , 26-O ) :   1.5173 B( 25-O , 26-O ) :   0.2603 B( 27-C , 28-C ) :   1.2279
B( 27-C , 77-H ) :   1.0005 B( 28-C , 29-C ) :   1.0904 B( 29-C , 30-C ) :   1.6961
B( 29-C , 78-H ) :   0.9489 B( 30-C , 31-N ) :   1.1665 B( 30-C , 79-H ) :   0.9713
B( 31-N , 32-C ) :   1.0439 B( 31-N , 80-H ) :   0.9257 B( 32-C , 33-C ) :   1.5338
B( 32-C , 36-C ) :   1.2446 B( 33-C , 34-S ) :   1.1716 B( 33-C , 81-H ) :   0.9784
B( 34-S , 35-C ) :   1.1358 B( 35-C , 36-C ) :   1.5261 B( 35-C , 82-H ) :   0.9671
B( 36-C , 37-N ) :   1.1538 B( 37-N , 38-C ) :   1.1464 B( 37-N , 83-H ) :   0.9152
B( 38-C , 39-C ) :   1.6873 B( 38-C , 84-H ) :   0.9629 B( 39-C , 40-C ) :   1.0783
B( 39-C , 85-H ) :   0.9672 B( 40-C , 41-C ) :   1.3065 B( 40-C , 45-C ) :   1.3394
B( 41-C , 42-C ) :   1.4073 B( 41-C , 86-H ) :   0.9861 B( 42-C , 43-C ) :   1.3806
B( 42-C , 48-C ) :   0.9281 B( 43-C , 44-C ) :   1.3393 B( 43-C , 46-C ) :   1.0003
B( 44-C , 45-C ) :   1.3758 B( 44-C , 87-H ) :   0.9918 B( 45-C , 88-H ) :   0.9944
B( 46-C , 47-C ) :   1.3745 B( 46-C , 56-C ) :   1.3422 B( 47-C , 48-C ) :   0.9283
B( 47-C , 53-C ) :   1.4208 B( 48-C , 49-C ) :   1.0137 B( 48-C , 51-C ) :   1.0016
B( 49-C , 50-C ) :   1.1152 B( 49-C , 89-H ) :   0.9398 B( 49-C , 90-H ) :   0.9385
B( 50-C , 91-H ) :   0.9587 B( 50-C , 92-H ) :   0.9549 B( 50-C , 93-H ) :   0.9618
B( 51-C , 52-C ) :   1.1138 B( 51-C , 94-H ) :   0.9281 B( 51-C , 95-H ) :   0.9384
B( 52-C , 96-H ) :   0.9527 B( 52-C , 97-H ) :   0.9509 B( 52-C , 98-H ) :   0.9574
B( 53-C , 54-C ) :   1.2957 B( 53-C , 99-H ) :   0.9865 B( 54-C , 55-C ) :   1.3338
B( 54-C , 57-C ) :   1.0794 B( 55-C , 56-C ) :   1.3733 B( 55-C ,100-H ) :   0.9941
B( 56-C ,101-H ) :   0.9904 B( 57-C , 58-C ) :   1.6656 B( 57-C ,102-H ) :   0.9839
B( 58-C , 59-C ) :   1.1717 B( 58-C ,103-H ) :   0.9601 B( 59-C , 60-S ) :   1.1829
B( 59-C , 61-C ) :   0.1046 B( 59-C , 63-C ) :   1.3217 B( 60-S , 61-C ) :   1.1641
B( 61-C , 62-C ) :   1.4464 B( 61-C ,104-H ) :   0.9699 B( 62-C , 63-C ) :   1.1917
B( 62-C , 71-C ) :   1.1485 B( 63-C , 64-C ) :   1.1542 B( 64-C , 65-C ) :   1.5686
B( 64-C ,105-H ) :   0.9908 B( 65-C , 66-C ) :   0.8742 B( 65-C , 69-C ) :   1.1440
B( 66-C , 67-O ) :   2.1442 B( 66-C , 68-O ) :   1.2944 B( 68-O ,106-H ) :   0.9204
B( 69-C , 70-O ) :   1.1032 B( 69-C , 71-C ) :   1.5304 B( 70-O ,106-H ) :   0.1020
B( 70-O ,107-H ) :   0.9488 B( 71-C ,108-H ) :   0.9891

-----------------------------------------------------------------------------
         ABSORPTION SPECTRUM VIA TRANSITION ELECTRIC DIPOLE MOMENTS
-----------------------------------------------------------------------------
State   Energy  Wavelength   fosc         T2         TX        TY        TZ
        (cm-1)    (nm)                  (au**2)     (au)      (au)      (au)
-----------------------------------------------------------------------------
   0   15373.1    650.5   0.002798511   0.05993   0.04493  -0.21660   0.10485
   1   17535.8    570.3   0.004950254   0.09293   0.29218  -0.06136  -0.06164
   2   20008.5    499.8   0.571579690   9.40455  -1.47896   2.23734  -1.48712
   3   21958.6    455.4   1.239496735  18.58298  -2.91932   3.12939  -0.51717
   4   22526.5    443.9   0.033662569   0.49196   0.13504   0.39266   0.56528
   5   22831.8    438.0   0.002860583   0.04125   0.03460   0.08450   0.18141
   6   25745.7    388.4   0.002545016   0.03254   0.12215  -0.02134   0.13102
   7   26409.4    378.7   0.002154930   0.02686   0.11025   0.07803   0.09284
   8   28072.0    356.2   0.143136436   1.67862  -0.26777   0.70395  -1.05422
   9   28235.5    354.2   0.184902977   2.15588   1.14048  -0.92126  -0.08031
  10   29076.8    343.9   0.266528607   3.01768   0.71020   0.62365   1.45752
  11   29467.6    339.4   0.212952405   2.37910   0.89536  -0.14515   1.24754
  12   29875.3    334.7   0.237364200   2.61564   0.93872   0.14870   1.30856
  13   29948.8    333.9   0.024263637   0.26672   0.30208   0.05963   0.41462
  14   30891.4    323.7   0.503680375   5.36776  -1.60572   1.48702   0.76038
  15   31330.5    319.2   0.345076627   3.62597   0.89789   0.22926   1.66349
  16   32075.3    311.8   0.022374040   0.22964  -0.23111  -0.12906  -0.39947
  17   32121.3    311.3   0.003243852   0.03325   0.00261  -0.02755   0.18022
  18   32276.6    309.8   0.001179727   0.01203  -0.07076  -0.00169  -0.08381
  19   33898.1    295.0   0.028593671   0.27770  -0.27535   0.28223  -0.34961
  20   34025.2    293.9   0.001742172   0.01686  -0.00933  -0.12864  -0.01484
  21   34256.0    291.9   0.281295753   2.70335  -0.48578  -1.16850  -1.04975
  22   34347.9    291.1   0.022802767   0.21856  -0.08255  -0.38727  -0.24852
  23   34401.7    290.7   0.004868584   0.04659   0.06063   0.10469   0.17876
  24   34587.3    289.1   0.117334159   1.11682  -0.51472   0.87922  -0.28081
  25   35041.3    285.4   0.002859052   0.02686  -0.07552   0.04851  -0.13713
  26   35296.1    283.3   0.003408857   0.03179  -0.09084  -0.03613  -0.14912
  27   35592.2    281.0   0.304353677   2.81513   0.27673  -0.28668   1.62984
  28   35879.7    278.7   0.012572952   0.11536   0.29560   0.08414  -0.14458
  29   35963.3    278.1   0.019346497   0.17710  -0.29980   0.12021   0.26976
  30   36305.7    275.4   0.040246033   0.36494  -0.41880   0.34164   0.26988
  31   36846.4    271.4   0.032434370   0.28979  -0.22466   0.47486   0.11758
  32   37211.6    268.7   0.011065664   0.09790   0.13683  -0.25998  -0.10765
  33   37340.8    267.8   0.227394114   2.00480  -0.84219   0.92322  -0.66571
  34   37727.9    265.1   0.726848860   6.34245   0.40418   1.65561   1.85420
  35   38041.7    262.9   0.014417827   0.12477  -0.08506   0.32678  -0.10367
  36   38100.6    262.5   0.021134589   0.18262  -0.02439  -0.38217  -0.18966
  37   38303.3    261.1   0.041646432   0.35795   0.19385  -0.48080   0.29866
  38   38455.6    260.0   0.070660093   0.60491  -0.32581   0.06732   0.70301
  39   39173.9    255.3   0.019286918   0.16208  -0.09224  -0.29385  -0.25929
  40   39232.1    254.9   0.040672390   0.34130   0.00180   0.51004   0.28487
  41   39709.0    251.8   0.047970163   0.39770  -0.40871   0.31765  -0.36022
  42   39801.4    251.2   0.044200171   0.36560  -0.06781   0.49274   0.34382
  43   40012.8    249.9   0.022826057   0.18781  -0.00712   0.36566   0.23248
  44   40233.3    248.6   0.021921427   0.17937  -0.05697   0.40185   0.12100

FINAL SINGLE POINT ENERGY     -7060.500764504603

DIPOLE MOMENT
-------------
                                X             Y             Z
Electronic contribution:     -8.92762     -19.66295      84.61411
Nuclear contribution   :     10.64867      21.98186     -83.20883
                        -----------------------------------------
Total Dipole Moment    :      1.72105       2.31891       1.40528
                        -----------------------------------------
Magnitude (a.u.)       :      3.21157
Magnitude (Debye)      :      8.16316

Rotational constants in cm-1:     0.001103     0.000429     0.000356
Rotational constants in MHz :    33.074858    12.854540    10.667013

                             ****ORCA TERMINATED NORMALLY****
TOTAL RUN TIME: 0 days 0 hours 12 minutes 18 seconds 279 msec
