                         Program Version 4.2.0 -  RELEASE  -
|  1> # ORCA input file
|  2> # SCF done       -202.345648163484          0.000814344235
|  3> ! CAM-B3LYP def2-SVP def2/J RIJCOSX Grid4 TightSCF
|  4> %maxcore 5000
|  5> %tddft
|  6>     Mode sTDDFT
|  7>     Ethresh 5.0
|  8>     maxcore 5000
|  9> end
| 10>
| 11> %pal
| 12>   nprocs 6
| 13>   end
| 14> * xyz 0 1
| 15>    C        4.50472        -4.41950         2.02246
| 16>    S        5.55431        -3.53249         1.00862
| 17>    C        6.91269        -4.54656         1.43818
| 18>    C        6.51934        -5.52966         2.33734
| 19>    C        5.13567        -5.45015         2.66921
| 20>    C        4.48554        -6.33142         3.55690
| 21>    N        3.94992        -7.04506         4.27424
| 22>    C        7.37906        -6.51567         2.85293
| 23>    N        8.05760        -7.33738         3.27383
| 24>    C        8.21544        -4.36287         0.91125
| 25>    C        8.50238        -3.42094        -0.02415
| 26>    C        9.74727        -3.15384        -0.65202
| 27>    C       11.06766        -3.29073        -0.23624
| 28>    N       11.60728        -3.80011         0.96137
| 29>    O       10.91975        -4.50644         1.67803
| 30>    O       12.75710        -3.48691         1.21480
| 31>    C       11.93699        -2.67808        -1.20770
| 32>    C       11.18619        -2.13722        -2.20014
| 33>    C        9.80609        -2.41654        -1.93078
| 34>    C        8.74461        -2.19196        -2.78851
| 35>    C        7.57634        -2.99995        -2.92475
| 36>    C        6.89796        -2.61773        -4.04920
| 37>    C        7.56798        -1.50665        -4.63492
| 38>    N        7.05698        -0.79324        -5.73749
| 39>    O        7.54041         0.29477        -5.99974
| 40>    O        6.14394        -1.30968        -6.35551
| 41>    C        8.70677        -1.20016        -3.88211
| 42>    C        9.56656        -0.11075        -4.07954
| 43>    C       10.27580         0.52050        -3.08545
| 44>    C       11.19013         1.54762        -3.34775
| 45>    N       11.78296         2.33314        -2.38924
| 46>    C       11.60568         2.22742        -0.95912
| 47>    C       12.44876         1.10033        -0.36800
| 48>    C       12.66401         3.26927        -2.94630
| 49>    O       13.29116         4.07784        -2.29381
| 50>    C       12.60640         3.01715        -4.37597
| 51>    C       11.70780         1.96920        -4.59059
| 52>    C       11.70967         1.65136        -6.01170
| 53>    O       11.11976         0.80905        -6.64744
| 54>    N       12.61708         2.56844        -6.56617
| 55>    C       12.93548         2.53385        -7.97653
| 56>    C       14.24316         1.79534        -8.25021
| 57>    C       13.17703         3.38521        -5.61856
| 58>    C       14.16597         4.33260        -5.90520
| 59>    C       14.69668         5.18546        -4.96574
| 60>    C       15.77988         6.05725        -5.16275
| 61>    C       16.71638         6.14961        -6.21397
| 62>    N       17.03836         5.24375        -7.24310
| 63>    O       16.61683         4.09766        -7.19281
| 64>    O       17.75597         5.65764        -8.13650
| 65>    C       17.49841         7.32758        -6.04538
| 66>    C       17.05495         8.00227        -4.94603
| 67>    C       16.01110         7.24626        -4.32578
| 68>    C       15.39465         7.59937        -3.13324
| 69>    C       14.94007         6.75025        -2.08715
| 70>    C       14.67847         7.51225        -0.98236
| 71>    C       14.87961         8.89091        -1.30609
| 72>    N       14.58693         9.94141        -0.41417
| 73>    O       14.62308        11.08614        -0.83412
| 74>    O       14.30674         9.63676         0.73015
| 75>    C       15.30193         8.99209        -2.62688
| 76>    C       15.47144        10.17567        -3.37381
| 77>    C       15.29608        10.26735        -4.72430
| 78>    C       15.53323        11.42534        -5.49873
| 79>    S       14.95384        11.48221        -7.14286
| 80>    C       15.59610        13.07009        -7.38973
| 81>    C       16.23956        13.52642        -6.24647
| 82>    C       16.21320        12.59867        -5.17516
| 83>    C       16.88652        12.84161        -3.96484
| 84>    N       17.48697        13.05670        -3.01212
| 85>    C       16.86373        14.78633        -6.17089
| 86>    N       17.37292        15.81151        -6.12395
| 87>    C       15.46883        13.78596        -8.62545
| 88>    C       14.86262        13.30740        -9.71128
| 89>    H        3.47007        -4.14679         2.09948
| 90>    H        8.97710        -5.03296         1.28362
| 91>    H        7.68170        -2.80616        -0.37847
| 92>    H       13.00716        -2.68544        -1.12202
| 93>    H       11.55161        -1.68433        -3.10067
| 94>    H        7.35030        -3.85773        -2.32169
| 95>    H        6.00324        -3.05489        -4.45093
| 96>    H        9.60649         0.29099        -5.08672
| 97>    H       10.09623         0.24951        -2.05462
| 98>    H       10.54546         2.08425        -0.73577
| 99>    H       11.92799         3.18430        -0.53987
|100>    H       12.17497         0.13662        -0.79210
|101>    H       12.30576         1.06054         0.70785
|102>    H       13.50203         1.27924        -0.56855
|103>    H       12.97368         3.55470        -8.36445
|104>    H       12.10714         2.00560        -8.45682
|105>    H       15.09155         2.29882        -7.79289
|106>    H       14.40897         1.74371        -9.32238
|107>    H       14.18580         0.78173        -7.86131
|108>    H       14.52796         4.35800        -6.91914
|109>    H       14.22345         5.21648        -3.99540
|110>    H       18.31647         7.59305        -6.68790
|111>    H       17.49508         8.88697        -4.52961
|112>    H       14.91457         5.67963        -2.10940
|113>    H       14.36782         7.16673        -0.01451
|114>    H       15.66986        11.07335        -2.80069
|115>    H       14.89500         9.42088        -5.26700
|116>    H       15.91244        14.77348        -8.62615
|117>    H       14.41862        12.32481        -9.72514
|118>    H       14.79545        13.88381       -10.61594
|119> *
|120>
|121>                          ****END OF INPUT****

CARTESIAN COORDINATES (ANGSTROEM)
---------------------------------
  C      4.504720   -4.419500    2.022460
  S      5.554310   -3.532490    1.008620
  C      6.912690   -4.546560    1.438180
  C      6.519340   -5.529660    2.337340
  C      5.135670   -5.450150    2.669210
  C      4.485540   -6.331420    3.556900
  N      3.949920   -7.045060    4.274240
  C      7.379060   -6.515670    2.852930
  N      8.057600   -7.337380    3.273830
  C      8.215440   -4.362870    0.911250
  C      8.502380   -3.420940   -0.024150
  C      9.747270   -3.153840   -0.652020
  C     11.067660   -3.290730   -0.236240
  N     11.607280   -3.800110    0.961370
  O     10.919750   -4.506440    1.678030
  O     12.757100   -3.486910    1.214800
  C     11.936990   -2.678080   -1.207700
  C     11.186190   -2.137220   -2.200140
  C      9.806090   -2.416540   -1.930780
  C      8.744610   -2.191960   -2.788510
  C      7.576340   -2.999950   -2.924750
  C      6.897960   -2.617730   -4.049200
  C      7.567980   -1.506650   -4.634920
  N      7.056980   -0.793240   -5.737490
  O      7.540410    0.294770   -5.999740
  O      6.143940   -1.309680   -6.355510
  C      8.706770   -1.200160   -3.882110
  C      9.566560   -0.110750   -4.079540
  C     10.275800    0.520500   -3.085450
  C     11.190130    1.547620   -3.347750
  N     11.782960    2.333140   -2.389240
  C     11.605680    2.227420   -0.959120
  C     12.448760    1.100330   -0.368000
  C     12.664010    3.269270   -2.946300
  O     13.291160    4.077840   -2.293810
  C     12.606400    3.017150   -4.375970
  C     11.707800    1.969200   -4.590590
  C     11.709670    1.651360   -6.011700
  O     11.119760    0.809050   -6.647440
  N     12.617080    2.568440   -6.566170
  C     12.935480    2.533850   -7.976530
  C     14.243160    1.795340   -8.250210
  C     13.177030    3.385210   -5.618560
  C     14.165970    4.332600   -5.905200
  C     14.696680    5.185460   -4.965740
  C     15.779880    6.057250   -5.162750
  C     16.716380    6.149610   -6.213970
  N     17.038360    5.243750   -7.243100
  O     16.616830    4.097660   -7.192810
  O     17.755970    5.657640   -8.136500
  C     17.498410    7.327580   -6.045380
  C     17.054950    8.002270   -4.946030
  C     16.011100    7.246260   -4.325780
  C     15.394650    7.599370   -3.133240
  C     14.940070    6.750250   -2.087150
  C     14.678470    7.512250   -0.982360
  C     14.879610    8.890910   -1.306090
  N     14.586930    9.941410   -0.414170
  O     14.623080   11.086140   -0.834120
  O     14.306740    9.636760    0.730150
  C     15.301930    8.992090   -2.626880
  C     15.471440   10.175670   -3.373810
  C     15.296080   10.267350   -4.724300
  C     15.533230   11.425340   -5.498730
  S     14.953840   11.482210   -7.142860
  C     15.596100   13.070090   -7.389730
  C     16.239560   13.526420   -6.246470
  C     16.213200   12.598670   -5.175160
  C     16.886520   12.841610   -3.964840
  N     17.486970   13.056700   -3.012120
  C     16.863730   14.786330   -6.170890
  N     17.372920   15.811510   -6.123950
  C     15.468830   13.785960   -8.625450
  C     14.862620   13.307400   -9.711280
  H      3.470070   -4.146790    2.099480
  H      8.977100   -5.032960    1.283620
  H      7.681700   -2.806160   -0.378470
  H     13.007160   -2.685440   -1.122020
  H     11.551610   -1.684330   -3.100670
  H      7.350300   -3.857730   -2.321690
  H      6.003240   -3.054890   -4.450930
  H      9.606490    0.290990   -5.086720
  H     10.096230    0.249510   -2.054620
  H     10.545460    2.084250   -0.735770
  H     11.927990    3.184300   -0.539870
  H     12.174970    0.136620   -0.792100
  H     12.305760    1.060540    0.707850
  H     13.502030    1.279240   -0.568550
  H     12.973680    3.554700   -8.364450
  H     12.107140    2.005600   -8.456820
  H     15.091550    2.298820   -7.792890
  H     14.408970    1.743710   -9.322380
  H     14.185800    0.781730   -7.861310
  H     14.527960    4.358000   -6.919140
  H     14.223450    5.216480   -3.995400
  H     18.316470    7.593050   -6.687900
  H     17.495080    8.886970   -4.529610
  H     14.914570    5.679630   -2.109400
  H     14.367820    7.166730   -0.014510
  H     15.669860   11.073350   -2.800690
  H     14.895000    9.420880   -5.267000
  H     15.912440   14.773480   -8.626150
  H     14.418620   12.324810   -9.725140
  H     14.795450   13.883810  -10.615940

 Total Charge           Charge          ....    0
 Multiplicity           Mult            ....    1
 Number of Electrons    NEL             ....  524
 Basis Dimension        Dim             .... 1194

ORBITAL ENERGIES
----------------

  NO   OCC          E(Eh)            E(eV)
   0   2.0000     -89.006880     -2422.0003
   1   2.0000     -89.006642     -2421.9939
   2   2.0000     -19.256274      -523.9899
   3   2.0000     -19.254589      -523.9440
   4   2.0000     -19.252229      -523.8798
   5   2.0000     -19.249931      -523.8173
   6   2.0000     -19.244649      -523.6735
   7   2.0000     -19.243924      -523.6538
   8   2.0000     -19.243746      -523.6490
   9   2.0000     -19.243692      -523.6475
  10   2.0000     -19.219535      -522.9901
  11   2.0000     -19.218050      -522.9497
  12   2.0000     -14.664501      -399.0414
  13   2.0000     -14.659983      -398.9184
  14   2.0000     -14.653668      -398.7466
  15   2.0000     -14.653352      -398.7380
  16   2.0000     -14.478819      -393.9887
  17   2.0000     -14.476982      -393.9387
  18   2.0000     -14.429142      -392.6369
  19   2.0000     -14.426352      -392.5610
  20   2.0000     -14.422593      -392.4587
  21   2.0000     -14.421961      -392.4415
  22   2.0000     -10.401527      -283.0399
  23   2.0000     -10.399616      -282.9879
  24   2.0000     -10.366900      -282.0977
  25   2.0000     -10.362845      -281.9874
  26   2.0000     -10.358696      -281.8744
  27   2.0000     -10.357491      -281.8417
  28   2.0000     -10.353654      -281.7373
  29   2.0000     -10.351419      -281.6764
  30   2.0000     -10.349542      -281.6254
  31   2.0000     -10.348510      -281.5973
  32   2.0000     -10.347655      -281.5740
  33   2.0000     -10.347538      -281.5708
  34   2.0000     -10.347264      -281.5634
  35   2.0000     -10.347246      -281.5629
  36   2.0000     -10.345386      -281.5123
  37   2.0000     -10.344873      -281.4983
  38   2.0000     -10.344224      -281.4806
  39   2.0000     -10.343592      -281.4634
  40   2.0000     -10.339395      -281.3493
  41   2.0000     -10.338828      -281.3338
  42   2.0000     -10.337456      -281.2965
  43   2.0000     -10.335075      -281.2317
  44   2.0000     -10.334854      -281.2257
  45   2.0000     -10.333518      -281.1893
  46   2.0000     -10.330847      -281.1166
  47   2.0000     -10.329035      -281.0673
  48   2.0000     -10.327692      -281.0308
  49   2.0000     -10.325173      -280.9622
  50   2.0000     -10.322974      -280.9024
  51   2.0000     -10.322103      -280.8787
  52   2.0000     -10.321477      -280.8617
  53   2.0000     -10.320902      -280.8460
  54   2.0000     -10.320702      -280.8406
  55   2.0000     -10.319941      -280.8199
  56   2.0000     -10.318927      -280.7923
  57   2.0000     -10.318387      -280.7776
  58   2.0000     -10.317525      -280.7541
  59   2.0000     -10.317405      -280.7509
  60   2.0000     -10.315527      -280.6998
  61   2.0000     -10.315230      -280.6917
  62   2.0000     -10.313939      -280.6566
  63   2.0000     -10.309415      -280.5335
  64   2.0000     -10.307827      -280.4902
  65   2.0000     -10.306294      -280.4485
  66   2.0000     -10.302163      -280.3361
  67   2.0000     -10.301475      -280.3174
  68   2.0000     -10.301194      -280.3098
  69   2.0000     -10.294778      -280.1351
  70   2.0000     -10.293451      -280.0990
  71   2.0000     -10.293424      -280.0983
  72   2.0000     -10.279430      -279.7175
  73   2.0000     -10.268426      -279.4181
  74   2.0000      -8.102412      -220.4778
  75   2.0000      -8.102290      -220.4745
  76   2.0000      -6.071523      -165.2145
  77   2.0000      -6.071423      -165.2118
  78   2.0000      -6.067348      -165.1009
  79   2.0000      -6.067267      -165.0987
  80   2.0000      -6.064971      -165.0362
  81   2.0000      -6.064543      -165.0246
  82   2.0000      -1.334665       -36.3181
  83   2.0000      -1.331085       -36.2207
  84   2.0000      -1.324099       -36.0306
  85   2.0000      -1.323864       -36.0242
  86   2.0000      -1.161424       -31.6039
  87   2.0000      -1.154940       -31.4275
  88   2.0000      -1.151004       -31.3204
  89   2.0000      -1.148255       -31.2456
  90   2.0000      -1.141852       -31.0714
  91   2.0000      -1.141686       -31.0669
  92   2.0000      -1.091107       -29.6905
  93   2.0000      -1.081926       -29.4407
  94   2.0000      -1.047664       -28.5084
  95   2.0000      -1.042958       -28.3803
  96   2.0000      -1.033164       -28.1138
  97   2.0000      -1.031710       -28.0743
  98   2.0000      -1.011824       -27.5331
  99   2.0000      -1.011021       -27.5113
 100   2.0000      -1.009177       -27.4611
 101   2.0000      -1.005716       -27.3669
 102   2.0000      -1.002982       -27.2925
 103   2.0000      -1.000736       -27.2314
 104   2.0000      -0.952908       -25.9299
 105   2.0000      -0.948930       -25.8217
 106   2.0000      -0.938652       -25.5420
 107   2.0000      -0.935706       -25.4619
 108   2.0000      -0.930304       -25.3149
 109   2.0000      -0.925319       -25.1792
 110   2.0000      -0.923554       -25.1312
 111   2.0000      -0.918297       -24.9881
 112   2.0000      -0.900881       -24.5142
 113   2.0000      -0.900605       -24.5067
 114   2.0000      -0.894144       -24.3309
 115   2.0000      -0.892685       -24.2912
 116   2.0000      -0.890390       -24.2288
 117   2.0000      -0.881753       -23.9937
 118   2.0000      -0.865904       -23.5624
 119   2.0000      -0.864424       -23.5222
 120   2.0000      -0.859762       -23.3953
 121   2.0000      -0.838869       -22.8268
 122   2.0000      -0.836502       -22.7624
 123   2.0000      -0.833129       -22.6706
 124   2.0000      -0.814014       -22.1504
 125   2.0000      -0.811245       -22.0751
 126   2.0000      -0.789314       -21.4783
 127   2.0000      -0.777368       -21.1533
 128   2.0000      -0.776020       -21.1166
 129   2.0000      -0.758023       -20.6269
 130   2.0000      -0.751760       -20.4564
 131   2.0000      -0.748440       -20.3661
 132   2.0000      -0.744333       -20.2543
 133   2.0000      -0.743998       -20.2452
 134   2.0000      -0.738206       -20.0876
 135   2.0000      -0.735896       -20.0247
 136   2.0000      -0.727308       -19.7911
 137   2.0000      -0.721928       -19.6447
 138   2.0000      -0.716340       -19.4926
 139   2.0000      -0.711446       -19.3594
 140   2.0000      -0.697456       -18.9788
 141   2.0000      -0.688718       -18.7410
 142   2.0000      -0.687152       -18.6984
 143   2.0000      -0.683323       -18.5942
 144   2.0000      -0.675796       -18.3893
 145   2.0000      -0.672515       -18.3001
 146   2.0000      -0.666139       -18.1266
 147   2.0000      -0.657668       -17.8961
 148   2.0000      -0.654480       -17.8093
 149   2.0000      -0.651650       -17.7323
 150   2.0000      -0.645102       -17.5541
 151   2.0000      -0.641251       -17.4493
 152   2.0000      -0.641194       -17.4478
 153   2.0000      -0.636580       -17.3222
 154   2.0000      -0.635250       -17.2860
 155   2.0000      -0.635060       -17.2809
 156   2.0000      -0.633557       -17.2400
 157   2.0000      -0.631614       -17.1871
 158   2.0000      -0.627149       -17.0656
 159   2.0000      -0.623179       -16.9576
 160   2.0000      -0.617462       -16.8020
 161   2.0000      -0.615156       -16.7392
 162   2.0000      -0.608781       -16.5658
 163   2.0000      -0.607038       -16.5183
 164   2.0000      -0.605163       -16.4673
 165   2.0000      -0.600586       -16.3428
 166   2.0000      -0.597945       -16.2709
 167   2.0000      -0.594671       -16.1818
 168   2.0000      -0.588745       -16.0206
 169   2.0000      -0.585638       -15.9360
 170   2.0000      -0.579446       -15.7675
 171   2.0000      -0.578369       -15.7382
 172   2.0000      -0.572339       -15.5741
 173   2.0000      -0.569920       -15.5083
 174   2.0000      -0.567212       -15.4346
 175   2.0000      -0.566036       -15.4026
 176   2.0000      -0.561162       -15.2700
 177   2.0000      -0.554559       -15.0903
 178   2.0000      -0.552506       -15.0344
 179   2.0000      -0.551326       -15.0024
 180   2.0000      -0.548929       -14.9371
 181   2.0000      -0.547873       -14.9084
 182   2.0000      -0.545420       -14.8416
 183   2.0000      -0.542875       -14.7724
 184   2.0000      -0.541328       -14.7303
 185   2.0000      -0.540762       -14.7149
 186   2.0000      -0.534053       -14.5323
 187   2.0000      -0.531350       -14.4588
 188   2.0000      -0.528491       -14.3810
 189   2.0000      -0.527474       -14.3533
 190   2.0000      -0.521602       -14.1935
 191   2.0000      -0.520197       -14.1553
 192   2.0000      -0.518721       -14.1151
 193   2.0000      -0.515011       -14.0142
 194   2.0000      -0.513526       -13.9738
 195   2.0000      -0.509005       -13.8507
 196   2.0000      -0.506079       -13.7711
 197   2.0000      -0.502708       -13.6794
 198   2.0000      -0.501224       -13.6390
 199   2.0000      -0.497709       -13.5433
 200   2.0000      -0.496560       -13.5121
 201   2.0000      -0.494223       -13.4485
 202   2.0000      -0.492372       -13.3981
 203   2.0000      -0.491027       -13.3615
 204   2.0000      -0.487593       -13.2681
 205   2.0000      -0.485134       -13.2012
 206   2.0000      -0.483273       -13.1505
 207   2.0000      -0.481178       -13.0935
 208   2.0000      -0.477435       -12.9917
 209   2.0000      -0.472897       -12.8682
 210   2.0000      -0.468169       -12.7395
 211   2.0000      -0.467751       -12.7282
 212   2.0000      -0.465962       -12.6795
 213   2.0000      -0.465587       -12.6693
 214   2.0000      -0.463510       -12.6128
 215   2.0000      -0.459184       -12.4950
 216   2.0000      -0.457976       -12.4622
 217   2.0000      -0.455840       -12.4040
 218   2.0000      -0.453659       -12.3447
 219   2.0000      -0.452463       -12.3121
 220   2.0000      -0.451877       -12.2962
 221   2.0000      -0.450816       -12.2673
 222   2.0000      -0.450445       -12.2572
 223   2.0000      -0.448228       -12.1969
 224   2.0000      -0.446435       -12.1481
 225   2.0000      -0.445265       -12.1163
 226   2.0000      -0.436777       -11.8853
 227   2.0000      -0.431938       -11.7536
 228   2.0000      -0.429274       -11.6811
 229   2.0000      -0.428855       -11.6697
 230   2.0000      -0.425210       -11.5706
 231   2.0000      -0.423170       -11.5150
 232   2.0000      -0.417294       -11.3551
 233   2.0000      -0.406933       -11.0732
 234   2.0000      -0.399909       -10.8821
 235   2.0000      -0.398296       -10.8382
 236   2.0000      -0.396609       -10.7923
 237   2.0000      -0.394396       -10.7321
 238   2.0000      -0.391293       -10.6476
 239   2.0000      -0.389684       -10.6038
 240   2.0000      -0.386664       -10.5217
 241   2.0000      -0.385138       -10.4801
 242   2.0000      -0.382371       -10.4048
 243   2.0000      -0.380904       -10.3649
 244   2.0000      -0.378570       -10.3014
 245   2.0000      -0.375315       -10.2128
 246   2.0000      -0.375025       -10.2049
 247   2.0000      -0.371007       -10.0956
 248   2.0000      -0.370553       -10.0833
 249   2.0000      -0.359148        -9.7729
 250   2.0000      -0.357071        -9.7164
 251   2.0000      -0.356307        -9.6956
 252   2.0000      -0.353838        -9.6284
 253   2.0000      -0.351415        -9.5625
 254   2.0000      -0.350844        -9.5470
 255   2.0000      -0.342563        -9.3216
 256   2.0000      -0.335007        -9.1160
 257   2.0000      -0.321681        -8.7534
 258   2.0000      -0.314467        -8.5571
 259   2.0000      -0.292740        -7.9659
 260   2.0000      -0.285375        -7.7654
 261   2.0000      -0.251186        -6.8351
 262   0.0000      -0.164247        -4.4694
 263   0.0000      -0.146848        -3.9959
 264   0.0000      -0.105503        -2.8709
 265   0.0000      -0.085754        -2.3335
 266   0.0000      -0.071972        -1.9585

MULLIKEN ATOMIC CHARGES
-----------------------
   0 C :   -0.063908
   1 S :    0.158015
   2 C :   -0.105835
   3 C :    0.014083
   4 C :   -0.054243
   5 C :   -0.197163
   6 N :    0.196072
   7 C :   -0.252123
   8 N :    0.222369
   9 C :    0.029811
  10 C :   -0.108205
  11 C :    0.091291
  12 C :    0.067584
  13 N :    0.269901
  14 O :   -0.240890
  15 O :   -0.240805
  16 C :    0.027876
  17 C :   -0.005159
  18 C :    0.002993
  19 C :    0.039767
  20 C :   -0.024272
  21 C :    0.024333
  22 C :    0.092795
  23 N :    0.270865
  24 O :   -0.242824
  25 O :   -0.248265
  26 C :    0.047941
  27 C :   -0.020609
  28 C :   -0.054549
  29 C :    0.138030
  30 N :   -0.249940
  31 C :    0.098650
  32 C :    0.005160
  33 C :    0.164359
  34 O :   -0.206653
  35 C :   -0.065996
  36 C :   -0.055390
  37 C :    0.163797
  38 O :   -0.174448
  39 N :   -0.255129
  40 C :    0.093055
  41 C :   -0.005915
  42 C :    0.137497
  43 C :    0.020087
  44 C :   -0.012916
  45 C :    0.070385
  46 C :    0.052744
  47 N :    0.274342
  48 O :   -0.255745
  49 O :   -0.236034
  50 C :    0.016999
  51 C :    0.002341
  52 C :    0.005331
  53 C :    0.037286
  54 C :    0.011631
  55 C :    0.024174
  56 C :    0.096138
  57 N :    0.270477
  58 O :   -0.245028
  59 O :   -0.241763
  60 C :    0.029170
  61 C :   -0.048592
  62 C :    0.050164
  63 C :   -0.119482
  64 S :    0.179435
  65 C :   -0.087209
  66 C :   -0.018025
  67 C :    0.012783
  68 C :   -0.261154
  69 N :    0.223402
  70 C :   -0.263418
  71 N :    0.211115
  72 C :   -0.002208
  73 C :   -0.004430
  74 H :    0.050491
  75 H :    0.051078
  76 H :    0.013775
  77 H :    0.011418
  78 H :    0.013064
  79 H :    0.000092
  80 H :    0.010771
  81 H :    0.053201
  82 H :    0.003349
  83 H :    0.026466
  84 H :    0.043284
  85 H :    0.010471
  86 H :    0.032574
  87 H :    0.029959
  88 H :    0.025902
  89 H :    0.048446
  90 H :    0.039608
  91 H :    0.028690
  92 H :    0.023494
  93 H :   -0.012397
  94 H :    0.003439
  95 H :    0.006077
  96 H :    0.011840
  97 H :    0.012844
  98 H :    0.012156
  99 H :    0.052256
 100 H :    0.012583
 101 H :    0.029735
 102 H :    0.032108
 103 H :    0.047309
Sum of atomic charges:   -0.0000000

LOEWDIN ATOMIC CHARGES
----------------------
   0 C :   -0.132095
   1 S :    0.484861
   2 C :   -0.138493
   3 C :   -0.073049
   4 C :   -0.082899
   5 C :   -0.033332
   6 N :   -0.025329
   7 C :   -0.035708
   8 N :   -0.018289
   9 C :    0.000885
  10 C :   -0.032562
  11 C :    0.000243
  12 C :   -0.035581
  13 N :    0.284544
  14 O :   -0.199278
  15 O :   -0.205226
  16 C :    0.005680
  17 C :   -0.040711
  18 C :    0.037648
  19 C :    0.038521
  20 C :   -0.054579
  21 C :    0.034223
  22 C :   -0.048010
  23 N :    0.283624
  24 O :   -0.206502
  25 O :   -0.212477
  26 C :    0.005011
  27 C :    0.032889
  28 C :   -0.020361
  29 C :    0.063128
  30 N :    0.005649
  31 C :    0.038638
  32 C :   -0.062346
  33 C :    0.081731
  34 O :   -0.196163
  35 C :   -0.106913
  36 C :   -0.093278
  37 C :    0.081733
  38 O :   -0.166710
  39 N :    0.007273
  40 C :    0.037857
  41 C :   -0.062242
  42 C :    0.083426
  43 C :   -0.012665
  44 C :    0.024764
  45 C :   -0.010706
  46 C :   -0.041677
  47 N :    0.286549
  48 O :   -0.214749
  49 O :   -0.200919
  50 C :    0.000075
  51 C :   -0.034246
  52 C :    0.036910
  53 C :    0.049860
  54 C :   -0.039403
  55 C :    0.042360
  56 C :   -0.047596
  57 N :    0.284430
  58 O :   -0.208342
  59 O :   -0.206703
  60 C :    0.012198
  61 C :    0.005473
  62 C :   -0.016367
  63 C :   -0.139051
  64 S :    0.489133
  65 C :   -0.127950
  66 C :   -0.080454
  67 C :   -0.072308
  68 C :   -0.035088
  69 N :   -0.019191
  70 C :   -0.034927
  71 N :   -0.025381
  72 C :   -0.039629
  73 C :   -0.008328
  74 H :    0.041670
  75 H :    0.045195
  76 H :    0.026078
  77 H :    0.039177
  78 H :    0.034531
  79 H :    0.030729
  80 H :    0.042032
  81 H :    0.046692
  82 H :    0.033633
  83 H :    0.025238
  84 H :    0.037868
  85 H :    0.020973
  86 H :    0.034967
  87 H :    0.032938
  88 H :    0.025160
  89 H :    0.039646
  90 H :    0.026913
  91 H :    0.034243
  92 H :    0.030186
  93 H :    0.028773
  94 H :    0.040188
  95 H :    0.039280
  96 H :    0.034370
  97 H :    0.032711
  98 H :    0.042646
  99 H :    0.048325
 100 H :    0.035410
 101 H :    0.048623
 102 H :    0.022703
 103 H :    0.037602

  Mayer bond orders larger than 0.100000
B(  0-C ,  1-S ) :   1.1830 B(  0-C ,  4-C ) :   1.5537 B(  0-C , 74-H ) :   0.9736
B(  1-S ,  2-C ) :   1.1257 B(  2-C ,  3-C ) :   1.4624 B(  2-C ,  9-C ) :   1.1741
B(  3-C ,  4-C ) :   1.3057 B(  3-C ,  7-C ) :   1.1544 B(  4-C ,  5-C ) :   1.1246
B(  5-C ,  6-N ) :   3.0441 B(  7-C ,  8-N ) :   3.0057 B(  9-C , 10-C ) :   1.6389
B(  9-C , 75-H ) :   0.9491 B( 10-C , 11-C ) :   1.1317 B( 10-C , 76-H ) :   0.9507
B( 11-C , 12-C ) :   1.5102 B( 11-C , 18-C ) :   1.0404 B( 12-C , 13-N ) :   0.9490
B( 12-C , 16-C ) :   1.1355 B( 13-N , 14-O ) :   1.4871 B( 13-N , 15-O ) :   1.5399
B( 14-O , 15-O ) :   0.2620 B( 16-C , 17-C ) :   1.5604 B( 16-C , 77-H ) :   1.0070
B( 17-C , 18-C ) :   1.1365 B( 17-C , 78-H ) :   0.9955 B( 18-C , 19-C ) :   1.4648
B( 19-C , 20-C ) :   1.1639 B( 19-C , 26-C ) :   1.0091 B( 20-C , 21-C ) :   1.5157
B( 20-C , 79-H ) :   1.0065 B( 21-C , 22-C ) :   1.1672 B( 21-C , 80-H ) :   1.0129
B( 22-C , 23-N ) :   0.9429 B( 22-C , 26-C ) :   1.4567 B( 23-N , 24-O ) :   1.5019
B( 23-N , 25-O ) :   1.5258 B( 24-O , 25-O ) :   0.2624 B( 26-C , 27-C ) :   1.2318
B( 27-C , 28-C ) :   1.4727 B( 27-C , 81-H ) :   0.9250 B( 28-C , 29-C ) :   1.2270
B( 28-C , 82-H ) :   0.9513 B( 29-C , 30-N ) :   1.1562 B( 29-C , 36-C ) :   1.2839
B( 30-N , 31-C ) :   0.9385 B( 30-N , 33-C ) :   1.0752 B( 31-C , 32-C ) :   1.1177
B( 31-C , 83-H ) :   0.9491 B( 31-C , 84-H ) :   0.9294 B( 32-C , 85-H ) :   0.9673
B( 32-C , 86-H ) :   0.9654 B( 32-C , 87-H ) :   0.9605 B( 33-C , 34-O ) :   2.0102
B( 33-C , 35-C ) :   0.9925 B( 35-C , 36-C ) :   1.3327 B( 35-C , 42-C ) :   1.2375
B( 36-C , 37-C ) :   0.9611 B( 37-C , 38-O ) :   2.0900 B( 37-C , 39-N ) :   1.0538
B( 39-N , 40-C ) :   0.9326 B( 39-N , 42-C ) :   1.1757 B( 40-C , 41-C ) :   1.1216
B( 40-C , 88-H ) :   0.9492 B( 40-C , 89-H ) :   0.9287 B( 41-C , 90-H ) :   0.9637
B( 41-C , 91-H ) :   0.9659 B( 41-C , 92-H ) :   0.9606 B( 42-C , 43-C ) :   1.2475
B( 43-C , 44-C ) :   1.5113 B( 43-C , 93-H ) :   0.9354 B( 44-C , 45-C ) :   1.2183
B( 44-C , 94-H ) :   0.9417 B( 45-C , 46-C ) :   1.3911 B( 45-C , 52-C ) :   1.0463
B( 46-C , 47-N ) :   0.9465 B( 46-C , 50-C ) :   1.1851 B( 47-N , 48-O ) :   1.4672
B( 47-N , 49-O ) :   1.5368 B( 48-O , 49-O ) :   0.2522 B( 50-C , 51-C ) :   1.5375
B( 50-C , 95-H ) :   1.0105 B( 51-C , 52-C ) :   1.1572 B( 51-C , 96-H ) :   0.9895
B( 52-C , 53-C ) :   1.4347 B( 53-C , 54-C ) :   1.1688 B( 53-C , 60-C ) :   0.9951
B( 54-C , 55-C ) :   1.5319 B( 54-C , 97-H ) :   0.9938 B( 55-C , 56-C ) :   1.1389
B( 55-C , 98-H ) :   1.0120 B( 56-C , 57-N ) :   0.9417 B( 56-C , 60-C ) :   1.4971
B( 57-N , 58-O ) :   1.4977 B( 57-N , 59-O ) :   1.5343 B( 58-O , 59-O ) :   0.2641
B( 60-C , 61-C ) :   1.2166 B( 61-C , 62-C ) :   1.5744 B( 61-C , 99-H ) :   0.9321
B( 62-C , 63-C ) :   1.1892 B( 62-C ,100-H ) :   0.9296 B( 63-C , 64-S ) :   1.1348
B( 63-C , 67-C ) :   1.4534 B( 64-S , 65-C ) :   1.1286 B( 65-C , 66-C ) :   1.4766
B( 65-C , 72-C ) :   1.1465 B( 66-C , 67-C ) :   1.3302 B( 66-C , 70-C ) :   1.1446
B( 67-C , 68-C ) :   1.1593 B( 68-C , 69-N ) :   2.9676 B( 70-C , 71-N ) :   3.0146
B( 72-C , 73-C ) :   1.9044 B( 72-C ,101-H ) :   0.9535 B( 73-C ,102-H ) :   0.9597
B( 73-C ,103-H ) :   0.9480

-----------------------------------------------------------------------------
         ABSORPTION SPECTRUM VIA TRANSITION ELECTRIC DIPOLE MOMENTS
-----------------------------------------------------------------------------
State   Energy  Wavelength   fosc         T2         TX        TY        TZ
        (cm-1)    (nm)                  (au**2)     (au)      (au)      (au)
-----------------------------------------------------------------------------
   0    4136.5   2417.5   0.273964827  21.80417  -2.47468  -3.75381   1.26057
   1    7715.0   1296.2   0.030315353   1.29361   0.41212   0.41104  -0.97715
   2   10061.6    993.9   0.061239647   2.00374  -0.27436   1.36868  -0.23493
   3   12053.4    829.6   0.034166313   0.93318  -0.48770  -0.35168   0.75607
   4   15620.5    640.2   0.043340813   0.91343  -0.48887  -0.62801   0.52920
   5   16356.2    611.4   0.106837736   2.15039   1.38544   0.44832  -0.17309
   6   17325.8    577.2   0.019124659   0.36339  -0.50709  -0.27060  -0.18174
   7   19384.2    515.9   0.023480761   0.39879   0.26089   0.22352   0.52987
   8   20221.3    494.5   0.011381474   0.18530   0.14130  -0.35351  -0.20089
   9   21378.0    467.8   0.084065865   1.29458   0.11552   0.66297  -0.91745
  10   21617.0    462.6   0.015880792   0.24185   0.01409   0.43411  -0.23065
  11   22179.6    450.9   0.093009918   1.38055  -0.10424  -1.12747   0.31383
  12   23039.0    434.0   0.312028442   4.45867   0.64822   1.95250  -0.47565
  13   23600.9    423.7   0.033141746   0.46230  -0.34469  -0.45464   0.36985
  14   23836.8    419.5   0.042744453   0.59035  -0.46263  -0.31498   0.52641
  15   24317.6    411.2   0.057147411   0.77366  -0.83961  -0.03287  -0.26008
  16   24668.2    405.4   0.095635580   1.27632  -1.11407  -0.17698  -0.06190
  17   24990.0    400.2   0.211509241   2.78637  -0.24151  -0.44456   1.59073
  18   25281.7    395.5   0.036399603   0.47399  -0.21810   0.00680   0.65297
  19   25472.4    392.6   0.028676631   0.37062  -0.28273  -0.45161   0.29451
  20   25598.8    390.6   0.052884046   0.68011   0.37557  -0.00028  -0.73421
  21   25771.2    388.0   0.065369034   0.83505   0.19158  -0.27235   0.85098
  22   25999.9    384.6   0.074608832   0.94470   0.50315   0.16359  -0.81534
  23   26503.7    377.3   0.069026736   0.85741  -0.21257   0.06749   0.89870
  24   26634.9    375.4   0.071977211   0.88965  -0.01508   0.06391   0.94092
  25   26936.5    371.2   0.071457759   0.87334   0.43935   0.82416   0.03278
  26   27356.5    365.5   0.176776947   2.12735  -0.89330   0.64431   0.95616
  27   27873.7    358.8   0.024808325   0.29301   0.07217  -0.13596   0.51895
  28   28422.1    351.8   0.074289381   0.86049  -0.42940  -0.21159  -0.79457
  29   28581.8    349.9   0.008023545   0.09242  -0.23862   0.18091  -0.05243
  30   28793.3    347.3   0.332023070   3.79622  -0.80984  -0.90086   1.52605
  31   29240.6    342.0   0.012768131   0.14375   0.06266  -0.28142  -0.24623
  32   29751.3    336.1   0.260514763   2.88272  -0.64094  -0.39315   1.52228
  33   29837.9    335.1   0.055793488   0.61559   0.19902   0.02967   0.75835
  34   30069.1    332.6   0.010665747   0.11677  -0.06987   0.22600   0.24661
  35   30248.0    330.6   0.070364252   0.76583  -0.35432   0.00268   0.80017
  36   30381.9    329.1   0.134445625   1.45683   0.28169   0.93085  -0.71485
  37   30576.5    327.0   0.002280560   0.02455  -0.10430  -0.05640  -0.10245
  38   30649.4    326.3   0.127570078   1.37026   0.37482  -0.10957  -1.10352
  39   30759.7    325.1   0.020708435   0.22164   0.42197  -0.05662  -0.20092
  40   30993.6    322.6   0.050404848   0.53540  -0.61421  -0.39110   0.07196
  41   31447.9    318.0   0.081097057   0.84896   0.40862   0.35771   0.74434
  42   31610.0    316.4   0.384054829   3.99985   1.91165   0.36767   0.45856
  43   32173.4    310.8   0.035657328   0.36486   0.18131  -0.27288   0.50747
  44   32515.6    307.5   0.031234186   0.31624   0.02324  -0.55291   0.09997
  45   32656.5    306.2   0.032847114   0.33113  -0.20957  -0.06229  -0.53229
  46   32764.9    305.2   0.158177289   1.58932   1.22793   0.11258   0.26236
  47   32834.9    304.6   0.144358232   1.44738  -1.11527  -0.18269  -0.41253
  48   32954.5    303.4   0.160569042   1.60407   1.07991  -0.06146   0.65886
  49   33036.9    302.7   0.014378428   0.14328  -0.30400  -0.18824  -0.12423
  50   33081.5    302.3   0.166123888   1.65319  -0.38515   0.48097   1.12850
  51   33291.3    300.4   0.068321292   0.67562  -0.54637   0.25167  -0.56015
  52   33549.3    298.1   0.049359295   0.48435   0.25401   0.44783  -0.46828
  53   34302.3    291.5   0.028212365   0.27076   0.00358   0.50452  -0.12734
  54   34366.3    291.0   0.065816301   0.63049   0.31474   0.05513   0.72690
  55   34491.0    289.9   0.068565051   0.65444  -0.51730   0.04786  -0.62013
  56   34660.7    288.5   0.002035495   0.01933   0.01184   0.07979   0.11325
  57   35012.6    285.6   0.013772606   0.12950   0.29770  -0.15637   0.12815
  58   35262.0    283.6   0.041138854   0.38408  -0.02641  -0.55366   0.27721
  59   35527.7    281.5   0.010696753   0.09912  -0.26371  -0.14380  -0.09433
  60   35613.8    280.8   0.004409701   0.04076  -0.18443   0.07857   0.02396
  61   35796.3    279.4   0.005069022   0.04662  -0.18299   0.04871   0.10373
  62   36092.8    277.1   0.008738830   0.07971  -0.09905   0.01233  -0.26409
  63   36121.0    276.8   0.038498494   0.35088   0.41323  -0.09277   0.41414
  64   36284.5    275.6   0.082301018   0.74672  -0.47676   0.71233   0.10959
  65   36372.9    274.9   0.007076485   0.06405  -0.16532  -0.06842   0.17899
  66   36718.9    272.3   0.116697927   1.04628  -0.80835  -0.39615   0.48572
  67   37110.8    269.5   0.015409628   0.13670  -0.14013   0.10235  -0.32648
  68   37260.3    268.4   0.025200628   0.22266   0.00093  -0.09934   0.46129
  69   37498.0    266.7   0.007120595   0.06251  -0.13022  -0.15237  -0.14947
  70   37666.3    265.5   0.030096826   0.26305   0.09781   0.06714   0.49898
  71   37862.5    264.1   0.055964060   0.48660  -0.19332   0.62089  -0.25245
  72   37989.4    263.2   0.020604224   0.17855   0.05734   0.06617  -0.41339
  73   38245.9    261.5   0.015896665   0.13683  -0.25049  -0.22656  -0.15085
  74   38587.3    259.2   0.012354144   0.10540   0.29823   0.12828   0.00150
  75   38708.7    258.3   0.060117131   0.51129   0.15213   0.65611   0.24013
  76   38750.0    258.1   0.096829765   0.82265   0.05178   0.60081   0.67749
  77   39060.0    256.0   0.003185346   0.02685   0.08366   0.09831  -0.10091
  78   39199.8    255.1   0.010884460   0.09141  -0.18549   0.21992   0.09297
  79   39431.5    253.6   0.004442794   0.03709   0.14529  -0.11404  -0.05457
  80   39519.8    253.0   0.008275088   0.06893  -0.16827  -0.18179  -0.08701
  81   39588.2    252.6   0.010528774   0.08756   0.12040  -0.09904   0.25150
  82   39731.5    251.7   0.009056111   0.07504  -0.09576  -0.25315  -0.04221
  83   39778.0    251.4   0.004681187   0.03874   0.06218  -0.02731   0.18474
  84   39870.5    250.8   0.001739392   0.01436   0.05317  -0.10705  -0.00867
  85   40114.1    249.3   0.005243340   0.04303  -0.19075  -0.03221   0.07489

FINAL SINGLE POINT ENERGY     -4090.766027086946

DIPOLE MOMENT
-------------
                                X             Y             Z
Electronic contribution:    -13.17025      -0.03619      20.62347
Nuclear contribution   :     11.92937       1.04964     -24.05036
                        -----------------------------------------
Total Dipole Moment    :     -1.24087       1.01345      -3.42689
                        -----------------------------------------
Magnitude (a.u.)       :      3.78291
Magnitude (Debye)      :      9.61540

Rotational constants in cm-1:     0.001695     0.000276     0.000261
Rotational constants in MHz :    50.818086     8.276530     7.827126

                             ****ORCA TERMINATED NORMALLY****
TOTAL RUN TIME: 0 days 0 hours 11 minutes 57 seconds 52 msec
