                         Program Version 4.2.0 -  RELEASE  -
|  1> # ORCA input file
|  2> # SCF done       -221.951487911143          0.000935209391
|  3> ! CAM-B3LYP def2-SVP def2/J RIJCOSX Grid4 TightSCF
|  4> %maxcore 5000
|  5> %tddft
|  6>     Mode sTDDFT
|  7>     Ethresh 5.0
|  8>     maxcore 5000
|  9> end
| 10>
| 11> %pal
| 12>   nprocs 6
| 13>   end
| 14> * xyz 0 1
| 15>    C       -5.10463         3.80433        -1.00511
| 16>    C       -4.67435         4.86719        -0.26139
| 17>    F       -4.73858         6.10739        -0.75998
| 18>    C       -4.15824         4.67334         1.03647
| 19>    F       -3.74320         5.73316         1.74084
| 20>    C       -4.07957         3.41841         1.57241
| 21>    C       -4.51361         2.30275         0.83031
| 22>    C       -5.03716         2.49741        -0.48134
| 23>    C       -5.48150         1.39311        -1.24336
| 24>    C       -5.40738         0.13298        -0.70920
| 25>    C       -4.87665        -0.05249         0.59840
| 26>    C       -4.43654         0.99444         1.35658
| 27>    C       -4.87655        -1.48705         0.93440
| 28>    O       -4.39120        -2.00241         1.91624
| 29>    C       -5.46110        -2.17283        -0.25306
| 30>    C       -5.79471        -1.16731        -1.24543
| 31>    C       -6.43990        -1.38668        -2.43286
| 32>    C       -6.76990        -0.36760        -3.35210
| 33>    N       -7.05912         0.41736        -4.13740
| 34>    C       -6.88753        -2.64713        -2.88448
| 35>    N       -7.29515        -3.63447        -3.30397
| 36>    C       -5.48198        -3.52533        -0.41611
| 37>    C       -5.31943        -4.45797         0.63824
| 38>    S       -4.62635        -6.04118         0.36593
| 39>    C       -4.76874        -6.52871         2.05202
| 40>    C       -5.38019        -5.49499         2.74098
| 41>    C       -5.67710        -4.36674         1.96764
| 42>    O       -6.34466        -3.47881         2.74508
| 43>    C       -6.42890        -4.02163         3.98643
| 44>    O       -6.94108        -3.51785         4.92481
| 45>    O       -5.84710        -5.26082         3.99895
| 46>    C       -4.27898        -7.80539         2.42489
| 47>    N       -4.19113        -8.35342         3.67768
| 48>    C       -4.44465        -7.72185         4.95206
| 49>    C       -3.33085        -6.74839         5.32583
| 50>    C       -3.65769        -9.66245         3.63491
| 51>    O       -3.48878       -10.34296         4.62437
| 52>    C       -3.41626        -9.91376         2.23155
| 53>    C       -3.79916        -8.75783         1.52343
| 54>    C       -3.56461        -8.98588         0.11575
| 55>    O       -3.73924        -8.26997        -0.84987
| 56>    N       -3.05693       -10.29026         0.05821
| 57>    C       -2.65193       -10.88078        -1.19706
| 58>    C       -1.14308       -10.79157        -1.40761
| 59>    C       -2.94780       -10.85899         1.30718
| 60>    C       -2.44466       -12.15378         1.54018
| 61>    C       -2.36162       -12.70019         2.78974
| 62>    C       -1.83339       -13.98329         3.05435
| 63>    C       -1.24010       -14.87849         2.18462
| 64>    C       -0.82652       -16.03103         2.90537
| 65>    C       -1.22873       -15.80340         4.30995
| 66>    C       -1.81661       -14.58423         4.38541
| 67>    C       -1.05355       -16.68681         5.38227
| 68>    N       -0.93540       -17.39634         6.27727
| 69>    C       -0.14169       -17.11779         2.41127
| 70>    C        0.36063       -18.23697         3.13966
| 71>    C        1.12403       -19.01440         2.29908
| 72>    C        1.05932       -18.43124         0.96614
| 73>    C        0.29068       -17.31148         1.01764
| 74>    C       -0.02705       -16.50514        -0.08028
| 75>    N       -0.28187       -15.86288        -0.99840
| 76>    C        1.83244       -20.19472         2.65346
| 77>    C        2.94490       -20.69939         2.05804
| 78>    C        3.32829       -22.12687         2.25925
| 79>    O        2.87621       -22.88733         3.08076
| 80>    C        4.32308       -22.40909         1.20425
| 81>    C        4.91290       -23.59684         0.87956
| 82>    C        5.83856       -23.63548        -0.18710
| 83>    C        6.12978       -22.43867        -0.90483
| 84>    C        7.05265       -22.48451        -1.96914
| 85>    C        7.66062       -23.66208        -2.30284
| 86>    C        7.37233       -24.84518        -1.59209
| 87>    C        6.48043       -24.83367        -0.55647
| 88>    F        7.98199       -25.98440        -1.94240
| 89>    F        8.53904       -23.70359        -3.31176
| 90>    C        5.50558       -21.22269        -0.54505
| 91>    C        4.62051       -21.20658         0.49998
| 92>    C        3.87592       -20.11229         1.11633
| 93>    C        4.17758       -18.78051         1.00350
| 94>    C        3.64284       -17.77585         1.83837
| 95>    N        3.30030       -16.92324         2.52617
| 96>    C        5.14028       -18.27075         0.10720
| 97>    N        5.90147       -17.80953        -0.61696
| 98>    H       -5.49820         3.97072        -1.99572
| 99>    H       -3.68239         3.28661         2.56667
|100>    H       -5.86564         1.57234        -2.23451
|101>    H       -4.03928         0.82552         2.34582
|102>    H       -5.59688        -3.95257        -1.40373
|103>    H       -4.48308        -8.53423         5.68294
|104>    H       -5.40975        -7.21665         4.93126
|105>    H       -2.38153        -7.27386         5.40090
|106>    H       -3.55548        -6.29278         6.28543
|107>    H       -3.23446        -5.95999         4.58325
|108>    H       -3.16506       -10.31218        -1.97729
|109>    H       -2.99057       -11.91914        -1.23672
|110>    H       -0.82944        -9.75064        -1.41649
|111>    H       -0.88068       -11.24202        -2.36036
|112>    H       -0.60424       -11.31021        -0.61799
|113>    H       -2.11536       -12.72766         0.68670
|114>    H       -2.71218       -12.12966         3.64003
|115>    H       -1.08140       -14.73898         1.13435
|116>    H       -2.21718       -14.11426         5.26448
|117>    H        0.22561       -18.39691         4.19131
|118>    H        1.49933       -18.85771         0.08292
|119>    H        1.41321       -20.79216         3.45688
|120>    H        4.67862       -24.49444         1.43129
|121>    H        7.28727       -21.58764        -2.52091
|122>    H        6.27110       -25.74732        -0.02252
|123>    H        5.73789       -20.33379        -1.10976
|124> *
|125>
|126>                          ****END OF INPUT****

CARTESIAN COORDINATES (ANGSTROEM)
---------------------------------
  C     -5.104630    3.804330   -1.005110
  C     -4.674350    4.867190   -0.261390
  F     -4.738580    6.107390   -0.759980
  C     -4.158240    4.673340    1.036470
  F     -3.743200    5.733160    1.740840
  C     -4.079570    3.418410    1.572410
  C     -4.513610    2.302750    0.830310
  C     -5.037160    2.497410   -0.481340
  C     -5.481500    1.393110   -1.243360
  C     -5.407380    0.132980   -0.709200
  C     -4.876650   -0.052490    0.598400
  C     -4.436540    0.994440    1.356580
  C     -4.876550   -1.487050    0.934400
  O     -4.391200   -2.002410    1.916240
  C     -5.461100   -2.172830   -0.253060
  C     -5.794710   -1.167310   -1.245430
  C     -6.439900   -1.386680   -2.432860
  C     -6.769900   -0.367600   -3.352100
  N     -7.059120    0.417360   -4.137400
  C     -6.887530   -2.647130   -2.884480
  N     -7.295150   -3.634470   -3.303970
  C     -5.481980   -3.525330   -0.416110
  C     -5.319430   -4.457970    0.638240
  S     -4.626350   -6.041180    0.365930
  C     -4.768740   -6.528710    2.052020
  C     -5.380190   -5.494990    2.740980
  C     -5.677100   -4.366740    1.967640
  O     -6.344660   -3.478810    2.745080
  C     -6.428900   -4.021630    3.986430
  O     -6.941080   -3.517850    4.924810
  O     -5.847100   -5.260820    3.998950
  C     -4.278980   -7.805390    2.424890
  N     -4.191130   -8.353420    3.677680
  C     -4.444650   -7.721850    4.952060
  C     -3.330850   -6.748390    5.325830
  C     -3.657690   -9.662450    3.634910
  O     -3.488780  -10.342960    4.624370
  C     -3.416260   -9.913760    2.231550
  C     -3.799160   -8.757830    1.523430
  C     -3.564610   -8.985880    0.115750
  O     -3.739240   -8.269970   -0.849870
  N     -3.056930  -10.290260    0.058210
  C     -2.651930  -10.880780   -1.197060
  C     -1.143080  -10.791570   -1.407610
  C     -2.947800  -10.858990    1.307180
  C     -2.444660  -12.153780    1.540180
  C     -2.361620  -12.700190    2.789740
  C     -1.833390  -13.983290    3.054350
  C     -1.240100  -14.878490    2.184620
  C     -0.826520  -16.031030    2.905370
  C     -1.228730  -15.803400    4.309950
  C     -1.816610  -14.584230    4.385410
  C     -1.053550  -16.686810    5.382270
  N     -0.935400  -17.396340    6.277270
  C     -0.141690  -17.117790    2.411270
  C      0.360630  -18.236970    3.139660
  C      1.124030  -19.014400    2.299080
  C      1.059320  -18.431240    0.966140
  C      0.290680  -17.311480    1.017640
  C     -0.027050  -16.505140   -0.080280
  N     -0.281870  -15.862880   -0.998400
  C      1.832440  -20.194720    2.653460
  C      2.944900  -20.699390    2.058040
  C      3.328290  -22.126870    2.259250
  O      2.876210  -22.887330    3.080760
  C      4.323080  -22.409090    1.204250
  C      4.912900  -23.596840    0.879560
  C      5.838560  -23.635480   -0.187100
  C      6.129780  -22.438670   -0.904830
  C      7.052650  -22.484510   -1.969140
  C      7.660620  -23.662080   -2.302840
  C      7.372330  -24.845180   -1.592090
  C      6.480430  -24.833670   -0.556470
  F      7.981990  -25.984400   -1.942400
  F      8.539040  -23.703590   -3.311760
  C      5.505580  -21.222690   -0.545050
  C      4.620510  -21.206580    0.499980
  C      3.875920  -20.112290    1.116330
  C      4.177580  -18.780510    1.003500
  C      3.642840  -17.775850    1.838370
  N      3.300300  -16.923240    2.526170
  C      5.140280  -18.270750    0.107200
  N      5.901470  -17.809530   -0.616960
  H     -5.498200    3.970720   -1.995720
  H     -3.682390    3.286610    2.566670
  H     -5.865640    1.572340   -2.234510
  H     -4.039280    0.825520    2.345820
  H     -5.596880   -3.952570   -1.403730
  H     -4.483080   -8.534230    5.682940
  H     -5.409750   -7.216650    4.931260
  H     -2.381530   -7.273860    5.400900
  H     -3.555480   -6.292780    6.285430
  H     -3.234460   -5.959990    4.583250
  H     -3.165060  -10.312180   -1.977290
  H     -2.990570  -11.919140   -1.236720
  H     -0.829440   -9.750640   -1.416490
  H     -0.880680  -11.242020   -2.360360
  H     -0.604240  -11.310210   -0.617990
  H     -2.115360  -12.727660    0.686700
  H     -2.712180  -12.129660    3.640030
  H     -1.081400  -14.738980    1.134350
  H     -2.217180  -14.114260    5.264480
  H      0.225610  -18.396910    4.191310
  H      1.499330  -18.857710    0.082920
  H      1.413210  -20.792160    3.456880
  H      4.678620  -24.494440    1.431290
  H      7.287270  -21.587640   -2.520910
  H      6.271100  -25.747320   -0.022520
  H      5.737890  -20.333790   -1.109760

 Total Charge           Charge          ....    0
 Multiplicity           Mult            ....    1
 Number of Electrons    NEL             ....  568
 Basis Dimension        Dim             .... 1296

ORBITAL ENERGIES
----------------

  NO   OCC          E(Eh)            E(eV)
   0   2.0000     -88.989229     -2421.5200
   1   2.0000     -24.805379      -674.9887
   2   2.0000     -24.804707      -674.9704
   3   2.0000     -24.802981      -674.9234
   4   2.0000     -24.802149      -674.9008
   5   2.0000     -19.329277      -525.9764
   6   2.0000     -19.326381      -525.8976
   7   2.0000     -19.237569      -523.4809
   8   2.0000     -19.228673      -523.2388
   9   2.0000     -19.228175      -523.2252
  10   2.0000     -19.211395      -522.7686
  11   2.0000     -19.208385      -522.6867
  12   2.0000     -14.473850      -393.8535
  13   2.0000     -14.470738      -393.7688
  14   2.0000     -14.429721      -392.6527
  15   2.0000     -14.426940      -392.5770
  16   2.0000     -14.424771      -392.5180
  17   2.0000     -14.424464      -392.5096
  18   2.0000     -14.419822      -392.3833
  19   2.0000     -14.416342      -392.2886
  20   2.0000     -10.482290      -285.2376
  21   2.0000     -10.393358      -282.8177
  22   2.0000     -10.391714      -282.7729
  23   2.0000     -10.389399      -282.7099
  24   2.0000     -10.388947      -282.6976
  25   2.0000     -10.386728      -282.6372
  26   2.0000     -10.385992      -282.6172
  27   2.0000     -10.379755      -282.4475
  28   2.0000     -10.379503      -282.4406
  29   2.0000     -10.378803      -282.4216
  30   2.0000     -10.377923      -282.3976
  31   2.0000     -10.369261      -282.1619
  32   2.0000     -10.360443      -281.9220
  33   2.0000     -10.358681      -281.8740
  34   2.0000     -10.356803      -281.8229
  35   2.0000     -10.356263      -281.8083
  36   2.0000     -10.353986      -281.7463
  37   2.0000     -10.350996      -281.6649
  38   2.0000     -10.340665      -281.3838
  39   2.0000     -10.337944      -281.3097
  40   2.0000     -10.337406      -281.2951
  41   2.0000     -10.334028      -281.2032
  42   2.0000     -10.331747      -281.1411
  43   2.0000     -10.331364      -281.1307
  44   2.0000     -10.328815      -281.0613
  45   2.0000     -10.326646      -281.0023
  46   2.0000     -10.326593      -281.0009
  47   2.0000     -10.326297      -280.9928
  48   2.0000     -10.325725      -280.9773
  49   2.0000     -10.322173      -280.8806
  50   2.0000     -10.320420      -280.8329
  51   2.0000     -10.319899      -280.8187
  52   2.0000     -10.319504      -280.8080
  53   2.0000     -10.319289      -280.8021
  54   2.0000     -10.319116      -280.7974
  55   2.0000     -10.318612      -280.7837
  56   2.0000     -10.318003      -280.7671
  57   2.0000     -10.316722      -280.7323
  58   2.0000     -10.316525      -280.7269
  59   2.0000     -10.316272      -280.7200
  60   2.0000     -10.315436      -280.6973
  61   2.0000     -10.315368      -280.6954
  62   2.0000     -10.314930      -280.6835
  63   2.0000     -10.314787      -280.6796
  64   2.0000     -10.313090      -280.6334
  65   2.0000     -10.312885      -280.6279
  66   2.0000     -10.312807      -280.6257
  67   2.0000     -10.312695      -280.6227
  68   2.0000     -10.309432      -280.5339
  69   2.0000     -10.309222      -280.5282
  70   2.0000     -10.308987      -280.5218
  71   2.0000     -10.308947      -280.5207
  72   2.0000     -10.308328      -280.5039
  73   2.0000     -10.306136      -280.4442
  74   2.0000     -10.306128      -280.4440
  75   2.0000     -10.305490      -280.4266
  76   2.0000     -10.304481      -280.3992
  77   2.0000     -10.300522      -280.2915
  78   2.0000     -10.296575      -280.1840
  79   2.0000     -10.283692      -279.8335
  80   2.0000     -10.283007      -279.8148
  81   2.0000     -10.270984      -279.4877
  82   2.0000     -10.269527      -279.4480
  83   2.0000      -8.083106      -219.9525
  84   2.0000      -6.052776      -164.7044
  85   2.0000      -6.048609      -164.5910
  86   2.0000      -6.044245      -164.4723
  87   2.0000      -1.328364       -36.1466
  88   2.0000      -1.325965       -36.0813
  89   2.0000      -1.313447       -35.7407
  90   2.0000      -1.311042       -35.6753
  91   2.0000      -1.305598       -35.5271
  92   2.0000      -1.190156       -32.3858
  93   2.0000      -1.162163       -31.6241
  94   2.0000      -1.153221       -31.3807
  95   2.0000      -1.146157       -31.1885
  96   2.0000      -1.144268       -31.1371
  97   2.0000      -1.143694       -31.1215
  98   2.0000      -1.083846       -29.4930
  99   2.0000      -1.075161       -29.2566
 100   2.0000      -1.034658       -28.1545
 101   2.0000      -1.028876       -27.9971
 102   2.0000      -1.026755       -27.9394
 103   2.0000      -1.019589       -27.7444
 104   2.0000      -1.014869       -27.6160
 105   2.0000      -1.011450       -27.5230
 106   2.0000      -1.011334       -27.5198
 107   2.0000      -1.006170       -27.3793
 108   2.0000      -1.003033       -27.2939
 109   2.0000      -0.996361       -27.1124
 110   2.0000      -0.993165       -27.0254
 111   2.0000      -0.990264       -26.9465
 112   2.0000      -0.988717       -26.9044
 113   2.0000      -0.946550       -25.7569
 114   2.0000      -0.943658       -25.6782
 115   2.0000      -0.941802       -25.6277
 116   2.0000      -0.929595       -25.2956
 117   2.0000      -0.923712       -25.1355
 118   2.0000      -0.918923       -25.0052
 119   2.0000      -0.902924       -24.5698
 120   2.0000      -0.902303       -24.5529
 121   2.0000      -0.897447       -24.4208
 122   2.0000      -0.896199       -24.3868
 123   2.0000      -0.887575       -24.1521
 124   2.0000      -0.873883       -23.7796
 125   2.0000      -0.873864       -23.7791
 126   2.0000      -0.861670       -23.4472
 127   2.0000      -0.860303       -23.4100
 128   2.0000      -0.853986       -23.2381
 129   2.0000      -0.850066       -23.1315
 130   2.0000      -0.846837       -23.0436
 131   2.0000      -0.832527       -22.6542
 132   2.0000      -0.826255       -22.4835
 133   2.0000      -0.819977       -22.3127
 134   2.0000      -0.805127       -21.9086
 135   2.0000      -0.797496       -21.7010
 136   2.0000      -0.780141       -21.2287
 137   2.0000      -0.775418       -21.1002
 138   2.0000      -0.775308       -21.0972
 139   2.0000      -0.772018       -21.0077
 140   2.0000      -0.760933       -20.7061
 141   2.0000      -0.753975       -20.5167
 142   2.0000      -0.751386       -20.4463
 143   2.0000      -0.739705       -20.1284
 144   2.0000      -0.734034       -19.9741
 145   2.0000      -0.731226       -19.8977
 146   2.0000      -0.726054       -19.7569
 147   2.0000      -0.723686       -19.6925
 148   2.0000      -0.722321       -19.6554
 149   2.0000      -0.719163       -19.5694
 150   2.0000      -0.712445       -19.3866
 151   2.0000      -0.706251       -19.2181
 152   2.0000      -0.697270       -18.9737
 153   2.0000      -0.694933       -18.9101
 154   2.0000      -0.689375       -18.7589
 155   2.0000      -0.687520       -18.7084
 156   2.0000      -0.680437       -18.5156
 157   2.0000      -0.669064       -18.2062
 158   2.0000      -0.666902       -18.1473
 159   2.0000      -0.663814       -18.0633
 160   2.0000      -0.658126       -17.9085
 161   2.0000      -0.654531       -17.8107
 162   2.0000      -0.652561       -17.7571
 163   2.0000      -0.652000       -17.7418
 164   2.0000      -0.648318       -17.6416
 165   2.0000      -0.641499       -17.4561
 166   2.0000      -0.639950       -17.4139
 167   2.0000      -0.628391       -17.0994
 168   2.0000      -0.625956       -17.0331
 169   2.0000      -0.623507       -16.9665
 170   2.0000      -0.613998       -16.7077
 171   2.0000      -0.608750       -16.5649
 172   2.0000      -0.606180       -16.4950
 173   2.0000      -0.600298       -16.3349
 174   2.0000      -0.598650       -16.2901
 175   2.0000      -0.596038       -16.2190
 176   2.0000      -0.593673       -16.1547
 177   2.0000      -0.592763       -16.1299
 178   2.0000      -0.590281       -16.0624
 179   2.0000      -0.585008       -15.9189
 180   2.0000      -0.580388       -15.7932
 181   2.0000      -0.577458       -15.7134
 182   2.0000      -0.565682       -15.3930
 183   2.0000      -0.563038       -15.3210
 184   2.0000      -0.562847       -15.3159
 185   2.0000      -0.561871       -15.2893
 186   2.0000      -0.558150       -15.1880
 187   2.0000      -0.554171       -15.0798
 188   2.0000      -0.554024       -15.0758
 189   2.0000      -0.552813       -15.0428
 190   2.0000      -0.551803       -15.0153
 191   2.0000      -0.549973       -14.9655
 192   2.0000      -0.547719       -14.9042
 193   2.0000      -0.547416       -14.8960
 194   2.0000      -0.546537       -14.8720
 195   2.0000      -0.545158       -14.8345
 196   2.0000      -0.543119       -14.7790
 197   2.0000      -0.539475       -14.6799
 198   2.0000      -0.538790       -14.6612
 199   2.0000      -0.538029       -14.6405
 200   2.0000      -0.537042       -14.6136
 201   2.0000      -0.535484       -14.5713
 202   2.0000      -0.532412       -14.4877
 203   2.0000      -0.528537       -14.3822
 204   2.0000      -0.526445       -14.3253
 205   2.0000      -0.524965       -14.2850
 206   2.0000      -0.522355       -14.2140
 207   2.0000      -0.521574       -14.1927
 208   2.0000      -0.520606       -14.1664
 209   2.0000      -0.519580       -14.1385
 210   2.0000      -0.516978       -14.0677
 211   2.0000      -0.515232       -14.0202
 212   2.0000      -0.514732       -14.0066
 213   2.0000      -0.513943       -13.9851
 214   2.0000      -0.509500       -13.8642
 215   2.0000      -0.508574       -13.8390
 216   2.0000      -0.502245       -13.6668
 217   2.0000      -0.501402       -13.6439
 218   2.0000      -0.500007       -13.6059
 219   2.0000      -0.498553       -13.5663
 220   2.0000      -0.496873       -13.5206
 221   2.0000      -0.492781       -13.4092
 222   2.0000      -0.491714       -13.3802
 223   2.0000      -0.489673       -13.3247
 224   2.0000      -0.486234       -13.2311
 225   2.0000      -0.484969       -13.1967
 226   2.0000      -0.478612       -13.0237
 227   2.0000      -0.476840       -12.9755
 228   2.0000      -0.475476       -12.9384
 229   2.0000      -0.474978       -12.9248
 230   2.0000      -0.471481       -12.8296
 231   2.0000      -0.469408       -12.7732
 232   2.0000      -0.468510       -12.7488
 233   2.0000      -0.462872       -12.5954
 234   2.0000      -0.462550       -12.5866
 235   2.0000      -0.459814       -12.5122
 236   2.0000      -0.457739       -12.4557
 237   2.0000      -0.457427       -12.4472
 238   2.0000      -0.456485       -12.4216
 239   2.0000      -0.455508       -12.3950
 240   2.0000      -0.452758       -12.3202
 241   2.0000      -0.451982       -12.2991
 242   2.0000      -0.451472       -12.2852
 243   2.0000      -0.449692       -12.2367
 244   2.0000      -0.449472       -12.2308
 245   2.0000      -0.447929       -12.1888
 246   2.0000      -0.445322       -12.1178
 247   2.0000      -0.441539       -12.0149
 248   2.0000      -0.439730       -11.9657
 249   2.0000      -0.438454       -11.9309
 250   2.0000      -0.438145       -11.9225
 251   2.0000      -0.436963       -11.8904
 252   2.0000      -0.435628       -11.8541
 253   2.0000      -0.433648       -11.8002
 254   2.0000      -0.432239       -11.7618
 255   2.0000      -0.430933       -11.7263
 256   2.0000      -0.429095       -11.6763
 257   2.0000      -0.425943       -11.5905
 258   2.0000      -0.420372       -11.4389
 259   2.0000      -0.418674       -11.3927
 260   2.0000      -0.409879       -11.1534
 261   2.0000      -0.409463       -11.1421
 262   2.0000      -0.406701       -11.0669
 263   2.0000      -0.404527       -11.0077
 264   2.0000      -0.395224       -10.7546
 265   2.0000      -0.391552       -10.6547
 266   2.0000      -0.383011       -10.4223
 267   2.0000      -0.367651       -10.0043
 268   2.0000      -0.364374        -9.9151
 269   2.0000      -0.362528        -9.8649
 270   2.0000      -0.353241        -9.6122
 271   2.0000      -0.348249        -9.4763
 272   2.0000      -0.347902        -9.4669
 273   2.0000      -0.336160        -9.1474
 274   2.0000      -0.335170        -9.1204
 275   2.0000      -0.328200        -8.9308
 276   2.0000      -0.326733        -8.8909
 277   2.0000      -0.323792        -8.8108
 278   2.0000      -0.317696        -8.6450
 279   2.0000      -0.314904        -8.5690
 280   2.0000      -0.311420        -8.4742
 281   2.0000      -0.304367        -8.2822
 282   2.0000      -0.300670        -8.1816
 283   2.0000      -0.251544        -6.8449
 284   0.0000      -0.146420        -3.9843
 285   0.0000      -0.112668        -3.0659
 286   0.0000      -0.097508        -2.6533
 287   0.0000      -0.078995        -2.1496
 288   0.0000      -0.066265        -1.8032

MULLIKEN ATOMIC CHARGES
-----------------------
   0 C :   -0.105194
   1 C :    0.241500
   2 F :   -0.169120
   3 C :    0.238342
   4 F :   -0.168491
   5 C :   -0.100238
   6 C :    0.113322
   7 C :    0.113616
   8 C :   -0.081275
   9 C :    0.051680
  10 C :   -0.009316
  11 C :   -0.072312
  12 C :    0.155030
  13 O :   -0.147549
  14 C :   -0.092881
  15 C :    0.310042
  16 C :   -0.335991
  17 C :   -0.181072
  18 N :    0.152877
  19 C :   -0.202162
  20 N :    0.170797
  21 C :    0.045393
  22 C :   -0.187883
  23 S :    0.236477
  24 C :   -0.267728
  25 C :    0.164636
  26 C :    0.221143
  27 O :   -0.187376
  28 C :    0.301271
  29 O :   -0.114943
  30 O :   -0.230302
  31 C :    0.227272
  32 N :   -0.263508
  33 C :    0.093764
  34 C :    0.001603
  35 C :    0.166425
  36 O :   -0.198404
  37 C :   -0.057246
  38 C :   -0.110110
  39 C :    0.164406
  40 O :   -0.199184
  41 N :   -0.255483
  42 C :    0.094114
  43 C :    0.006168
  44 C :    0.151180
  45 C :   -0.011215
  46 C :    0.005803
  47 C :    0.111837
  48 C :   -0.117322
  49 C :    0.122342
  50 C :   -0.083890
  51 C :    0.007779
  52 C :   -0.176227
  53 N :    0.139883
  54 C :    0.116284
  55 C :   -0.045694
  56 C :    0.048301
  57 C :   -0.001716
  58 C :   -0.093732
  59 C :   -0.165853
  60 N :    0.133212
  61 C :    0.045596
  62 C :   -0.123470
  63 C :    0.143944
  64 O :   -0.129020
  65 C :    0.008903
  66 C :   -0.076237
  67 C :    0.109181
  68 C :    0.110654
  69 C :   -0.103744
  70 C :    0.241868
  71 C :    0.239922
  72 C :   -0.099513
  73 F :   -0.168575
  74 F :   -0.168542
  75 C :   -0.079052
  76 C :    0.038296
  77 C :    0.268525
  78 C :   -0.343636
  79 C :   -0.186405
  80 N :    0.176353
  81 C :   -0.175782
  82 N :    0.161463
  83 H :    0.008798
  84 H :    0.000127
  85 H :   -0.005905
  86 H :   -0.008674
  87 H :    0.036246
  88 H :    0.046088
  89 H :    0.042483
  90 H :    0.025738
  91 H :    0.032189
  92 H :    0.019764
  93 H :    0.047040
  94 H :    0.033343
  95 H :    0.029139
  96 H :    0.034014
  97 H :    0.019083
  98 H :   -0.010261
  99 H :    0.008313
 100 H :    0.001716
 101 H :    0.014773
 102 H :    0.013291
 103 H :    0.010702
 104 H :    0.036045
 105 H :   -0.005725
 106 H :    0.007647
 107 H :    0.002440
 108 H :   -0.002228
Sum of atomic charges:   -0.0000000

LOEWDIN ATOMIC CHARGES
----------------------
   0 C :   -0.028676
   1 C :    0.067837
   2 F :   -0.046664
   3 C :    0.068754
   4 F :   -0.046768
   5 C :   -0.032000
   6 C :   -0.007667
   7 C :   -0.005652
   8 C :    0.019281
   9 C :   -0.023484
  10 C :   -0.052177
  11 C :    0.033363
  12 C :    0.082274
  13 O :   -0.135725
  14 C :   -0.079218
  15 C :    0.071880
  16 C :   -0.129143
  17 C :   -0.017228
  18 N :   -0.045727
  19 C :   -0.024509
  20 N :   -0.041227
  21 C :    0.049447
  22 C :   -0.197028
  23 S :    0.535959
  24 C :   -0.185246
  25 C :   -0.004777
  26 C :    0.019895
  27 O :   -0.005170
  28 C :    0.112451
  29 O :   -0.111330
  30 O :   -0.026822
  31 C :    0.054345
  32 N :    0.005134
  33 C :    0.031805
  34 C :   -0.059156
  35 C :    0.084668
  36 O :   -0.187196
  37 C :   -0.112655
  38 C :   -0.119601
  39 C :    0.071395
  40 O :   -0.196804
  41 N :    0.004376
  42 C :    0.037943
  43 C :   -0.058652
  44 C :    0.078937
  45 C :   -0.016138
  46 C :    0.027189
  47 C :   -0.011858
  48 C :   -0.018239
  49 C :    0.052766
  50 C :   -0.077935
  51 C :    0.065913
  52 C :   -0.030401
  53 N :   -0.056081
  54 C :    0.035544
  55 C :    0.025368
  56 C :   -0.036078
  57 C :    0.051515
  58 C :   -0.076051
  59 C :   -0.025629
  60 N :   -0.066437
  61 C :    0.076689
  62 C :   -0.077806
  63 C :    0.083532
  64 O :   -0.130417
  65 C :   -0.055588
  66 C :    0.034314
  67 C :   -0.008314
  68 C :   -0.004996
  69 C :   -0.029227
  70 C :    0.069066
  71 C :    0.069017
  72 C :   -0.031606
  73 F :   -0.046578
  74 F :   -0.046079
  75 C :    0.016225
  76 C :   -0.022695
  77 C :    0.064045
  78 C :   -0.127838
  79 C :   -0.020891
  80 N :   -0.038316
  81 C :   -0.018865
  82 N :   -0.041100
  83 H :    0.048231
  84 H :    0.045478
  85 H :    0.040245
  86 H :    0.041333
  87 H :    0.049970
  88 H :    0.038095
  89 H :    0.023669
  90 H :    0.029959
  91 H :    0.035663
  92 H :    0.021088
  93 H :    0.039977
  94 H :    0.027149
  95 H :    0.032057
  96 H :    0.035894
  97 H :    0.023504
  98 H :    0.036577
  99 H :    0.039118
 100 H :    0.032326
 101 H :    0.044053
 102 H :    0.040975
 103 H :    0.037131
 104 H :    0.055375
 105 H :    0.042229
 106 H :    0.048089
 107 H :    0.046006
 108 H :    0.040348

  Mayer bond orders larger than 0.100000
B(  0-C ,  1-C ) :   1.4424 B(  0-C ,  5-C ) :   0.1083 B(  0-C ,  7-C ) :   1.1881
B(  0-C , 83-H ) :   1.0058 B(  1-C ,  2-F ) :   1.1359 B(  1-C ,  3-C ) :   1.1904
B(  3-C ,  4-F ) :   1.1368 B(  3-C ,  5-C ) :   1.4443 B(  5-C ,  6-C ) :   1.1928
B(  5-C , 84-H ) :   1.0060 B(  6-C ,  7-C ) :   1.2529 B(  6-C , 11-C ) :   1.1916
B(  7-C ,  8-C ) :   1.2210 B(  8-C ,  9-C ) :   1.4472 B(  8-C , 85-H ) :   0.9888
B(  9-C , 10-C ) :   1.2208 B(  9-C , 15-C ) :   0.9916 B( 10-C , 11-C ) :   1.4735
B( 10-C , 12-C ) :   0.9428 B( 11-C , 86-H ) :   1.0154 B( 12-C , 13-O ) :   2.2141
B( 12-C , 14-C ) :   0.9420 B( 14-C , 15-C ) :   1.0612 B( 14-C , 21-C ) :   1.6278
B( 15-C , 16-C ) :   1.6541 B( 16-C , 17-C ) :   1.1433 B( 16-C , 19-C ) :   1.1387
B( 17-C , 18-N ) :   2.9645 B( 19-C , 20-N ) :   2.9907 B( 21-C , 22-C ) :   1.1478
B( 21-C , 87-H ) :   0.9349 B( 22-C , 23-S ) :   1.0603 B( 22-C , 24-C ) :   0.1200
B( 22-C , 26-C ) :   1.4683 B( 23-S , 24-C ) :   1.1516 B( 24-C , 25-C ) :   1.4267
B( 24-C , 31-C ) :   1.1691 B( 25-C , 26-C ) :   1.2731 B( 25-C , 30-O ) :   1.0747
B( 26-C , 27-O ) :   1.0998 B( 27-O , 28-C ) :   1.0714 B( 28-C , 29-O ) :   2.2724
B( 28-C , 30-O ) :   1.0386 B( 31-C , 32-N ) :   1.2186 B( 31-C , 38-C ) :   1.3249
B( 32-N , 33-C ) :   0.9296 B( 32-N , 35-C ) :   1.0437 B( 33-C , 34-C ) :   1.1153
B( 33-C , 88-H ) :   0.9249 B( 33-C , 89-H ) :   0.9447 B( 34-C , 90-H ) :   0.9648
B( 34-C , 91-H ) :   0.9682 B( 34-C , 92-H ) :   0.9698 B( 35-C , 36-O ) :   2.0339
B( 35-C , 37-C ) :   0.9854 B( 36-O , 99-H ) :   0.1079 B( 37-C , 38-C ) :   1.2729
B( 37-C , 44-C ) :   1.3068 B( 38-C , 39-C ) :   0.9647 B( 39-C , 40-O ) :   2.0858
B( 39-C , 41-N ) :   1.0631 B( 41-N , 42-C ) :   0.9364 B( 41-N , 44-C ) :   1.1653
B( 42-C , 43-C ) :   1.1213 B( 42-C , 93-H ) :   0.9281 B( 42-C , 94-H ) :   0.9501
B( 43-C , 95-H ) :   0.9632 B( 43-C , 96-H ) :   0.9681 B( 43-C , 97-H ) :   0.9686
B( 44-C , 45-C ) :   1.1721 B( 45-C , 46-C ) :   1.5572 B( 45-C , 98-H ) :   0.9676
B( 46-C , 47-C ) :   1.1204 B( 46-C , 99-H ) :   0.9576 B( 47-C , 48-C ) :   1.5209
B( 47-C , 51-C ) :   1.0241 B( 48-C , 49-C ) :   1.1429 B( 48-C ,100-H ) :   0.9944
B( 49-C , 50-C ) :   1.0958 B( 49-C , 54-C ) :   1.4012 B( 50-C , 51-C ) :   1.6781
B( 50-C , 52-C ) :   1.0880 B( 51-C ,101-H ) :   1.0270 B( 52-C , 53-N ) :   2.9694
B( 54-C , 55-C ) :   1.1113 B( 54-C , 58-C ) :   1.1182 B( 55-C , 56-C ) :   1.5314
B( 55-C ,102-H ) :   1.0045 B( 56-C , 57-C ) :   1.0475 B( 56-C , 61-C ) :   1.0489
B( 57-C , 58-C ) :   1.6684 B( 57-C ,103-H ) :   1.0179 B( 58-C , 59-C ) :   1.0978
B( 59-C , 60-N ) :   2.9636 B( 61-C , 62-C ) :   1.6751 B( 61-C ,104-H ) :   0.9563
B( 62-C , 63-C ) :   0.9262 B( 62-C , 77-C ) :   1.0328 B( 63-C , 64-O ) :   2.2885
B( 63-C , 65-C ) :   0.9166 B( 65-C , 66-C ) :   1.4723 B( 65-C , 76-C ) :   1.2205
B( 66-C , 67-C ) :   1.1978 B( 66-C ,105-H ) :   1.0159 B( 67-C , 68-C ) :   1.2543
B( 67-C , 72-C ) :   1.1931 B( 68-C , 69-C ) :   1.1898 B( 68-C , 75-C ) :   1.2163
B( 69-C , 70-C ) :   1.4425 B( 69-C , 72-C ) :   0.1079 B( 69-C ,106-H ) :   1.0065
B( 70-C , 71-C ) :   1.1896 B( 70-C , 74-F ) :   1.1367 B( 71-C , 72-C ) :   1.4444
B( 71-C , 73-F ) :   1.1369 B( 72-C ,107-H ) :   1.0064 B( 75-C , 76-C ) :   1.4539
B( 75-C ,108-H ) :   0.9931 B( 76-C , 77-C ) :   1.0038 B( 77-C , 78-C ) :   1.6523
B( 78-C , 79-C ) :   1.1600 B( 78-C , 81-C ) :   1.1361 B( 79-C , 80-N ) :   2.9870
B( 81-C , 82-N ) :   2.9829

-----------------------------------------------------------------------------
         ABSORPTION SPECTRUM VIA TRANSITION ELECTRIC DIPOLE MOMENTS
-----------------------------------------------------------------------------
State   Energy  Wavelength   fosc         T2         TX        TY        TZ
        (cm-1)    (nm)                  (au**2)     (au)      (au)      (au)
-----------------------------------------------------------------------------
   0    9281.6   1077.4   0.887125502  31.46577   2.46318  -5.03222  -0.27437
   1   16114.7    620.6   0.351108802   7.17289  -0.43407   2.55032  -0.69308
   2   16914.9    591.2   0.100459994   1.95524   0.97212  -0.88451  -0.47735
   3   18222.8    548.8   0.004494974   0.08121  -0.16394  -0.08507   0.21700
   4   22050.0    453.5   0.004081551   0.06094  -0.13825   0.08742   0.18489
   5   22529.8    443.9   0.147901242   2.16117  -1.23697   0.79240  -0.05629
   6   23263.0    429.9   0.210634488   2.98084   0.93981  -1.37327  -0.46016
   7   23581.4    424.1   0.256258369   3.57753  -0.22524  -0.60426   1.77811
   8   24311.5    411.3   0.000251817   0.00341  -0.02024  -0.04748   0.02731
   9   24988.0    400.2   0.425444704   5.60514  -1.28623   1.96944   0.26841
  10   25495.3    392.2   0.052301223   0.67535  -0.15675  -0.79356   0.14505
  11   25949.7    385.4   0.309942023   3.93209   1.13292  -1.60377  -0.27656
  12   26363.8    379.3   0.042154218   0.52639   0.16478  -0.70495   0.04780
  13   26716.3    374.3   0.074970124   0.92382  -0.93774  -0.07407   0.19744
  14   26779.0    373.4   0.022207031   0.27301   0.09675  -0.35069   0.37505
  15   27251.1    367.0   0.007952104   0.09607  -0.29539  -0.07071  -0.06174
  16   27377.9    365.3   0.053436016   0.64255  -0.35474   0.71610   0.06255
  17   27885.7    358.6   0.014452598   0.17062  -0.37216  -0.11854   0.13441
  18   28199.4    354.6   0.212126117   2.47645   0.27251   1.51334   0.33465
  19   29119.0    343.4   0.011301348   0.12777   0.09669   0.27051  -0.21271
  20   29466.8    339.4   0.108233189   1.20922   0.09339  -0.64264   0.88742
  21   29915.6    334.3   0.199476060   2.19517   0.54299  -1.36829   0.16766
  22   29958.3    333.8   0.135379869   1.48769  -0.35508   0.06257   1.16520
  23   30280.4    330.2   0.050483872   0.54887  -0.41299   0.37522   0.48735
  24   30608.9    326.7   0.032531011   0.34988  -0.15603  -0.56675  -0.06586
  25   30976.8    322.8   0.236591771   2.51442  -0.18503  -1.47410   0.55428
  26   31409.6    318.4   0.181976080   1.90734   0.83164  -1.06649  -0.27985
  27   31615.1    316.3   0.017805058   0.18541   0.06615  -0.42265  -0.04898
  28   32114.7    311.4   0.119901401   1.22912   0.06910   1.06100   0.31404
  29   32256.2    310.0   0.044395746   0.45311   0.34631   0.51532   0.26005
  30   32656.8    306.2   0.010434585   0.10519   0.23947   0.08009  -0.20354
  31   33052.6    302.5   0.016639923   0.16574  -0.07198   0.37703   0.13567
  32   33480.4    298.7   0.165315503   1.62554   0.31078   1.14448   0.46811
  33   33494.1    298.6   0.062914475   0.61838  -0.31745  -0.71348   0.09252
  34   33664.5    297.0   0.017324282   0.16942  -0.25349   0.27515  -0.17162
  35   33912.7    294.9   0.000516324   0.00501   0.00823  -0.06572  -0.02501
  36   34302.3    291.5   0.317739018   3.04946   0.49629   1.37768   0.95139
  37   34368.8    291.0   0.209529188   2.00704  -0.45583  -1.25670  -0.46901
  38   35196.4    284.1   0.212011286   1.98306  -0.48682   1.28597   0.30387
  39   35443.1    282.1   0.277810893   2.58044   0.85089  -1.29269  -0.43057
  40   35549.7    281.3   0.007582446   0.07022   0.18025  -0.17164  -0.09092
  41   35809.1    279.3   0.126001107   1.15839  -0.12469   1.05122   0.19439
  42   35870.0    278.8   0.224521398   2.06064  -0.48463   1.31755   0.29971
  43   35998.1    277.8   0.033666638   0.30789   0.17959  -0.51670  -0.09303
  44   36571.6    273.4   0.118329820   1.06519  -0.29756   0.63853  -0.75427
  45   36938.9    270.7   0.036575932   0.32598  -0.24836   0.16063  -0.48836
  46   37147.9    269.2   0.011005630   0.09753   0.25018  -0.18671  -0.00913
  47   37330.5    267.9   0.038786266   0.34205   0.26781  -0.12865   0.50376
  48   37441.3    267.1   0.015379673   0.13523  -0.04208   0.35912  -0.06702
  49   37574.0    266.1   0.006505223   0.05700  -0.03428   0.15667  -0.17685
  50   37976.0    263.3   0.048576670   0.42111  -0.22218  -0.22626  -0.56617
  51   38036.8    262.9   0.043910366   0.38005   0.30915   0.11278  -0.52130
  52   38298.1    261.1   0.065837027   0.56594   0.25708  -0.50000   0.49985
  53   38551.0    259.4   0.099226600   0.84736  -0.38069   0.11336   0.83041
  54   38797.4    257.7   0.076844982   0.65206  -0.13396   0.00252  -0.79631
  55   39063.8    256.0   0.179631966   1.51386   0.42303  -0.05834   1.15391
  56   39422.7    253.7   0.013484582   0.11261   0.11676  -0.09815   0.29890
  57   39622.4    252.4   0.052569313   0.43678  -0.31910   0.04070   0.57733
  58   39908.2    250.6   0.045425373   0.37472   0.16723  -0.08237   0.58307
  59   39958.5    250.3   0.094114730   0.77540  -0.76331   0.09381   0.42889
  60   40217.6    248.6   0.095386131   0.78081  -0.27849   0.47121  -0.69370
  61   40305.7    248.1   0.003717310   0.03036  -0.01372  -0.02926  -0.17123

FINAL SINGLE POINT ENERGY     -4173.595619031913

DIPOLE MOMENT
-------------
                                X             Y             Z
Electronic contribution:     10.47749      16.29375     -16.03572
Nuclear contribution   :     -9.61250     -17.41212      16.14702
                        -----------------------------------------
Total Dipole Moment    :      0.86499      -1.11838       0.11130
                        -----------------------------------------
Magnitude (a.u.)       :      1.41822
Magnitude (Debye)      :      3.60484

Rotational constants in cm-1:     0.001699     0.000149     0.000143
Rotational constants in MHz :    50.939221     4.470991     4.293328

                             ****ORCA TERMINATED NORMALLY****
TOTAL RUN TIME: 0 days 0 hours 13 minutes 48 seconds 753 msec
