                         Program Version 4.2.0 -  RELEASE  -
|  1> # ORCA input file
|  2> # SCF done       -231.133055954401          0.000914275616
|  3> ! CAM-B3LYP def2-SVP def2/J RIJCOSX Grid4 TightSCF
|  4> %maxcore 5000
|  5> %tddft
|  6>     Mode sTDDFT
|  7>     Ethresh 5.0
|  8>     maxcore 5000
|  9> end
| 10>
| 11> %pal
| 12>   nprocs 6
| 13>   end
| 14> * xyz 0 1
| 15>    C       -7.98160         1.38230         3.96780
| 16>    C       -8.83804         1.49438         5.02699
| 17>    F       -8.75684         2.54681         5.84967
| 18>    C       -9.81517         0.50658         5.26764
| 19>    F      -10.64007         0.64314         6.31310
| 20>    C       -9.92251        -0.57945         4.44465
| 21>    C       -9.05462        -0.72369         3.34464
| 22>    C       -8.06480         0.27330         3.10164
| 23>    C       -7.17694         0.14612         2.00933
| 24>    C       -7.27097        -0.94815         1.18917
| 25>    C       -8.26599        -1.93539         1.43648
| 26>    C       -9.14330        -1.83523         2.47796
| 27>    C       -8.16656        -3.00058         0.42601
| 28>    O       -8.95186        -3.89661         0.22860
| 29>    C       -6.97736        -2.64373        -0.41175
| 30>    C       -6.48376        -1.35392         0.02836
| 31>    C       -5.41932        -0.66666        -0.49491
| 32>    C       -4.96236         0.57606        -0.00526
| 33>    N       -4.54686         1.58869         0.33907
| 34>    C       -4.62819        -1.09591        -1.58219
| 35>    N       -3.93396        -1.38163        -2.45015
| 36>    C       -6.54759        -3.37498        -1.48028
| 37>    C       -6.85434        -4.73985        -1.68298
| 38>    C       -7.12455        -5.75568        -0.78472
| 39>    C       -7.20469        -6.96879        -1.51310
| 40>    C       -6.98008        -6.64287        -2.91688
| 41>    O       -6.96615        -7.30205        -3.91116
| 42>    O       -6.74816        -5.26596        -2.93361
| 43>    C       -7.42439        -7.99229        -0.60559
| 44>    O       -7.46954        -7.46023         0.65938
| 45>    C       -7.25989        -6.09142         0.62787
| 46>    O       -7.17791        -5.43677         1.62604
| 47>    C       -7.55886        -9.37640        -0.79444
| 48>    C       -7.81701       -10.21620         0.25719
| 49>    C       -7.88992       -11.61506         0.14004
| 50>    N       -8.17606       -12.46083         1.18510
| 51>    C       -8.44742       -12.08320         2.55285
| 52>    C       -7.16446       -11.78740         3.32513
| 53>    C       -8.12614       -13.81064         0.80130
| 54>    O       -8.34631       -14.73504         1.55291
| 55>    C       -7.78488       -13.76797        -0.61045
| 56>    C       -7.66185       -12.42122        -0.98691
| 57>    C       -7.30954       -12.37855        -2.39750
| 58>    O       -7.11599       -11.45204        -3.15065
| 59>    N       -7.23731       -13.73069        -2.77610
| 60>    C       -6.86455       -14.11009        -4.12079
| 61>    C       -5.38600       -14.47240        -4.22107
| 62>    C       -7.50117       -14.57389        -1.72721
| 63>    C       -7.44273       -15.97715        -1.81658
| 64>    C       -7.72129       -16.80827        -0.76440
| 65>    C       -7.58149       -18.20129        -0.88280
| 66>    C       -7.11454       -18.98103        -1.93343
| 67>    C       -7.12047       -20.33181        -1.50497
| 68>    C       -7.64039       -20.34769        -0.14309
| 69>    O       -7.85078       -21.23747         0.62612
| 70>    O       -7.89466       -19.01407         0.16467
| 71>    C       -6.60109       -21.10564        -2.52783
| 72>    O       -6.29262       -20.28978        -3.58268
| 73>    C       -6.57991       -18.96781        -3.28222
| 74>    O       -6.38990       -18.07288        -4.06072
| 75>    C       -6.36001       -22.49421        -2.53045
| 76>    C       -5.77171       -23.22311        -3.52188
| 77>    C       -5.42909       -22.75036        -4.81199
| 78>    C       -4.58421       -23.36006        -5.69008
| 79>    C       -4.63887       -23.03530        -7.14614
| 80>    O       -5.20944       -22.10323        -7.65747
| 81>    C       -3.90534       -24.13239        -7.80979
| 82>    C       -3.74756       -24.37084        -9.14486
| 83>    C       -3.01141       -25.50362        -9.55840
| 84>    C       -2.45813       -26.37574        -8.57567
| 85>    C       -1.72834       -27.50616        -8.99501
| 86>    C       -1.55263       -27.75700       -10.32701
| 87>    C       -2.09910       -26.89310       -11.29821
| 88>    C       -2.81370       -25.78988       -10.92330
| 89>    F       -1.91165       -27.16446       -12.59540
| 90>    F       -0.85760       -28.82942       -10.72367
| 91>    C       -2.63495       -26.10219        -7.20009
| 92>    C       -3.34154       -24.99167        -6.82241
| 93>    C       -3.63951       -24.43978        -5.50343
| 94>    C       -2.97589       -24.73781        -4.34204
| 95>    C       -3.07783       -23.96837        -3.16265
| 96>    N       -3.08229       -23.34235        -2.20112
| 97>    C       -2.02109       -25.77072        -4.23058
| 98>    N       -1.25862       -26.61657        -4.09117
| 99>    H       -7.23900         2.14653         3.79929
|100>    H      -10.67495        -1.32666         4.64224
|101>    H       -6.44213         0.91894         1.85211
|102>    H       -9.88495        -2.60141         2.64275
|103>    H       -5.91721        -2.93185        -2.24059
|104>    H       -7.43576        -9.74759        -1.80323
|105>    H       -7.96178        -9.77550         1.23355
|106>    H       -8.95846       -12.93639         3.00732
|107>    H       -9.11926       -11.22148         2.56496
|108>    H       -6.52461       -12.66627         3.33340
|109>    H       -7.40787       -11.52693         4.35110
|110>    H       -6.61601       -10.96248         2.87634
|111>    H       -7.07221       -13.23905        -4.74821
|112>    H       -7.48636       -14.94528        -4.44998
|113>    H       -4.77154       -13.63439        -3.90155
|114>    H       -5.14347       -14.70947        -5.25223
|115>    H       -5.15258       -15.33842        -3.60745
|116>    H       -7.14643       -16.41057        -2.76198
|117>    H       -8.04174       -16.42077         0.19379
|118>    H       -6.62837       -22.98221        -1.60414
|119>    H       -5.57934       -24.26776        -3.31219
|120>    H       -5.93280       -21.86532        -5.18306
|121>    H       -4.17715       -23.70294        -9.87582
|122>    H       -1.30044       -28.17556        -8.26518
|123>    H       -3.22507       -25.13878       -11.67862
|124>    H       -2.21219       -26.78249        -6.47803
|125> *
|126>
|127>                          ****END OF INPUT****

CARTESIAN COORDINATES (ANGSTROEM)
---------------------------------
  C     -7.981600    1.382300    3.967800
  C     -8.838040    1.494380    5.026990
  F     -8.756840    2.546810    5.849670
  C     -9.815170    0.506580    5.267640
  F    -10.640070    0.643140    6.313100
  C     -9.922510   -0.579450    4.444650
  C     -9.054620   -0.723690    3.344640
  C     -8.064800    0.273300    3.101640
  C     -7.176940    0.146120    2.009330
  C     -7.270970   -0.948150    1.189170
  C     -8.265990   -1.935390    1.436480
  C     -9.143300   -1.835230    2.477960
  C     -8.166560   -3.000580    0.426010
  O     -8.951860   -3.896610    0.228600
  C     -6.977360   -2.643730   -0.411750
  C     -6.483760   -1.353920    0.028360
  C     -5.419320   -0.666660   -0.494910
  C     -4.962360    0.576060   -0.005260
  N     -4.546860    1.588690    0.339070
  C     -4.628190   -1.095910   -1.582190
  N     -3.933960   -1.381630   -2.450150
  C     -6.547590   -3.374980   -1.480280
  C     -6.854340   -4.739850   -1.682980
  C     -7.124550   -5.755680   -0.784720
  C     -7.204690   -6.968790   -1.513100
  C     -6.980080   -6.642870   -2.916880
  O     -6.966150   -7.302050   -3.911160
  O     -6.748160   -5.265960   -2.933610
  C     -7.424390   -7.992290   -0.605590
  O     -7.469540   -7.460230    0.659380
  C     -7.259890   -6.091420    0.627870
  O     -7.177910   -5.436770    1.626040
  C     -7.558860   -9.376400   -0.794440
  C     -7.817010  -10.216200    0.257190
  C     -7.889920  -11.615060    0.140040
  N     -8.176060  -12.460830    1.185100
  C     -8.447420  -12.083200    2.552850
  C     -7.164460  -11.787400    3.325130
  C     -8.126140  -13.810640    0.801300
  O     -8.346310  -14.735040    1.552910
  C     -7.784880  -13.767970   -0.610450
  C     -7.661850  -12.421220   -0.986910
  C     -7.309540  -12.378550   -2.397500
  O     -7.115990  -11.452040   -3.150650
  N     -7.237310  -13.730690   -2.776100
  C     -6.864550  -14.110090   -4.120790
  C     -5.386000  -14.472400   -4.221070
  C     -7.501170  -14.573890   -1.727210
  C     -7.442730  -15.977150   -1.816580
  C     -7.721290  -16.808270   -0.764400
  C     -7.581490  -18.201290   -0.882800
  C     -7.114540  -18.981030   -1.933430
  C     -7.120470  -20.331810   -1.504970
  C     -7.640390  -20.347690   -0.143090
  O     -7.850780  -21.237470    0.626120
  O     -7.894660  -19.014070    0.164670
  C     -6.601090  -21.105640   -2.527830
  O     -6.292620  -20.289780   -3.582680
  C     -6.579910  -18.967810   -3.282220
  O     -6.389900  -18.072880   -4.060720
  C     -6.360010  -22.494210   -2.530450
  C     -5.771710  -23.223110   -3.521880
  C     -5.429090  -22.750360   -4.811990
  C     -4.584210  -23.360060   -5.690080
  C     -4.638870  -23.035300   -7.146140
  O     -5.209440  -22.103230   -7.657470
  C     -3.905340  -24.132390   -7.809790
  C     -3.747560  -24.370840   -9.144860
  C     -3.011410  -25.503620   -9.558400
  C     -2.458130  -26.375740   -8.575670
  C     -1.728340  -27.506160   -8.995010
  C     -1.552630  -27.757000  -10.327010
  C     -2.099100  -26.893100  -11.298210
  C     -2.813700  -25.789880  -10.923300
  F     -1.911650  -27.164460  -12.595400
  F     -0.857600  -28.829420  -10.723670
  C     -2.634950  -26.102190   -7.200090
  C     -3.341540  -24.991670   -6.822410
  C     -3.639510  -24.439780   -5.503430
  C     -2.975890  -24.737810   -4.342040
  C     -3.077830  -23.968370   -3.162650
  N     -3.082290  -23.342350   -2.201120
  C     -2.021090  -25.770720   -4.230580
  N     -1.258620  -26.616570   -4.091170
  H     -7.239000    2.146530    3.799290
  H    -10.674950   -1.326660    4.642240
  H     -6.442130    0.918940    1.852110
  H     -9.884950   -2.601410    2.642750
  H     -5.917210   -2.931850   -2.240590
  H     -7.435760   -9.747590   -1.803230
  H     -7.961780   -9.775500    1.233550
  H     -8.958460  -12.936390    3.007320
  H     -9.119260  -11.221480    2.564960
  H     -6.524610  -12.666270    3.333400
  H     -7.407870  -11.526930    4.351100
  H     -6.616010  -10.962480    2.876340
  H     -7.072210  -13.239050   -4.748210
  H     -7.486360  -14.945280   -4.449980
  H     -4.771540  -13.634390   -3.901550
  H     -5.143470  -14.709470   -5.252230
  H     -5.152580  -15.338420   -3.607450
  H     -7.146430  -16.410570   -2.761980
  H     -8.041740  -16.420770    0.193790
  H     -6.628370  -22.982210   -1.604140
  H     -5.579340  -24.267760   -3.312190
  H     -5.932800  -21.865320   -5.183060
  H     -4.177150  -23.702940   -9.875820
  H     -1.300440  -28.175560   -8.265180
  H     -3.225070  -25.138780  -11.678620
  H     -2.212190  -26.782490   -6.478030

 Total Charge           Charge          ....    0
 Multiplicity           Mult            ....    1
 Number of Electrons    NEL             ....  572
 Basis Dimension        Dim             .... 1306

ORBITAL ENERGIES
----------------

  NO   OCC          E(Eh)            E(eV)
   0   2.0000     -24.803757      -674.9445
   1   2.0000     -24.803671      -674.9422
   2   2.0000     -24.803195      -674.9292
   3   2.0000     -24.802850      -674.9199
   4   2.0000     -19.309202      -525.4301
   5   2.0000     -19.304730      -525.3084
   6   2.0000     -19.303356      -525.2710
   7   2.0000     -19.296483      -525.0840
   8   2.0000     -19.237092      -523.4679
   9   2.0000     -19.236487      -523.4514
  10   2.0000     -19.233534      -523.3711
  11   2.0000     -19.228424      -523.2320
  12   2.0000     -19.226018      -523.1665
  13   2.0000     -19.225948      -523.1646
  14   2.0000     -19.215242      -522.8733
  15   2.0000     -19.214925      -522.8647
  16   2.0000     -14.475040      -393.8859
  17   2.0000     -14.473887      -393.8545
  18   2.0000     -14.428202      -392.6113
  19   2.0000     -14.427709      -392.5979
  20   2.0000     -14.427592      -392.5947
  21   2.0000     -14.424838      -392.5198
  22   2.0000     -10.436134      -283.9817
  23   2.0000     -10.433403      -283.9073
  24   2.0000     -10.432892      -283.8934
  25   2.0000     -10.426225      -283.7120
  26   2.0000     -10.397537      -282.9314
  27   2.0000     -10.396484      -282.9027
  28   2.0000     -10.394005      -282.8352
  29   2.0000     -10.391367      -282.7635
  30   2.0000     -10.388880      -282.6958
  31   2.0000     -10.387576      -282.6603
  32   2.0000     -10.387477      -282.6576
  33   2.0000     -10.387023      -282.6453
  34   2.0000     -10.386843      -282.6404
  35   2.0000     -10.386688      -282.6362
  36   2.0000     -10.380506      -282.4679
  37   2.0000     -10.376548      -282.3602
  38   2.0000     -10.363193      -281.9968
  39   2.0000     -10.362821      -281.9867
  40   2.0000     -10.358755      -281.8761
  41   2.0000     -10.358352      -281.8651
  42   2.0000     -10.354248      -281.7534
  43   2.0000     -10.352643      -281.7097
  44   2.0000     -10.334073      -281.2044
  45   2.0000     -10.329516      -281.0804
  46   2.0000     -10.329387      -281.0769
  47   2.0000     -10.329366      -281.0763
  48   2.0000     -10.326696      -281.0037
  49   2.0000     -10.325058      -280.9591
  50   2.0000     -10.324924      -280.9555
  51   2.0000     -10.324446      -280.9425
  52   2.0000     -10.323511      -280.9170
  53   2.0000     -10.323038      -280.9041
  54   2.0000     -10.321664      -280.8667
  55   2.0000     -10.319329      -280.8032
  56   2.0000     -10.317816      -280.7621
  57   2.0000     -10.317688      -280.7586
  58   2.0000     -10.317637      -280.7572
  59   2.0000     -10.317479      -280.7529
  60   2.0000     -10.317324      -280.7486
  61   2.0000     -10.317273      -280.7473
  62   2.0000     -10.317173      -280.7445
  63   2.0000     -10.316610      -280.7292
  64   2.0000     -10.316532      -280.7271
  65   2.0000     -10.313865      -280.6545
  66   2.0000     -10.312498      -280.6173
  67   2.0000     -10.312411      -280.6150
  68   2.0000     -10.310512      -280.5633
  69   2.0000     -10.310351      -280.5589
  70   2.0000     -10.310196      -280.5547
  71   2.0000     -10.310045      -280.5506
  72   2.0000     -10.309582      -280.5380
  73   2.0000     -10.308759      -280.5156
  74   2.0000     -10.307073      -280.4697
  75   2.0000     -10.306918      -280.4655
  76   2.0000     -10.306358      -280.4503
  77   2.0000     -10.306172      -280.4452
  78   2.0000     -10.301928      -280.3297
  79   2.0000     -10.301146      -280.3084
  80   2.0000     -10.291784      -280.0537
  81   2.0000     -10.291195      -280.0376
  82   2.0000     -10.276395      -279.6349
  83   2.0000     -10.266679      -279.3705
  84   2.0000      -1.326887       -36.1064
  85   2.0000      -1.326654       -36.1001
  86   2.0000      -1.311990       -35.7011
  87   2.0000      -1.311741       -35.6943
  88   2.0000      -1.241026       -33.7700
  89   2.0000      -1.237462       -33.6730
  90   2.0000      -1.232509       -33.5383
  91   2.0000      -1.226702       -33.3803
  92   2.0000      -1.157664       -31.5016
  93   2.0000      -1.151169       -31.3249
  94   2.0000      -1.149156       -31.2701
  95   2.0000      -1.145337       -31.1662
  96   2.0000      -1.142928       -31.1007
  97   2.0000      -1.141617       -31.0650
  98   2.0000      -1.140370       -31.0310
  99   2.0000      -1.136673       -30.9304
 100   2.0000      -1.087704       -29.5979
 101   2.0000      -1.078401       -29.3448
 102   2.0000      -1.031255       -28.0619
 103   2.0000      -1.030296       -28.0358
 104   2.0000      -1.013333       -27.5742
 105   2.0000      -1.012489       -27.5512
 106   2.0000      -1.006007       -27.3748
 107   2.0000      -1.004960       -27.3463
 108   2.0000      -0.991067       -26.9683
 109   2.0000      -0.990088       -26.9417
 110   2.0000      -0.959529       -26.1101
 111   2.0000      -0.955400       -25.9977
 112   2.0000      -0.951528       -25.8924
 113   2.0000      -0.949900       -25.8481
 114   2.0000      -0.944250       -25.6944
 115   2.0000      -0.941122       -25.6092
 116   2.0000      -0.937707       -25.5163
 117   2.0000      -0.933734       -25.4082
 118   2.0000      -0.923591       -25.1322
 119   2.0000      -0.908426       -24.7195
 120   2.0000      -0.901091       -24.5199
 121   2.0000      -0.899554       -24.4781
 122   2.0000      -0.895409       -24.3653
 123   2.0000      -0.890425       -24.2297
 124   2.0000      -0.881715       -23.9927
 125   2.0000      -0.869050       -23.6481
 126   2.0000      -0.863468       -23.4962
 127   2.0000      -0.847995       -23.0751
 128   2.0000      -0.847910       -23.0728
 129   2.0000      -0.840818       -22.8798
 130   2.0000      -0.835581       -22.7373
 131   2.0000      -0.833937       -22.6926
 132   2.0000      -0.801667       -21.8145
 133   2.0000      -0.797327       -21.6964
 134   2.0000      -0.787977       -21.4419
 135   2.0000      -0.778114       -21.1735
 136   2.0000      -0.777373       -21.1534
 137   2.0000      -0.774990       -21.0886
 138   2.0000      -0.774296       -21.0697
 139   2.0000      -0.770195       -20.9581
 140   2.0000      -0.768181       -20.9033
 141   2.0000      -0.747182       -20.3319
 142   2.0000      -0.744884       -20.2693
 143   2.0000      -0.743571       -20.2336
 144   2.0000      -0.731866       -19.9151
 145   2.0000      -0.729931       -19.8624
 146   2.0000      -0.725818       -19.7505
 147   2.0000      -0.725709       -19.7476
 148   2.0000      -0.724839       -19.7239
 149   2.0000      -0.723427       -19.6854
 150   2.0000      -0.706187       -19.2163
 151   2.0000      -0.702076       -19.1045
 152   2.0000      -0.695269       -18.9192
 153   2.0000      -0.693745       -18.8777
 154   2.0000      -0.691176       -18.8079
 155   2.0000      -0.687466       -18.7069
 156   2.0000      -0.666862       -18.1462
 157   2.0000      -0.666296       -18.1308
 158   2.0000      -0.663305       -18.0495
 159   2.0000      -0.655125       -17.8269
 160   2.0000      -0.651651       -17.7323
 161   2.0000      -0.649424       -17.6717
 162   2.0000      -0.647376       -17.6160
 163   2.0000      -0.644840       -17.5470
 164   2.0000      -0.635155       -17.2835
 165   2.0000      -0.630073       -17.1452
 166   2.0000      -0.623856       -16.9760
 167   2.0000      -0.622364       -16.9354
 168   2.0000      -0.616295       -16.7702
 169   2.0000      -0.612282       -16.6610
 170   2.0000      -0.608426       -16.5561
 171   2.0000      -0.607094       -16.5199
 172   2.0000      -0.606368       -16.5001
 173   2.0000      -0.604475       -16.4486
 174   2.0000      -0.602145       -16.3852
 175   2.0000      -0.597999       -16.2724
 176   2.0000      -0.596161       -16.2224
 177   2.0000      -0.592447       -16.1213
 178   2.0000      -0.591170       -16.0866
 179   2.0000      -0.590919       -16.0797
 180   2.0000      -0.588733       -16.0202
 181   2.0000      -0.584549       -15.9064
 182   2.0000      -0.582803       -15.8589
 183   2.0000      -0.573837       -15.6149
 184   2.0000      -0.571159       -15.5420
 185   2.0000      -0.569604       -15.4997
 186   2.0000      -0.568003       -15.4561
 187   2.0000      -0.564964       -15.3734
 188   2.0000      -0.564412       -15.3584
 189   2.0000      -0.560716       -15.2579
 190   2.0000      -0.559692       -15.2300
 191   2.0000      -0.556481       -15.1426
 192   2.0000      -0.552708       -15.0400
 193   2.0000      -0.552636       -15.0380
 194   2.0000      -0.552355       -15.0304
 195   2.0000      -0.550246       -14.9730
 196   2.0000      -0.546380       -14.8678
 197   2.0000      -0.544889       -14.8272
 198   2.0000      -0.543613       -14.7925
 199   2.0000      -0.543179       -14.7807
 200   2.0000      -0.542824       -14.7710
 201   2.0000      -0.541345       -14.7307
 202   2.0000      -0.539085       -14.6693
 203   2.0000      -0.537282       -14.6202
 204   2.0000      -0.534582       -14.5467
 205   2.0000      -0.533780       -14.5249
 206   2.0000      -0.531362       -14.4591
 207   2.0000      -0.531211       -14.4550
 208   2.0000      -0.530312       -14.4305
 209   2.0000      -0.526385       -14.3237
 210   2.0000      -0.525186       -14.2910
 211   2.0000      -0.524701       -14.2778
 212   2.0000      -0.521618       -14.1940
 213   2.0000      -0.519211       -14.1284
 214   2.0000      -0.518395       -14.1062
 215   2.0000      -0.510649       -13.8955
 216   2.0000      -0.510121       -13.8811
 217   2.0000      -0.509248       -13.8573
 218   2.0000      -0.507501       -13.8098
 219   2.0000      -0.504743       -13.7347
 220   2.0000      -0.500319       -13.6144
 221   2.0000      -0.496434       -13.5087
 222   2.0000      -0.494899       -13.4669
 223   2.0000      -0.492919       -13.4130
 224   2.0000      -0.490691       -13.3524
 225   2.0000      -0.490027       -13.3343
 226   2.0000      -0.488777       -13.3003
 227   2.0000      -0.484924       -13.1955
 228   2.0000      -0.482449       -13.1281
 229   2.0000      -0.481063       -13.0904
 230   2.0000      -0.479646       -13.0518
 231   2.0000      -0.476724       -12.9723
 232   2.0000      -0.475474       -12.9383
 233   2.0000      -0.472875       -12.8676
 234   2.0000      -0.471807       -12.8385
 235   2.0000      -0.469782       -12.7834
 236   2.0000      -0.469511       -12.7760
 237   2.0000      -0.465018       -12.6538
 238   2.0000      -0.462042       -12.5728
 239   2.0000      -0.461143       -12.5484
 240   2.0000      -0.459983       -12.5168
 241   2.0000      -0.459866       -12.5136
 242   2.0000      -0.457034       -12.4365
 243   2.0000      -0.454786       -12.3754
 244   2.0000      -0.454444       -12.3660
 245   2.0000      -0.454192       -12.3592
 246   2.0000      -0.452114       -12.3026
 247   2.0000      -0.450655       -12.2629
 248   2.0000      -0.449371       -12.2280
 249   2.0000      -0.445832       -12.1317
 250   2.0000      -0.441497       -12.0137
 251   2.0000      -0.438813       -11.9407
 252   2.0000      -0.437149       -11.8954
 253   2.0000      -0.436911       -11.8889
 254   2.0000      -0.435550       -11.8519
 255   2.0000      -0.434020       -11.8103
 256   2.0000      -0.433464       -11.7951
 257   2.0000      -0.427654       -11.6371
 258   2.0000      -0.420488       -11.4420
 259   2.0000      -0.414020       -11.2661
 260   2.0000      -0.411070       -11.1858
 261   2.0000      -0.409576       -11.1451
 262   2.0000      -0.404587       -11.0094
 263   2.0000      -0.395851       -10.7716
 264   2.0000      -0.394335       -10.7304
 265   2.0000      -0.393127       -10.6975
 266   2.0000      -0.389292       -10.5932
 267   2.0000      -0.387816       -10.5530
 268   2.0000      -0.380967       -10.3666
 269   2.0000      -0.374921       -10.2021
 270   2.0000      -0.374276       -10.1846
 271   2.0000      -0.371292       -10.1034
 272   2.0000      -0.370132       -10.0718
 273   2.0000      -0.355986        -9.6869
 274   2.0000      -0.354924        -9.6580
 275   2.0000      -0.350400        -9.5349
 276   2.0000      -0.349928        -9.5220
 277   2.0000      -0.338770        -9.2184
 278   2.0000      -0.338335        -9.2066
 279   2.0000      -0.324518        -8.8306
 280   2.0000      -0.324384        -8.8269
 281   2.0000      -0.308991        -8.4081
 282   2.0000      -0.308610        -8.3977
 283   2.0000      -0.298180        -8.1139
 284   2.0000      -0.285790        -7.7767
 285   2.0000      -0.250877        -6.8267
 286   0.0000      -0.148877        -4.0512
 287   0.0000      -0.124093        -3.3767
 288   0.0000      -0.100608        -2.7377
 289   0.0000      -0.080089        -2.1793
 290   0.0000      -0.069899        -1.9021

MULLIKEN ATOMIC CHARGES
-----------------------
   0 C :   -0.107212
   1 C :    0.243073
   2 F :   -0.168711
   3 C :    0.239303
   4 F :   -0.169635
   5 C :   -0.102550
   6 C :    0.113936
   7 C :    0.115108
   8 C :   -0.088270
   9 C :    0.062632
  10 C :   -0.006488
  11 C :   -0.068563
  12 C :    0.158122
  13 O :   -0.136048
  14 C :   -0.069147
  15 C :    0.305318
  16 C :   -0.335309
  17 C :   -0.178243
  18 N :    0.162068
  19 C :   -0.198660
  20 N :    0.170738
  21 C :   -0.039405
  22 C :    0.141175
  23 C :   -0.046288
  24 C :   -0.046820
  25 C :    0.234730
  26 O :   -0.099762
  27 O :   -0.237144
  28 C :    0.111725
  29 O :   -0.254601
  30 C :    0.255419
  31 O :   -0.120093
  32 C :   -0.024633
  33 C :   -0.022917
  34 C :    0.161536
  35 N :   -0.256683
  36 C :    0.092711
  37 C :    0.002641
  38 C :    0.168494
  39 O :   -0.188451
  40 C :   -0.063959
  41 C :   -0.058483
  42 C :    0.168741
  43 O :   -0.175924
  44 N :   -0.255047
  45 C :    0.090793
  46 C :    0.010556
  47 C :    0.144205
  48 C :   -0.013298
  49 C :    0.005776
  50 C :    0.161264
  51 C :   -0.110335
  52 C :   -0.033294
  53 C :    0.235480
  54 O :   -0.110415
  55 O :   -0.228426
  56 C :    0.102772
  57 O :   -0.251080
  58 C :    0.261972
  59 O :   -0.144755
  60 C :    0.015909
  61 C :    0.021083
  62 C :    0.040563
  63 C :   -0.105021
  64 C :    0.144116
  65 O :   -0.126056
  66 C :    0.003033
  67 C :   -0.075261
  68 C :    0.110624
  69 C :    0.111373
  70 C :   -0.105030
  71 C :    0.241595
  72 C :    0.239558
  73 C :   -0.101888
  74 F :   -0.169442
  75 F :   -0.168615
  76 C :   -0.080432
  77 C :    0.043707
  78 C :    0.267327
  79 C :   -0.320708
  80 C :   -0.213744
  81 N :    0.176590
  82 C :   -0.175056
  83 N :    0.157546
  84 H :    0.010298
  85 H :    0.001695
  86 H :   -0.004343
  87 H :   -0.005874
  88 H :    0.047719
  89 H :    0.042541
  90 H :    0.010797
  91 H :    0.048902
  92 H :    0.031136
  93 H :    0.032871
  94 H :    0.031185
  95 H :    0.019491
  96 H :    0.048615
  97 H :    0.038881
  98 H :    0.026258
  99 H :    0.033409
 100 H :    0.019363
 101 H :    0.003466
 102 H :    0.023909
 103 H :    0.025723
 104 H :    0.029717
 105 H :    0.042560
 106 H :   -0.006040
 107 H :    0.008311
 108 H :    0.001456
 109 H :   -0.003453
Sum of atomic charges:   -0.0000000

LOEWDIN ATOMIC CHARGES
----------------------
   0 C :   -0.029008
   1 C :    0.068346
   2 F :   -0.046354
   3 C :    0.069268
   4 F :   -0.046955
   5 C :   -0.031864
   6 C :   -0.006921
   7 C :   -0.004505
   8 C :    0.017972
   9 C :   -0.021517
  10 C :   -0.048951
  11 C :    0.036991
  12 C :    0.085916
  13 O :   -0.125377
  14 C :   -0.048543
  15 C :    0.068383
  16 C :   -0.121427
  17 C :   -0.016926
  18 N :   -0.041283
  19 C :   -0.023250
  20 N :   -0.034901
  21 C :    0.037822
  22 C :    0.090356
  23 C :   -0.084002
  24 C :   -0.106494
  25 C :    0.104780
  26 O :   -0.108020
  27 O :   -0.044816
  28 C :    0.108305
  29 O :   -0.049785
  30 C :    0.109422
  31 O :   -0.114712
  32 C :    0.000048
  33 C :   -0.000035
  34 C :    0.068898
  35 N :    0.003450
  36 C :    0.037686
  37 C :   -0.059470
  38 C :    0.081466
  39 O :   -0.180159
  40 C :   -0.100880
  41 C :   -0.096560
  42 C :    0.081742
  43 O :   -0.168349
  44 N :    0.007354
  45 C :    0.038656
  46 C :   -0.056979
  47 C :    0.072439
  48 C :    0.010317
  49 C :    0.000320
  50 C :    0.109064
  51 C :   -0.126537
  52 C :   -0.100290
  53 C :    0.107259
  54 O :   -0.113272
  55 O :   -0.038226
  56 C :    0.095187
  57 O :   -0.037563
  58 C :    0.106238
  59 O :   -0.140294
  60 C :   -0.001950
  61 C :    0.007798
  62 C :    0.058132
  63 C :   -0.069248
  64 C :    0.082124
  65 O :   -0.127736
  66 C :   -0.055234
  67 C :    0.033275
  68 C :   -0.008607
  69 C :   -0.005128
  70 C :   -0.029714
  71 C :    0.068129
  72 C :    0.068353
  73 C :   -0.031992
  74 F :   -0.046930
  75 F :   -0.046343
  76 C :    0.015535
  77 C :   -0.021602
  78 C :    0.065572
  79 C :   -0.128050
  80 C :   -0.024967
  81 N :   -0.041138
  82 C :   -0.018499
  83 N :   -0.042443
  84 H :    0.048505
  85 H :    0.045755
  86 H :    0.040329
  87 H :    0.042447
  88 H :    0.057408
  89 H :    0.052116
  90 H :    0.039905
  91 H :    0.040232
  92 H :    0.026550
  93 H :    0.033454
  94 H :    0.034443
  95 H :    0.023478
  96 H :    0.040188
  97 H :    0.029973
  98 H :    0.030154
  99 H :    0.036592
 100 H :    0.023436
 101 H :    0.038757
 102 H :    0.048201
 103 H :    0.057560
 104 H :    0.044220
 105 H :    0.047886
 106 H :    0.041912
 107 H :    0.048014
 108 H :    0.045666
 109 H :    0.040020

  Mayer bond orders larger than 0.100000
B(  0-C ,  1-C ) :   1.4426 B(  0-C ,  5-C ) :   0.1076 B(  0-C ,  7-C ) :   1.1878
B(  0-C , 84-H ) :   1.0064 B(  1-C ,  2-F ) :   1.1372 B(  1-C ,  3-C ) :   1.1878
B(  3-C ,  4-F ) :   1.1358 B(  3-C ,  5-C ) :   1.4444 B(  5-C ,  6-C ) :   1.1928
B(  5-C , 85-H ) :   1.0069 B(  6-C ,  7-C ) :   1.2520 B(  6-C , 11-C ) :   1.1940
B(  7-C ,  8-C ) :   1.2236 B(  8-C ,  9-C ) :   1.4409 B(  8-C , 86-H ) :   0.9892
B(  9-C , 10-C ) :   1.2199 B(  9-C , 15-C ) :   0.9933 B( 10-C , 11-C ) :   1.4743
B( 10-C , 12-C ) :   0.9373 B( 11-C , 87-H ) :   1.0148 B( 12-C , 13-O ) :   2.2370
B( 12-C , 14-C ) :   0.9210 B( 14-C , 15-C ) :   1.0754 B( 14-C , 21-C ) :   1.5937
B( 15-C , 16-C ) :   1.6450 B( 16-C , 17-C ) :   1.1446 B( 16-C , 19-C ) :   1.1412
B( 17-C , 18-N ) :   2.9620 B( 19-C , 20-N ) :   2.9790 B( 21-C , 22-C ) :   1.1734
B( 21-C , 88-H ) :   0.9328 B( 22-C , 23-C ) :   1.4181 B( 22-C , 27-O ) :   1.1411
B( 23-C , 24-C ) :   1.2030 B( 23-C , 30-C ) :   0.9321 B( 24-C , 25-C ) :   0.9380
B( 24-C , 28-C ) :   1.3325 B( 25-C , 26-O ) :   2.2807 B( 25-C , 27-O ) :   1.0021
B( 28-C , 29-O ) :   1.1230 B( 28-C , 32-C ) :   1.2380 B( 29-O , 30-C ) :   1.0186
B( 30-C , 31-O ) :   2.2310 B( 32-C , 33-C ) :   1.5056 B( 32-C , 89-H ) :   0.9395
B( 33-C , 34-C ) :   1.1576 B( 33-C , 90-H ) :   0.9733 B( 34-C , 35-N ) :   1.1628
B( 34-C , 41-C ) :   1.3060 B( 35-N , 36-C ) :   0.9376 B( 35-N , 38-C ) :   1.0619
B( 36-C , 37-C ) :   1.1210 B( 36-C , 91-H ) :   0.9289 B( 36-C , 92-H ) :   0.9504
B( 37-C , 93-H ) :   0.9635 B( 37-C , 94-H ) :   0.9676 B( 37-C , 95-H ) :   0.9688
B( 38-C , 39-O ) :   2.0584 B( 38-C , 40-C ) :   0.9701 B( 40-C , 41-C ) :   1.3141
B( 40-C , 47-C ) :   1.2859 B( 41-C , 42-C ) :   0.9635 B( 42-C , 43-O ) :   2.0692
B( 42-C , 44-N ) :   1.0573 B( 44-N , 45-C ) :   0.9298 B( 44-N , 47-C ) :   1.1768
B( 45-C , 46-C ) :   1.1249 B( 45-C , 96-H ) :   0.9287 B( 45-C , 97-H ) :   0.9484
B( 46-C , 98-H ) :   0.9635 B( 46-C , 99-H ) :   0.9672 B( 46-C ,100-H ) :   0.9666
B( 47-C , 48-C ) :   1.1968 B( 48-C , 49-C ) :   1.4973 B( 48-C ,101-H ) :   0.9416
B( 49-C , 50-C ) :   1.2098 B( 49-C ,102-H ) :   0.9540 B( 50-C , 51-C ) :   1.3428
B( 50-C , 55-O ) :   1.1487 B( 51-C , 52-C ) :   1.1864 B( 51-C , 58-C ) :   0.9748
B( 52-C , 53-C ) :   0.9384 B( 52-C , 56-C ) :   1.4033 B( 53-C , 54-O ) :   2.2657
B( 53-C , 55-O ) :   1.0101 B( 56-C , 57-O ) :   1.0997 B( 56-C , 60-C ) :   1.2031
B( 57-O , 58-C ) :   1.0324 B( 58-C , 59-O ) :   2.1398 B( 60-C , 61-C ) :   1.6389
B( 60-C ,103-H ) :   0.9552 B( 61-C , 62-C ) :   1.1104 B( 61-C ,104-H ) :   0.9492
B( 62-C , 63-C ) :   1.6544 B( 62-C ,105-H ) :   0.9395 B( 63-C , 64-C ) :   0.9277
B( 63-C , 78-C ) :   1.0388 B( 64-C , 65-O ) :   2.2846 B( 64-C , 66-C ) :   0.9190
B( 66-C , 67-C ) :   1.4764 B( 66-C , 77-C ) :   1.2164 B( 67-C , 68-C ) :   1.1960
B( 67-C ,106-H ) :   1.0155 B( 68-C , 69-C ) :   1.2546 B( 68-C , 73-C ) :   1.1945
B( 69-C , 70-C ) :   1.1888 B( 69-C , 76-C ) :   1.2171 B( 70-C , 71-C ) :   1.4424
B( 70-C , 73-C ) :   0.1081 B( 70-C ,107-H ) :   1.0065 B( 71-C , 72-C ) :   1.1905
B( 71-C , 75-F ) :   1.1367 B( 72-C , 73-C ) :   1.4435 B( 72-C , 74-F ) :   1.1353
B( 73-C ,108-H ) :   1.0067 B( 76-C , 77-C ) :   1.4540 B( 76-C ,109-H ) :   0.9928
B( 77-C , 78-C ) :   1.0025 B( 78-C , 79-C ) :   1.6509 B( 79-C , 80-C ) :   1.1575
B( 79-C , 82-C ) :   1.1302 B( 80-C , 81-N ) :   3.0116 B( 82-C , 83-N ) :   2.9833

-----------------------------------------------------------------------------
         ABSORPTION SPECTRUM VIA TRANSITION ELECTRIC DIPOLE MOMENTS
-----------------------------------------------------------------------------
State   Energy  Wavelength   fosc         T2         TX        TY        TZ
        (cm-1)    (nm)                  (au**2)     (au)      (au)      (au)
-----------------------------------------------------------------------------
   0    8610.3   1161.4   1.324099885  50.62660  -0.66140   6.86735   1.74028
   1   14958.3    668.5   0.137550471   3.02730   1.20557   0.02515  -1.25430
   2   16783.1    595.8   0.140607916   2.75813   1.03785   0.03965  -1.29592
   3   17925.6    557.9   0.421654115   7.74388   0.63042  -2.66674  -0.48472
   4   19897.2    502.6   0.053861923   0.89118  -0.57734   0.38062   0.64264
   5   21499.0    465.1   0.008725160   0.13361  -0.23421  -0.07324   0.27091
   6   22819.9    438.2   0.006608281   0.09533   0.21746  -0.21666  -0.03321
   7   22993.7    434.9   0.097163146   1.39113  -0.05146  -1.16212   0.19483
   8   23382.2    427.7   0.010682443   0.15040   0.17874   0.03641   0.34225
   9   24049.8    415.8   0.019917795   0.27265  -0.36228  -0.19206  -0.32329
  10   24545.1    407.4   0.136811953   1.83499   0.76478  -0.06284  -1.11631
  11   24747.0    404.1   0.021821920   0.29030  -0.46817  -0.04939   0.26206
  12   24939.8    401.0   0.000601399   0.00794   0.04916   0.06927  -0.02690
  13   25635.1    390.1   0.008187130   0.10514  -0.27464   0.11603  -0.12748
  14   26252.5    380.9   0.017505563   0.21952   0.10991   0.11482   0.44075
  15   26667.5    375.0   0.053677492   0.66265   0.57780  -0.19093  -0.54069
  16   27197.8    367.7   0.029236789   0.35389   0.08951  -0.16474  -0.56457
  17   27749.7    360.4   0.031960508   0.37917   0.56222   0.25107  -0.00656
  18   27953.7    357.7   0.002396877   0.02823   0.01070  -0.09691  -0.13683
  19   28312.3    353.2   0.000222549   0.00259  -0.01050   0.03146  -0.03857
  20   28409.9    352.0   0.014861007   0.17221   0.02282  -0.32683  -0.25470
  21   29211.3    342.3   0.223986509   2.52433  -0.72646   0.89080   1.09684
  22   29938.0    334.0   0.003037957   0.03341  -0.05962  -0.16481  -0.05187
  23   30234.1    330.8   0.029376162   0.31987   0.00295   0.48015  -0.29885
  24   30311.6    329.9   0.033126241   0.35978  -0.24448  -0.30668  -0.45383
  25   30382.7    329.1   0.150463605   1.63035   0.58841  -0.10302  -1.12850
  26   31297.2    319.5   0.042251131   0.44444   0.09852   0.62000   0.22434
  27   31631.6    316.1   0.118419436   1.23247   0.21901   0.47617  -0.97865
  28   31976.9    312.7   0.013817862   0.14226  -0.10916   0.31649  -0.17372
  29   32210.0    310.5   0.086243800   0.88148   0.38424  -0.34090  -0.78589
  30   32367.9    308.9   0.138255169   1.40618  -0.39271   0.43134   1.03243
  31   32375.6    308.9   0.042392086   0.43106   0.22089   0.27038  -0.55603
  32   33106.6    302.1   0.066172688   0.65802   0.25414   0.40228  -0.65697
  33   33465.2    298.8   0.157204742   1.54649  -0.42793   1.15802   0.14953
  34   33614.3    297.5   0.196101757   1.92058   0.00199   1.20026   0.69278
  35   33783.7    296.0   0.285277447   2.77994  -0.13046  -0.28591  -1.63743
  36   34140.3    292.9   0.012530045   0.12083  -0.08658  -0.29076   0.16968
  37   34261.1    291.9   0.002970469   0.02854   0.10461   0.08215  -0.10416
  38   34456.1    290.2   0.676676758   6.46533   1.45468  -0.18730  -2.07706
  39   34679.0    288.4   0.109964914   1.04391   0.05218   0.35251   0.95756
  40   35092.6    285.0   0.165185526   1.54964   0.23625  -0.34525  -1.17245
  41   35197.9    284.1   0.004163305   0.03894  -0.02685   0.13403   0.14232
  42   35404.5    282.4   0.052968891   0.49254  -0.16966  -0.14893   0.66451
  43   35731.0    279.9   0.056666472   0.52210  -0.04560   0.37036   0.61875
  44   35764.4    279.6   0.135416849   1.24652  -0.10499   0.98118   0.52228
  45   36081.8    277.1   0.026291629   0.23989  -0.08075  -0.45731   0.15567
  46   36231.4    276.0   0.045078640   0.40960  -0.02298  -0.17431   0.61538
  47   36430.5    274.5   0.056055586   0.50656  -0.24261  -0.56999   0.35044
  48   36739.2    272.2   0.020931504   0.18756  -0.12101  -0.13047   0.39484
  49   36888.5    271.1   0.056244333   0.50195   0.27096  -0.37029  -0.53984
  50   36955.3    270.6   0.062344132   0.55538  -0.21793  -0.12730   0.70120
  51   37519.1    266.5   0.032963056   0.28923  -0.47046  -0.10951  -0.23644
  52   37867.7    264.1   0.021057652   0.18307   0.20844  -0.37263   0.02775
  53   38139.4    262.2   0.009368314   0.08087  -0.15791  -0.12685  -0.19960
  54   38218.3    261.7   0.252983885   2.17920   1.07976   0.61617  -0.79602
  55   38523.3    259.6   0.132887255   1.13563   0.61387   0.05557   0.86931
  56   38583.5    259.2   0.012401591   0.10582  -0.15221  -0.03634  -0.28518
  57   38748.4    258.1   0.005680405   0.04826  -0.04586  -0.15345  -0.15037
  58   39256.1    254.7   0.074641013   0.62596  -0.28214  -0.21467   0.70730
  59   39448.8    253.5   0.102150061   0.85247   0.60108   0.11732  -0.69095
  60   39595.1    252.6   0.050101208   0.41656   0.02251   0.18718  -0.61727
  61   39892.9    250.7   0.007440120   0.06140  -0.24226  -0.04913   0.01714
  62   40178.4    248.9   0.014243546   0.11671   0.18887  -0.28327   0.02825

FINAL SINGLE POINT ENERGY     -4003.884568453939

DIPOLE MOMENT
-------------
                                X             Y             Z
Electronic contribution:      6.39315      14.07721     -10.43837
Nuclear contribution   :     -8.49871     -15.28852      10.68608
                        -----------------------------------------
Total Dipole Moment    :     -2.10556      -1.21131       0.24771
                        -----------------------------------------
Magnitude (a.u.)       :      2.44173
Magnitude (Debye)      :      6.20637

Rotational constants in cm-1:     0.001757     0.000135     0.000128
Rotational constants in MHz :    52.688434     4.040077     3.829619

                             ****ORCA TERMINATED NORMALLY****
TOTAL RUN TIME: 0 days 0 hours 12 minutes 13 seconds 324 msec
