                         Program Version 4.2.0 -  RELEASE  -
|  1> # ORCA input file
|  2> # SCF done       -224.937852296266          0.000264424948
|  3> ! CAM-B3LYP def2-SVP def2/J RIJCOSX Grid4 TightSCF
|  4> %maxcore 5000
|  5> %tddft
|  6>     Mode sTDDFT
|  7>     Ethresh 5.0
|  8>     maxcore 5000
|  9> end
| 10>
| 11> %pal
| 12>   nprocs 6
| 13>   end
| 14> * xyz 0 1
| 15>    C      -13.28563        -2.01160         9.07967
| 16>    C      -14.36531        -2.48866         9.76835
| 17>    F      -15.23578        -1.63944        10.32781
| 18>    C      -14.57751        -3.87642         9.89864
| 19>    F      -15.64483        -4.31484        10.57810
| 20>    C      -13.70626        -4.76803         9.33837
| 21>    C      -12.58462        -4.30759         8.62150
| 22>    C      -12.36854        -2.90472         8.48957
| 23>    C      -11.25029        -2.41946         7.77442
| 24>    C      -10.37524        -3.30988         7.20912
| 25>    C      -10.60196        -4.70852         7.34049
| 26>    C      -11.67298        -5.20673         8.02548
| 27>    C       -9.54872        -5.45175         6.62205
| 28>    O       -9.47166        -6.65295         6.49288
| 29>    C       -8.67455        -4.41137         6.01428
| 30>    C       -9.15840        -3.10711         6.43069
| 31>    C       -8.53594        -1.90726         6.21231
| 32>    C       -7.30065        -1.75268         5.54628
| 33>    N       -6.28906        -1.55816         5.04020
| 34>    C       -9.03252        -0.66728         6.66761
| 35>    N       -9.39216         0.36713         7.01037
| 36>    C       -7.72683        -4.65921         5.06755
| 37>    C       -7.17162        -5.92460         4.73437
| 38>    C       -6.71470        -6.27685         3.48258
| 39>    C       -6.24462        -7.62441         3.51804
| 40>    C       -6.37967        -8.06249         4.91534
| 41>    C       -6.93963        -7.04950         5.62938
| 42>    C       -5.98619        -9.29756         5.44242
| 43>    N       -5.65999       -10.30380         5.89111
| 44>    C       -5.78330        -8.37867         2.46278
| 45>    C       -5.31938        -9.71802         2.49652
| 46>    C       -4.98077       -10.12643         1.21948
| 47>    C       -5.23077        -9.00483         0.31951
| 48>    C       -5.70004        -7.96116         1.04768
| 49>    C       -6.05101        -6.71354         0.51836
| 50>    N       -6.33089        -5.69936         0.05785
| 51>    C       -4.49221       -11.41784         0.90772
| 52>    S       -4.18363       -12.47767         2.28381
| 53>    C       -3.56710       -13.72758         1.26439
| 54>    N       -3.12790       -14.86561         1.77670
| 55>    C       -3.09827       -15.12754         3.18820
| 56>    C       -3.66948       -13.38650        -0.10474
| 57>    C       -4.15596       -12.05855        -0.27247
| 58>    C       -4.12402       -11.40047        -1.60561
| 59>    O       -4.93574       -10.63863        -2.05867
| 60>    O       -2.98511       -11.72938        -2.24020
| 61>    C       -2.79600       -11.18433        -3.53855
| 62>    C       -3.48744       -14.27722        -1.22010
| 63>    C       -2.48216       -15.26398        -1.37765
| 64>    C       -2.27404       -15.93395        -2.64227
| 65>    N       -1.20559       -16.73025        -2.80796
| 66>    C       -0.39166       -16.94770        -1.80972
| 67>    C       -0.68622       -16.42361        -0.51122
| 68>    N       -1.69739       -15.59885        -0.34337
| 69>    C        0.07188       -16.79662         0.62409
| 70>    N        0.68391       -17.09689         1.54497
| 71>    C        0.77162       -17.73571        -2.00795
| 72>    N        1.72415       -18.35996        -2.12282
| 73>    C       -3.18183       -15.82894        -3.71634
| 74>    C       -4.25632       -14.93957        -3.52041
| 75>    C       -4.37972       -14.16780        -2.31031
| 76>    N       -5.47166       -13.40041        -2.33077
| 77>    S       -6.23923       -13.59256        -3.71698
| 78>    N       -5.24227       -14.66742        -4.37958
| 79>    C       -2.96590       -16.57582        -4.91238
| 80>    C       -3.88882       -17.04101        -5.79262
| 81>    C       -3.46080       -17.44358        -7.16470
| 82>    O       -2.32911       -17.61022        -7.55028
| 83>    C       -4.71141       -17.52790        -7.94656
| 84>    C       -4.87190       -17.74426        -9.28475
| 85>    C       -6.17683       -17.75692        -9.82693
| 86>    C       -7.29324       -17.53736        -8.96809
| 87>    C       -8.59138       -17.54226        -9.51708
| 88>    C       -8.77310       -17.75831       -10.85427
| 89>    C       -7.66848       -17.97780       -11.70220
| 90>    C       -6.39701       -17.97762       -11.20042
| 91>    F       -7.87648       -18.18574       -13.00844
| 92>    F      -10.00700       -17.76293       -11.37349
| 93>    C       -7.09646       -17.32316        -7.58480
| 94>    C       -5.82359       -17.32521        -7.07949
| 95>    C       -5.32781       -17.16582        -5.71649
| 96>    C       -6.07254       -17.33116        -4.57800
| 97>    C       -5.52799       -17.40848        -3.28202
| 98>    N       -5.13399       -17.49120        -2.20596
| 99>    C       -7.47371       -17.48674        -4.57024
|100>    N       -8.61517       -17.58506        -4.50109
|101>    H      -13.13753        -0.94671         8.99039
|102>    H      -13.88298        -5.82671         9.44647
|103>    H      -11.11811        -1.35329         7.68520
|104>    H      -11.82227        -6.27248         8.10968
|105>    H       -7.37578        -3.83323         4.45973
|106>    H       -6.75029        -5.66109         2.60486
|107>    H       -7.13602        -7.05299         6.68346
|108>    H       -5.25180       -10.31680         3.38417
|109>    H       -5.08893        -9.01864        -0.74213
|110>    H       -2.54875       -15.42771         1.13565
|111>    H       -2.31885       -14.54133         3.68417
|112>    H       -2.90033       -16.18444         3.34702
|113>    H       -4.05811       -14.86562         3.63694
|114>    H       -1.72351       -11.17393        -3.71692
|115>    H       -3.20672       -10.17439        -3.58987
|116>    H       -3.29338       -11.81035        -4.28366
|117>    H       -1.92879       -16.77474        -5.16258
|118>    H       -4.01538       -17.90385        -9.92187
|119>    H       -9.44811       -17.37982        -8.88189
|120>    H       -5.56245       -18.14703       -11.86260
|121>    H       -7.95785       -17.15239        -6.95902
|122> *
|123>
|124>                          ****END OF INPUT****

CARTESIAN COORDINATES (ANGSTROEM)
---------------------------------
  C    -13.285630   -2.011600    9.079670
  C    -14.365310   -2.488660    9.768350
  F    -15.235780   -1.639440   10.327810
  C    -14.577510   -3.876420    9.898640
  F    -15.644830   -4.314840   10.578100
  C    -13.706260   -4.768030    9.338370
  C    -12.584620   -4.307590    8.621500
  C    -12.368540   -2.904720    8.489570
  C    -11.250290   -2.419460    7.774420
  C    -10.375240   -3.309880    7.209120
  C    -10.601960   -4.708520    7.340490
  C    -11.672980   -5.206730    8.025480
  C     -9.548720   -5.451750    6.622050
  O     -9.471660   -6.652950    6.492880
  C     -8.674550   -4.411370    6.014280
  C     -9.158400   -3.107110    6.430690
  C     -8.535940   -1.907260    6.212310
  C     -7.300650   -1.752680    5.546280
  N     -6.289060   -1.558160    5.040200
  C     -9.032520   -0.667280    6.667610
  N     -9.392160    0.367130    7.010370
  C     -7.726830   -4.659210    5.067550
  C     -7.171620   -5.924600    4.734370
  C     -6.714700   -6.276850    3.482580
  C     -6.244620   -7.624410    3.518040
  C     -6.379670   -8.062490    4.915340
  C     -6.939630   -7.049500    5.629380
  C     -5.986190   -9.297560    5.442420
  N     -5.659990  -10.303800    5.891110
  C     -5.783300   -8.378670    2.462780
  C     -5.319380   -9.718020    2.496520
  C     -4.980770  -10.126430    1.219480
  C     -5.230770   -9.004830    0.319510
  C     -5.700040   -7.961160    1.047680
  C     -6.051010   -6.713540    0.518360
  N     -6.330890   -5.699360    0.057850
  C     -4.492210  -11.417840    0.907720
  S     -4.183630  -12.477670    2.283810
  C     -3.567100  -13.727580    1.264390
  N     -3.127900  -14.865610    1.776700
  C     -3.098270  -15.127540    3.188200
  C     -3.669480  -13.386500   -0.104740
  C     -4.155960  -12.058550   -0.272470
  C     -4.124020  -11.400470   -1.605610
  O     -4.935740  -10.638630   -2.058670
  O     -2.985110  -11.729380   -2.240200
  C     -2.796000  -11.184330   -3.538550
  C     -3.487440  -14.277220   -1.220100
  C     -2.482160  -15.263980   -1.377650
  C     -2.274040  -15.933950   -2.642270
  N     -1.205590  -16.730250   -2.807960
  C     -0.391660  -16.947700   -1.809720
  C     -0.686220  -16.423610   -0.511220
  N     -1.697390  -15.598850   -0.343370
  C      0.071880  -16.796620    0.624090
  N      0.683910  -17.096890    1.544970
  C      0.771620  -17.735710   -2.007950
  N      1.724150  -18.359960   -2.122820
  C     -3.181830  -15.828940   -3.716340
  C     -4.256320  -14.939570   -3.520410
  C     -4.379720  -14.167800   -2.310310
  N     -5.471660  -13.400410   -2.330770
  S     -6.239230  -13.592560   -3.716980
  N     -5.242270  -14.667420   -4.379580
  C     -2.965900  -16.575820   -4.912380
  C     -3.888820  -17.041010   -5.792620
  C     -3.460800  -17.443580   -7.164700
  O     -2.329110  -17.610220   -7.550280
  C     -4.711410  -17.527900   -7.946560
  C     -4.871900  -17.744260   -9.284750
  C     -6.176830  -17.756920   -9.826930
  C     -7.293240  -17.537360   -8.968090
  C     -8.591380  -17.542260   -9.517080
  C     -8.773100  -17.758310  -10.854270
  C     -7.668480  -17.977800  -11.702200
  C     -6.397010  -17.977620  -11.200420
  F     -7.876480  -18.185740  -13.008440
  F    -10.007000  -17.762930  -11.373490
  C     -7.096460  -17.323160   -7.584800
  C     -5.823590  -17.325210   -7.079490
  C     -5.327810  -17.165820   -5.716490
  C     -6.072540  -17.331160   -4.578000
  C     -5.527990  -17.408480   -3.282020
  N     -5.133990  -17.491200   -2.205960
  C     -7.473710  -17.486740   -4.570240
  N     -8.615170  -17.585060   -4.501090
  H    -13.137530   -0.946710    8.990390
  H    -13.882980   -5.826710    9.446470
  H    -11.118110   -1.353290    7.685200
  H    -11.822270   -6.272480    8.109680
  H     -7.375780   -3.833230    4.459730
  H     -6.750290   -5.661090    2.604860
  H     -7.136020   -7.052990    6.683460
  H     -5.251800  -10.316800    3.384170
  H     -5.088930   -9.018640   -0.742130
  H     -2.548750  -15.427710    1.135650
  H     -2.318850  -14.541330    3.684170
  H     -2.900330  -16.184440    3.347020
  H     -4.058110  -14.865620    3.636940
  H     -1.723510  -11.173930   -3.716920
  H     -3.206720  -10.174390   -3.589870
  H     -3.293380  -11.810350   -4.283660
  H     -1.928790  -16.774740   -5.162580
  H     -4.015380  -17.903850   -9.921870
  H     -9.448110  -17.379820   -8.881890
  H     -5.562450  -18.147030  -11.862600
  H     -7.957850  -17.152390   -6.959020

 Total Charge           Charge          ....    0
 Multiplicity           Mult            ....    1
 Number of Electrons    NEL             ....  590
 Basis Dimension        Dim             .... 1317

ORBITAL ENERGIES
----------------

  NO   OCC          E(Eh)            E(eV)
   0   2.0000     -89.060244     -2423.4524
   1   2.0000     -88.989779     -2421.5350
   2   2.0000     -24.803234      -674.9303
   3   2.0000     -24.802826      -674.9192
   4   2.0000     -24.802572      -674.9123
   5   2.0000     -24.802470      -674.9095
   6   2.0000     -19.286314      -524.8073
   7   2.0000     -19.230623      -523.2919
   8   2.0000     -19.229437      -523.2596
   9   2.0000     -19.223420      -523.0958
  10   2.0000     -14.493630      -394.3917
  11   2.0000     -14.480043      -394.0220
  12   2.0000     -14.472750      -393.8236
  13   2.0000     -14.470615      -393.7655
  14   2.0000     -14.463880      -393.5822
  15   2.0000     -14.450696      -393.2234
  16   2.0000     -14.445991      -393.0954
  17   2.0000     -14.429298      -392.6412
  18   2.0000     -14.424817      -392.5192
  19   2.0000     -14.423663      -392.4878
  20   2.0000     -14.422929      -392.4678
  21   2.0000     -14.414031      -392.2257
  22   2.0000     -14.408932      -392.0870
  23   2.0000     -10.432958      -283.8952
  24   2.0000     -10.403885      -283.1041
  25   2.0000     -10.402687      -283.0715
  26   2.0000     -10.390358      -282.7360
  27   2.0000     -10.387122      -282.6480
  28   2.0000     -10.386538      -282.6321
  29   2.0000     -10.386415      -282.6287
  30   2.0000     -10.386019      -282.6179
  31   2.0000     -10.380266      -282.4614
  32   2.0000     -10.374041      -282.2920
  33   2.0000     -10.372744      -282.2567
  34   2.0000     -10.371212      -282.2150
  35   2.0000     -10.358568      -281.8710
  36   2.0000     -10.357846      -281.8513
  37   2.0000     -10.353037      -281.7205
  38   2.0000     -10.352574      -281.7079
  39   2.0000     -10.350096      -281.6404
  40   2.0000     -10.349674      -281.6290
  41   2.0000     -10.348648      -281.6010
  42   2.0000     -10.344702      -281.4936
  43   2.0000     -10.344359      -281.4843
  44   2.0000     -10.339970      -281.3649
  45   2.0000     -10.338282      -281.3189
  46   2.0000     -10.332511      -281.1619
  47   2.0000     -10.332092      -281.1505
  48   2.0000     -10.332069      -281.1499
  49   2.0000     -10.329330      -281.0754
  50   2.0000     -10.328084      -281.0414
  51   2.0000     -10.327544      -281.0268
  52   2.0000     -10.325899      -280.9820
  53   2.0000     -10.325765      -280.9784
  54   2.0000     -10.324861      -280.9537
  55   2.0000     -10.324621      -280.9472
  56   2.0000     -10.323792      -280.9247
  57   2.0000     -10.323768      -280.9240
  58   2.0000     -10.322416      -280.8872
  59   2.0000     -10.319946      -280.8200
  60   2.0000     -10.317055      -280.7413
  61   2.0000     -10.316798      -280.7343
  62   2.0000     -10.316314      -280.7212
  63   2.0000     -10.315866      -280.7090
  64   2.0000     -10.315828      -280.7079
  65   2.0000     -10.314889      -280.6824
  66   2.0000     -10.313936      -280.6565
  67   2.0000     -10.313036      -280.6320
  68   2.0000     -10.312519      -280.6179
  69   2.0000     -10.312033      -280.6047
  70   2.0000     -10.311906      -280.6012
  71   2.0000     -10.309973      -280.5486
  72   2.0000     -10.309917      -280.5471
  73   2.0000     -10.309326      -280.5310
  74   2.0000     -10.308993      -280.5220
  75   2.0000     -10.308601      -280.5113
  76   2.0000     -10.308325      -280.5038
  77   2.0000     -10.307224      -280.4738
  78   2.0000     -10.306743      -280.4607
  79   2.0000     -10.306121      -280.4438
  80   2.0000     -10.305867      -280.4369
  81   2.0000     -10.305509      -280.4271
  82   2.0000     -10.303171      -280.3635
  83   2.0000     -10.301082      -280.3067
  84   2.0000     -10.299715      -280.2695
  85   2.0000     -10.290042      -280.0063
  86   2.0000      -8.151104      -221.8028
  87   2.0000      -8.085727      -220.0238
  88   2.0000      -6.122158      -166.5924
  89   2.0000      -6.114376      -166.3806
  90   2.0000      -6.113962      -166.3694
  91   2.0000      -6.055376      -164.7752
  92   2.0000      -6.051010      -164.6563
  93   2.0000      -6.047047      -164.5485
  94   2.0000      -1.326096       -36.0849
  95   2.0000      -1.325886       -36.0792
  96   2.0000      -1.311197       -35.6795
  97   2.0000      -1.311009       -35.6744
  98   2.0000      -1.219549       -33.1856
  99   2.0000      -1.158308       -31.5192
 100   2.0000      -1.145265       -31.1643
 101   2.0000      -1.144452       -31.1421
 102   2.0000      -1.139097       -30.9964
 103   2.0000      -1.125810       -30.6349
 104   2.0000      -1.091108       -29.6905
 105   2.0000      -1.068858       -29.0851
 106   2.0000      -1.033434       -28.1212
 107   2.0000      -1.030909       -28.0525
 108   2.0000      -1.027772       -27.9671
 109   2.0000      -1.024488       -27.8777
 110   2.0000      -1.022060       -27.8117
 111   2.0000      -1.016020       -27.6473
 112   2.0000      -1.012366       -27.5479
 113   2.0000      -1.011220       -27.5167
 114   2.0000      -1.008184       -27.4341
 115   2.0000      -1.005692       -27.3663
 116   2.0000      -1.002060       -27.2674
 117   2.0000      -1.001590       -27.2547
 118   2.0000      -0.995525       -27.0896
 119   2.0000      -0.989744       -26.9323
 120   2.0000      -0.987362       -26.8675
 121   2.0000      -0.986457       -26.8429
 122   2.0000      -0.982386       -26.7321
 123   2.0000      -0.939889       -25.5757
 124   2.0000      -0.939505       -25.5652
 125   2.0000      -0.930217       -25.3125
 126   2.0000      -0.926736       -25.2178
 127   2.0000      -0.915508       -24.9122
 128   2.0000      -0.906262       -24.6606
 129   2.0000      -0.900147       -24.4942
 130   2.0000      -0.898369       -24.4459
 131   2.0000      -0.894058       -24.3285
 132   2.0000      -0.890796       -24.2398
 133   2.0000      -0.886649       -24.1270
 134   2.0000      -0.868672       -23.6378
 135   2.0000      -0.861722       -23.4487
 136   2.0000      -0.852763       -23.2049
 137   2.0000      -0.850106       -23.1326
 138   2.0000      -0.847173       -23.0528
 139   2.0000      -0.846377       -23.0311
 140   2.0000      -0.844009       -22.9667
 141   2.0000      -0.833011       -22.6674
 142   2.0000      -0.823655       -22.4128
 143   2.0000      -0.815674       -22.1956
 144   2.0000      -0.807200       -21.9650
 145   2.0000      -0.792803       -21.5733
 146   2.0000      -0.775015       -21.0892
 147   2.0000      -0.774877       -21.0855
 148   2.0000      -0.771043       -20.9811
 149   2.0000      -0.765536       -20.8313
 150   2.0000      -0.748861       -20.3776
 151   2.0000      -0.747009       -20.3271
 152   2.0000      -0.742205       -20.1964
 153   2.0000      -0.730152       -19.8684
 154   2.0000      -0.726953       -19.7814
 155   2.0000      -0.724910       -19.7258
 156   2.0000      -0.723858       -19.6972
 157   2.0000      -0.720061       -19.5938
 158   2.0000      -0.715796       -19.4778
 159   2.0000      -0.711575       -19.3629
 160   2.0000      -0.699635       -19.0380
 161   2.0000      -0.697930       -18.9916
 162   2.0000      -0.694083       -18.8870
 163   2.0000      -0.690382       -18.7862
 164   2.0000      -0.682395       -18.5689
 165   2.0000      -0.674243       -18.3471
 166   2.0000      -0.673312       -18.3217
 167   2.0000      -0.668672       -18.1955
 168   2.0000      -0.663291       -18.0491
 169   2.0000      -0.661901       -18.0112
 170   2.0000      -0.656634       -17.8679
 171   2.0000      -0.650309       -17.6958
 172   2.0000      -0.648390       -17.6436
 173   2.0000      -0.647817       -17.6280
 174   2.0000      -0.643869       -17.5206
 175   2.0000      -0.638806       -17.3828
 176   2.0000      -0.633012       -17.2251
 177   2.0000      -0.631256       -17.1773
 178   2.0000      -0.622218       -16.9314
 179   2.0000      -0.618107       -16.8196
 180   2.0000      -0.616113       -16.7653
 181   2.0000      -0.610124       -16.6023
 182   2.0000      -0.609021       -16.5723
 183   2.0000      -0.601255       -16.3610
 184   2.0000      -0.597603       -16.2616
 185   2.0000      -0.594515       -16.1776
 186   2.0000      -0.590551       -16.0697
 187   2.0000      -0.590298       -16.0628
 188   2.0000      -0.588301       -16.0085
 189   2.0000      -0.587218       -15.9790
 190   2.0000      -0.584278       -15.8990
 191   2.0000      -0.580166       -15.7871
 192   2.0000      -0.578768       -15.7491
 193   2.0000      -0.572707       -15.5841
 194   2.0000      -0.572321       -15.5737
 195   2.0000      -0.568462       -15.4686
 196   2.0000      -0.564187       -15.3523
 197   2.0000      -0.559924       -15.2363
 198   2.0000      -0.559812       -15.2333
 199   2.0000      -0.553281       -15.0555
 200   2.0000      -0.552011       -15.0210
 201   2.0000      -0.551864       -15.0170
 202   2.0000      -0.549186       -14.9441
 203   2.0000      -0.546014       -14.8578
 204   2.0000      -0.544789       -14.8245
 205   2.0000      -0.543546       -14.7906
 206   2.0000      -0.540509       -14.7080
 207   2.0000      -0.539250       -14.6737
 208   2.0000      -0.536778       -14.6065
 209   2.0000      -0.536622       -14.6022
 210   2.0000      -0.531530       -14.4637
 211   2.0000      -0.528835       -14.3903
 212   2.0000      -0.527752       -14.3609
 213   2.0000      -0.525921       -14.3110
 214   2.0000      -0.524126       -14.2622
 215   2.0000      -0.521406       -14.1882
 216   2.0000      -0.519577       -14.1384
 217   2.0000      -0.518685       -14.1141
 218   2.0000      -0.517131       -14.0718
 219   2.0000      -0.515242       -14.0204
 220   2.0000      -0.513290       -13.9673
 221   2.0000      -0.510956       -13.9038
 222   2.0000      -0.509176       -13.8554
 223   2.0000      -0.507944       -13.8219
 224   2.0000      -0.505853       -13.7650
 225   2.0000      -0.503279       -13.6949
 226   2.0000      -0.502038       -13.6612
 227   2.0000      -0.499038       -13.5795
 228   2.0000      -0.495790       -13.4911
 229   2.0000      -0.493438       -13.4271
 230   2.0000      -0.492301       -13.3962
 231   2.0000      -0.490702       -13.3527
 232   2.0000      -0.489009       -13.3066
 233   2.0000      -0.486830       -13.2473
 234   2.0000      -0.484049       -13.1716
 235   2.0000      -0.475716       -12.9449
 236   2.0000      -0.475013       -12.9258
 237   2.0000      -0.474567       -12.9136
 238   2.0000      -0.472549       -12.8587
 239   2.0000      -0.469592       -12.7782
 240   2.0000      -0.469111       -12.7651
 241   2.0000      -0.468506       -12.7487
 242   2.0000      -0.465494       -12.6667
 243   2.0000      -0.463756       -12.6194
 244   2.0000      -0.462631       -12.5888
 245   2.0000      -0.461317       -12.5531
 246   2.0000      -0.456138       -12.4121
 247   2.0000      -0.455537       -12.3958
 248   2.0000      -0.452922       -12.3246
 249   2.0000      -0.452585       -12.3155
 250   2.0000      -0.452387       -12.3101
 251   2.0000      -0.450513       -12.2591
 252   2.0000      -0.449023       -12.2185
 253   2.0000      -0.445671       -12.1273
 254   2.0000      -0.443139       -12.0584
 255   2.0000      -0.442565       -12.0428
 256   2.0000      -0.441165       -12.0047
 257   2.0000      -0.438597       -11.9348
 258   2.0000      -0.438352       -11.9282
 259   2.0000      -0.438014       -11.9190
 260   2.0000      -0.436690       -11.8829
 261   2.0000      -0.435204       -11.8425
 262   2.0000      -0.433352       -11.7921
 263   2.0000      -0.430788       -11.7223
 264   2.0000      -0.430216       -11.7068
 265   2.0000      -0.428345       -11.6559
 266   2.0000      -0.426030       -11.5929
 267   2.0000      -0.420274       -11.4362
 268   2.0000      -0.417949       -11.3730
 269   2.0000      -0.416672       -11.3382
 270   2.0000      -0.415491       -11.3061
 271   2.0000      -0.407823       -11.0974
 272   2.0000      -0.403717       -10.9857
 273   2.0000      -0.402758       -10.9596
 274   2.0000      -0.401177       -10.9166
 275   2.0000      -0.393350       -10.7036
 276   2.0000      -0.391197       -10.6450
 277   2.0000      -0.387410       -10.5420
 278   2.0000      -0.385642       -10.4939
 279   2.0000      -0.383695       -10.4409
 280   2.0000      -0.364346        -9.9143
 281   2.0000      -0.363275        -9.8852
 282   2.0000      -0.361864        -9.8468
 283   2.0000      -0.355123        -9.6634
 284   2.0000      -0.354337        -9.6420
 285   2.0000      -0.341349        -9.2886
 286   2.0000      -0.332950        -9.0600
 287   2.0000      -0.325260        -8.8508
 288   2.0000      -0.322526        -8.7764
 289   2.0000      -0.321623        -8.7518
 290   2.0000      -0.310412        -8.4467
 291   2.0000      -0.307275        -8.3614
 292   2.0000      -0.304584        -8.2881
 293   2.0000      -0.297212        -8.0876
 294   2.0000      -0.259322        -7.0565
 295   0.0000      -0.147017        -4.0005
 296   0.0000      -0.129290        -3.5182
 297   0.0000      -0.093999        -2.5579
 298   0.0000      -0.088271        -2.4020
 299   0.0000      -0.067805        -1.8451

MULLIKEN ATOMIC CHARGES
-----------------------
   0 C :   -0.111141
   1 C :    0.244611
   2 F :   -0.168352
   3 C :    0.242381
   4 F :   -0.170078
   5 C :   -0.107116
   6 C :    0.118155
   7 C :    0.116913
   8 C :   -0.087498
   9 C :    0.057527
  10 C :   -0.010618
  11 C :   -0.079467
  12 C :    0.145967
  13 O :   -0.139100
  14 C :   -0.090603
  15 C :    0.301011
  16 C :   -0.333483
  17 C :   -0.204505
  18 N :    0.172776
  19 C :   -0.180300
  20 N :    0.155894
  21 C :   -0.021355
  22 C :    0.078918
  23 C :   -0.074813
  24 C :    0.098990
  25 C :   -0.133603
  26 C :    0.072874
  27 C :   -0.166299
  28 N :    0.121928
  29 C :    0.145157
  30 C :   -0.167854
  31 C :    0.114964
  32 C :   -0.006319
  33 C :   -0.102821
  34 C :   -0.176640
  35 N :    0.142691
  36 C :   -0.111493
  37 S :    0.107959
  38 C :   -0.082383
  39 N :   -0.099366
  40 C :    0.097858
  41 C :    0.046163
  42 C :    0.095517
  43 C :    0.130875
  44 O :   -0.199175
  45 O :   -0.301047
  46 C :    0.170615
  47 C :    0.149549
  48 C :   -0.036598
  49 C :   -0.030040
  50 N :    0.066832
  51 C :   -0.122734
  52 C :   -0.077929
  53 N :   -0.048863
  54 C :   -0.239444
  55 N :    0.242299
  56 C :   -0.203240
  57 N :    0.246297
  58 C :    0.047546
  59 C :    0.005589
  60 C :   -0.037352
  61 N :   -0.272732
  62 S :    0.574312
  63 N :   -0.291736
  64 C :   -0.035659
  65 C :   -0.109023
  66 C :    0.131962
  67 O :   -0.132436
  68 C :    0.015441
  69 C :   -0.080325
  70 C :    0.110948
  71 C :    0.111981
  72 C :   -0.106338
  73 C :    0.241537
  74 C :    0.237043
  75 C :   -0.101494
  76 F :   -0.170089
  77 F :   -0.169870
  78 C :   -0.084109
  79 C :    0.036290
  80 C :    0.338601
  81 C :   -0.346425
  82 C :   -0.181476
  83 N :    0.144159
  84 C :   -0.193648
  85 N :    0.155559
  86 H :    0.009592
  87 H :    0.002346
  88 H :   -0.003791
  89 H :   -0.006750
  90 H :    0.040606
  91 H :    0.012943
  92 H :    0.002418
  93 H :    0.018476
  94 H :    0.016758
  95 H :    0.152590
  96 H :    0.052378
  97 H :    0.053571
  98 H :    0.053118
  99 H :    0.046687
 100 H :    0.049888
 101 H :    0.029451
 102 H :    0.036375
 103 H :   -0.006980
 104 H :    0.007103
 105 H :    0.000835
 106 H :   -0.006309
Sum of atomic charges:   -0.0000000

LOEWDIN ATOMIC CHARGES
----------------------
   0 C :   -0.029016
   1 C :    0.068351
   2 F :   -0.046627
   3 C :    0.069066
   4 F :   -0.047468
   5 C :   -0.032254
   6 C :   -0.008146
   7 C :   -0.005129
   8 C :    0.018662
   9 C :   -0.022892
  10 C :   -0.054376
  11 C :    0.032934
  12 C :    0.084486
  13 O :   -0.129123
  14 C :   -0.084670
  15 C :    0.071769
  16 C :   -0.128811
  17 C :   -0.025429
  18 N :   -0.040032
  19 C :   -0.017243
  20 N :   -0.046141
  21 C :    0.078357
  22 C :   -0.034224
  23 C :    0.024241
  24 C :    0.022949
  25 C :   -0.097096
  26 C :    0.075361
  27 C :   -0.025318
  28 N :   -0.073800
  29 C :    0.050986
  30 C :   -0.053813
  31 C :   -0.017429
  32 C :    0.062574
  33 C :   -0.078521
  34 C :   -0.030202
  35 N :   -0.058444
  36 C :   -0.149610
  37 S :    0.456041
  38 C :   -0.058254
  39 N :    0.024157
  40 C :    0.019863
  41 C :   -0.098983
  42 C :   -0.047163
  43 C :    0.087682
  44 O :   -0.160562
  45 O :   -0.086199
  46 C :    0.080063
  47 C :    0.025922
  48 C :   -0.005217
  49 C :    0.025221
  50 N :    0.006322
  51 C :   -0.013749
  52 C :   -0.029238
  53 N :    0.005580
  54 C :   -0.045337
  55 N :   -0.000894
  56 C :   -0.035229
  57 N :    0.009454
  58 C :   -0.061905
  59 C :   -0.036256
  60 C :   -0.042221
  61 N :   -0.255451
  62 S :    0.697708
  63 N :   -0.287244
  64 C :    0.074406
  65 C :   -0.077940
  66 C :    0.084232
  67 O :   -0.133334
  68 C :   -0.054076
  69 C :    0.031669
  70 C :   -0.009028
  71 C :   -0.005509
  72 C :   -0.030657
  73 C :    0.067527
  74 C :    0.067473
  75 C :   -0.032268
  76 F :   -0.047873
  77 F :   -0.047542
  78 C :    0.013814
  79 C :   -0.017896
  80 C :    0.080744
  81 C :   -0.141386
  82 C :   -0.010319
  83 N :   -0.068075
  84 C :   -0.021395
  85 N :   -0.053452
  86 H :    0.048474
  87 H :    0.045783
  88 H :    0.040622
  89 H :    0.041523
  90 H :    0.053107
  91 H :    0.039524
  92 H :    0.037242
  93 H :    0.026268
  94 H :    0.035950
  95 H :    0.058260
  96 H :    0.031960
  97 H :    0.041736
  98 H :    0.030811
  99 H :    0.030872
 100 H :    0.027161
 101 H :    0.019615
 102 H :    0.050812
 103 H :    0.041323
 104 H :    0.047350
 105 H :    0.045376
 106 H :    0.039079

  Mayer bond orders larger than 0.100000
B(  0-C ,  1-C ) :   1.4417 B(  0-C ,  5-C ) :   0.1084 B(  0-C ,  7-C ) :   1.1862
B(  0-C , 86-H ) :   1.0077 B(  1-C ,  2-F ) :   1.1381 B(  1-C ,  3-C ) :   1.1885
B(  3-C ,  4-F ) :   1.1348 B(  3-C ,  5-C ) :   1.4431 B(  5-C ,  6-C ) :   1.1910
B(  5-C , 87-H ) :   1.0078 B(  6-C ,  7-C ) :   1.2546 B(  6-C , 11-C ) :   1.1908
B(  7-C ,  8-C ) :   1.2183 B(  8-C ,  9-C ) :   1.4445 B(  8-C , 88-H ) :   0.9918
B(  9-C , 10-C ) :   1.2189 B(  9-C , 15-C ) :   0.9924 B( 10-C , 11-C ) :   1.4686
B( 10-C , 12-C ) :   0.9434 B( 11-C , 89-H ) :   1.0173 B( 12-C , 13-O ) :   2.2212
B( 12-C , 14-C ) :   0.9377 B( 14-C , 15-C ) :   1.0443 B( 14-C , 21-C ) :   1.6188
B( 15-C , 16-C ) :   1.6603 B( 16-C , 17-C ) :   1.1397 B( 16-C , 19-C ) :   1.1412
B( 17-C , 18-N ) :   2.9953 B( 19-C , 20-N ) :   2.9677 B( 21-C , 22-C ) :   1.1052
B( 21-C , 90-H ) :   0.9504 B( 22-C , 23-C ) :   1.5034 B( 22-C , 26-C ) :   1.0666
B( 23-C , 24-C ) :   1.1079 B( 23-C , 91-H ) :   1.0073 B( 24-C , 25-C ) :   1.1247
B( 24-C , 29-C ) :   1.3952 B( 25-C , 26-C ) :   1.6599 B( 25-C , 27-C ) :   1.0956
B( 26-C , 92-H ) :   1.0077 B( 27-C , 28-N ) :   2.9536 B( 29-C , 30-C ) :   1.1573
B( 29-C , 33-C ) :   1.0959 B( 30-C , 31-C ) :   1.5046 B( 30-C , 93-H ) :   0.9832
B( 31-C , 32-C ) :   1.0506 B( 31-C , 36-C ) :   1.1523 B( 32-C , 33-C ) :   1.6864
B( 32-C , 94-H ) :   1.0078 B( 33-C , 34-C ) :   1.0865 B( 34-C , 35-N ) :   2.9680
B( 36-C , 37-S ) :   1.0413 B( 36-C , 42-C ) :   1.5478 B( 37-S , 38-C ) :   1.1383
B( 38-C , 39-N ) :   1.4392 B( 38-C , 41-C ) :   1.2519 B( 39-N , 40-C ) :   0.9770
B( 39-N , 95-H ) :   0.8496 B( 40-C , 96-H ) :   0.9677 B( 40-C , 97-H ) :   0.9737
B( 40-C , 98-H ) :   0.9633 B( 41-C , 42-C ) :   1.2657 B( 41-C , 47-C ) :   1.0781
B( 42-C , 43-C ) :   0.8842 B( 43-C , 44-O ) :   2.0734 B( 43-C , 45-O ) :   1.2085
B( 45-O , 46-C ) :   0.9158 B( 46-C , 99-H ) :   0.9810 B( 46-C ,100-H ) :   0.9661
B( 46-C ,101-H ) :   0.9775 B( 47-C , 48-C ) :   1.2411 B( 47-C , 58-C ) :   0.1144
B( 47-C , 60-C ) :   1.2411 B( 48-C , 49-C ) :   1.1149 B( 48-C , 53-N ) :   1.4014
B( 49-C , 50-N ) :   1.4670 B( 49-C , 58-C ) :   1.2756 B( 50-N , 51-C ) :   1.7385
B( 51-C , 52-C ) :   1.2131 B( 51-C , 56-C ) :   1.1530 B( 52-C , 53-N ) :   1.6360
B( 52-C , 54-C ) :   1.1508 B( 53-N , 95-H ) :   0.1295 B( 54-C , 55-N ) :   3.0431
B( 56-C , 57-N ) :   3.0476 B( 58-C , 59-C ) :   1.1826 B( 58-C , 64-C ) :   1.1091
B( 59-C , 60-C ) :   1.1087 B( 59-C , 63-N ) :   1.5120 B( 60-C , 61-N ) :   1.5098
B( 61-N , 62-S ) :   1.2977 B( 61-N , 63-N ) :   0.1350 B( 62-S , 63-N ) :   1.2556
B( 64-C , 65-C ) :   1.6472 B( 64-C ,102-H ) :   0.9404 B( 65-C , 66-C ) :   0.9330
B( 65-C , 80-C ) :   1.0409 B( 66-C , 67-O ) :   2.2839 B( 66-C , 68-C ) :   0.9154
B( 68-C , 69-C ) :   1.4745 B( 68-C , 79-C ) :   1.2175 B( 69-C , 70-C ) :   1.1950
B( 69-C ,103-H ) :   1.0154 B( 70-C , 71-C ) :   1.2550 B( 70-C , 75-C ) :   1.1941
B( 71-C , 72-C ) :   1.1894 B( 71-C , 78-C ) :   1.2166 B( 72-C , 73-C ) :   1.4427
B( 72-C , 75-C ) :   0.1082 B( 72-C ,104-H ) :   1.0064 B( 73-C , 74-C ) :   1.1911
B( 73-C , 77-F ) :   1.1363 B( 74-C , 75-C ) :   1.4443 B( 74-C , 76-F ) :   1.1349
B( 75-C ,105-H ) :   1.0062 B( 78-C , 79-C ) :   1.4539 B( 78-C ,106-H ) :   0.9927
B( 79-C , 80-C ) :   1.0094 B( 80-C , 81-C ) :   1.6287 B( 81-C , 82-C ) :   1.1790
B( 81-C , 84-C ) :   1.1429 B( 82-C , 83-N ) :   2.9766 B( 84-C , 85-N ) :   2.9827

-----------------------------------------------------------------------------
         ABSORPTION SPECTRUM VIA TRANSITION ELECTRIC DIPOLE MOMENTS
-----------------------------------------------------------------------------
State   Energy  Wavelength   fosc         T2         TX        TY        TZ
        (cm-1)    (nm)                  (au**2)     (au)      (au)      (au)
-----------------------------------------------------------------------------
   0    8790.0   1137.7   0.704650404  26.39132  -1.01765   3.41828   3.69744
   1   13215.2    756.7   0.291365873   7.25841   1.36755  -1.99033  -1.19448
   2   17659.9    566.3   0.031117555   0.58009  -0.65334   0.23301   0.31455
   3   18062.8    553.6   0.015997162   0.29156   0.18858   0.28266   0.41965
   4   20023.4    499.4   0.152642983   2.50966   0.27385   0.77420   1.35472
   5   20430.1    489.5   0.256760750   4.13746   1.21140   0.67362   1.48869
   6   21325.7    468.9   0.232461716   3.58859  -1.02542   1.49913   0.53825
   7   23060.5    433.6   0.095219880   1.35936   0.26549  -0.90079  -0.69098
   8   24284.4    411.8   0.184117646   2.49599   0.87925  -0.78367  -1.05298
   9   24291.6    411.7   0.064362847   0.87228  -0.62653   0.51083   0.46775
  10   24666.2    405.4   0.036833002   0.49160   0.31350  -0.59842  -0.18763
  11   25193.7    396.9   0.037371521   0.48834  -0.27068   0.64289   0.04210
  12   25319.5    395.0   0.019996337   0.26000  -0.16030  -0.24288  -0.41870
  13   25752.4    388.3   0.010176150   0.13009   0.35741  -0.04484  -0.01832
  14   25837.1    387.0   0.010246813   0.13056  -0.26817   0.12751  -0.20589
  15   26345.9    379.6   0.018593925   0.23234   0.29892   0.04114  -0.37589
  16   26775.3    373.5   0.057453446   0.70641  -0.69571   0.40771   0.23702
  17   26852.5    372.4   0.025565935   0.31344   0.31042   0.33456  -0.32427
  18   27068.8    369.4   0.172589523   2.09904  -0.64335   1.14266   0.61601
  19   28139.1    355.4   0.166493557   1.94788   0.76054  -0.72456  -0.91895
  20   28577.9    349.9   0.038752265   0.44642   0.20854  -0.42212  -0.47407
  21   28705.7    348.4   0.044045710   0.50514  -0.40534   0.31492  -0.49160
  22   28946.3    345.5   0.149071669   1.69542   0.30169  -1.20099  -0.40253
  23   29044.3    344.3   0.039499076   0.44771  -0.19528   0.62221   0.14979
  24   29305.5    341.2   0.064818250   0.72816  -0.29192  -0.17369  -0.78280
  25   29585.7    338.0   0.073768375   0.82085  -0.79913  -0.17459  -0.38956
  26   29646.9    337.3   0.197398837   2.19200  -0.05902   0.20566   1.46500
  27   29764.7    336.0   0.019543345   0.21616  -0.39682   0.10224   0.21964
  28   30502.5    327.8   0.085853218   0.92661   0.35618   0.11037   0.88745
  29   30585.8    326.9   0.258931068   2.78702   1.10320  -0.22322  -1.23294
  30   30945.9    323.1   0.613189390   6.52329  -2.21146   0.87954  -0.92690
  31   31137.0    321.2   0.017180544   0.18165  -0.22925  -0.19073   0.30450
  32   31332.5    319.2   0.051888235   0.54519   0.13194  -0.20697  -0.69638
  33   31431.7    318.2   0.092581798   0.96969  -0.87028   0.00230   0.46076
  34   32357.6    309.0   0.021881720   0.22263  -0.44968   0.01905  -0.14162
  35   32587.2    306.9   0.098888538   0.99902  -0.09793   0.94224   0.31875
  36   32719.8    305.6   0.152720259   1.53660   1.04721  -0.32707  -0.57704
  37   33098.4    302.1   0.037480121   0.37279   0.42680  -0.11232   0.42193
  38   33251.0    300.7   0.229424123   2.27149  -1.22002  -0.18651   0.86501
  39   33533.8    298.2   0.001237596   0.01215   0.00887  -0.00668   0.10967
  40   33659.3    297.1   0.040330134   0.39446  -0.02823  -0.01053  -0.62734
  41   33819.3    295.7   0.037097487   0.36112   0.14133   0.31405  -0.49246
  42   33821.5    295.7   0.082783576   0.80580   0.08763  -0.25168  -0.85719
  43   34067.5    293.5   0.114930113   1.11063   0.76585   0.38948  -0.61026
  44   34312.1    291.4   0.007184088   0.06893   0.21524   0.11476  -0.09711
  45   34952.0    286.1   0.096913448   0.91283  -0.62411   0.39521   0.60591
  46   35180.2    284.3   0.104925499   0.98188  -0.12152  -0.07272  -0.98073
  47   35337.5    283.0   0.642945631   5.98982  -0.66546   0.13213  -2.35149
  48   35700.5    280.1   0.150484344   1.38769  -0.54203   0.38438   0.97270
  49   36038.8    277.5   0.105713398   0.96569   0.91733  -0.24975   0.24862
  50   36229.7    276.0   0.242782077   2.20611  -1.47612  -0.16142  -0.03373
  51   36250.2    275.9   0.413679231   3.75689  -0.91032  -1.26675   1.15046
  52   36752.0    272.1   0.011212711   0.10044   0.13681   0.19220  -0.21161
  53   36990.6    270.3   0.009794066   0.08717  -0.01315  -0.29494  -0.00152
  54   37074.3    269.7   0.018965941   0.16841  -0.12551  -0.08204   0.38201
  55   37221.3    268.7   0.002003440   0.01772   0.09917  -0.03065  -0.08334
  56   37467.8    266.9   0.008506913   0.07475   0.18490   0.07224  -0.18798
  57   37516.8    266.5   0.027154828   0.23828   0.41348  -0.14082   0.21793
  58   37775.2    264.7   0.030137072   0.26265   0.20102   0.40767  -0.23674
  59   38017.2    263.0   0.036508741   0.31615   0.54719  -0.05265   0.11816
  60   38107.8    262.4   0.113610062   0.98147   0.83023  -0.43427   0.32188
  61   38568.4    259.3   0.075439814   0.64394   0.14291  -0.61978  -0.48928
  62   38765.4    258.0   0.017873712   0.15179   0.19682  -0.11010   0.31770
  63   39006.9    256.4   0.026335138   0.22226   0.45681   0.09308   0.07016
  64   39052.4    256.1   0.040924233   0.34499   0.43490  -0.39139  -0.05166
  65   39404.1    253.8   0.115363523   0.96383  -0.77279   0.54938   0.25458
  66   39517.3    253.1   0.050212553   0.41831  -0.30369   0.10156  -0.56193
  67   39696.8    251.9   0.056228738   0.46631  -0.46637   0.44555   0.22428
  68   39756.5    251.5   0.107016207   0.88617   0.49461  -0.79651   0.08426
  69   39883.6    250.7   0.110397728   0.91126   0.29965  -0.85215  -0.30873
  70   39921.5    250.5   0.065976315   0.54407  -0.42666  -0.37645  -0.46938
  71   40187.3    248.8   0.071403412   0.58493   0.76239  -0.05270  -0.03015

FINAL SINGLE POINT ENERGY     -4616.593429456481

DIPOLE MOMENT
-------------
                                X             Y             Z
Electronic contribution:    -24.61715      -4.74269     -11.23753
Nuclear contribution   :     24.02657       3.73659      10.32554
                        -----------------------------------------
Total Dipole Moment    :     -0.59058      -1.00610      -0.91199
                        -----------------------------------------
Magnitude (a.u.)       :      1.48079
Magnitude (Debye)      :      3.76388

Rotational constants in cm-1:     0.001081     0.000194     0.000178
Rotational constants in MHz :    32.402869     5.818739     5.337161

                             ****ORCA TERMINATED NORMALLY****
TOTAL RUN TIME: 0 days 0 hours 14 minutes 20 seconds 688 msec
