                         Program Version 4.2.0 -  RELEASE  -
|  1> # ORCA input file
|  2> # SCF done       -176.353129156793          0.000667845567
|  3> ! CAM-B3LYP def2-SVP def2/J RIJCOSX Grid4 TightSCF
|  4> %maxcore 5000
|  5> %tddft
|  6>     Mode sTDDFT
|  7>     Ethresh 5.0
|  8>     maxcore 5000
|  9> end
| 10>
| 11> %pal
| 12>   nprocs 6
| 13>   end
| 14> * xyz 0 1
| 15>    C        1.90561         0.34619        -6.46461
| 16>    N        2.00560         0.82433        -5.19879
| 17>    C        2.73515         0.21158        -4.11699
| 18>    C        4.24075         0.40296        -4.27652
| 19>    C        1.34676         2.06941        -5.06436
| 20>    O        1.30459         2.68995        -4.02013
| 21>    C        0.80981         2.32404        -6.37893
| 22>    C        1.18061         1.22872        -7.21894
| 23>    C        0.63793         1.47321        -8.54050
| 24>    O        0.68187         0.84228        -9.57196
| 25>    N       -0.03563         2.70391        -8.40830
| 26>    C       -0.67654         3.32085        -9.54386
| 27>    C        0.18254         4.42761       -10.15134
| 28>    C        0.06042         3.22109        -7.13403
| 29>    C       -0.54112         4.44078        -6.73917
| 30>    C       -0.42629         4.94843        -5.48146
| 31>    C       -1.01630         6.16121        -5.04816
| 32>    C       -0.88283         6.71511        -3.78949
| 33>    C       -1.59775         7.94291        -3.73523
| 34>    C       -2.21921         8.11024        -5.06268
| 35>    C       -1.86441         7.04753        -5.83178
| 36>    C       -3.07046         9.14263        -5.46856
| 37>    N       -3.78892         9.96571        -5.82727
| 38>    C       -1.69394         8.83003        -2.68753
| 39>    C       -2.32890        10.10250        -2.69488
| 40>    C       -2.19281        10.69793        -1.46409
| 41>    C       -1.46277         9.77264        -0.60986
| 42>    C       -1.15456         8.65882        -1.32656
| 43>    C       -0.47256         7.54700        -0.82350
| 44>    N        0.09208         6.65491        -0.37012
| 45>    C       -2.70756        11.99770        -1.12669
| 46>    C       -2.31099        12.82484        -0.09206
| 47>    C       -1.23155        12.66162         0.92301
| 48>    C        0.15434        12.67454         0.27214
| 49>    S       -3.16568        14.31933        -0.12683
| 50>    C       -4.09702        13.84217        -1.53037
| 51>    C       -3.72413        12.59559        -1.92765
| 52>    C       -5.04791        14.77355        -2.08753
| 53>    C       -5.93169        14.53557        -3.13527
| 54>    C       -6.13476        13.28581        -3.91695
| 55>    C       -7.29431        13.37042        -4.90084
| 56>    S       -6.86114        15.93150        -3.50233
| 57>    C       -6.04201        16.88101        -2.28968
| 58>    C       -5.12910        16.09840        -1.61980
| 59>    C       -6.39409        18.23580        -2.10395
| 60>    C       -5.70818        19.22410        -1.46259
| 61>    C       -6.44415        20.44503        -1.03703
| 62>    O       -7.55774        20.77449        -1.37451
| 63>    C       -5.54819        21.12718        -0.08020
| 64>    C       -5.78538        22.23889         0.67503
| 65>    C       -4.77835        22.70128         1.55191
| 66>    C       -3.54528        21.99191         1.63623
| 67>    C       -2.54871        22.45229         2.52011
| 68>    C       -2.76355        23.56781         3.27947
| 69>    C       -3.98159        24.27123         3.19206
| 70>    C       -4.96901        23.84788         2.34732
| 71>    F       -4.16440        25.36238         3.94815
| 72>    F       -1.81405        24.00483         4.11756
| 73>    C       -3.32546        20.84796         0.83536
| 74>    C       -4.30954        20.42792        -0.01876
| 75>    C       -4.34626        19.33398        -0.98799
| 76>    C       -3.23715        18.72614        -1.51747
| 77>    C       -3.26074        17.89271        -2.65358
| 78>    N       -3.21400        17.24643        -3.60093
| 79>    C       -1.92664        18.92521        -1.03856
| 80>    N       -0.84401        19.02553        -0.66963
| 81>    H        2.34908        -0.59265        -6.74068
| 82>    H        2.48790        -0.85328        -4.07540
| 83>    H        2.39251         0.69694        -3.19941
| 84>    H        4.59049        -0.05005        -5.20155
| 85>    H        4.76128        -0.05947        -3.44289
| 86>    H        4.48315         1.46261        -4.29390
| 87>    H       -1.65831         3.70369        -9.25033
| 88>    H       -0.81724         2.52317       -10.27887
| 89>    H        0.38147         5.21324        -9.42542
| 90>    H       -0.32652         4.86157       -11.00757
| 91>    H        1.13270         4.01696       -10.48375
| 92>    H       -1.11332         4.97370        -7.48437
| 93>    H        0.15380         4.40922        -4.74410
| 94>    H       -0.31416         6.29729        -2.98158
| 95>    H       -2.17006         6.88532        -6.84874
| 96>    H       -2.79195        10.53198        -3.55942
| 97>    H       -1.23274         9.92148         0.42715
| 98>    H       -1.37193        11.73271         1.47999
| 99>    H       -1.29829        13.48537         1.63689
|100>    H        0.25263        11.86218        -0.44402
|101>    H        0.92333        12.56430         1.03228
|102>    H        0.31493        13.61509        -0.24971
|103>    H       -4.14951        12.08363        -2.76665
|104>    H       -6.30730        12.45920        -3.21983
|105>    H       -5.21610        13.06351        -4.47002
|106>    H       -8.22850        13.57039        -4.38018
|107>    H       -7.39037        12.43097        -5.43826
|108>    H       -7.12470        14.16432        -5.62476
|109>    H       -4.55272        16.45367        -0.78336
|110>    H       -7.37432        18.52781        -2.46870
|111>    H       -6.72774        22.76019         0.60347
|112>    H       -1.60878        21.92822         2.59564
|113>    H       -5.89577        24.39719         2.29221
|114>    H       -2.38505        20.32764         0.92303
|115> *
|116>
|117>                          ****END OF INPUT****

CARTESIAN COORDINATES (ANGSTROEM)
---------------------------------
  C      1.905610    0.346190   -6.464610
  N      2.005600    0.824330   -5.198790
  C      2.735150    0.211580   -4.116990
  C      4.240750    0.402960   -4.276520
  C      1.346760    2.069410   -5.064360
  O      1.304590    2.689950   -4.020130
  C      0.809810    2.324040   -6.378930
  C      1.180610    1.228720   -7.218940
  C      0.637930    1.473210   -8.540500
  O      0.681870    0.842280   -9.571960
  N     -0.035630    2.703910   -8.408300
  C     -0.676540    3.320850   -9.543860
  C      0.182540    4.427610  -10.151340
  C      0.060420    3.221090   -7.134030
  C     -0.541120    4.440780   -6.739170
  C     -0.426290    4.948430   -5.481460
  C     -1.016300    6.161210   -5.048160
  C     -0.882830    6.715110   -3.789490
  C     -1.597750    7.942910   -3.735230
  C     -2.219210    8.110240   -5.062680
  C     -1.864410    7.047530   -5.831780
  C     -3.070460    9.142630   -5.468560
  N     -3.788920    9.965710   -5.827270
  C     -1.693940    8.830030   -2.687530
  C     -2.328900   10.102500   -2.694880
  C     -2.192810   10.697930   -1.464090
  C     -1.462770    9.772640   -0.609860
  C     -1.154560    8.658820   -1.326560
  C     -0.472560    7.547000   -0.823500
  N      0.092080    6.654910   -0.370120
  C     -2.707560   11.997700   -1.126690
  C     -2.310990   12.824840   -0.092060
  C     -1.231550   12.661620    0.923010
  C      0.154340   12.674540    0.272140
  S     -3.165680   14.319330   -0.126830
  C     -4.097020   13.842170   -1.530370
  C     -3.724130   12.595590   -1.927650
  C     -5.047910   14.773550   -2.087530
  C     -5.931690   14.535570   -3.135270
  C     -6.134760   13.285810   -3.916950
  C     -7.294310   13.370420   -4.900840
  S     -6.861140   15.931500   -3.502330
  C     -6.042010   16.881010   -2.289680
  C     -5.129100   16.098400   -1.619800
  C     -6.394090   18.235800   -2.103950
  C     -5.708180   19.224100   -1.462590
  C     -6.444150   20.445030   -1.037030
  O     -7.557740   20.774490   -1.374510
  C     -5.548190   21.127180   -0.080200
  C     -5.785380   22.238890    0.675030
  C     -4.778350   22.701280    1.551910
  C     -3.545280   21.991910    1.636230
  C     -2.548710   22.452290    2.520110
  C     -2.763550   23.567810    3.279470
  C     -3.981590   24.271230    3.192060
  C     -4.969010   23.847880    2.347320
  F     -4.164400   25.362380    3.948150
  F     -1.814050   24.004830    4.117560
  C     -3.325460   20.847960    0.835360
  C     -4.309540   20.427920   -0.018760
  C     -4.346260   19.333980   -0.987990
  C     -3.237150   18.726140   -1.517470
  C     -3.260740   17.892710   -2.653580
  N     -3.214000   17.246430   -3.600930
  C     -1.926640   18.925210   -1.038560
  N     -0.844010   19.025530   -0.669630
  H      2.349080   -0.592650   -6.740680
  H      2.487900   -0.853280   -4.075400
  H      2.392510    0.696940   -3.199410
  H      4.590490   -0.050050   -5.201550
  H      4.761280   -0.059470   -3.442890
  H      4.483150    1.462610   -4.293900
  H     -1.658310    3.703690   -9.250330
  H     -0.817240    2.523170  -10.278870
  H      0.381470    5.213240   -9.425420
  H     -0.326520    4.861570  -11.007570
  H      1.132700    4.016960  -10.483750
  H     -1.113320    4.973700   -7.484370
  H      0.153800    4.409220   -4.744100
  H     -0.314160    6.297290   -2.981580
  H     -2.170060    6.885320   -6.848740
  H     -2.791950   10.531980   -3.559420
  H     -1.232740    9.921480    0.427150
  H     -1.371930   11.732710    1.479990
  H     -1.298290   13.485370    1.636890
  H      0.252630   11.862180   -0.444020
  H      0.923330   12.564300    1.032280
  H      0.314930   13.615090   -0.249710
  H     -4.149510   12.083630   -2.766650
  H     -6.307300   12.459200   -3.219830
  H     -5.216100   13.063510   -4.470020
  H     -8.228500   13.570390   -4.380180
  H     -7.390370   12.430970   -5.438260
  H     -7.124700   14.164320   -5.624760
  H     -4.552720   16.453670   -0.783360
  H     -7.374320   18.527810   -2.468700
  H     -6.727740   22.760190    0.603470
  H     -1.608780   21.928220    2.595640
  H     -5.895770   24.397190    2.292210
  H     -2.385050   20.327640    0.923030

 Total Charge           Charge          ....    0
 Multiplicity           Mult            ....    1
 Number of Electrons    NEL             ....  468
 Basis Dimension        Dim             .... 1102

ORBITAL ENERGIES
----------------

  NO   OCC          E(Eh)            E(eV)
   0   2.0000     -88.969966     -2420.9959
   1   2.0000     -88.963539     -2420.8210
   2   2.0000     -24.798156      -674.7921
   3   2.0000     -24.797723      -674.7803
   4   2.0000     -19.214648      -522.8571
   5   2.0000     -19.191782      -522.2349
   6   2.0000     -19.185071      -522.0523
   7   2.0000     -14.454013      -393.3137
   8   2.0000     -14.450986      -393.2313
   9   2.0000     -14.417416      -392.3178
  10   2.0000     -14.415101      -392.2548
  11   2.0000     -14.413612      -392.2143
  12   2.0000     -14.407456      -392.0468
  13   2.0000     -10.381299      -282.4895
  14   2.0000     -10.380826      -282.4766
  15   2.0000     -10.372938      -282.2620
  16   2.0000     -10.371678      -282.2277
  17   2.0000     -10.366200      -282.0786
  18   2.0000     -10.343841      -281.4702
  19   2.0000     -10.343257      -281.4543
  20   2.0000     -10.342033      -281.4210
  21   2.0000     -10.330531      -281.1080
  22   2.0000     -10.323650      -280.9208
  23   2.0000     -10.323030      -280.9039
  24   2.0000     -10.321238      -280.8552
  25   2.0000     -10.320470      -280.8343
  26   2.0000     -10.320332      -280.8305
  27   2.0000     -10.317319      -280.7485
  28   2.0000     -10.316211      -280.7184
  29   2.0000     -10.316161      -280.7170
  30   2.0000     -10.316082      -280.7149
  31   2.0000     -10.313762      -280.6517
  32   2.0000     -10.312638      -280.6212
  33   2.0000     -10.310741      -280.5695
  34   2.0000     -10.310588      -280.5654
  35   2.0000     -10.310439      -280.5613
  36   2.0000     -10.310286      -280.5572
  37   2.0000     -10.310191      -280.5546
  38   2.0000     -10.309025      -280.5228
  39   2.0000     -10.308824      -280.5174
  40   2.0000     -10.308537      -280.5096
  41   2.0000     -10.308066      -280.4967
  42   2.0000     -10.305557      -280.4285
  43   2.0000     -10.302525      -280.3460
  44   2.0000     -10.302298      -280.3398
  45   2.0000     -10.301100      -280.3072
  46   2.0000     -10.300486      -280.2905
  47   2.0000     -10.300430      -280.2890
  48   2.0000     -10.297682      -280.2142
  49   2.0000     -10.297008      -280.1958
  50   2.0000     -10.296420      -280.1798
  51   2.0000     -10.296344      -280.1778
  52   2.0000     -10.295972      -280.1676
  53   2.0000     -10.293463      -280.0994
  54   2.0000     -10.290964      -280.0314
  55   2.0000     -10.289241      -279.9845
  56   2.0000     -10.287539      -279.9382
  57   2.0000     -10.287013      -279.9239
  58   2.0000     -10.278766      -279.6995
  59   2.0000     -10.277644      -279.6689
  60   2.0000     -10.267654      -279.3971
  61   2.0000     -10.266576      -279.3677
  62   2.0000     -10.265115      -279.3280
  63   2.0000     -10.264499      -279.3112
  64   2.0000     -10.260842      -279.2117
  65   2.0000     -10.259339      -279.1708
  66   2.0000      -8.065548      -219.4747
  67   2.0000      -8.059324      -219.3054
  68   2.0000      -6.034712      -164.2129
  69   2.0000      -6.030465      -164.0973
  70   2.0000      -6.028479      -164.0433
  71   2.0000      -6.027968      -164.0293
  72   2.0000      -6.024373      -163.9315
  73   2.0000      -6.021633      -163.8570
  74   2.0000      -1.320780       -35.9403
  75   2.0000      -1.305948       -35.5366
  76   2.0000      -1.131840       -30.7989
  77   2.0000      -1.130261       -30.7560
  78   2.0000      -1.124755       -30.6061
  79   2.0000      -1.062575       -28.9141
  80   2.0000      -1.053900       -28.6781
  81   2.0000      -1.021213       -27.7886
  82   2.0000      -1.017312       -27.6825
  83   2.0000      -1.008205       -27.4347
  84   2.0000      -1.004211       -27.3260
  85   2.0000      -1.001991       -27.2656
  86   2.0000      -0.994497       -27.0616
  87   2.0000      -0.990049       -26.9406
  88   2.0000      -0.987158       -26.8619
  89   2.0000      -0.981080       -26.6965
  90   2.0000      -0.977046       -26.5868
  91   2.0000      -0.932882       -25.3850
  92   2.0000      -0.927737       -25.2450
  93   2.0000      -0.914106       -24.8741
  94   2.0000      -0.912232       -24.8231
  95   2.0000      -0.897920       -24.4336
  96   2.0000      -0.895215       -24.3600
  97   2.0000      -0.890838       -24.2409
  98   2.0000      -0.881708       -23.9925
  99   2.0000      -0.874598       -23.7990
 100   2.0000      -0.869929       -23.6720
 101   2.0000      -0.860621       -23.4187
 102   2.0000      -0.852974       -23.2106
 103   2.0000      -0.848339       -23.0845
 104   2.0000      -0.840555       -22.8727
 105   2.0000      -0.825986       -22.4762
 106   2.0000      -0.820469       -22.3261
 107   2.0000      -0.819618       -22.3029
 108   2.0000      -0.810611       -22.0579
 109   2.0000      -0.801947       -21.8221
 110   2.0000      -0.787334       -21.4245
 111   2.0000      -0.780306       -21.2332
 112   2.0000      -0.765984       -20.8435
 113   2.0000      -0.762071       -20.7370
 114   2.0000      -0.761027       -20.7086
 115   2.0000      -0.743750       -20.2385
 116   2.0000      -0.727719       -19.8022
 117   2.0000      -0.726435       -19.7673
 118   2.0000      -0.724243       -19.7076
 119   2.0000      -0.718194       -19.5431
 120   2.0000      -0.711693       -19.3662
 121   2.0000      -0.709239       -19.2994
 122   2.0000      -0.705616       -19.2008
 123   2.0000      -0.690866       -18.7994
 124   2.0000      -0.683311       -18.5938
 125   2.0000      -0.682069       -18.5600
 126   2.0000      -0.674724       -18.3602
 127   2.0000      -0.667807       -18.1720
 128   2.0000      -0.657799       -17.8996
 129   2.0000      -0.654779       -17.8174
 130   2.0000      -0.651202       -17.7201
 131   2.0000      -0.642583       -17.4856
 132   2.0000      -0.642281       -17.4773
 133   2.0000      -0.629536       -17.1305
 134   2.0000      -0.624170       -16.9845
 135   2.0000      -0.621483       -16.9114
 136   2.0000      -0.613426       -16.6922
 137   2.0000      -0.610965       -16.6252
 138   2.0000      -0.602586       -16.3972
 139   2.0000      -0.598304       -16.2807
 140   2.0000      -0.591139       -16.0857
 141   2.0000      -0.587464       -15.9857
 142   2.0000      -0.585340       -15.9279
 143   2.0000      -0.582216       -15.8429
 144   2.0000      -0.579556       -15.7705
 145   2.0000      -0.578266       -15.7354
 146   2.0000      -0.564971       -15.3736
 147   2.0000      -0.560316       -15.2470
 148   2.0000      -0.553891       -15.0721
 149   2.0000      -0.552646       -15.0383
 150   2.0000      -0.551635       -15.0108
 151   2.0000      -0.548046       -14.9131
 152   2.0000      -0.547002       -14.8847
 153   2.0000      -0.544520       -14.8172
 154   2.0000      -0.541838       -14.7441
 155   2.0000      -0.538122       -14.6431
 156   2.0000      -0.535792       -14.5796
 157   2.0000      -0.534945       -14.5566
 158   2.0000      -0.530559       -14.4373
 159   2.0000      -0.529027       -14.3956
 160   2.0000      -0.526884       -14.3372
 161   2.0000      -0.524201       -14.2642
 162   2.0000      -0.523608       -14.2481
 163   2.0000      -0.519109       -14.1257
 164   2.0000      -0.516678       -14.0595
 165   2.0000      -0.514954       -14.0126
 166   2.0000      -0.514044       -13.9878
 167   2.0000      -0.511267       -13.9123
 168   2.0000      -0.506777       -13.7901
 169   2.0000      -0.504747       -13.7349
 170   2.0000      -0.503365       -13.6972
 171   2.0000      -0.501236       -13.6393
 172   2.0000      -0.498406       -13.5623
 173   2.0000      -0.497074       -13.5261
 174   2.0000      -0.494733       -13.4624
 175   2.0000      -0.492963       -13.4142
 176   2.0000      -0.490107       -13.3365
 177   2.0000      -0.489739       -13.3265
 178   2.0000      -0.483241       -13.1496
 179   2.0000      -0.481670       -13.1069
 180   2.0000      -0.476911       -12.9774
 181   2.0000      -0.476450       -12.9649
 182   2.0000      -0.472152       -12.8479
 183   2.0000      -0.466554       -12.6956
 184   2.0000      -0.464739       -12.6462
 185   2.0000      -0.464441       -12.6381
 186   2.0000      -0.461342       -12.5538
 187   2.0000      -0.458582       -12.4787
 188   2.0000      -0.456876       -12.4322
 189   2.0000      -0.455487       -12.3944
 190   2.0000      -0.454690       -12.3728
 191   2.0000      -0.451045       -12.2736
 192   2.0000      -0.449933       -12.2433
 193   2.0000      -0.448889       -12.2149
 194   2.0000      -0.447647       -12.1811
 195   2.0000      -0.446917       -12.1612
 196   2.0000      -0.446029       -12.1371
 197   2.0000      -0.443217       -12.0606
 198   2.0000      -0.442060       -12.0291
 199   2.0000      -0.441052       -12.0016
 200   2.0000      -0.438307       -11.9269
 201   2.0000      -0.435526       -11.8513
 202   2.0000      -0.433246       -11.7892
 203   2.0000      -0.431092       -11.7306
 204   2.0000      -0.430522       -11.7151
 205   2.0000      -0.428668       -11.6646
 206   2.0000      -0.427405       -11.6303
 207   2.0000      -0.426831       -11.6147
 208   2.0000      -0.422476       -11.4961
 209   2.0000      -0.420709       -11.4481
 210   2.0000      -0.417950       -11.3730
 211   2.0000      -0.416724       -11.3396
 212   2.0000      -0.412031       -11.2119
 213   2.0000      -0.410727       -11.1765
 214   2.0000      -0.405001       -11.0206
 215   2.0000      -0.398679       -10.8486
 216   2.0000      -0.397540       -10.8176
 217   2.0000      -0.385502       -10.4900
 218   2.0000      -0.379009       -10.3134
 219   2.0000      -0.364458        -9.9174
 220   2.0000      -0.351737        -9.5713
 221   2.0000      -0.345797        -9.4096
 222   2.0000      -0.342706        -9.3255
 223   2.0000      -0.335758        -9.1364
 224   2.0000      -0.329284        -8.9603
 225   2.0000      -0.326744        -8.8912
 226   2.0000      -0.317270        -8.6334
 227   2.0000      -0.313808        -8.5391
 228   2.0000      -0.307427        -8.3655
 229   2.0000      -0.303286        -8.2528
 230   2.0000      -0.300743        -8.1836
 231   2.0000      -0.284902        -7.7526
 232   2.0000      -0.266506        -7.2520
 233   2.0000      -0.244316        -6.6482
 234   0.0000      -0.124182        -3.3792
 235   0.0000      -0.092861        -2.5269
 236   0.0000      -0.059262        -1.6126
 237   0.0000      -0.057061        -1.5527
 238   0.0000      -0.028145        -0.7659

MULLIKEN ATOMIC CHARGES
-----------------------
   0 C :    0.043670
   1 N :   -0.258617
   2 C :    0.111347
   3 C :   -0.001507
   4 C :    0.174962
   5 O :   -0.204846
   6 C :   -0.100270
   7 C :   -0.000363
   8 C :    0.164226
   9 O :   -0.186518
  10 N :   -0.271477
  11 C :    0.098100
  12 C :    0.006182
  13 C :    0.164984
  14 C :   -0.028498
  15 C :    0.016564
  16 C :    0.103329
  17 C :   -0.097565
  18 C :    0.107985
  19 C :   -0.101339
  20 C :   -0.008533
  21 C :   -0.166303
  22 N :    0.120364
  23 C :    0.136225
  24 C :   -0.142809
  25 C :    0.073471
  26 C :   -0.017562
  27 C :   -0.100613
  28 C :   -0.187543
  29 N :    0.150586
  30 C :    0.163477
  31 C :   -0.258565
  32 C :    0.078261
  33 C :    0.012555
  34 S :    0.105710
  35 C :   -0.077818
  36 C :   -0.067353
  37 C :    0.181624
  38 C :   -0.246984
  39 C :    0.031748
  40 C :    0.010767
  41 S :    0.148189
  42 C :   -0.101479
  43 C :   -0.026190
  44 C :    0.095723
  45 C :   -0.138011
  46 C :    0.135762
  47 O :   -0.141724
  48 C :    0.014506
  49 C :   -0.083934
  50 C :    0.113204
  51 C :    0.111815
  52 C :   -0.106896
  53 C :    0.242496
  54 C :    0.238025
  55 C :   -0.104576
  56 F :   -0.172326
  57 F :   -0.171779
  58 C :   -0.082913
  59 C :    0.032792
  60 C :    0.274767
  61 C :   -0.345355
  62 C :   -0.206876
  63 N :    0.180191
  64 C :   -0.171452
  65 N :    0.148688
  66 H :    0.016702
  67 H :    0.019378
  68 H :    0.045498
  69 H :    0.013922
  70 H :    0.024443
  71 H :    0.031220
  72 H :    0.019672
  73 H :    0.044452
  74 H :    0.012467
  75 H :    0.023471
  76 H :    0.030615
  77 H :   -0.031891
  78 H :    0.016499
  79 H :    0.018001
  80 H :   -0.003006
  81 H :   -0.002729
  82 H :   -0.013608
  83 H :    0.029552
  84 H :    0.008347
  85 H :    0.028400
  86 H :    0.024649
  87 H :    0.026080
  88 H :   -0.022035
  89 H :    0.046139
  90 H :    0.065753
  91 H :    0.022373
  92 H :    0.033041
  93 H :    0.031159
  94 H :    0.015623
  95 H :    0.022001
  96 H :   -0.009308
  97 H :    0.004743
  98 H :   -0.000129
  99 H :   -0.005191
Sum of atomic charges:   -0.0000000

LOEWDIN ATOMIC CHARGES
----------------------
   0 C :    0.092861
   1 N :    0.001841
   2 C :    0.038528
   3 C :   -0.059988
   4 C :    0.078022
   5 O :   -0.195158
   6 C :   -0.124815
   7 C :   -0.128960
   8 C :    0.081043
   9 O :   -0.191001
  10 N :   -0.009695
  11 C :    0.035202
  12 C :   -0.061286
  13 C :    0.081345
  14 C :   -0.043624
  15 C :    0.037250
  16 C :   -0.024849
  17 C :   -0.004266
  18 C :    0.027624
  19 C :   -0.080848
  20 C :    0.050951
  21 C :   -0.024885
  22 N :   -0.074159
  23 C :    0.044640
  24 C :   -0.043428
  25 C :    0.003713
  26 C :    0.048415
  27 C :   -0.078930
  28 C :   -0.034609
  29 N :   -0.057739
  30 C :   -0.074441
  31 C :   -0.149276
  32 C :   -0.047695
  33 C :   -0.047146
  34 S :    0.445764
  35 C :   -0.154952
  36 C :   -0.045060
  37 C :   -0.080985
  38 C :   -0.132669
  39 C :   -0.046942
  40 C :   -0.061732
  41 S :    0.483570
  42 C :   -0.196058
  43 C :   -0.013595
  44 C :    0.059108
  45 C :   -0.101645
  46 C :    0.082158
  47 O :   -0.144272
  48 C :   -0.053407
  49 C :    0.029960
  50 C :   -0.009659
  51 C :   -0.006173
  52 C :   -0.030612
  53 C :    0.066673
  54 C :    0.066704
  55 C :   -0.032962
  56 F :   -0.049912
  57 F :   -0.049517
  58 C :    0.012402
  59 C :   -0.019964
  60 C :    0.066607
  61 C :   -0.142349
  62 C :   -0.019565
  63 N :   -0.039115
  64 C :   -0.019159
  65 N :   -0.055682
  66 H :    0.033432
  67 H :    0.024925
  68 H :    0.037508
  69 H :    0.022020
  70 H :    0.030852
  71 H :    0.031967
  72 H :    0.020927
  73 H :    0.038407
  74 H :    0.020625
  75 H :    0.030549
  76 H :    0.032969
  77 H :    0.026333
  78 H :    0.043332
  79 H :    0.040908
  80 H :    0.033943
  81 H :    0.030476
  82 H :    0.034154
  83 H :    0.031786
  84 H :    0.030967
  85 H :    0.025299
  86 H :    0.028696
  87 H :    0.031346
  88 H :    0.030145
  89 H :    0.042211
  90 H :    0.048784
  91 H :    0.023044
  92 H :    0.036010
  93 H :    0.024967
  94 H :    0.024150
  95 H :    0.046325
  96 H :    0.040582
  97 H :    0.046830
  98 H :    0.044868
  99 H :    0.039064

  Mayer bond orders larger than 0.100000
B(  0-C ,  1-N ) :   1.1985 B(  0-C ,  7-C ) :   1.4462 B(  0-C , 66-H ) :   0.9900
B(  1-N ,  2-C ) :   0.9407 B(  1-N ,  4-C ) :   1.0505 B(  2-C ,  3-C ) :   1.1193
B(  2-C , 67-H ) :   0.9537 B(  2-C , 68-H ) :   0.9344 B(  3-C , 69-H ) :   0.9693
B(  3-C , 70-H ) :   0.9688 B(  3-C , 71-H ) :   0.9671 B(  4-C ,  5-O ) :   2.0266
B(  4-C ,  6-C ) :   1.0014 B(  5-O , 78-H ) :   0.1082 B(  6-C ,  7-C ) :   1.2114
B(  6-C , 13-C ) :   1.3747 B(  7-C ,  8-C ) :   0.9506 B(  8-C ,  9-O ) :   2.1757
B(  8-C , 10-N ) :   1.0176 B( 10-N , 11-C ) :   0.9497 B( 10-N , 13-C ) :   1.1530
B( 11-C , 12-C ) :   1.1200 B( 11-C , 72-H ) :   0.9496 B( 11-C , 73-H ) :   0.9268
B( 12-C , 74-H ) :   0.9682 B( 12-C , 75-H ) :   0.9678 B( 12-C , 76-H ) :   0.9636
B( 13-C , 14-C ) :   1.1525 B( 14-C , 15-C ) :   1.5689 B( 14-C , 77-H ) :   0.9625
B( 15-C , 16-C ) :   1.1179 B( 15-C , 78-H ) :   0.9606 B( 16-C , 17-C ) :   1.5042
B( 16-C , 20-C ) :   1.0452 B( 17-C , 18-C ) :   1.1125 B( 17-C , 79-H ) :   1.0134
B( 18-C , 19-C ) :   1.1056 B( 18-C , 23-C ) :   1.3968 B( 19-C , 20-C ) :   1.6754
B( 19-C , 21-C ) :   1.0896 B( 20-C , 80-H ) :   1.0143 B( 21-C , 22-N ) :   2.9680
B( 23-C , 24-C ) :   1.1131 B( 23-C , 27-C ) :   1.1050 B( 24-C , 25-C ) :   1.5859
B( 24-C , 81-H ) :   0.9974 B( 25-C , 26-C ) :   1.0394 B( 25-C , 30-C ) :   1.0058
B( 26-C , 27-C ) :   1.6748 B( 26-C , 82-H ) :   1.0193 B( 27-C , 28-C ) :   1.0861
B( 28-C , 29-N ) :   2.9781 B( 30-C , 31-C ) :   1.5242 B( 30-C , 36-C ) :   1.1940
B( 31-C , 32-C ) :   1.0657 B( 31-C , 34-S ) :   1.1564 B( 32-C , 33-C ) :   1.0988
B( 32-C , 83-H ) :   0.9254 B( 32-C , 84-H ) :   0.9107 B( 33-C , 85-H ) :   0.9723
B( 33-C , 86-H ) :   0.9661 B( 33-C , 87-H ) :   0.9638 B( 34-S , 35-C ) :   1.1040
B( 35-C , 36-C ) :   1.5594 B( 35-C , 37-C ) :   1.0729 B( 36-C , 88-H ) :   0.9941
B( 37-C , 38-C ) :   1.4936 B( 37-C , 43-C ) :   1.2839 B( 38-C , 39-C ) :   1.0812
B( 38-C , 41-S ) :   1.1861 B( 39-C , 40-C ) :   1.1028 B( 39-C , 89-H ) :   0.9179
B( 39-C , 90-H ) :   0.9127 B( 40-C , 91-H ) :   0.9662 B( 40-C , 92-H ) :   0.9614
B( 40-C , 93-H ) :   0.9605 B( 41-S , 42-C ) :   1.1006 B( 42-C , 43-C ) :   1.4574
B( 42-C , 44-C ) :   1.1359 B( 43-C , 94-H ) :   0.9763 B( 44-C , 45-C ) :   1.6483
B( 44-C , 95-H ) :   0.9310 B( 45-C , 46-C ) :   0.9475 B( 45-C , 60-C ) :   1.0411
B( 46-C , 47-O ) :   2.2716 B( 46-C , 48-C ) :   0.9156 B( 48-C , 49-C ) :   1.4747
B( 48-C , 59-C ) :   1.2229 B( 49-C , 50-C ) :   1.1942 B( 49-C , 96-H ) :   1.0163
B( 50-C , 51-C ) :   1.2568 B( 50-C , 55-C ) :   1.1911 B( 51-C , 52-C ) :   1.1917
B( 51-C , 58-C ) :   1.2121 B( 52-C , 53-C ) :   1.4405 B( 52-C , 55-C ) :   0.1090
B( 52-C , 97-H ) :   1.0068 B( 53-C , 54-C ) :   1.1919 B( 53-C , 57-F ) :   1.1336
B( 54-C , 55-C ) :   1.4445 B( 54-C , 56-F ) :   1.1326 B( 55-C , 98-H ) :   1.0069
B( 58-C , 59-C ) :   1.4590 B( 58-C , 99-H ) :   0.9930 B( 59-C , 60-C ) :   0.9983
B( 60-C , 61-C ) :   1.6424 B( 61-C , 62-C ) :   1.1685 B( 61-C , 64-C ) :   1.1307
B( 62-C , 63-N ) :   3.0055 B( 64-C , 65-N ) :   2.9821

-----------------------------------------------------------------------------
         ABSORPTION SPECTRUM VIA TRANSITION ELECTRIC DIPOLE MOMENTS
-----------------------------------------------------------------------------
State   Energy  Wavelength   fosc         T2         TX        TY        TZ
        (cm-1)    (nm)                  (au**2)     (au)      (au)      (au)
-----------------------------------------------------------------------------
   0   11831.0    845.2   0.499180532  13.89027  -1.04561   3.11413   1.76044
   1   15438.4    647.7   0.075543495   1.61091  -0.00015   0.85167   0.94105
   2   19073.2    524.3   0.018561437   0.32038   0.21011  -0.49967   0.16297
   3   20175.9    495.6   0.039308706   0.64141   0.38580  -0.43404   0.55152
   4   20729.7    482.4   0.337599643   5.36147  -0.72942  -2.08436  -0.69633
   5   23773.7    420.6   0.270392350   3.74432   1.01914  -1.58403   0.44331
   6   25016.3    399.7   0.173331772   2.28103  -0.46237  -1.34563  -0.50648
   7   25643.8    390.0   0.164026378   2.10575  -0.44074   1.11173   0.82192
   8   25812.6    387.4   0.083988508   1.07118   0.03153  -0.54849  -0.87712
   9   27116.0    368.8   0.309269392   3.75480   0.35960  -1.40334  -1.28691
  10   27157.2    368.2   0.152380433   1.84723   0.28545  -0.91075  -0.96762
  11   27501.8    363.6   0.019188249   0.22969   0.35008   0.32532  -0.03619
  12   27990.1    357.3   0.039161650   0.46061  -0.02433   0.30016   0.60821
  13   28988.8    345.0   0.018983563   0.21559  -0.23925  -0.32165  -0.23428
  14   29922.2    334.2   0.072292143   0.79538   0.17071  -0.84181  -0.23998
  15   30455.3    328.4   0.000524889   0.00567  -0.00038  -0.02297   0.07174
  16   30538.3    327.5   0.068693864   0.74054  -0.22591   0.65443   0.51111
  17   30648.2    326.3   0.322625951   3.46553   0.16276  -1.58486  -0.96294
  18   31366.5    318.8   0.091236379   0.95759  -0.00447  -0.47740  -0.85420
  19   31826.3    314.2   0.009161356   0.09477  -0.03721  -0.10034  -0.28864
  20   32629.1    306.5   0.230699287   2.32765   0.51258  -1.22896  -0.74469
  21   33240.2    300.8   0.089989893   0.89126   0.41129  -0.64183  -0.55692
  22   33528.2    298.3   0.015409405   0.15130   0.03237  -0.23581  -0.30765
  23   33966.1    294.4   0.194741515   1.88751   0.40472  -1.19704  -0.53926
  24   34203.5    292.4   0.000160077   0.00154  -0.01486   0.02824  -0.02286
  25   34954.8    286.1   0.755050133   7.11122  -0.43967   2.04305   1.65646
  26   35255.6    283.6   0.090614486   0.84615  -0.24031   0.64042   0.61502
  27   36105.9    277.0   0.005637751   0.05140   0.08276  -0.13936   0.15853
  28   36148.1    276.6   0.000613954   0.00559   0.07333  -0.00935  -0.01129
  29   36218.1    276.1   0.055533023   0.50478  -0.30569   0.62476   0.14493
  30   37092.4    269.6   0.024839859   0.22047   0.07587   0.30414   0.34959
  31   37140.9    269.2   0.083758437   0.74242  -0.16266   0.44014   0.72266
  32   37156.9    269.1   0.021457644   0.19012  -0.05714   0.21247   0.37644
  33   37414.2    267.3   0.005280735   0.04647   0.13621   0.16624   0.01665
  34   37821.8    264.4   0.079530191   0.69225   0.32024   0.69888   0.31823
  35   38031.9    262.9   0.002922454   0.02530   0.05845  -0.02371   0.14601
  36   38589.6    259.1   0.044165467   0.37678   0.01530   0.39799   0.46706
  37   38681.4    258.5   0.443944476   3.77835   0.28554   0.78179   1.75659
  38   39022.8    256.3   0.013027965   0.10991  -0.27895  -0.06225  -0.16799
  39   39523.0    253.0   0.004310879   0.03591  -0.13597   0.03938  -0.12597
  40   39616.1    252.4   0.049364114   0.41022   0.47478  -0.42635   0.05501
  41   40061.2    249.6   0.095944600   0.78845   0.47815  -0.72323   0.19175
  42   40294.0    248.2   0.031750185   0.25941   0.31406   0.38542   0.11059

FINAL SINGLE POINT ENERGY     -3586.517873505844

DIPOLE MOMENT
-------------
                                X             Y             Z
Electronic contribution:    -28.22684     109.64189      46.44661
Nuclear contribution   :     27.52707    -110.24564     -45.80368
                        -----------------------------------------
Total Dipole Moment    :     -0.69977      -0.60375       0.64293
                        -----------------------------------------
Magnitude (a.u.)       :      1.12585
Magnitude (Debye)      :      2.86169

Rotational constants in cm-1:     0.002757     0.000265     0.000250
Rotational constants in MHz :    82.649020     7.938232     7.487475

                             ****ORCA TERMINATED NORMALLY****
TOTAL RUN TIME: 0 days 0 hours 8 minutes 41 seconds 650 msec
