                         Program Version 4.2.0 -  RELEASE  -
|  1> # ORCA input file
|  2> # SCF done       -192.073532675718          0.000903249488
|  3> ! CAM-B3LYP def2-SVP def2/J RIJCOSX Grid4 TightSCF
|  4> %maxcore 5000
|  5> %tddft
|  6>     Mode sTDDFT
|  7>     Ethresh 5.0
|  8>     maxcore 5000
|  9> end
| 10>
| 11> %pal
| 12>   nprocs 6
| 13>   end
| 14> * xyz 0 1
| 15>    C       -1.60255         0.21304        -0.47184
| 16>    C       -1.13977         1.50396        -0.27492
| 17>    C       -0.93535         2.31441        -1.39313
| 18>    C       -0.46601         3.63970        -1.21328
| 19>    N       -0.09001         4.70986        -1.05959
| 20>    C       -1.18775         1.84216        -2.69586
| 21>    C       -0.96545         2.68914        -3.80860
| 22>    N       -0.79316         3.36191        -4.71892
| 23>    C       -1.66017         0.54352        -2.88912
| 24>    C       -1.86049        -0.24550        -1.77622
| 25>    C       -2.36237        -1.63750        -1.72993
| 26>    O       -2.69122        -2.29762        -2.68959
| 27>    C       -2.42359        -1.98817        -0.29176
| 28>    C       -1.89923        -0.86587         0.47012
| 29>    C       -1.63606        -0.82888         1.81316
| 30>    C       -1.10061         0.29324         2.48401
| 31>    N       -0.67216         1.17099         3.08536
| 32>    C       -1.81669        -1.89884         2.71770
| 33>    N       -1.91473        -2.72328         3.51037
| 34>    C       -2.98929        -3.09867         0.27612
| 35>    C       -3.44260        -4.29966        -0.30255
| 36>    C       -3.29084        -4.84422        -1.57378
| 37>    C       -3.85948        -6.10541        -1.67117
| 38>    C       -4.46383        -6.53848        -0.46914
| 39>    S       -4.30936        -5.40100         0.77975
| 40>    C       -5.02106        -7.82538        -0.68196
| 41>    C       -4.76287        -8.20736        -2.01462
| 42>    C       -4.02088        -7.14630        -2.67616
| 43>    C       -3.55724        -7.13950        -3.95744
| 44>    C       -3.78259        -8.21768        -4.84190
| 45>    N       -3.96662        -9.08536        -5.56772
| 46>    C       -2.80142        -6.07396        -4.49566
| 47>    N       -2.16796        -5.23349        -4.94866
| 48>    C       -5.26422        -9.47359        -2.31316
| 49>    C       -5.89311       -10.03196        -1.21925
| 50>    S       -5.87923        -9.01174         0.19306
| 51>    C       -6.51660       -11.32179        -1.13966
| 52>    N       -7.08505       -11.65466         0.01724
| 53>    C       -7.63540       -12.86393         0.05105
| 54>    N       -7.63988       -13.72133        -0.97592
| 55>    C       -7.05651       -13.28305        -2.07329
| 56>    N       -6.48372       -12.10592        -2.22230
| 57>    C       -8.27301       -13.29479         1.26200
| 58>    C       -8.43765       -12.58853         2.43535
| 59>    C       -9.12256       -13.34516         3.38605
| 60>    C       -9.46195       -14.62904         2.91164
| 61>    S       -8.94972       -14.89924         1.30915
| 62>    C      -10.14716       -15.32251         3.94430
| 63>    C      -10.24623       -14.47101         5.06300
| 64>    C       -9.59493       -13.20772         4.75282
| 65>    C       -9.43836       -12.14489         5.59298
| 66>    C       -9.93337       -12.18266         6.91415
| 67>    N      -10.34724       -12.24007         7.98185
| 68>    C       -8.77920       -10.96220         5.19531
| 69>    N       -8.25195        -9.99917         4.86711
| 70>    C      -10.88683       -15.06590         6.14074
| 71>    C      -11.27136       -16.37224         5.86535
| 72>    S      -10.85565       -16.84140         4.22024
| 73>    C      -11.95939       -17.29330         6.68190
| 74>    C      -12.16135       -17.27906         8.03013
| 75>    C      -13.25871       -18.12156         8.58373
| 76>    O      -13.86693       -18.98980         8.00688
| 77>    C      -13.47042       -17.62370         9.96145
| 78>    C      -14.45103       -17.97915        10.86319
| 79>    C      -14.47120       -17.33325        12.10053
| 80>    C      -13.51548       -16.34257        12.39819
| 81>    C      -12.51973       -15.99814        11.48184
| 82>    C      -12.49612       -16.65141        10.26189
| 83>    C      -11.57637       -16.53727         9.12713
| 84>    C      -10.29871       -16.05224         9.21184
| 85>    C       -9.34504       -16.17352         8.18142
| 86>    N       -8.53717       -16.27567         7.37280
| 87>    C       -9.75522       -15.46359        10.37518
| 88>    N       -9.26919       -14.98755        11.29802
| 89>    C      -13.56932       -15.68133        13.65087
| 90>    N      -13.61054       -15.14215        14.65957
| 91>    C      -15.46140       -17.66926        13.05556
| 92>    N      -16.27062       -17.95457        13.81354
| 93>    H       -0.93809         1.90391         0.70580
| 94>    H       -1.86256         0.16419        -3.87925
| 95>    H       -3.12772        -3.06719         1.35069
| 96>    H       -2.79307        -4.32602        -2.37301
| 97>    H       -5.19214        -9.98469        -3.25562
| 98>    H       -7.04630       -13.94835        -2.92717
| 99>    H       -8.07324       -11.58549         2.56140
|100>    H      -11.11270       -14.56959         7.06662
|101>    H      -12.46271       -18.10412         6.16291
|102>    H      -15.18269       -18.73396        10.61821
|103>    H      -11.80805       -15.22918        11.73806
|104> *
|105>
|106>                          ****END OF INPUT****

CARTESIAN COORDINATES (ANGSTROEM)
---------------------------------
  C     -1.602550    0.213040   -0.471840
  C     -1.139770    1.503960   -0.274920
  C     -0.935350    2.314410   -1.393130
  C     -0.466010    3.639700   -1.213280
  N     -0.090010    4.709860   -1.059590
  C     -1.187750    1.842160   -2.695860
  C     -0.965450    2.689140   -3.808600
  N     -0.793160    3.361910   -4.718920
  C     -1.660170    0.543520   -2.889120
  C     -1.860490   -0.245500   -1.776220
  C     -2.362370   -1.637500   -1.729930
  O     -2.691220   -2.297620   -2.689590
  C     -2.423590   -1.988170   -0.291760
  C     -1.899230   -0.865870    0.470120
  C     -1.636060   -0.828880    1.813160
  C     -1.100610    0.293240    2.484010
  N     -0.672160    1.170990    3.085360
  C     -1.816690   -1.898840    2.717700
  N     -1.914730   -2.723280    3.510370
  C     -2.989290   -3.098670    0.276120
  C     -3.442600   -4.299660   -0.302550
  C     -3.290840   -4.844220   -1.573780
  C     -3.859480   -6.105410   -1.671170
  C     -4.463830   -6.538480   -0.469140
  S     -4.309360   -5.401000    0.779750
  C     -5.021060   -7.825380   -0.681960
  C     -4.762870   -8.207360   -2.014620
  C     -4.020880   -7.146300   -2.676160
  C     -3.557240   -7.139500   -3.957440
  C     -3.782590   -8.217680   -4.841900
  N     -3.966620   -9.085360   -5.567720
  C     -2.801420   -6.073960   -4.495660
  N     -2.167960   -5.233490   -4.948660
  C     -5.264220   -9.473590   -2.313160
  C     -5.893110  -10.031960   -1.219250
  S     -5.879230   -9.011740    0.193060
  C     -6.516600  -11.321790   -1.139660
  N     -7.085050  -11.654660    0.017240
  C     -7.635400  -12.863930    0.051050
  N     -7.639880  -13.721330   -0.975920
  C     -7.056510  -13.283050   -2.073290
  N     -6.483720  -12.105920   -2.222300
  C     -8.273010  -13.294790    1.262000
  C     -8.437650  -12.588530    2.435350
  C     -9.122560  -13.345160    3.386050
  C     -9.461950  -14.629040    2.911640
  S     -8.949720  -14.899240    1.309150
  C    -10.147160  -15.322510    3.944300
  C    -10.246230  -14.471010    5.063000
  C     -9.594930  -13.207720    4.752820
  C     -9.438360  -12.144890    5.592980
  C     -9.933370  -12.182660    6.914150
  N    -10.347240  -12.240070    7.981850
  C     -8.779200  -10.962200    5.195310
  N     -8.251950   -9.999170    4.867110
  C    -10.886830  -15.065900    6.140740
  C    -11.271360  -16.372240    5.865350
  S    -10.855650  -16.841400    4.220240
  C    -11.959390  -17.293300    6.681900
  C    -12.161350  -17.279060    8.030130
  C    -13.258710  -18.121560    8.583730
  O    -13.866930  -18.989800    8.006880
  C    -13.470420  -17.623700    9.961450
  C    -14.451030  -17.979150   10.863190
  C    -14.471200  -17.333250   12.100530
  C    -13.515480  -16.342570   12.398190
  C    -12.519730  -15.998140   11.481840
  C    -12.496120  -16.651410   10.261890
  C    -11.576370  -16.537270    9.127130
  C    -10.298710  -16.052240    9.211840
  C     -9.345040  -16.173520    8.181420
  N     -8.537170  -16.275670    7.372800
  C     -9.755220  -15.463590   10.375180
  N     -9.269190  -14.987550   11.298020
  C    -13.569320  -15.681330   13.650870
  N    -13.610540  -15.142150   14.659570
  C    -15.461400  -17.669260   13.055560
  N    -16.270620  -17.954570   13.813540
  H     -0.938090    1.903910    0.705800
  H     -1.862560    0.164190   -3.879250
  H     -3.127720   -3.067190    1.350690
  H     -2.793070   -4.326020   -2.373010
  H     -5.192140   -9.984690   -3.255620
  H     -7.046300  -13.948350   -2.927170
  H     -8.073240  -11.585490    2.561400
  H    -11.112700  -14.569590    7.066620
  H    -12.462710  -18.104120    6.162910
  H    -15.182690  -18.733960   10.618210
  H    -11.808050  -15.229180   11.738060

 Total Charge           Charge          ....    0
 Multiplicity           Mult            ....    1
 Number of Electrons    NEL             ....  538
 Basis Dimension        Dim             .... 1163

ORBITAL ENERGIES
----------------

  NO   OCC          E(Eh)            E(eV)
   0   2.0000     -89.018835     -2422.3256
   1   2.0000     -89.015942     -2422.2469
   2   2.0000     -89.014728     -2422.2139
   3   2.0000     -89.013664     -2422.1849
   4   2.0000     -19.246578      -523.7260
   5   2.0000     -19.246334      -523.7194
   6   2.0000     -14.452423      -393.2704
   7   2.0000     -14.451542      -393.2464
   8   2.0000     -14.449495      -393.1908
   9   2.0000     -14.446588      -393.1117
  10   2.0000     -14.445346      -393.0778
  11   2.0000     -14.444285      -393.0490
  12   2.0000     -14.444085      -393.0435
  13   2.0000     -14.443742      -393.0342
  14   2.0000     -14.440119      -392.9356
  15   2.0000     -14.438239      -392.8845
  16   2.0000     -14.436535      -392.8381
  17   2.0000     -14.433689      -392.7606
  18   2.0000     -14.432657      -392.7326
  19   2.0000     -14.431439      -392.6994
  20   2.0000     -14.430453      -392.6726
  21   2.0000     -10.398121      -282.9472
  22   2.0000     -10.397966      -282.9431
  23   2.0000     -10.397384      -282.9272
  24   2.0000     -10.397287      -282.9246
  25   2.0000     -10.386999      -282.6446
  26   2.0000     -10.384209      -282.5687
  27   2.0000     -10.381058      -282.4829
  28   2.0000     -10.374896      -282.3153
  29   2.0000     -10.374245      -282.2976
  30   2.0000     -10.371725      -282.2290
  31   2.0000     -10.370583      -282.1979
  32   2.0000     -10.370279      -282.1896
  33   2.0000     -10.367503      -282.1141
  34   2.0000     -10.366916      -282.0981
  35   2.0000     -10.365839      -282.0688
  36   2.0000     -10.365651      -282.0637
  37   2.0000     -10.365446      -282.0581
  38   2.0000     -10.363928      -282.0168
  39   2.0000     -10.363392      -282.0022
  40   2.0000     -10.359188      -281.8878
  41   2.0000     -10.357463      -281.8409
  42   2.0000     -10.352064      -281.6940
  43   2.0000     -10.351991      -281.6920
  44   2.0000     -10.351589      -281.6810
  45   2.0000     -10.351552      -281.6800
  46   2.0000     -10.349923      -281.6357
  47   2.0000     -10.349215      -281.6165
  48   2.0000     -10.348115      -281.5865
  49   2.0000     -10.344632      -281.4918
  50   2.0000     -10.344511      -281.4885
  51   2.0000     -10.343975      -281.4739
  52   2.0000     -10.342542      -281.4349
  53   2.0000     -10.341868      -281.4165
  54   2.0000     -10.341715      -281.4124
  55   2.0000     -10.341353      -281.4025
  56   2.0000     -10.341205      -281.3985
  57   2.0000     -10.340791      -281.3872
  58   2.0000     -10.339082      -281.3407
  59   2.0000     -10.338100      -281.3140
  60   2.0000     -10.338020      -281.3118
  61   2.0000     -10.337826      -281.3065
  62   2.0000     -10.336624      -281.2738
  63   2.0000     -10.333034      -281.1762
  64   2.0000     -10.331144      -281.1247
  65   2.0000     -10.330269      -281.1009
  66   2.0000     -10.330100      -281.0963
  67   2.0000     -10.329449      -281.0786
  68   2.0000     -10.329425      -281.0779
  69   2.0000     -10.328980      -281.0658
  70   2.0000     -10.328910      -281.0639
  71   2.0000     -10.328720      -281.0588
  72   2.0000     -10.327804      -281.0338
  73   2.0000     -10.327508      -281.0258
  74   2.0000     -10.327344      -281.0213
  75   2.0000     -10.326632      -281.0020
  76   2.0000     -10.326085      -280.9871
  77   2.0000     -10.326048      -280.9861
  78   2.0000      -8.113536      -220.7805
  79   2.0000      -8.110597      -220.7006
  80   2.0000      -8.108789      -220.6514
  81   2.0000      -8.107632      -220.6199
  82   2.0000      -6.082673      -165.5179
  83   2.0000      -6.079670      -165.4362
  84   2.0000      -6.078487      -165.4040
  85   2.0000      -6.077895      -165.3879
  86   2.0000      -6.076788      -165.3578
  87   2.0000      -6.076082      -165.3386
  88   2.0000      -6.075533      -165.3237
  89   2.0000      -6.073647      -165.2723
  90   2.0000      -6.073219      -165.2607
  91   2.0000      -6.072510      -165.2414
  92   2.0000      -6.071492      -165.2137
  93   2.0000      -6.070306      -165.1814
  94   2.0000      -1.162742       -31.6398
  95   2.0000      -1.162396       -31.6304
  96   2.0000      -1.154638       -31.4193
  97   2.0000      -1.071868       -29.1670
  98   2.0000      -1.068977       -29.0884
  99   2.0000      -1.051598       -28.6154
 100   2.0000      -1.048601       -28.5339
 101   2.0000      -1.043513       -28.3954
 102   2.0000      -1.039881       -28.2966
 103   2.0000      -1.037437       -28.2301
 104   2.0000      -1.036075       -28.1930
 105   2.0000      -1.034155       -28.1408
 106   2.0000      -1.031473       -28.0678
 107   2.0000      -1.027892       -27.9704
 108   2.0000      -1.021429       -27.7945
 109   2.0000      -1.020094       -27.7582
 110   2.0000      -1.019264       -27.7356
 111   2.0000      -1.017408       -27.6851
 112   2.0000      -1.016776       -27.6679
 113   2.0000      -1.015298       -27.6277
 114   2.0000      -1.013171       -27.5698
 115   2.0000      -1.012371       -27.5480
 116   2.0000      -1.010140       -27.4873
 117   2.0000      -0.987798       -26.8794
 118   2.0000      -0.985367       -26.8132
 119   2.0000      -0.980347       -26.6766
 120   2.0000      -0.977101       -26.5883
 121   2.0000      -0.943607       -25.6769
 122   2.0000      -0.940637       -25.5960
 123   2.0000      -0.935350       -25.4522
 124   2.0000      -0.932368       -25.3710
 125   2.0000      -0.916200       -24.9311
 126   2.0000      -0.913650       -24.8617
 127   2.0000      -0.910920       -24.7874
 128   2.0000      -0.907742       -24.7009
 129   2.0000      -0.895126       -24.3576
 130   2.0000      -0.891873       -24.2691
 131   2.0000      -0.883054       -24.0291
 132   2.0000      -0.880396       -23.9568
 133   2.0000      -0.865384       -23.5483
 134   2.0000      -0.860911       -23.4266
 135   2.0000      -0.841579       -22.9005
 136   2.0000      -0.832733       -22.6598
 137   2.0000      -0.817536       -22.2463
 138   2.0000      -0.815087       -22.1796
 139   2.0000      -0.802599       -21.8398
 140   2.0000      -0.800494       -21.7826
 141   2.0000      -0.788815       -21.4647
 142   2.0000      -0.785631       -21.3781
 143   2.0000      -0.763852       -20.7855
 144   2.0000      -0.760228       -20.6869
 145   2.0000      -0.754234       -20.5238
 146   2.0000      -0.745882       -20.2965
 147   2.0000      -0.730589       -19.8803
 148   2.0000      -0.720925       -19.6174
 149   2.0000      -0.720248       -19.5990
 150   2.0000      -0.719197       -19.5703
 151   2.0000      -0.710506       -19.3339
 152   2.0000      -0.708840       -19.2885
 153   2.0000      -0.704437       -19.1687
 154   2.0000      -0.697531       -18.9808
 155   2.0000      -0.692977       -18.8569
 156   2.0000      -0.685456       -18.6522
 157   2.0000      -0.679902       -18.5011
 158   2.0000      -0.669924       -18.2296
 159   2.0000      -0.666304       -18.1311
 160   2.0000      -0.664978       -18.0950
 161   2.0000      -0.658874       -17.9289
 162   2.0000      -0.654337       -17.8054
 163   2.0000      -0.649170       -17.6648
 164   2.0000      -0.642082       -17.4719
 165   2.0000      -0.637957       -17.3597
 166   2.0000      -0.632860       -17.2210
 167   2.0000      -0.625320       -17.0158
 168   2.0000      -0.620050       -16.8724
 169   2.0000      -0.615182       -16.7400
 170   2.0000      -0.610157       -16.6032
 171   2.0000      -0.606568       -16.5056
 172   2.0000      -0.602465       -16.3939
 173   2.0000      -0.588749       -16.0207
 174   2.0000      -0.586903       -15.9705
 175   2.0000      -0.577218       -15.7069
 176   2.0000      -0.575268       -15.6538
 177   2.0000      -0.574476       -15.6323
 178   2.0000      -0.572525       -15.5792
 179   2.0000      -0.570977       -15.5371
 180   2.0000      -0.569958       -15.5094
 181   2.0000      -0.568560       -15.4713
 182   2.0000      -0.566208       -15.4073
 183   2.0000      -0.564809       -15.3692
 184   2.0000      -0.558505       -15.1977
 185   2.0000      -0.550043       -14.9674
 186   2.0000      -0.544718       -14.8225
 187   2.0000      -0.542137       -14.7523
 188   2.0000      -0.539826       -14.6894
 189   2.0000      -0.536021       -14.5859
 190   2.0000      -0.531755       -14.4698
 191   2.0000      -0.530893       -14.4463
 192   2.0000      -0.528687       -14.3863
 193   2.0000      -0.527267       -14.3477
 194   2.0000      -0.526883       -14.3372
 195   2.0000      -0.523657       -14.2494
 196   2.0000      -0.522695       -14.2233
 197   2.0000      -0.522089       -14.2068
 198   2.0000      -0.518991       -14.1225
 199   2.0000      -0.513564       -13.9748
 200   2.0000      -0.513121       -13.9627
 201   2.0000      -0.511455       -13.9174
 202   2.0000      -0.506803       -13.7908
 203   2.0000      -0.502676       -13.6785
 204   2.0000      -0.498556       -13.5664
 205   2.0000      -0.495749       -13.4900
 206   2.0000      -0.494990       -13.4694
 207   2.0000      -0.490963       -13.3598
 208   2.0000      -0.487152       -13.2561
 209   2.0000      -0.480935       -13.0869
 210   2.0000      -0.479027       -13.0350
 211   2.0000      -0.476382       -12.9630
 212   2.0000      -0.474925       -12.9234
 213   2.0000      -0.474545       -12.9130
 214   2.0000      -0.472264       -12.8509
 215   2.0000      -0.471046       -12.8178
 216   2.0000      -0.469885       -12.7862
 217   2.0000      -0.469167       -12.7667
 218   2.0000      -0.466483       -12.6936
 219   2.0000      -0.465673       -12.6716
 220   2.0000      -0.464662       -12.6441
 221   2.0000      -0.463712       -12.6182
 222   2.0000      -0.463250       -12.6057
 223   2.0000      -0.460687       -12.5359
 224   2.0000      -0.460357       -12.5270
 225   2.0000      -0.458982       -12.4895
 226   2.0000      -0.458848       -12.4859
 227   2.0000      -0.458525       -12.4771
 228   2.0000      -0.457602       -12.4520
 229   2.0000      -0.456680       -12.4269
 230   2.0000      -0.456520       -12.4225
 231   2.0000      -0.456241       -12.4149
 232   2.0000      -0.454461       -12.3665
 233   2.0000      -0.453784       -12.3481
 234   2.0000      -0.453308       -12.3351
 235   2.0000      -0.451066       -12.2741
 236   2.0000      -0.450404       -12.2561
 237   2.0000      -0.449411       -12.2291
 238   2.0000      -0.447823       -12.1859
 239   2.0000      -0.447103       -12.1663
 240   2.0000      -0.440811       -11.9951
 241   2.0000      -0.440227       -11.9792
 242   2.0000      -0.437997       -11.9185
 243   2.0000      -0.436032       -11.8650
 244   2.0000      -0.434145       -11.8137
 245   2.0000      -0.432891       -11.7796
 246   2.0000      -0.430726       -11.7207
 247   2.0000      -0.430618       -11.7177
 248   2.0000      -0.428947       -11.6722
 249   2.0000      -0.426119       -11.5953
 250   2.0000      -0.423524       -11.5247
 251   2.0000      -0.402381       -10.9493
 252   2.0000      -0.400091       -10.8870
 253   2.0000      -0.377084       -10.2610
 254   2.0000      -0.375957       -10.2303
 255   2.0000      -0.375064       -10.2060
 256   2.0000      -0.374103       -10.1799
 257   2.0000      -0.372700       -10.1417
 258   2.0000      -0.372545       -10.1375
 259   2.0000      -0.369719       -10.0606
 260   2.0000      -0.367860       -10.0100
 261   2.0000      -0.361036        -9.8243
 262   2.0000      -0.358229        -9.7479
 263   2.0000      -0.346475        -9.4281
 264   2.0000      -0.342351        -9.3158
 265   2.0000      -0.340469        -9.2646
 266   2.0000      -0.338083        -9.1997
 267   2.0000      -0.295297        -8.0354
 268   2.0000      -0.293867        -7.9965
 269   0.0000      -0.135224        -3.6796
 270   0.0000      -0.132677        -3.6103
 271   0.0000      -0.114392        -3.1128
 272   0.0000      -0.112552        -3.0627
 273   0.0000      -0.100895        -2.7455

MULLIKEN ATOMIC CHARGES
-----------------------
   0 C :    0.050200
   1 C :   -0.042795
   2 C :   -0.059794
   3 C :   -0.175323
   4 N :    0.206523
   5 C :   -0.063251
   6 C :   -0.172724
   7 N :    0.200288
   8 C :   -0.034825
   9 C :   -0.004749
  10 C :    0.161804
  11 O :   -0.133210
  12 C :   -0.092204
  13 C :    0.305157
  14 C :   -0.335912
  15 C :   -0.185958
  16 N :    0.172383
  17 C :   -0.201199
  18 N :    0.173184
  19 C :    0.040307
  20 C :   -0.114729
  21 C :    0.004350
  22 C :   -0.005602
  23 C :   -0.082517
  24 S :    0.224872
  25 C :   -0.095437
  26 C :    0.017731
  27 C :    0.307638
  28 C :   -0.289681
  29 C :   -0.194439
  30 N :    0.186537
  31 C :   -0.188331
  32 N :    0.193605
  33 C :   -0.031486
  34 C :   -0.058065
  35 S :    0.264389
  36 C :   -0.031034
  37 N :   -0.057792
  38 C :   -0.029363
  39 N :   -0.114566
  40 C :    0.127118
  41 N :   -0.084151
  42 C :   -0.056391
  43 C :   -0.027971
  44 C :    0.014625
  45 C :   -0.095785
  46 S :    0.265713
  47 C :   -0.074323
  48 C :   -0.000373
  49 C :    0.300915
  50 C :   -0.284417
  51 C :   -0.182987
  52 N :    0.172783
  53 C :   -0.185900
  54 N :    0.183543
  55 C :   -0.000771
  56 C :   -0.109715
  57 S :    0.228395
  58 C :    0.087195
  59 C :   -0.137484
  60 C :    0.141005
  61 O :   -0.125307
  62 C :    0.010405
  63 C :   -0.033835
  64 C :   -0.066991
  65 C :   -0.062153
  66 C :   -0.034608
  67 C :    0.029348
  68 C :    0.266685
  69 C :   -0.315705
  70 C :   -0.199323
  71 N :    0.178946
  72 C :   -0.170920
  73 N :    0.183220
  74 C :   -0.172812
  75 N :    0.205395
  76 C :   -0.171022
  77 N :    0.197547
  78 H :    0.021598
  79 H :    0.020609
  80 H :    0.020114
  81 H :    0.040435
  82 H :    0.028918
  83 H :    0.031882
  84 H :    0.018999
  85 H :    0.024538
  86 H :    0.029137
  87 H :    0.019783
  88 H :    0.030112
Sum of atomic charges:   -0.0000000

LOEWDIN ATOMIC CHARGES
----------------------
   0 C :    0.001441
   1 C :    0.034625
   2 C :   -0.022744
   3 C :   -0.031925
   4 N :   -0.008953
   5 C :   -0.026966
   6 C :   -0.031996
   7 N :   -0.011106
   8 C :    0.050606
   9 C :   -0.029091
  10 C :    0.086129
  11 O :   -0.121877
  12 C :   -0.100440
  13 C :    0.069235
  14 C :   -0.124033
  15 C :   -0.022194
  16 N :   -0.032054
  17 C :   -0.024849
  18 N :   -0.035535
  19 C :    0.051115
  20 C :   -0.175869
  21 C :    0.022511
  22 C :   -0.067393
  23 C :   -0.158059
  24 S :    0.510071
  25 C :   -0.178772
  26 C :   -0.058198
  27 C :    0.071029
  28 C :   -0.087438
  29 C :   -0.018387
  30 N :   -0.019929
  31 C :   -0.021904
  32 N :   -0.012317
  33 C :    0.009526
  34 C :   -0.188205
  35 S :    0.531788
  36 C :    0.038859
  37 N :   -0.115888
  38 C :    0.037418
  39 N :   -0.125382
  40 C :    0.086757
  41 N :   -0.104505
  42 C :   -0.190149
  43 C :    0.008100
  44 C :   -0.062504
  45 C :   -0.174824
  46 S :    0.536065
  47 C :   -0.159015
  48 C :   -0.060330
  49 C :    0.079005
  50 C :   -0.093160
  51 C :   -0.011945
  52 N :   -0.029228
  53 C :   -0.017390
  54 N :   -0.023567
  55 C :    0.013182
  56 C :   -0.180496
  57 S :    0.511171
  58 C :    0.050354
  59 C :   -0.095647
  60 C :    0.084008
  61 O :   -0.126055
  62 C :   -0.032729
  63 C :    0.050219
  64 C :   -0.028112
  65 C :   -0.020707
  66 C :    0.034525
  67 C :    0.005367
  68 C :    0.058450
  69 C :   -0.119675
  70 C :   -0.014608
  71 N :   -0.031543
  72 C :   -0.023276
  73 N :   -0.024936
  74 C :   -0.031770
  75 N :   -0.007102
  76 C :   -0.032334
  77 N :   -0.011266
  78 H :    0.052616
  79 H :    0.055781
  80 H :    0.045139
  81 H :    0.044607
  82 H :    0.050319
  83 H :    0.029272
  84 H :    0.047239
  85 H :    0.042721
  86 H :    0.049172
  87 H :    0.055315
  88 H :    0.054640

  Mayer bond orders larger than 0.100000
B(  0-C ,  1-C ) :   1.3552 B(  0-C ,  9-C ) :   1.3354 B(  0-C , 13-C ) :   0.9574
B(  1-C ,  2-C ) :   1.3926 B(  1-C , 78-H ) :   0.9872 B(  2-C ,  3-C ) :   1.0871
B(  2-C ,  5-C ) :   1.4020 B(  3-C ,  4-N ) :   3.0449 B(  5-C ,  6-C ) :   1.0868
B(  5-C ,  8-C ) :   1.3593 B(  6-C ,  7-N ) :   3.0442 B(  8-C ,  9-C ) :   1.3633
B(  8-C , 79-H ) :   1.0166 B(  9-C , 10-C ) :   0.9299 B( 10-C , 11-O ) :   2.1931
B( 10-C , 12-C ) :   0.9474 B( 12-C , 13-C ) :   1.0856 B( 12-C , 19-C ) :   1.5774
B( 13-C , 14-C ) :   1.6484 B( 14-C , 15-C ) :   1.1478 B( 14-C , 17-C ) :   1.1398
B( 15-C , 16-N ) :   2.9634 B( 17-C , 18-N ) :   2.9849 B( 19-C , 20-C ) :   1.2229
B( 19-C , 80-H ) :   0.9169 B( 20-C , 21-C ) :   1.3878 B( 20-C , 24-S ) :   1.0805
B( 21-C , 22-C ) :   1.3310 B( 21-C , 81-H ) :   0.9704 B( 22-C , 23-C ) :   1.3840
B( 22-C , 27-C ) :   0.9931 B( 23-C , 24-S ) :   1.1739 B( 23-C , 25-C ) :   1.1988
B( 25-C , 26-C ) :   1.4213 B( 25-C , 35-S ) :   1.1370 B( 26-C , 27-C ) :   0.9942
B( 26-C , 33-C ) :   1.2696 B( 27-C , 28-C ) :   1.7244 B( 28-C , 29-C ) :   1.1346
B( 28-C , 31-C ) :   1.1342 B( 29-C , 30-N ) :   2.9972 B( 31-C , 32-N ) :   2.9923
B( 33-C , 34-C ) :   1.4719 B( 33-C , 82-H ) :   1.0058 B( 34-C , 35-S ) :   1.1186
B( 34-C , 36-C ) :   1.0256 B( 36-C , 37-N ) :   1.5702 B( 36-C , 41-N ) :   1.5937
B( 37-N , 38-C ) :   1.5744 B( 38-C , 39-N ) :   1.5914 B( 38-C , 42-C ) :   1.0332
B( 39-N , 40-C ) :   1.4962 B( 40-C , 41-N ) :   1.5054 B( 40-C , 83-H ) :   0.9763
B( 42-C , 43-C ) :   1.4734 B( 42-C , 46-S ) :   1.1178 B( 43-C , 44-C ) :   1.2758
B( 43-C , 84-H ) :   1.0040 B( 44-C , 45-C ) :   1.4226 B( 44-C , 49-C ) :   0.9968
B( 45-C , 46-S ) :   1.1399 B( 45-C , 47-C ) :   1.1910 B( 47-C , 48-C ) :   1.4130
B( 47-C , 57-S ) :   1.1614 B( 48-C , 49-C ) :   0.9971 B( 48-C , 55-C ) :   1.3662
B( 49-C , 50-C ) :   1.7228 B( 50-C , 51-C ) :   1.1343 B( 50-C , 53-C ) :   1.1331
B( 51-C , 52-N ) :   2.9803 B( 53-C , 54-N ) :   2.9973 B( 55-C , 56-C ) :   1.3818
B( 55-C , 85-H ) :   0.9780 B( 56-C , 57-S ) :   1.0939 B( 56-C , 58-C ) :   1.1501
B( 58-C , 59-C ) :   1.6573 B( 58-C , 86-H ) :   0.9263 B( 59-C , 60-C ) :   0.9498
B( 59-C , 68-C ) :   1.0407 B( 60-C , 61-O ) :   2.2768 B( 60-C , 62-C ) :   0.9003
B( 62-C , 63-C ) :   1.3680 B( 62-C , 67-C ) :   1.3342 B( 63-C , 64-C ) :   1.3658
B( 63-C , 87-H ) :   1.0154 B( 64-C , 65-C ) :   1.4018 B( 64-C , 76-C ) :   1.0856
B( 65-C , 66-C ) :   1.3857 B( 65-C , 74-C ) :   1.0868 B( 66-C , 67-C ) :   1.3643
B( 66-C , 88-H ) :   0.9910 B( 67-C , 68-C ) :   0.9743 B( 68-C , 69-C ) :   1.6696
B( 69-C , 70-C ) :   1.1738 B( 69-C , 72-C ) :   1.1251 B( 70-C , 71-N ) :   2.9924
B( 72-C , 73-N ) :   2.9906 B( 74-C , 75-N ) :   3.0435 B( 76-C , 77-N ) :   3.0442

-----------------------------------------------------------------------------
         ABSORPTION SPECTRUM VIA TRANSITION ELECTRIC DIPOLE MOMENTS
-----------------------------------------------------------------------------
State   Energy  Wavelength   fosc         T2         TX        TY        TZ
        (cm-1)    (nm)                  (au**2)     (au)      (au)      (au)
-----------------------------------------------------------------------------
   0   16216.0    616.7   0.382753731   7.77052   1.21159   1.76950  -1.78086
   1   16989.5    588.6   0.308779838   5.98333  -0.93411  -2.19249  -0.55116
   2   20952.4    477.3   0.632483557   9.93782   0.94301   1.72687  -2.46302
   3   22153.3    451.4   0.951959963  14.14672   1.50175   3.20407   1.27492
   4   24482.9    408.4   0.021751263   0.29248   0.16799   0.21566  -0.46664
   5   25067.8    398.9   0.007225530   0.09489  -0.13755   0.03133   0.27384
   6   25297.9    395.3   0.231779190   3.01623  -0.60953  -1.49107   0.64917
   7   25857.3    386.7   0.386199481   4.91705   1.08928   0.85457  -1.73212
   8   28370.1    352.5   0.177274121   2.05712  -0.73745  -0.94553   0.78694
   9   28451.3    351.5   0.019037769   0.22029  -0.45717   0.01003  -0.10575
  10   29472.7    339.3   0.164811578   1.84096   0.35460   1.24235   0.41448
  11   29613.4    337.7   0.073669719   0.81899   0.06852  -0.14665  -0.89039
  12   29751.7    336.1   0.141215922   1.56260   0.57683  -0.21346  -1.08826
  13   30120.2    332.0   0.093606494   1.02311  -0.34343  -0.62513  -0.71720
  14   30886.2    323.8   0.113928533   1.21435  -0.62637  -0.61014   0.67063
  15   31331.7    319.2   0.573214762   6.02295  -1.49324  -0.52207   1.87634
  16   31394.2    318.5   0.038292262   0.40155   0.37463   0.20312  -0.46898
  17   31590.4    316.6   0.205624235   2.14287   0.57840   0.37641  -1.29098
  18   31863.0    313.8   0.193809356   2.00246   0.32856   1.31873  -0.39427
  19   32003.2    312.5   0.071104155   0.73144   0.47135   0.19028  -0.68779
  20   32463.6    308.0   0.041952534   0.42544  -0.15049   0.58279   0.25130
  21   32902.5    303.9   0.112013222   1.12077   0.27413  -0.00985  -1.02251
  22   33212.5    301.1   0.120374032   1.19318   0.33711  -0.71186  -0.75683
  23   33328.1    300.0   0.004024671   0.03976  -0.08634  -0.17886   0.01760
  24   33454.5    298.9   0.240645179   2.36809  -0.70441  -0.89288   1.03666
  25   34083.9    293.4   0.189137629   1.82686   0.47003   0.97798  -0.80591
  26   34340.3    291.2   0.091761983   0.87970   0.18712   0.23762  -0.88782
  27   34358.0    291.1   0.074289663   0.71183  -0.26916  -0.04019   0.79860
  28   34483.1    290.0   0.175542295   1.67591   0.02351   1.23063  -0.40113
  29   34659.3    288.5   0.276027995   2.62186   0.08105   0.83975  -1.38206
  30   35050.9    285.3   0.135443696   1.27214   0.23001  -0.34001  -1.05054
  31   35170.3    284.3   0.324936373   3.04157   0.41893  -0.97434  -1.38446
  32   35304.9    283.2   0.433279607   4.04026  -1.56133  -1.18950  -0.43313
  33   35455.0    282.0   0.384824211   3.57323   1.40524   1.23825  -0.25546
  34   35676.5    280.3   0.005185188   0.04785   0.07793  -0.20397   0.01310
  35   35868.3    278.8   0.046034598   0.42252   0.02958   0.14852   0.63213
  36   35992.6    277.8   0.114827866   1.05029  -0.25987  -0.29050   0.94782
  37   36400.5    274.7   0.052215076   0.47224  -0.40302   0.07551   0.55146
  38   36618.4    273.1   0.007236547   0.06506   0.20753   0.13325  -0.06507
  39   36842.4    271.4   0.005661627   0.05059   0.13987   0.17424   0.02585
  40   36863.6    271.3   0.076778000   0.68567   0.55727   0.56293   0.24130
  41   37038.2    270.0   0.120130183   1.06777   0.24087   0.62832   0.78420
  42   37276.9    268.3   0.010896075   0.09623  -0.01791   0.01372   0.30939
  43   37319.8    268.0   0.015863705   0.13994  -0.20865   0.02960   0.30908
  44   37812.6    264.5   0.095952340   0.83540  -0.17278   0.03575   0.89681
  45   37991.1    263.2   0.013704089   0.11875  -0.00870  -0.21638  -0.26806
  46   38223.5    261.6   0.047280687   0.40722  -0.22983   0.19464   0.56260
  47   38399.7    260.4   0.001556857   0.01335   0.02658   0.06719  -0.09015
  48   38543.6    259.4   0.040644315   0.34716  -0.09708  -0.15702   0.55953
  49   39162.2    255.3   0.056172106   0.47220  -0.09488  -0.08614   0.67512
  50   39288.1    254.5   0.020202927   0.16929   0.17452   0.05740  -0.36816
  51   39865.2    250.8   0.227816390   1.88134   0.54186   1.24513   0.19332
  52   40029.6    249.8   0.010631297   0.08743   0.14842   0.23947  -0.08978
  53   40086.9    249.5   0.043508803   0.35731   0.01676  -0.04733  -0.59565

FINAL SINGLE POINT ENERGY     -4738.453165222159

DIPOLE MOMENT
-------------
                                X             Y             Z
Electronic contribution:      0.26359      -2.53416       0.11278
Nuclear contribution   :     -2.36922      -1.62215      -2.96971
                        -----------------------------------------
Total Dipole Moment    :     -2.10563      -4.15631      -2.85692
                        -----------------------------------------
Magnitude (a.u.)       :      5.46540
Magnitude (Debye)      :     13.89194

Rotational constants in cm-1:     0.001417     0.000194     0.000173
Rotational constants in MHz :    42.465744     5.815695     5.187412

                             ****ORCA TERMINATED NORMALLY****
TOTAL RUN TIME: 0 days 0 hours 8 minutes 44 seconds 439 msec
