                         Program Version 4.2.0 -  RELEASE  -
|  1> # ORCA input file
|  2> # SCF done       -165.049954443340          0.000524119636
|  3> ! CAM-B3LYP def2-SVP def2/J RIJCOSX Grid4 TightSCF
|  4> %maxcore 5000
|  5> %tddft
|  6>     Mode sTDDFT
|  7>     Ethresh 5.0
|  8>     maxcore 5000
|  9> end
| 10>
| 11> %pal
| 12>   nprocs 6
| 13>   end
| 14> * xyz 0 1
| 15>    C        1.02727         1.62026         0.48831
| 16>    C       -0.14610         1.40838        -0.17092
| 17>    C       -0.33690         1.07875        -1.60707
| 18>    O        0.45403         1.30267        -2.48977
| 19>    O       -1.53860         0.53343        -1.80641
| 20>    C       -1.86651         0.21422        -3.15120
| 21>    C       -1.34452         1.58019         0.55608
| 22>    N       -2.30797         1.72828         1.16050
| 23>    C        2.36606         1.44996         0.05832
| 24>    C        2.90968         0.87339        -1.07912
| 25>    C        4.29895         0.89613        -1.06812
| 26>    C        4.83512         1.50682         0.08685
| 27>    S        3.62249         2.02107         1.16349
| 28>    C        6.24353         1.51943        -0.02377
| 29>    C        6.60637         0.91487        -1.24611
| 30>    C        5.39560         0.45857        -1.91597
| 31>    C        5.31392        -0.30066        -3.04398
| 32>    C        6.45621        -0.78464        -3.72118
| 33>    N        7.36553        -1.23017        -4.25741
| 34>    C        4.07996        -0.74074        -3.57323
| 35>    N        3.09198        -1.12638        -4.00772
| 36>    C        7.97532         0.92494        -1.47537
| 37>    C        8.66646         1.51753        -0.42334
| 38>    S        7.59821         2.06558         0.86151
| 39>    C       10.06019         1.69581        -0.34680
| 40>    C       10.98738         1.47724        -1.37628
| 41>    C       12.33717         1.74559        -0.96796
| 42>    N       13.36837         1.57885        -1.79451
| 43>    C       13.09174         1.19139        -3.02102
| 44>    C       14.23728         0.97352        -3.93985
| 45>    O       15.38817         1.14862        -3.59953
| 46>    C       13.87041         0.51978        -5.29236
| 47>    C       12.60841         0.36934        -5.70751
| 48>    C       11.43148         0.64864        -4.86455
| 49>    O       10.30064         0.63087        -5.29656
| 50>    C       11.74177         0.98639        -3.45010
| 51>    N       10.71967         1.11314        -2.63270
| 52>    C       12.44629         2.18353         0.35649
| 53>    S       10.87588         2.25129         1.08772
| 54>    C       13.65326         2.52360         0.98943
| 55>    C       13.85014         2.95420         2.29580
| 56>    C       15.19252         3.19927         2.55271
| 57>    C       16.01695         2.95400         1.43285
| 58>    S       15.14506         2.41755         0.06534
| 59>    C       17.35636         3.24121         1.79783
| 60>    C       17.37692         3.66454         3.14134
| 61>    C       16.02147         3.64771         3.66086
| 62>    C       15.61987         3.98331         4.92094
| 63>    C       16.53728         4.39367         5.91059
| 64>    N       17.28820         4.71688         6.71497
| 65>    C       14.26535         3.93136         5.31234
| 66>    N       13.16438         3.88478         5.62849
| 67>    C       18.65340         3.98688         3.59178
| 68>    C       19.61046         3.82292         2.60662
| 69>    S       18.91186         3.23034         1.10437
| 70>    C       21.01408         4.05004         2.66979
| 71>    C       21.65040         4.75786         3.63158
| 72>    C       20.94866         5.56315         4.69254
| 73>    O       20.27606         6.52933         4.44760
| 74>    O       21.19969         5.08414         5.90375
| 75>    C       20.60026         5.76863         7.00335
| 76>    C       23.05188         4.86381         3.65355
| 77>    N       24.19468         4.96190         3.68927
| 78>    H        0.93265         1.95590         1.51669
| 79>    H       -1.07660        -0.39096        -3.60117
| 80>    H       -1.98630         1.12842        -3.73620
| 81>    H       -2.80160        -0.33749        -3.11050
| 82>    H        2.31148         0.48052        -1.87915
| 83>    H        8.47991         0.54892        -2.34730
| 84>    H       14.70632         0.32313        -5.95011
| 85>    H       12.38157         0.04907        -6.71537
| 86>    H       13.04333         3.07413         2.99663
| 87>    H       18.87779         4.30179         4.59230
| 88>    H       21.60740         3.60895         1.87800
| 89>    H       19.54950         5.48357         7.09214
| 90>    H       20.66905         6.84746         6.85615
| 91>    H       21.15262         5.46164         7.88724
| 92> *
| 93>
| 94>                          ****END OF INPUT****

CARTESIAN COORDINATES (ANGSTROEM)
---------------------------------
  C      1.027270    1.620260    0.488310
  C     -0.146100    1.408380   -0.170920
  C     -0.336900    1.078750   -1.607070
  O      0.454030    1.302670   -2.489770
  O     -1.538600    0.533430   -1.806410
  C     -1.866510    0.214220   -3.151200
  C     -1.344520    1.580190    0.556080
  N     -2.307970    1.728280    1.160500
  C      2.366060    1.449960    0.058320
  C      2.909680    0.873390   -1.079120
  C      4.298950    0.896130   -1.068120
  C      4.835120    1.506820    0.086850
  S      3.622490    2.021070    1.163490
  C      6.243530    1.519430   -0.023770
  C      6.606370    0.914870   -1.246110
  C      5.395600    0.458570   -1.915970
  C      5.313920   -0.300660   -3.043980
  C      6.456210   -0.784640   -3.721180
  N      7.365530   -1.230170   -4.257410
  C      4.079960   -0.740740   -3.573230
  N      3.091980   -1.126380   -4.007720
  C      7.975320    0.924940   -1.475370
  C      8.666460    1.517530   -0.423340
  S      7.598210    2.065580    0.861510
  C     10.060190    1.695810   -0.346800
  C     10.987380    1.477240   -1.376280
  C     12.337170    1.745590   -0.967960
  N     13.368370    1.578850   -1.794510
  C     13.091740    1.191390   -3.021020
  C     14.237280    0.973520   -3.939850
  O     15.388170    1.148620   -3.599530
  C     13.870410    0.519780   -5.292360
  C     12.608410    0.369340   -5.707510
  C     11.431480    0.648640   -4.864550
  O     10.300640    0.630870   -5.296560
  C     11.741770    0.986390   -3.450100
  N     10.719670    1.113140   -2.632700
  C     12.446290    2.183530    0.356490
  S     10.875880    2.251290    1.087720
  C     13.653260    2.523600    0.989430
  C     13.850140    2.954200    2.295800
  C     15.192520    3.199270    2.552710
  C     16.016950    2.954000    1.432850
  S     15.145060    2.417550    0.065340
  C     17.356360    3.241210    1.797830
  C     17.376920    3.664540    3.141340
  C     16.021470    3.647710    3.660860
  C     15.619870    3.983310    4.920940
  C     16.537280    4.393670    5.910590
  N     17.288200    4.716880    6.714970
  C     14.265350    3.931360    5.312340
  N     13.164380    3.884780    5.628490
  C     18.653400    3.986880    3.591780
  C     19.610460    3.822920    2.606620
  S     18.911860    3.230340    1.104370
  C     21.014080    4.050040    2.669790
  C     21.650400    4.757860    3.631580
  C     20.948660    5.563150    4.692540
  O     20.276060    6.529330    4.447600
  O     21.199690    5.084140    5.903750
  C     20.600260    5.768630    7.003350
  C     23.051880    4.863810    3.653550
  N     24.194680    4.961900    3.689270
  H      0.932650    1.955900    1.516690
  H     -1.076600   -0.390960   -3.601170
  H     -1.986300    1.128420   -3.736200
  H     -2.801600   -0.337490   -3.110500
  H      2.311480    0.480520   -1.879150
  H      8.479910    0.548920   -2.347300
  H     14.706320    0.323130   -5.950110
  H     12.381570    0.049070   -6.715370
  H     13.043330    3.074130    2.996630
  H     18.877790    4.301790    4.592300
  H     21.607400    3.608950    1.878000
  H     19.549500    5.483570    7.092140
  H     20.669050    6.847460    6.856150
  H     21.152620    5.461640    7.887240

 Total Charge           Charge          ....    0
 Multiplicity           Mult            ....    1
 Number of Electrons    NEL             ....  462
 Basis Dimension        Dim             ....  972

ORBITAL ENERGIES
----------------

  NO   OCC          E(Eh)            E(eV)
   0   2.0000     -89.014433     -2422.2059
   1   2.0000     -89.003808     -2421.9167
   2   2.0000     -89.001889     -2421.8645
   3   2.0000     -89.000156     -2421.8174
   4   2.0000     -88.997754     -2421.7520
   5   2.0000     -19.272501      -524.4314
   6   2.0000     -19.269761      -524.3569
   7   2.0000     -19.238880      -523.5165
   8   2.0000     -19.236352      -523.4478
   9   2.0000     -19.216874      -522.9177
  10   2.0000     -19.216817      -522.9162
  11   2.0000     -14.466692      -393.6587
  12   2.0000     -14.462851      -393.5542
  13   2.0000     -14.444325      -393.0501
  14   2.0000     -14.440807      -392.9543
  15   2.0000     -14.434099      -392.7718
  16   2.0000     -14.432410      -392.7259
  17   2.0000     -14.407282      -392.0421
  18   2.0000     -14.398683      -391.8081
  19   2.0000     -10.416739      -283.4539
  20   2.0000     -10.416675      -283.4522
  21   2.0000     -10.388647      -282.6895
  22   2.0000     -10.385112      -282.5933
  23   2.0000     -10.375203      -282.3236
  24   2.0000     -10.372457      -282.2489
  25   2.0000     -10.363493      -282.0050
  26   2.0000     -10.357726      -281.8481
  27   2.0000     -10.356613      -281.8178
  28   2.0000     -10.354558      -281.7618
  29   2.0000     -10.350720      -281.6574
  30   2.0000     -10.350054      -281.6393
  31   2.0000     -10.348797      -281.6051
  32   2.0000     -10.348164      -281.5879
  33   2.0000     -10.347045      -281.5574
  34   2.0000     -10.346018      -281.5295
  35   2.0000     -10.345356      -281.5114
  36   2.0000     -10.344567      -281.4900
  37   2.0000     -10.344409      -281.4857
  38   2.0000     -10.342316      -281.4287
  39   2.0000     -10.341288      -281.4008
  40   2.0000     -10.338929      -281.3366
  41   2.0000     -10.334491      -281.2158
  42   2.0000     -10.334090      -281.2049
  43   2.0000     -10.333320      -281.1839
  44   2.0000     -10.332508      -281.1618
  45   2.0000     -10.331259      -281.1278
  46   2.0000     -10.329206      -281.0720
  47   2.0000     -10.327230      -281.0182
  48   2.0000     -10.324994      -280.9574
  49   2.0000     -10.323918      -280.9281
  50   2.0000     -10.319005      -280.7944
  51   2.0000     -10.318894      -280.7914
  52   2.0000     -10.318043      -280.7682
  53   2.0000     -10.317085      -280.7422
  54   2.0000     -10.316681      -280.7312
  55   2.0000     -10.315216      -280.6913
  56   2.0000     -10.314603      -280.6746
  57   2.0000     -10.314159      -280.6625
  58   2.0000     -10.312783      -280.6251
  59   2.0000     -10.309829      -280.5447
  60   2.0000     -10.309354      -280.5318
  61   2.0000     -10.308105      -280.4978
  62   2.0000     -10.300741      -280.2974
  63   2.0000      -8.108838      -220.6527
  64   2.0000      -8.098666      -220.3759
  65   2.0000      -8.096613      -220.3200
  66   2.0000      -8.095086      -220.2785
  67   2.0000      -8.090951      -220.1660
  68   2.0000      -6.077919      -165.3886
  69   2.0000      -6.073831      -165.2773
  70   2.0000      -6.071462      -165.2129
  71   2.0000      -6.067974      -165.1180
  72   2.0000      -6.065728      -165.0569
  73   2.0000      -6.064212      -165.0156
  74   2.0000      -6.063801      -165.0044
  75   2.0000      -6.061596      -164.9444
  76   2.0000      -6.060852      -164.9242
  77   2.0000      -6.060339      -164.9102
  78   2.0000      -6.060123      -164.9043
  79   2.0000      -6.059158      -164.8781
  80   2.0000      -6.057527      -164.8337
  81   2.0000      -6.055849      -164.7880
  82   2.0000      -6.053269      -164.7178
  83   2.0000      -1.204771       -32.7835
  84   2.0000      -1.204175       -32.7673
  85   2.0000      -1.155785       -31.4505
  86   2.0000      -1.150361       -31.3029
  87   2.0000      -1.116051       -30.3693
  88   2.0000      -1.110881       -30.2286
  89   2.0000      -1.109893       -30.2017
  90   2.0000      -1.056088       -28.7376
  91   2.0000      -1.055359       -28.7178
  92   2.0000      -1.043758       -28.4021
  93   2.0000      -1.034136       -28.1403
  94   2.0000      -1.027963       -27.9723
  95   2.0000      -1.024613       -27.8811
  96   2.0000      -1.020124       -27.7590
  97   2.0000      -1.010745       -27.5038
  98   2.0000      -1.009165       -27.4608
  99   2.0000      -1.002011       -27.2661
 100   2.0000      -0.993285       -27.0287
 101   2.0000      -0.987390       -26.8682
 102   2.0000      -0.971701       -26.4413
 103   2.0000      -0.966563       -26.3015
 104   2.0000      -0.950366       -25.8608
 105   2.0000      -0.938830       -25.5469
 106   2.0000      -0.934574       -25.4311
 107   2.0000      -0.919747       -25.0276
 108   2.0000      -0.910382       -24.7728
 109   2.0000      -0.891359       -24.2551
 110   2.0000      -0.887696       -24.1554
 111   2.0000      -0.879216       -23.9247
 112   2.0000      -0.871965       -23.7274
 113   2.0000      -0.866962       -23.5912
 114   2.0000      -0.864903       -23.5352
 115   2.0000      -0.846894       -23.0451
 116   2.0000      -0.838325       -22.8120
 117   2.0000      -0.817792       -22.2533
 118   2.0000      -0.813971       -22.1493
 119   2.0000      -0.805645       -21.9227
 120   2.0000      -0.798288       -21.7225
 121   2.0000      -0.793288       -21.5865
 122   2.0000      -0.784922       -21.3588
 123   2.0000      -0.775697       -21.1078
 124   2.0000      -0.765904       -20.8413
 125   2.0000      -0.740915       -20.1613
 126   2.0000      -0.730005       -19.8645
 127   2.0000      -0.709316       -19.3015
 128   2.0000      -0.704102       -19.1596
 129   2.0000      -0.697766       -18.9872
 130   2.0000      -0.695493       -18.9253
 131   2.0000      -0.692435       -18.8421
 132   2.0000      -0.690442       -18.7879
 133   2.0000      -0.683358       -18.5951
 134   2.0000      -0.676010       -18.3952
 135   2.0000      -0.669937       -18.2299
 136   2.0000      -0.655103       -17.8262
 137   2.0000      -0.652085       -17.7441
 138   2.0000      -0.646121       -17.5818
 139   2.0000      -0.641053       -17.4439
 140   2.0000      -0.639185       -17.3931
 141   2.0000      -0.636967       -17.3327
 142   2.0000      -0.629500       -17.1296
 143   2.0000      -0.627318       -17.0702
 144   2.0000      -0.623952       -16.9786
 145   2.0000      -0.619971       -16.8703
 146   2.0000      -0.609976       -16.5983
 147   2.0000      -0.594110       -16.1665
 148   2.0000      -0.589951       -16.0534
 149   2.0000      -0.582900       -15.8615
 150   2.0000      -0.579679       -15.7739
 151   2.0000      -0.579208       -15.7611
 152   2.0000      -0.575656       -15.6644
 153   2.0000      -0.570580       -15.5263
 154   2.0000      -0.570100       -15.5132
 155   2.0000      -0.562707       -15.3120
 156   2.0000      -0.558351       -15.1935
 157   2.0000      -0.557952       -15.1827
 158   2.0000      -0.556611       -15.1462
 159   2.0000      -0.549940       -14.9646
 160   2.0000      -0.543505       -14.7895
 161   2.0000      -0.539100       -14.6697
 162   2.0000      -0.536760       -14.6060
 163   2.0000      -0.535026       -14.5588
 164   2.0000      -0.529806       -14.4168
 165   2.0000      -0.523881       -14.2555
 166   2.0000      -0.518347       -14.1049
 167   2.0000      -0.516474       -14.0540
 168   2.0000      -0.512971       -13.9586
 169   2.0000      -0.511373       -13.9152
 170   2.0000      -0.510233       -13.8841
 171   2.0000      -0.509445       -13.8627
 172   2.0000      -0.507129       -13.7997
 173   2.0000      -0.506248       -13.7757
 174   2.0000      -0.503109       -13.6903
 175   2.0000      -0.500358       -13.6154
 176   2.0000      -0.497567       -13.5395
 177   2.0000      -0.495739       -13.4898
 178   2.0000      -0.494477       -13.4554
 179   2.0000      -0.492225       -13.3941
 180   2.0000      -0.490501       -13.3472
 181   2.0000      -0.486119       -13.2280
 182   2.0000      -0.477845       -13.0028
 183   2.0000      -0.473762       -12.8917
 184   2.0000      -0.472645       -12.8613
 185   2.0000      -0.470715       -12.8088
 186   2.0000      -0.467153       -12.7119
 187   2.0000      -0.463657       -12.6168
 188   2.0000      -0.463409       -12.6100
 189   2.0000      -0.461730       -12.5643
 190   2.0000      -0.459986       -12.5169
 191   2.0000      -0.456607       -12.4249
 192   2.0000      -0.455547       -12.3961
 193   2.0000      -0.454136       -12.3577
 194   2.0000      -0.451816       -12.2945
 195   2.0000      -0.449790       -12.2394
 196   2.0000      -0.447880       -12.1874
 197   2.0000      -0.447006       -12.1636
 198   2.0000      -0.442037       -12.0284
 199   2.0000      -0.441916       -12.0251
 200   2.0000      -0.440822       -11.9954
 201   2.0000      -0.439926       -11.9710
 202   2.0000      -0.438569       -11.9341
 203   2.0000      -0.433896       -11.8069
 204   2.0000      -0.429216       -11.6796
 205   2.0000      -0.428846       -11.6695
 206   2.0000      -0.425929       -11.5901
 207   2.0000      -0.421032       -11.4569
 208   2.0000      -0.417973       -11.3736
 209   2.0000      -0.414019       -11.2660
 210   2.0000      -0.413357       -11.2480
 211   2.0000      -0.404167       -10.9979
 212   2.0000      -0.399304       -10.8656
 213   2.0000      -0.386032       -10.5045
 214   2.0000      -0.385010       -10.4767
 215   2.0000      -0.382912       -10.4196
 216   2.0000      -0.376687       -10.2502
 217   2.0000      -0.375917       -10.2292
 218   2.0000      -0.366084        -9.9616
 219   2.0000      -0.364092        -9.9075
 220   2.0000      -0.362850        -9.8737
 221   2.0000      -0.358826        -9.7641
 222   2.0000      -0.357428        -9.7261
 223   2.0000      -0.357074        -9.7165
 224   2.0000      -0.349651        -9.5145
 225   2.0000      -0.348392        -9.4802
 226   2.0000      -0.333402        -9.0723
 227   2.0000      -0.329993        -8.9796
 228   2.0000      -0.314877        -8.5682
 229   2.0000      -0.284941        -7.7536
 230   2.0000      -0.247643        -6.7387
 231   0.0000      -0.128439        -3.4950
 232   0.0000      -0.114211        -3.1078
 233   0.0000      -0.102173        -2.7803
 234   0.0000      -0.097174        -2.6442
 235   0.0000      -0.068162        -1.8548

MULLIKEN ATOMIC CHARGES
-----------------------
   0 C :    0.113357
   1 C :   -0.176913
   2 C :    0.212559
   3 O :   -0.212954
   4 O :   -0.278600
   5 C :    0.181123
   6 C :   -0.133923
   7 N :    0.089926
   8 C :   -0.120152
   9 C :    0.020858
  10 C :   -0.017661
  11 C :   -0.088429
  12 S :    0.195115
  13 C :   -0.095891
  14 C :    0.031996
  15 C :    0.307954
  16 C :   -0.289188
  17 C :   -0.196579
  18 N :    0.196023
  19 C :   -0.186013
  20 N :    0.183944
  21 C :   -0.059892
  22 C :   -0.088775
  23 S :    0.188868
  24 C :   -0.125524
  25 C :    0.039099
  26 C :    0.015589
  27 N :    0.028908
  28 C :   -0.111778
  29 C :    0.142880
  30 O :   -0.109552
  31 C :   -0.020520
  32 C :   -0.009592
  33 C :    0.140297
  34 O :   -0.092841
  35 C :   -0.115343
  36 N :    0.068854
  37 C :   -0.112059
  38 S :    0.223906
  39 C :   -0.075511
  40 C :   -0.079977
  41 C :    0.025906
  42 C :   -0.085645
  43 S :    0.246865
  44 C :   -0.093003
  45 C :   -0.005248
  46 C :    0.311362
  47 C :   -0.298811
  48 C :   -0.169329
  49 N :    0.178134
  50 C :   -0.188932
  51 N :    0.172939
  52 C :   -0.000409
  53 C :   -0.112628
  54 S :    0.216380
  55 C :    0.129217
  56 C :   -0.176337
  57 C :    0.179205
  58 O :   -0.194301
  59 O :   -0.283640
  60 C :    0.167145
  61 C :   -0.133598
  62 N :    0.110046
  63 H :    0.018871
  64 H :    0.045499
  65 H :    0.036777
  66 H :    0.043591
  67 H :    0.031785
  68 H :    0.030118
  69 H :    0.021624
  70 H :    0.024663
  71 H :    0.009600
  72 H :    0.021838
  73 H :    0.013029
  74 H :    0.042375
  75 H :    0.042082
  76 H :    0.039238
Sum of atomic charges:   -0.0000000

LOEWDIN ATOMIC CHARGES
----------------------
   0 C :    0.039143
   1 C :   -0.121158
   2 C :    0.094452
   3 O :   -0.166244
   4 O :   -0.070437
   5 C :    0.084925
   6 C :   -0.038148
   7 N :   -0.060879
   8 C :   -0.180148
   9 C :    0.012048
  10 C :   -0.069401
  11 C :   -0.168369
  12 S :    0.484472
  13 C :   -0.183707
  14 C :   -0.055085
  15 C :    0.073882
  16 C :   -0.087062
  17 C :   -0.021985
  18 N :   -0.014395
  19 C :   -0.017650
  20 N :   -0.021283
  21 C :   -0.008657
  22 C :   -0.179711
  23 S :    0.466546
  24 C :   -0.191740
  25 C :   -0.041260
  26 C :   -0.054566
  27 N :   -0.012125
  28 C :   -0.036466
  29 C :    0.056440
  30 O :   -0.104065
  31 C :   -0.014796
  32 C :   -0.007004
  33 C :    0.055233
  34 O :   -0.086635
  35 C :   -0.036596
  36 N :    0.011300
  37 C :   -0.190515
  38 S :    0.508387
  39 C :   -0.180177
  40 C :   -0.027976
  41 C :   -0.067185
  42 C :   -0.182271
  43 S :    0.536650
  44 C :   -0.171315
  45 C :   -0.068922
  46 C :    0.085083
  47 C :   -0.103888
  48 C :   -0.001470
  49 N :   -0.030311
  50 C :   -0.016484
  51 N :   -0.032666
  52 C :   -0.004387
  53 C :   -0.176488
  54 S :    0.498008
  55 C :    0.022084
  56 C :   -0.093935
  57 C :    0.079721
  58 O :   -0.156212
  59 O :   -0.072901
  60 C :    0.081173
  61 C :   -0.032644
  62 N :   -0.049106
  63 H :    0.048685
  64 H :    0.028081
  65 H :    0.026382
  66 H :    0.030311
  67 H :    0.043231
  68 H :    0.044692
  69 H :    0.047014
  70 H :    0.048313
  71 H :    0.037696
  72 H :    0.041366
  73 H :    0.046284
  74 H :    0.021785
  75 H :    0.026062
  76 H :    0.028977

  Mayer bond orders larger than 0.100000
B(  0-C ,  1-C ) :   1.7450 B(  0-C ,  8-C ) :   1.1562 B(  0-C , 63-H ) :   0.9364
B(  1-C ,  2-C ) :   0.9242 B(  1-C ,  6-C ) :   1.0744 B(  2-C ,  3-O ) :   2.0424
B(  2-C ,  4-O ) :   1.2581 B(  4-O ,  5-C ) :   0.9139 B(  5-C , 64-H ) :   0.9731
B(  5-C , 65-H ) :   0.9784 B(  5-C , 66-H ) :   0.9808 B(  6-C ,  7-N ) :   3.0300
B(  8-C ,  9-C ) :   1.4285 B(  8-C , 12-S ) :   1.0805 B(  9-C , 10-C ) :   1.3263
B(  9-C , 67-H ) :   0.9708 B( 10-C , 11-C ) :   1.3950 B( 10-C , 15-C ) :   0.9971
B( 11-C , 12-S ) :   1.1515 B( 11-C , 13-C ) :   1.2087 B( 13-C , 14-C ) :   1.4191
B( 13-C , 23-S ) :   1.1160 B( 14-C , 15-C ) :   0.9865 B( 14-C , 21-C ) :   1.2800
B( 15-C , 16-C ) :   1.7224 B( 16-C , 17-C ) :   1.1351 B( 16-C , 19-C ) :   1.1363
B( 17-C , 18-N ) :   3.0004 B( 19-C , 20-N ) :   2.9905 B( 21-C , 22-C ) :   1.4488
B( 21-C , 68-H ) :   0.9866 B( 22-C , 23-S ) :   1.0886 B( 22-C , 24-C ) :   1.1892
B( 24-C , 25-C ) :   1.3689 B( 24-C , 37-C ) :   0.1340 B( 24-C , 38-S ) :   1.1515
B( 25-C , 26-C ) :   1.1873 B( 25-C , 36-N ) :   1.4376 B( 26-C , 27-N ) :   1.4128
B( 26-C , 37-C ) :   1.3195 B( 27-N , 28-C ) :   1.6998 B( 28-C , 29-C ) :   0.8936
B( 28-C , 35-C ) :   1.0972 B( 29-C , 30-O ) :   2.2449 B( 29-C , 31-C ) :   1.0247
B( 31-C , 32-C ) :   1.6843 B( 31-C , 69-H ) :   0.9969 B( 32-C , 33-C ) :   1.0225
B( 32-C , 70-H ) :   0.9955 B( 33-C , 34-O ) :   2.2429 B( 33-C , 35-C ) :   0.8910
B( 35-C , 36-N ) :   1.7181 B( 37-C , 38-S ) :   1.1586 B( 37-C , 39-C ) :   1.2385
B( 39-C , 40-C ) :   1.3894 B( 39-C , 43-S ) :   1.1170 B( 40-C , 41-C ) :   1.3233
B( 40-C , 71-H ) :   0.9956 B( 41-C , 42-C ) :   1.4096 B( 41-C , 46-C ) :   0.9908
B( 42-C , 43-S ) :   1.1024 B( 42-C , 44-C ) :   1.1955 B( 44-C , 45-C ) :   1.4129
B( 44-C , 54-S ) :   1.1482 B( 45-C , 46-C ) :   1.0052 B( 45-C , 52-C ) :   1.3147
B( 46-C , 47-C ) :   1.7088 B( 47-C , 48-C ) :   1.1363 B( 47-C , 50-C ) :   1.1318
B( 48-C , 49-N ) :   2.9703 B( 50-C , 51-N ) :   2.9942 B( 52-C , 53-C ) :   1.4536
B( 52-C , 72-H ) :   0.9705 B( 53-C , 54-S ) :   1.0967 B( 53-C , 55-C ) :   1.1074
B( 55-C , 56-C ) :   1.8230 B( 55-C , 73-H ) :   0.9513 B( 56-C , 57-C ) :   0.8474
B( 56-C , 61-C ) :   1.1540 B( 57-C , 58-O ) :   2.1207 B( 57-C , 59-O ) :   1.2446
B( 59-O , 60-C ) :   0.8963 B( 60-C , 74-H ) :   0.9677 B( 60-C , 75-H ) :   0.9663
B( 60-C , 76-H ) :   0.9779 B( 61-C , 62-N ) :   3.0198

-----------------------------------------------------------------------------
         ABSORPTION SPECTRUM VIA TRANSITION ELECTRIC DIPOLE MOMENTS
-----------------------------------------------------------------------------
State   Energy  Wavelength   fosc         T2         TX        TY        TZ
        (cm-1)    (nm)                  (au**2)     (au)      (au)      (au)
-----------------------------------------------------------------------------
   0   10450.0    956.9   0.725798550  22.86531   4.56054   0.85746   1.15394
   1   12554.6    796.5   0.089993205   2.35985   1.51556   0.00090  -0.25082
   2   14372.8    695.8   0.084490499   1.93527   1.09505   0.40310   0.75740
   3   17503.2    571.3   0.125446976   2.35949   0.82261  -0.29757  -1.26264
   4   19966.9    500.8   0.036515923   0.60207   0.04258  -0.31827  -0.70637
   5   22180.7    450.8   0.166768206   2.47522  -1.52370  -0.25101  -0.30091
   6   24469.2    408.7   0.804651758  10.82589  -3.28308  -0.07831   0.20290
   7   24604.7    406.4   0.007060921   0.09448   0.26534  -0.14770   0.04749
   8   25255.7    395.9   0.756999620   9.86760  -2.94413  -0.56217  -0.94004
   9   25705.7    389.0   0.000089780   0.00115  -0.03071   0.00528  -0.01338
  10   26591.6    376.1   0.002388662   0.02957  -0.00990  -0.16269  -0.05483
  11   27111.4    368.8   0.192160275   2.33339   1.05650   0.74583   0.81298
  12   27492.7    363.7   0.015419474   0.18464  -0.34166  -0.20871  -0.15605
  13   27998.5    357.2   0.019379054   0.22786   0.38340   0.17890   0.22105
  14   29091.7    343.7   0.156929160   1.77586   0.20401   0.73090   1.09546
  15   29347.8    340.7   0.123215351   1.38218  -0.17249   0.32640   1.11619
  16   30546.8    327.4   0.021730140   0.23419  -0.12811  -0.22642  -0.40806
  17   30595.1    326.8   0.000541249   0.00582   0.05763   0.04842   0.01259
  18   31392.2    318.6   0.378291082   3.96716  -0.11122  -0.82739  -1.80837
  19   32083.8    311.7   0.349510848   3.58633   1.73937  -0.13584  -0.73653
  20   32333.8    309.3   0.039930909   0.40656  -0.30145  -0.32568   0.45785
  21   32965.8    303.3   0.455184146   4.54568  -1.40380   0.60374   1.48679
  22   33230.8    300.9   0.063319104   0.62729   0.21402   0.04748  -0.76107
  23   33451.9    298.9   0.072212918   0.71067   0.01976  -0.17866  -0.82363
  24   33567.4    297.9   0.000521504   0.00511   0.07128   0.00566   0.00147
  25   34410.7    290.6   0.334107746   3.19646  -0.73385  -0.82693  -1.40503
  26   34457.5    290.2   0.088003246   0.84079   0.81234   0.17088   0.38948
  27   34556.4    289.4   0.012087851   0.11516   0.21221   0.12944   0.23102
  28   34720.1    288.0   0.025666706   0.24337   0.32819  -0.17122  -0.32610
  29   34821.1    287.2   0.013885898   0.13128   0.33387  -0.01686  -0.13975
  30   34911.5    286.4   0.032793128   0.30924   0.39483   0.07352   0.38463
  31   35256.0    283.6   0.002066047   0.01929   0.01074  -0.08953  -0.10564
  32   35775.5    279.5   0.018741694   0.17246  -0.00642  -0.18099  -0.37372
  33   35851.0    278.9   0.072899893   0.66942  -0.06951   0.05680   0.81324
  34   36199.2    276.2   0.285776465   2.59898   1.32319   0.49257   0.77815
  35   36472.7    274.2   0.183711273   1.65822   1.21727  -0.00748  -0.42001
  36   36526.8    273.8   0.033555485   0.30243  -0.38517   0.03241   0.39118
  37   36746.6    272.1   0.031687604   0.28389  -0.02558  -0.24262  -0.47368
  38   37111.8    269.5   0.007976826   0.07076  -0.25380  -0.01187   0.07878
  39   37382.0    267.5   0.261135258   2.29974  -0.46687   0.38176   1.39142
  40   37719.3    265.1   0.023730254   0.20712   0.22888  -0.18240  -0.34851
  41   37923.4    263.7   0.002396660   0.02081  -0.10273   0.02031  -0.09919
  42   37981.9    263.3   0.027423560   0.23770  -0.46796   0.10607   0.08636
  43   38727.3    258.2   0.027773994   0.23610  -0.33902   0.20925   0.27818
  44   38940.1    256.8   0.000244629   0.00207   0.04537   0.00287   0.00124
  45   39201.1    255.1   0.011385893   0.09562  -0.23547  -0.16163   0.11853
  46   39489.0    253.2   0.004047823   0.03375  -0.16520   0.05411   0.05940
  47   39781.4    251.4   0.019040953   0.15757  -0.09022   0.14054   0.36012
  48   39896.4    250.6   0.004035759   0.03330   0.11497   0.02674   0.13917
  49   39970.3    250.2   0.026503859   0.21830   0.16858   0.20434   0.38487
  50   40091.8    249.4   0.002228123   0.01830  -0.04009   0.09131   0.09139

FINAL SINGLE POINT ENERGY     -4561.443099565320

DIPOLE MOMENT
-------------
                                X             Y             Z
Electronic contribution:      6.70952      -2.37629      -1.72586
Nuclear contribution   :     -6.51685       1.68517       0.96806
                        -----------------------------------------
Total Dipole Moment    :      0.19267      -0.69111      -0.75780
                        -----------------------------------------
Magnitude (a.u.)       :      1.04356
Magnitude (Debye)      :      2.65252

Rotational constants in cm-1:     0.002333     0.000342     0.000300
Rotational constants in MHz :    69.932171    10.246696     8.996060

                             ****ORCA TERMINATED NORMALLY****
TOTAL RUN TIME: 0 days 0 hours 6 minutes 38 seconds 600 msec
