                         Program Version 4.2.0 -  RELEASE  -
|  1> # ORCA input file
|  2> # SCF done       -187.285871505719          0.000326232731
|  3> ! CAM-B3LYP def2-SVP def2/J RIJCOSX Grid4 TightSCF
|  4> %maxcore 5000
|  5> %tddft
|  6>     Mode sTDDFT
|  7>     Ethresh 5.0
|  8>     maxcore 5000
|  9> end
| 10>
| 11> %pal
| 12>   nprocs 6
| 13>   end
| 14> * xyz 0 1
| 15>    C       -1.57941        -3.40203         6.46034
| 16>    C       -0.51381        -3.50023         5.56964
| 17>    C       -0.60759        -4.31471         4.39081
| 18>    N        0.43350        -4.39241         3.54166
| 19>    C        1.51707        -3.72159         3.80987
| 20>    C        1.60878        -2.92073         4.97335
| 21>    N        0.62904        -2.81408         5.82065
| 22>    C       -1.77003        -5.05337         4.07117
| 23>    C       -2.84087        -4.94620         4.98233
| 24>    C       -2.73254        -4.11897         6.16895
| 25>    N       -3.85947        -4.15452         6.89590
| 26>    S       -4.91656        -5.10902         6.17298
| 27>    N       -4.03478        -5.53888         4.90571
| 28>    C       -1.82211        -5.83573         2.88624
| 29>    C       -2.89218        -6.59943         2.43586
| 30>    C       -2.61356        -7.21822         1.22580
| 31>    C       -1.31452        -6.92441         0.74976
| 32>    S       -0.44442        -5.88871         1.80199
| 33>    C       -1.13938        -7.56659        -0.49298
| 34>    C       -2.32539        -8.27061        -0.81001
| 35>    C       -3.28487        -8.07763         0.26620
| 36>    C       -4.54789        -8.58693         0.34822
| 37>    C       -5.09508        -9.40711        -0.66106
| 38>    N       -5.55032       -10.07408        -1.47538
| 39>    C       -5.39625        -8.32625         1.44505
| 40>    N       -6.09684        -8.12145         2.32949
| 41>    C       -2.26173        -8.90716        -2.03785
| 42>    C       -1.03846        -8.69687        -2.67112
| 43>    S        0.05325        -7.70827        -1.71034
| 44>    C       -0.66054        -9.13918        -3.96057
| 45>    C        0.60737        -8.81603        -4.49753
| 46>    C        0.98016        -9.14910        -5.84823
| 47>    N        2.18632        -8.80006        -6.30407
| 48>    C        3.02606        -8.16198        -5.52175
| 49>    C        2.65584        -7.83129        -4.18017
| 50>    N        1.47242        -8.16234        -3.71729
| 51>    C        3.56081        -7.14578        -3.33386
| 52>    N        4.31369        -6.59061        -2.67260
| 53>    C        4.30265        -7.80836        -6.02217
| 54>    N        5.34214        -7.50912        -6.39927
| 55>    C        0.10434        -9.82267        -6.73114
| 56>    C       -1.13798       -10.21459        -6.17313
| 57>    C       -1.51234        -9.87998        -4.81730
| 58>    N       -2.72728       -10.33810        -4.52002
| 59>    S       -3.33715       -11.10714        -5.78917
| 60>    N       -2.10055       -10.89826        -6.78988
| 61>    C        0.45609       -10.03225        -8.08522
| 62>    C       -0.32016       -10.64295        -9.06809
| 63>    C        0.29631       -10.61339       -10.30743
| 64>    C        1.56010        -9.97720       -10.27842
| 65>    S        1.98488        -9.43249        -8.71403
| 66>    C        2.08743        -9.96173       -11.58578
| 67>    C        1.15916       -10.58798       -12.44980
| 68>    C        0.01096       -11.02316       -11.67370
| 69>    C       -1.10235       -11.66815       -12.12742
| 70>    C       -1.27367       -12.01223       -13.48496
| 71>    N       -1.42589       -12.29859       -14.58493
| 72>    C       -2.16206       -12.03292       -11.27030
| 73>    N       -3.03014       -12.33232       -10.58333
| 74>    C        1.57784       -10.59123       -13.77247
| 75>    C        2.81259        -9.97268       -13.92706
| 76>    S        3.47313        -9.38430       -12.41248
| 77>    C        3.52442        -9.77833       -15.14131
| 78>    C        4.77270        -9.11437       -15.14098
| 79>    C        5.52149        -8.88375       -16.34429
| 80>    N        6.71339        -8.23958       -16.27854
| 81>    C        7.13804        -7.84975       -15.11369
| 82>    C        6.40001        -8.07443       -13.92696
| 83>    N        5.25293        -8.69034       -13.95754
| 84>    C        5.04252        -9.31022       -17.58009
| 85>    C        3.81844        -9.96560       -17.60681
| 86>    C        3.05180       -10.20607       -16.39911
| 87>    N        1.91116       -10.84799       -16.66267
| 88>    S        1.81290       -11.11796       -18.23929
| 89>    N        3.19110       -10.44820       -18.68997
| 90>    H       -1.50290        -2.78857         7.34135
| 91>    H        2.33369        -3.80569         3.10706
| 92>    H        2.50885        -2.36414         5.19636
| 93>    H       -3.81195        -6.67033         2.98729
| 94>    H       -3.04062        -9.49293        -2.49055
| 95>    H       -1.28364       -11.06487        -8.84806
| 96>    H        1.04068       -11.00460       -14.60654
| 97>    H        8.09094        -7.33888       -15.08817
| 98>    H        6.75611        -7.74656       -12.96074
| 99>    H        5.60829        -9.13290       -18.47832
|100> *
|101>
|102>                          ****END OF INPUT****

CARTESIAN COORDINATES (ANGSTROEM)
---------------------------------
  C     -1.579410   -3.402030    6.460340
  C     -0.513810   -3.500230    5.569640
  C     -0.607590   -4.314710    4.390810
  N      0.433500   -4.392410    3.541660
  C      1.517070   -3.721590    3.809870
  C      1.608780   -2.920730    4.973350
  N      0.629040   -2.814080    5.820650
  C     -1.770030   -5.053370    4.071170
  C     -2.840870   -4.946200    4.982330
  C     -2.732540   -4.118970    6.168950
  N     -3.859470   -4.154520    6.895900
  S     -4.916560   -5.109020    6.172980
  N     -4.034780   -5.538880    4.905710
  C     -1.822110   -5.835730    2.886240
  C     -2.892180   -6.599430    2.435860
  C     -2.613560   -7.218220    1.225800
  C     -1.314520   -6.924410    0.749760
  S     -0.444420   -5.888710    1.801990
  C     -1.139380   -7.566590   -0.492980
  C     -2.325390   -8.270610   -0.810010
  C     -3.284870   -8.077630    0.266200
  C     -4.547890   -8.586930    0.348220
  C     -5.095080   -9.407110   -0.661060
  N     -5.550320  -10.074080   -1.475380
  C     -5.396250   -8.326250    1.445050
  N     -6.096840   -8.121450    2.329490
  C     -2.261730   -8.907160   -2.037850
  C     -1.038460   -8.696870   -2.671120
  S      0.053250   -7.708270   -1.710340
  C     -0.660540   -9.139180   -3.960570
  C      0.607370   -8.816030   -4.497530
  C      0.980160   -9.149100   -5.848230
  N      2.186320   -8.800060   -6.304070
  C      3.026060   -8.161980   -5.521750
  C      2.655840   -7.831290   -4.180170
  N      1.472420   -8.162340   -3.717290
  C      3.560810   -7.145780   -3.333860
  N      4.313690   -6.590610   -2.672600
  C      4.302650   -7.808360   -6.022170
  N      5.342140   -7.509120   -6.399270
  C      0.104340   -9.822670   -6.731140
  C     -1.137980  -10.214590   -6.173130
  C     -1.512340   -9.879980   -4.817300
  N     -2.727280  -10.338100   -4.520020
  S     -3.337150  -11.107140   -5.789170
  N     -2.100550  -10.898260   -6.789880
  C      0.456090  -10.032250   -8.085220
  C     -0.320160  -10.642950   -9.068090
  C      0.296310  -10.613390  -10.307430
  C      1.560100   -9.977200  -10.278420
  S      1.984880   -9.432490   -8.714030
  C      2.087430   -9.961730  -11.585780
  C      1.159160  -10.587980  -12.449800
  C      0.010960  -11.023160  -11.673700
  C     -1.102350  -11.668150  -12.127420
  C     -1.273670  -12.012230  -13.484960
  N     -1.425890  -12.298590  -14.584930
  C     -2.162060  -12.032920  -11.270300
  N     -3.030140  -12.332320  -10.583330
  C      1.577840  -10.591230  -13.772470
  C      2.812590   -9.972680  -13.927060
  S      3.473130   -9.384300  -12.412480
  C      3.524420   -9.778330  -15.141310
  C      4.772700   -9.114370  -15.140980
  C      5.521490   -8.883750  -16.344290
  N      6.713390   -8.239580  -16.278540
  C      7.138040   -7.849750  -15.113690
  C      6.400010   -8.074430  -13.926960
  N      5.252930   -8.690340  -13.957540
  C      5.042520   -9.310220  -17.580090
  C      3.818440   -9.965600  -17.606810
  C      3.051800  -10.206070  -16.399110
  N      1.911160  -10.847990  -16.662670
  S      1.812900  -11.117960  -18.239290
  N      3.191100  -10.448200  -18.689970
  H     -1.502900   -2.788570    7.341350
  H      2.333690   -3.805690    3.107060
  H      2.508850   -2.364140    5.196360
  H     -3.811950   -6.670330    2.987290
  H     -3.040620   -9.492930   -2.490550
  H     -1.283640  -11.064870   -8.848060
  H      1.040680  -11.004600  -14.606540
  H      8.090940   -7.338880  -15.088170
  H      6.756110   -7.746560  -12.960740
  H      5.608290   -9.132900  -18.478320

 Total Charge           Charge          ....    0
 Multiplicity           Mult            ....    1
 Number of Electrons    NEL             ....  548
 Basis Dimension        Dim             .... 1128

ORBITAL ENERGIES
----------------

  NO   OCC          E(Eh)            E(eV)
   0   2.0000     -89.048020     -2423.1198
   1   2.0000     -89.038747     -2422.8675
   2   2.0000     -89.038646     -2422.8647
   3   2.0000     -88.980264     -2421.2761
   4   2.0000     -88.980178     -2421.2737
   5   2.0000     -88.976525     -2421.1743
   6   2.0000     -88.976451     -2421.1723
   7   2.0000     -14.474191      -393.8628
   8   2.0000     -14.474059      -393.8592
   9   2.0000     -14.457330      -393.4040
  10   2.0000     -14.457260      -393.4021
  11   2.0000     -14.445974      -393.0949
  12   2.0000     -14.445954      -393.0944
  13   2.0000     -14.444719      -393.0608
  14   2.0000     -14.444686      -393.0599
  15   2.0000     -14.443773      -393.0351
  16   2.0000     -14.443759      -393.0347
  17   2.0000     -14.437687      -392.8694
  18   2.0000     -14.437622      -392.8677
  19   2.0000     -14.436421      -392.8350
  20   2.0000     -14.436405      -392.8345
  21   2.0000     -14.422484      -392.4557
  22   2.0000     -14.422463      -392.4552
  23   2.0000     -14.421666      -392.4335
  24   2.0000     -14.421634      -392.4326
  25   2.0000     -10.391229      -282.7597
  26   2.0000     -10.390983      -282.7530
  27   2.0000     -10.355122      -281.7772
  28   2.0000     -10.355076      -281.7759
  29   2.0000     -10.354083      -281.7489
  30   2.0000     -10.353827      -281.7420
  31   2.0000     -10.349281      -281.6182
  32   2.0000     -10.349025      -281.6113
  33   2.0000     -10.343316      -281.4559
  34   2.0000     -10.343268      -281.4546
  35   2.0000     -10.338752      -281.3317
  36   2.0000     -10.338716      -281.3308
  37   2.0000     -10.335461      -281.2422
  38   2.0000     -10.335422      -281.2411
  39   2.0000     -10.332872      -281.1718
  40   2.0000     -10.332860      -281.1714
  41   2.0000     -10.332134      -281.1517
  42   2.0000     -10.332133      -281.1516
  43   2.0000     -10.332021      -281.1486
  44   2.0000     -10.332012      -281.1483
  45   2.0000     -10.331452      -281.1331
  46   2.0000     -10.331391      -281.1314
  47   2.0000     -10.330764      -281.1144
  48   2.0000     -10.330757      -281.1142
  49   2.0000     -10.325117      -280.9607
  50   2.0000     -10.324958      -280.9564
  51   2.0000     -10.323226      -280.9093
  52   2.0000     -10.323184      -280.9081
  53   2.0000     -10.322263      -280.8830
  54   2.0000     -10.322241      -280.8825
  55   2.0000     -10.321239      -280.8552
  56   2.0000     -10.321101      -280.8514
  57   2.0000     -10.320673      -280.8398
  58   2.0000     -10.320624      -280.8385
  59   2.0000     -10.316685      -280.7313
  60   2.0000     -10.316682      -280.7312
  61   2.0000     -10.315428      -280.6971
  62   2.0000     -10.315424      -280.6970
  63   2.0000     -10.313691      -280.6498
  64   2.0000     -10.313685      -280.6496
  65   2.0000     -10.294925      -280.1391
  66   2.0000     -10.294913      -280.1388
  67   2.0000     -10.294437      -280.1259
  68   2.0000     -10.294426      -280.1256
  69   2.0000     -10.293102      -280.0895
  70   2.0000     -10.293036      -280.0878
  71   2.0000     -10.291837      -280.0551
  72   2.0000     -10.291812      -280.0545
  73   2.0000     -10.289156      -279.9822
  74   2.0000     -10.289123      -279.9813
  75   2.0000      -8.139066      -221.4752
  76   2.0000      -8.130006      -221.2287
  77   2.0000      -8.129951      -221.2272
  78   2.0000      -8.072826      -219.6728
  79   2.0000      -8.072776      -219.6714
  80   2.0000      -8.068512      -219.5554
  81   2.0000      -8.068472      -219.5543
  82   2.0000      -6.110201      -166.2670
  83   2.0000      -6.102230      -166.0501
  84   2.0000      -6.101904      -166.0413
  85   2.0000      -6.100926      -166.0146
  86   2.0000      -6.100881      -166.0134
  87   2.0000      -6.093182      -165.8039
  88   2.0000      -6.093110      -165.8020
  89   2.0000      -6.093082      -165.8012
  90   2.0000      -6.093013      -165.7993
  91   2.0000      -6.042347      -164.4206
  92   2.0000      -6.042285      -164.4189
  93   2.0000      -6.038108      -164.3053
  94   2.0000      -6.038080      -164.3045
  95   2.0000      -6.037587      -164.2911
  96   2.0000      -6.037547      -164.2900
  97   2.0000      -6.035334      -164.2298
  98   2.0000      -6.035275      -164.2282
  99   2.0000      -6.033191      -164.1715
 100   2.0000      -6.033138      -164.1700
 101   2.0000      -6.031116      -164.1150
 102   2.0000      -6.031053      -164.1133
 103   2.0000      -1.146433       -31.1960
 104   2.0000      -1.133876       -30.8543
 105   2.0000      -1.133876       -30.8543
 106   2.0000      -1.132890       -30.8275
 107   2.0000      -1.097066       -29.8527
 108   2.0000      -1.097026       -29.8516
 109   2.0000      -1.061706       -28.8905
 110   2.0000      -1.034897       -28.1610
 111   2.0000      -1.034332       -28.1456
 112   2.0000      -1.022978       -27.8366
 113   2.0000      -1.022134       -27.8137
 114   2.0000      -1.021774       -27.8039
 115   2.0000      -1.013994       -27.5922
 116   2.0000      -1.013056       -27.5667
 117   2.0000      -1.011792       -27.5323
 118   2.0000      -1.002431       -27.2775
 119   2.0000      -0.999712       -27.2036
 120   2.0000      -0.999456       -27.1966
 121   2.0000      -0.995953       -27.1013
 122   2.0000      -0.989839       -26.9349
 123   2.0000      -0.986789       -26.8519
 124   2.0000      -0.981320       -26.7031
 125   2.0000      -0.975924       -26.5562
 126   2.0000      -0.963371       -26.2147
 127   2.0000      -0.960385       -26.1334
 128   2.0000      -0.946291       -25.7499
 129   2.0000      -0.944270       -25.6949
 130   2.0000      -0.916785       -24.9470
 131   2.0000      -0.914888       -24.8954
 132   2.0000      -0.902909       -24.5694
 133   2.0000      -0.887795       -24.1581
 134   2.0000      -0.877391       -23.8750
 135   2.0000      -0.877090       -23.8668
 136   2.0000      -0.868478       -23.6325
 137   2.0000      -0.866351       -23.5746
 138   2.0000      -0.856004       -23.2930
 139   2.0000      -0.852226       -23.1902
 140   2.0000      -0.845006       -22.9938
 141   2.0000      -0.843573       -22.9548
 142   2.0000      -0.840739       -22.8777
 143   2.0000      -0.814172       -22.1548
 144   2.0000      -0.808711       -22.0062
 145   2.0000      -0.798629       -21.7318
 146   2.0000      -0.796237       -21.6667
 147   2.0000      -0.776341       -21.1253
 148   2.0000      -0.773759       -21.0550
 149   2.0000      -0.771163       -20.9844
 150   2.0000      -0.759729       -20.6733
 151   2.0000      -0.750071       -20.4105
 152   2.0000      -0.747781       -20.3482
 153   2.0000      -0.739810       -20.1312
 154   2.0000      -0.728565       -19.8253
 155   2.0000      -0.718179       -19.5426
 156   2.0000      -0.712722       -19.3942
 157   2.0000      -0.707470       -19.2512
 158   2.0000      -0.706834       -19.2339
 159   2.0000      -0.695392       -18.9226
 160   2.0000      -0.692524       -18.8445
 161   2.0000      -0.680896       -18.5281
 162   2.0000      -0.676905       -18.4195
 163   2.0000      -0.673436       -18.3251
 164   2.0000      -0.667939       -18.1755
 165   2.0000      -0.664715       -18.0878
 166   2.0000      -0.659710       -17.9516
 167   2.0000      -0.658892       -17.9294
 168   2.0000      -0.643870       -17.5206
 169   2.0000      -0.640938       -17.4408
 170   2.0000      -0.636940       -17.3320
 171   2.0000      -0.635702       -17.2983
 172   2.0000      -0.629067       -17.1178
 173   2.0000      -0.626350       -17.0438
 174   2.0000      -0.618960       -16.8428
 175   2.0000      -0.614948       -16.7336
 176   2.0000      -0.613487       -16.6938
 177   2.0000      -0.609521       -16.5859
 178   2.0000      -0.604370       -16.4457
 179   2.0000      -0.602051       -16.3826
 180   2.0000      -0.590160       -16.0591
 181   2.0000      -0.588942       -16.0259
 182   2.0000      -0.571065       -15.5395
 183   2.0000      -0.567164       -15.4333
 184   2.0000      -0.564119       -15.3504
 185   2.0000      -0.563295       -15.3280
 186   2.0000      -0.563065       -15.3218
 187   2.0000      -0.563019       -15.3205
 188   2.0000      -0.561308       -15.2740
 189   2.0000      -0.560813       -15.2605
 190   2.0000      -0.554708       -15.0944
 191   2.0000      -0.546674       -14.8758
 192   2.0000      -0.538432       -14.6515
 193   2.0000      -0.537817       -14.6347
 194   2.0000      -0.537030       -14.6133
 195   2.0000      -0.533494       -14.5171
 196   2.0000      -0.533248       -14.5104
 197   2.0000      -0.530535       -14.4366
 198   2.0000      -0.524044       -14.2600
 199   2.0000      -0.522106       -14.2072
 200   2.0000      -0.514626       -14.0037
 201   2.0000      -0.513619       -13.9763
 202   2.0000      -0.505792       -13.7633
 203   2.0000      -0.499256       -13.5854
 204   2.0000      -0.495216       -13.4755
 205   2.0000      -0.494925       -13.4676
 206   2.0000      -0.493400       -13.4261
 207   2.0000      -0.491826       -13.3833
 208   2.0000      -0.488489       -13.2925
 209   2.0000      -0.487270       -13.2593
 210   2.0000      -0.485607       -13.2140
 211   2.0000      -0.484424       -13.1819
 212   2.0000      -0.482981       -13.1426
 213   2.0000      -0.479985       -13.0611
 214   2.0000      -0.477608       -12.9964
 215   2.0000      -0.476154       -12.9568
 216   2.0000      -0.473389       -12.8816
 217   2.0000      -0.473254       -12.8779
 218   2.0000      -0.469503       -12.7758
 219   2.0000      -0.464380       -12.6364
 220   2.0000      -0.463237       -12.6053
 221   2.0000      -0.461516       -12.5585
 222   2.0000      -0.456783       -12.4297
 223   2.0000      -0.455813       -12.4033
 224   2.0000      -0.454742       -12.3742
 225   2.0000      -0.454610       -12.3706
 226   2.0000      -0.452958       -12.3256
 227   2.0000      -0.452567       -12.3150
 228   2.0000      -0.451183       -12.2773
 229   2.0000      -0.448165       -12.1952
 230   2.0000      -0.446678       -12.1547
 231   2.0000      -0.445550       -12.1240
 232   2.0000      -0.439159       -11.9501
 233   2.0000      -0.435096       -11.8396
 234   2.0000      -0.434550       -11.8247
 235   2.0000      -0.433025       -11.7832
 236   2.0000      -0.432690       -11.7741
 237   2.0000      -0.430976       -11.7274
 238   2.0000      -0.430888       -11.7251
 239   2.0000      -0.429515       -11.6877
 240   2.0000      -0.422690       -11.5020
 241   2.0000      -0.422052       -11.4846
 242   2.0000      -0.420679       -11.4472
 243   2.0000      -0.419950       -11.4274
 244   2.0000      -0.412413       -11.2223
 245   2.0000      -0.411335       -11.1930
 246   2.0000      -0.411223       -11.1899
 247   2.0000      -0.405866       -11.0442
 248   2.0000      -0.405720       -11.0402
 249   2.0000      -0.398631       -10.8473
 250   2.0000      -0.397896       -10.8273
 251   2.0000      -0.393705       -10.7133
 252   2.0000      -0.383871       -10.4457
 253   2.0000      -0.382657       -10.4126
 254   2.0000      -0.380676       -10.3587
 255   2.0000      -0.374164       -10.1815
 256   2.0000      -0.374136       -10.1808
 257   2.0000      -0.374040       -10.1781
 258   2.0000      -0.364631        -9.9221
 259   2.0000      -0.357158        -9.7188
 260   2.0000      -0.355191        -9.6652
 261   2.0000      -0.342005        -9.3064
 262   2.0000      -0.341990        -9.3060
 263   2.0000      -0.338026        -9.1982
 264   2.0000      -0.337457        -9.1827
 265   2.0000      -0.334119        -9.0918
 266   2.0000      -0.330583        -8.9956
 267   2.0000      -0.330431        -8.9915
 268   2.0000      -0.314327        -8.5533
 269   2.0000      -0.312668        -8.5081
 270   2.0000      -0.311727        -8.4825
 271   2.0000      -0.285638        -7.7726
 272   2.0000      -0.257661        -7.0113
 273   2.0000      -0.228123        -6.2075
 274   0.0000      -0.136461        -3.7133
 275   0.0000      -0.106954        -2.9104
 276   0.0000      -0.102031        -2.7764
 277   0.0000      -0.088793        -2.4162
 278   0.0000      -0.087943        -2.3931

MULLIKEN ATOMIC CHARGES
-----------------------
   0 C :   -0.091192
   1 C :    0.023345
   2 C :   -0.046581
   3 N :   -0.089228
   4 C :    0.047512
   5 C :    0.019506
   6 N :   -0.016021
   7 C :    0.194708
   8 C :   -0.038862
   9 C :    0.103543
  10 N :   -0.273279
  11 S :    0.551854
  12 N :   -0.287725
  13 C :   -0.168225
  14 C :   -0.063377
  15 C :    0.036362
  16 C :   -0.071216
  17 S :    0.205814
  18 C :   -0.065659
  19 C :    0.039144
  20 C :    0.313808
  21 C :   -0.310886
  22 C :   -0.187875
  23 N :    0.166580
  24 C :   -0.190429
  25 N :    0.170862
  26 C :   -0.069845
  27 C :   -0.177012
  28 S :    0.199349
  29 C :    0.194391
  30 C :   -0.068720
  31 C :   -0.063794
  32 N :   -0.000121
  33 C :   -0.106765
  34 C :   -0.103433
  35 N :   -0.000035
  36 C :   -0.244052
  37 N :    0.245121
  38 C :   -0.241785
  39 N :    0.247917
  40 C :    0.191704
  41 C :   -0.018611
  42 C :   -0.011114
  43 N :   -0.283280
  44 S :    0.578195
  45 N :   -0.280486
  46 C :   -0.177996
  47 C :   -0.066694
  48 C :    0.038103
  49 C :   -0.065201
  50 S :    0.198232
  51 C :   -0.071709
  52 C :    0.035239
  53 C :    0.313573
  54 C :   -0.311506
  55 C :   -0.190072
  56 N :    0.172613
  57 C :   -0.189741
  58 N :    0.167372
  59 C :   -0.059372
  60 C :   -0.170381
  61 S :    0.205519
  62 C :    0.195609
  63 C :   -0.049077
  64 C :    0.024324
  65 N :   -0.015109
  66 C :    0.018776
  67 C :    0.048593
  68 N :   -0.088257
  69 C :   -0.090407
  70 C :    0.102726
  71 C :   -0.040301
  72 N :   -0.285548
  73 S :    0.551936
  74 N :   -0.272997
  75 H :   -0.026758
  76 H :    0.022130
  77 H :    0.021965
  78 H :    0.019783
  79 H :    0.020419
  80 H :    0.020363
  81 H :    0.018523
  82 H :    0.022060
  83 H :    0.020444
  84 H :   -0.027283
Sum of atomic charges:   -0.0000000

LOEWDIN ATOMIC CHARGES
----------------------
   0 C :   -0.014621
   1 C :   -0.012802
   2 C :   -0.021945
   3 N :   -0.053805
   4 C :    0.021234
   5 C :    0.009228
   6 N :   -0.028369
   7 C :   -0.032549
   8 C :   -0.043557
   9 C :   -0.049292
  10 N :   -0.288192
  11 S :    0.688048
  12 N :   -0.284308
  13 C :   -0.161064
  14 C :   -0.012779
  15 C :   -0.069228
  16 C :   -0.187628
  17 S :    0.513538
  18 C :   -0.171122
  19 C :   -0.073170
  20 C :    0.081859
  21 C :   -0.107623
  22 C :   -0.016404
  23 N :   -0.038805
  24 C :   -0.017224
  25 N :   -0.036317
  26 C :   -0.007050
  27 C :   -0.167725
  28 S :    0.504774
  29 C :   -0.041677
  30 C :   -0.016484
  31 C :   -0.016351
  32 N :   -0.017208
  33 C :   -0.026449
  34 C :   -0.026369
  35 N :   -0.017183
  36 C :   -0.038261
  37 N :   -0.005584
  38 C :   -0.038413
  39 N :   -0.005418
  40 C :   -0.041655
  41 C :   -0.037888
  42 C :   -0.037619
  43 N :   -0.270524
  44 S :    0.697418
  45 N :   -0.270276
  46 C :   -0.167721
  47 C :   -0.006860
  48 C :   -0.073269
  49 C :   -0.171051
  50 S :    0.504672
  51 C :   -0.187566
  52 C :   -0.069253
  53 C :    0.081905
  54 C :   -0.107659
  55 C :   -0.017249
  56 N :   -0.036271
  57 C :   -0.016564
  58 N :   -0.038675
  59 C :   -0.012561
  60 C :   -0.161199
  61 S :    0.513539
  62 C :   -0.032506
  63 C :   -0.021972
  64 C :   -0.012715
  65 N :   -0.028443
  66 C :    0.009253
  67 C :    0.021450
  68 N :   -0.053799
  69 C :   -0.014690
  70 C :   -0.049248
  71 C :   -0.043736
  72 N :   -0.284046
  73 S :    0.688071
  74 N :   -0.288272
  75 H :    0.044599
  76 H :    0.031015
  77 H :    0.029840
  78 H :    0.038241
  79 H :    0.038156
  80 H :    0.038167
  81 H :    0.038115
  82 H :    0.029882
  83 H :    0.030700
  84 H :    0.044561

  Mayer bond orders larger than 0.100000
B(  0-C ,  1-C ) :   1.3109 B(  0-C ,  7-C ) :   0.1403 B(  0-C ,  9-C ) :   1.1820
B(  0-C , 75-H ) :   1.0614 B(  1-C ,  2-C ) :   1.1455 B(  1-C ,  6-N ) :   1.3592
B(  2-C ,  3-N ) :   1.3744 B(  2-C ,  7-C ) :   1.2863 B(  3-N ,  4-C ) :   1.6705
B(  4-C ,  5-C ) :   1.1742 B(  4-C , 76-H ) :   0.9726 B(  5-C ,  6-N ) :   1.7335
B(  5-C , 77-H ) :   0.9749 B(  7-C ,  8-C ) :   1.2222 B(  7-C , 13-C ) :   1.1733
B(  8-C ,  9-C ) :   1.1208 B(  8-C , 12-N ) :   1.4985 B(  9-C , 10-N ) :   1.4487
B( 10-N , 11-S ) :   1.3148 B( 10-N , 12-N ) :   0.1601 B( 11-S , 12-N ) :   1.2812
B( 13-C , 14-C ) :   1.4220 B( 13-C , 17-S ) :   1.0967 B( 14-C , 15-C ) :   1.2776
B( 14-C , 78-H ) :   0.9835 B( 15-C , 16-C ) :   1.3896 B( 15-C , 20-C ) :   0.9888
B( 16-C , 17-S ) :   1.0686 B( 16-C , 18-C ) :   1.2206 B( 18-C , 19-C ) :   1.3818
B( 18-C , 28-S ) :   1.0874 B( 19-C , 20-C ) :   0.9853 B( 19-C , 26-C ) :   1.2925
B( 20-C , 21-C ) :   1.7059 B( 21-C , 22-C ) :   1.1377 B( 21-C , 24-C ) :   1.1379
B( 22-C , 23-N ) :   2.9863 B( 24-C , 25-N ) :   2.9891 B( 26-C , 27-C ) :   1.3902
B( 26-C , 79-H ) :   0.9829 B( 27-C , 28-S ) :   1.0801 B( 27-C , 29-C ) :   1.2295
B( 29-C , 30-C ) :   1.2450 B( 29-C , 40-C ) :   0.1158 B( 29-C , 42-C ) :   1.1836
B( 30-C , 31-C ) :   1.1021 B( 30-C , 35-N ) :   1.4156 B( 31-C , 32-N ) :   1.4119
B( 31-C , 40-C ) :   1.2454 B( 32-N , 33-C ) :   1.6866 B( 33-C , 34-C ) :   1.2262
B( 33-C , 38-C ) :   1.1674 B( 34-C , 35-N ) :   1.6835 B( 34-C , 36-C ) :   1.1690
B( 36-C , 37-N ) :   3.0386 B( 38-C , 39-N ) :   3.0403 B( 40-C , 41-C ) :   1.1848
B( 40-C , 46-C ) :   1.2293 B( 41-C , 42-C ) :   1.0989 B( 41-C , 45-N ) :   1.5284
B( 42-C , 43-N ) :   1.5254 B( 43-N , 44-S ) :   1.2786 B( 43-N , 45-N ) :   0.1443
B( 44-S , 45-N ) :   1.2786 B( 46-C , 47-C ) :   1.3913 B( 46-C , 50-S ) :   1.0794
B( 47-C , 48-C ) :   1.2937 B( 47-C , 80-H ) :   0.9823 B( 48-C , 49-C ) :   1.3808
B( 48-C , 53-C ) :   0.9852 B( 49-C , 50-S ) :   1.0877 B( 49-C , 51-C ) :   1.2205
B( 51-C , 52-C ) :   1.3897 B( 51-C , 61-S ) :   1.0685 B( 52-C , 53-C ) :   0.9881
B( 52-C , 59-C ) :   1.2766 B( 53-C , 54-C ) :   1.7067 B( 54-C , 55-C ) :   1.1383
B( 54-C , 57-C ) :   1.1378 B( 55-C , 56-N ) :   2.9899 B( 57-C , 58-N ) :   2.9870
B( 59-C , 60-C ) :   1.4214 B( 59-C , 81-H ) :   0.9843 B( 60-C , 61-S ) :   1.0972
B( 60-C , 62-C ) :   1.1737 B( 62-C , 63-C ) :   1.2848 B( 62-C , 69-C ) :   0.1410
B( 62-C , 71-C ) :   1.2221 B( 63-C , 64-C ) :   1.1468 B( 63-C , 68-N ) :   1.3749
B( 64-C , 65-N ) :   1.3596 B( 64-C , 69-C ) :   1.3091 B( 65-N , 66-C ) :   1.7340
B( 66-C , 67-C ) :   1.1744 B( 66-C , 82-H ) :   0.9749 B( 67-C , 68-N ) :   1.6699
B( 67-C , 83-H ) :   0.9730 B( 69-C , 70-C ) :   1.1823 B( 69-C , 84-H ) :   1.0619
B( 70-C , 71-C ) :   1.1208 B( 70-C , 74-N ) :   1.4489 B( 71-C , 72-N ) :   1.5004
B( 72-N , 73-S ) :   1.2818 B( 72-N , 74-N ) :   0.1602 B( 73-S , 74-N ) :   1.3146

-----------------------------------------------------------------------------
         ABSORPTION SPECTRUM VIA TRANSITION ELECTRIC DIPOLE MOMENTS
-----------------------------------------------------------------------------
State   Energy  Wavelength   fosc         T2         TX        TY        TZ
        (cm-1)    (nm)                  (au**2)     (au)      (au)      (au)
-----------------------------------------------------------------------------
   0    5648.1   1770.5   0.603919686  35.20101  -1.53454   1.36974   5.56507
   1   11848.8    844.0   0.038192221   1.06114   0.46324   0.91476  -0.09883
   2   12577.3    795.1   0.127679097   3.34202   0.47195  -0.42019  -1.71544
   3   13996.7    714.5   0.012269765   0.28859   0.08060   0.52055  -0.10547
   4   15401.3    649.3   0.450658165   9.63306  -0.79683   0.71929   2.91217
   5   15594.3    641.3   0.080124870   1.69152  -0.81503  -1.01260   0.04343
   6   19260.3    519.2   0.147341455   2.51848  -0.40966   0.36443   1.48924
   7   21010.4    476.0   0.095663451   1.49895   1.11034   0.48160   0.18484
   8   21341.4    468.6   0.100253351   1.54651  -0.32219   0.28877   1.16590
   9   22078.1    452.9   0.000824901   0.01230   0.02536  -0.10184   0.03585
  10   22778.5    439.0   0.076807336   1.11008   0.27270  -0.24406  -0.98800
  11   23199.5    431.0   0.010395554   0.14752   0.36041   0.11018   0.07405
  12   23505.0    425.4   0.001189177   0.01666  -0.03498   0.03069   0.12038
  13   24385.4    410.1   0.001811992   0.02446  -0.09795   0.11781  -0.03146
  14   24397.6    409.9   0.000522805   0.00705  -0.02219   0.03287  -0.07404
  15   24545.1    407.4   0.010804378   0.14491  -0.31489  -0.21090  -0.03580
  16   24596.7    406.6   0.003282612   0.04394  -0.05533   0.04606   0.19686
  17   25214.4    396.6   0.002023412   0.02642   0.07458  -0.13393   0.05404
  18   25491.9    392.3   0.075138840   0.97037   0.81047   0.55340   0.08520
  19   26879.8    372.0   0.018071130   0.22133   0.12210  -0.10716  -0.44151
  20   27511.2    363.5   0.002125594   0.02544  -0.15285  -0.02667  -0.03691
  21   27765.3    360.2   0.051311955   0.60840  -0.64631  -0.43011  -0.07548
  22   27843.4    359.2   0.001214956   0.01437   0.04923  -0.01634  -0.10805
  23   28718.7    348.2   0.905433961  10.37929  -0.83256   0.74470   3.02185
  24   29518.5    338.8   0.006007365   0.06700  -0.21909  -0.13782  -0.00139
  25   29550.0    338.4   0.009453257   0.10532  -0.06752   0.08539   0.30572
  26   30086.0    332.4   0.248761468   2.72204  -0.42722   0.38213   1.54709
  27   30200.8    331.1   0.142247056   1.55060   0.32175  -0.28802  -1.16796
  28   30786.0    324.8   0.022484634   0.24044  -0.47292  -0.01407  -0.12880
  29   31001.2    322.6   0.000637354   0.00677  -0.03829   0.01075   0.07202
  30   31060.8    321.9   0.067784198   0.71844  -0.78823  -0.27181  -0.15251
  31   31135.4    321.2   0.055162356   0.58326  -0.21625   0.17003   0.71245
  32   31205.1    320.5   0.136135204   1.43622  -1.07427  -0.49845  -0.18361
  33   31218.2    320.3   0.014850156   0.15660  -0.09637   0.09351   0.37225
  34   31492.0    317.5   0.000837550   0.00876   0.02960  -0.01848  -0.08682
  35   31784.2    314.6   0.140879334   1.45919  -1.14629  -0.28951  -0.24779
  36   31863.4    313.8   0.006181336   0.06387  -0.19736   0.13313  -0.08481
  37   32104.3    311.5   0.026594310   0.27271  -0.13643   0.12037   0.48950
  38   32159.1    311.0   0.014062714   0.14396   0.35079   0.12843   0.06641
  39   32399.4    308.6   0.061366531   0.62355   0.21300  -0.18100  -0.73853
  40   32487.3    307.8   0.042027765   0.42589   0.57342   0.30058   0.08206
  41   32950.0    303.5   1.310307909  13.09163  -3.17704  -1.66181  -0.48627
  42   32955.3    303.4   0.016118651   0.16102  -0.36450  -0.13781   0.09573
  43   33476.7    298.7   0.010114487   0.09947   0.27769   0.14522   0.03557
  44   33787.4    296.0   0.120432477   1.17345  -0.27225   0.25210   1.01773
  45   33849.0    295.4   0.006240960   0.06070   0.08527  -0.04410  -0.22690
  46   34372.1    290.9   0.001166916   0.01118   0.08452   0.03642  -0.05202
  47   35011.9    285.6   0.456489406   4.29230  -1.61047  -1.29754  -0.12288
  48   35294.7    283.3   0.001456227   0.01358   0.00200   0.08556   0.07911
  49   35615.6    280.8   0.009286393   0.08584  -0.22215  -0.14451  -0.12492
  50   35661.9    280.4   0.124124538   1.14585   0.29045  -0.23707  -1.00264
  51   35869.3    278.8   0.000050661   0.00046   0.00771  -0.01039  -0.01725
  52   35960.5    278.1   0.002333258   0.02136   0.02037  -0.14109   0.03223
  53   36060.1    277.3   0.003180376   0.02904   0.03443  -0.04323  -0.16119
  54   36071.1    277.2   0.115164506   1.05108   0.90155   0.47038   0.13049
  55   36350.7    275.1   0.094858250   0.85909  -0.24163   0.21158   0.86945
  56   36467.0    274.2   0.252856078   2.28270  -1.27547  -0.79380  -0.16050
  57   36697.3    272.5   0.110541109   0.99167  -0.90785  -0.37773  -0.15744
  58   36962.4    270.5   0.059979291   0.53422  -0.18977   0.16585   0.68608
  59   37030.5    270.0   0.022078565   0.19629   0.12357  -0.10120  -0.41325
  60   37032.5    270.0   0.009020740   0.08019   0.27058  -0.02538   0.07960
  61   37306.6    268.0   0.166498093   1.46926   0.94105   0.76013   0.07671
  62   37742.4    265.0   0.000069636   0.00061  -0.01341   0.00086   0.02066
  63   37904.1    263.8   0.000716462   0.00622   0.00269  -0.07667   0.01837
  64   38478.2    259.9   0.008025057   0.06866  -0.06608   0.05901   0.24660
  65   38624.9    258.9   0.000510432   0.00435   0.01366  -0.01345  -0.06311
  66   38657.7    258.7   0.235803332   2.00812   1.31240   0.47464   0.24586
  67   38826.8    257.6   0.010144798   0.08602   0.07603  -0.07216  -0.27392
  68   38927.3    256.9   0.004471418   0.03782   0.14064   0.13399   0.00906
  69   39406.0    253.8   0.068829175   0.57502  -0.18134   0.18033   0.71388
  70   39557.8    252.8   0.637731009   5.30739   2.10147   0.87072   0.36478
  71   39620.5    252.4   0.038584169   0.32060   0.52971  -0.04572   0.19473
  72   39775.8    251.4   0.374604766   3.10049   0.47299  -0.40511  -1.64701

FINAL SINGLE POINT ENERGY     -5679.512866069947

DIPOLE MOMENT
-------------
                                X             Y             Z
Electronic contribution:    -12.04114     -10.13987      -0.82613
Nuclear contribution   :     14.03624      11.54024       1.03387
                        -----------------------------------------
Total Dipole Moment    :      1.99510       1.40038       0.20774
                        -----------------------------------------
Magnitude (a.u.)       :      2.44635
Magnitude (Debye)      :      6.21814

Rotational constants in cm-1:     0.001946     0.000235     0.000212
Rotational constants in MHz :    58.348871     7.034506     6.361704

                             ****ORCA TERMINATED NORMALLY****
TOTAL RUN TIME: 0 days 0 hours 20 minutes 21 seconds 517 msec
