                         Program Version 4.2.0 -  RELEASE  -
|  1> # ORCA input file
|  2> # SCF done       -203.426589715638          0.000671627445
|  3> ! CAM-B3LYP def2-SVP def2/J RIJCOSX Grid4 TightSCF
|  4> %maxcore 5000
|  5> %tddft
|  6>     Mode sTDDFT
|  7>     Ethresh 5.0
|  8>     maxcore 5000
|  9> end
| 10>
| 11> %pal
| 12>   nprocs 6
| 13>   end
| 14> * xyz 0 1
| 15>    C       -8.06430        -1.72283         2.65676
| 16>    C       -6.95885        -2.24660         3.27139
| 17>    C       -6.91316        -3.53671         3.84092
| 18>    N       -6.82082        -4.57515         4.32101
| 19>    C       -5.70483        -1.60521         3.37287
| 20>    N       -4.64554        -1.17357         3.47277
| 21>    C       -9.32267        -2.41763         2.43109
| 22>    C      -10.12729        -1.62325         1.57913
| 23>    C      -11.38373        -2.00693         1.17649
| 24>    C      -11.87114        -3.23215         1.64221
| 25>    C      -11.06072        -4.01864         2.49664
| 26>    C       -9.78891        -3.63238         2.89983
| 27>    S      -11.86062        -5.48975         2.95962
| 28>    C      -13.25225        -5.03636         2.01132
| 29>    C      -13.12703        -3.84471         1.38020
| 30>   Br      -14.73889        -6.17724         1.94826
| 31>    C       -9.41019        -0.38068         1.22848
| 32>    O       -9.80811         0.46976         0.46270
| 33>    C       -8.15623        -0.41046         2.02817
| 34>    C       -7.33590         0.62737         2.34761
| 35>    C       -7.26571         1.95609         1.81803
| 36>    C       -6.70846         2.96797         2.64296
| 37>    O       -6.33958         2.59641         3.89095
| 38>    C       -5.69088         3.53575         4.71753
| 39>    C       -6.60995         4.25883         2.15253
| 40>    C       -7.03861         4.58480         0.86891
| 41>    C       -7.53263         3.56944         0.02001
| 42>    C       -7.63475         2.28069         0.51031
| 43>    O       -7.81282         3.91139        -1.26355
| 44>    C       -8.44689         2.95438        -2.08556
| 45>    C       -6.93739         5.95963         0.39915
| 46>    C       -7.97099         6.56881        -0.33367
| 47>    C       -7.79651         7.85037        -0.96747
| 48>    N       -8.78570         8.37202        -1.72001
| 49>    C       -9.90704         7.72094        -1.83458
| 50>    C      -10.11776         6.48723        -1.11583
| 51>    N       -9.16809         5.95505        -0.39948
| 52>    C      -11.38023         5.84339        -1.17256
| 53>    N      -12.40338         5.33587        -1.25585
| 54>    C      -10.93749         8.24627        -2.65541
| 55>    N      -11.79154         8.62205        -3.31900
| 56>    C       -6.61973         8.60211        -0.81308
| 57>    C       -5.65602         8.07044         0.04973
| 58>    C       -5.80340         6.75106         0.63421
| 59>    N       -4.72900         6.42025         1.36340
| 60>    S       -3.67454         7.62232         1.32273
| 61>    N       -4.48657         8.63189         0.38498
| 62>    C       -6.50766         9.90275        -1.46698
| 63>    C       -6.77477        10.09550        -2.83313
| 64>    O       -6.84097         9.13456        -3.79297
| 65>    C       -6.18630         7.90059        -3.61935
| 66>    C       -6.95421        11.39355        -3.29117
| 67>    C       -6.81599        12.49949        -2.46083
| 68>    C       -6.38062        12.30355        -1.12972
| 69>    C       -6.25584        11.00992        -0.65574
| 70>    O       -6.18604        13.42063        -0.39227
| 71>    C       -5.82298        13.28439         0.96197
| 72>    C       -7.05154        13.83505        -2.94500
| 73>    C       -7.96748        14.22031        -3.86062
| 74>    C       -9.08568        13.51646        -4.47147
| 75>    C       -9.84845        12.53750        -3.89540
| 76>    C      -10.99697        11.99613        -4.51444
| 77>    N      -11.93342        11.54860        -5.00246
| 78>    C       -9.66155        12.04094        -2.58754
| 79>    N       -9.61764        11.64658        -1.51052
| 80>    C       -9.41188        14.22638        -5.70400
| 81>    C       -8.70677        15.45719        -5.72357
| 82>    C       -7.84434        15.54724        -4.52923
| 83>    O       -7.14357        16.47018        -4.18668
| 84>    C       -8.83901        16.36725        -6.74487
| 85>    C       -9.69509        16.04321        -7.80189
| 86>    C      -10.37944        14.80371        -7.78233
| 87>    C      -10.25398        13.88673        -6.74646
| 88>    S      -11.37032        14.59868        -9.19432
| 89>    C      -10.86431        16.16115        -9.78095
| 90>    C       -9.99599        16.80414        -8.96487
| 91>   Br      -11.52585        16.79335       -11.41757
| 92>    H      -11.97257        -1.37995         0.52545
| 93>    H       -9.21192        -4.26185         3.55653
| 94>    H      -13.88836        -3.41270         0.75675
| 95>    H       -6.64909         0.46638         3.17087
| 96>    H       -5.40818         2.98702         5.61435
| 97>    H       -6.36098         4.35645         4.99101
| 98>    H       -4.79416         3.93740         4.23754
| 99>    H       -6.21408         5.05157         2.76441
|100>    H       -7.99208         1.49038        -0.12357
|101>    H       -9.34992         2.56009        -1.61309
|102>    H       -7.76988         2.13068        -2.33236
|103>    H       -8.71507         3.48273        -2.99961
|104>    H       -5.89295         7.57467        -4.61853
|105>    H       -6.84547         7.14213        -3.18587
|106>    H       -5.29437         7.99885        -2.99493
|107>    H       -7.18795        11.52784        -4.33607
|108>    H       -6.00942        10.82183         0.37624
|109>    H       -5.70585        14.30017         1.33577
|110>    H       -4.87743        12.74453         1.07197
|111>    H       -6.60543        12.77642         1.53333
|112>    H       -6.39873        14.61131        -2.56128
|113>    H       -8.29704        17.29978        -6.72945
|114>    H      -10.78876        12.95211        -6.77792
|115>    H       -9.58299        17.77432        -9.17253
|116> *
|117>
|118>                          ****END OF INPUT****

CARTESIAN COORDINATES (ANGSTROEM)
---------------------------------
  C     -8.064300   -1.722830    2.656760
  C     -6.958850   -2.246600    3.271390
  C     -6.913160   -3.536710    3.840920
  N     -6.820820   -4.575150    4.321010
  C     -5.704830   -1.605210    3.372870
  N     -4.645540   -1.173570    3.472770
  C     -9.322670   -2.417630    2.431090
  C    -10.127290   -1.623250    1.579130
  C    -11.383730   -2.006930    1.176490
  C    -11.871140   -3.232150    1.642210
  C    -11.060720   -4.018640    2.496640
  C     -9.788910   -3.632380    2.899830
  S    -11.860620   -5.489750    2.959620
  C    -13.252250   -5.036360    2.011320
  C    -13.127030   -3.844710    1.380200
  Br   -14.738890   -6.177240    1.948260
  C     -9.410190   -0.380680    1.228480
  O     -9.808110    0.469760    0.462700
  C     -8.156230   -0.410460    2.028170
  C     -7.335900    0.627370    2.347610
  C     -7.265710    1.956090    1.818030
  C     -6.708460    2.967970    2.642960
  O     -6.339580    2.596410    3.890950
  C     -5.690880    3.535750    4.717530
  C     -6.609950    4.258830    2.152530
  C     -7.038610    4.584800    0.868910
  C     -7.532630    3.569440    0.020010
  C     -7.634750    2.280690    0.510310
  O     -7.812820    3.911390   -1.263550
  C     -8.446890    2.954380   -2.085560
  C     -6.937390    5.959630    0.399150
  C     -7.970990    6.568810   -0.333670
  C     -7.796510    7.850370   -0.967470
  N     -8.785700    8.372020   -1.720010
  C     -9.907040    7.720940   -1.834580
  C    -10.117760    6.487230   -1.115830
  N     -9.168090    5.955050   -0.399480
  C    -11.380230    5.843390   -1.172560
  N    -12.403380    5.335870   -1.255850
  C    -10.937490    8.246270   -2.655410
  N    -11.791540    8.622050   -3.319000
  C     -6.619730    8.602110   -0.813080
  C     -5.656020    8.070440    0.049730
  C     -5.803400    6.751060    0.634210
  N     -4.729000    6.420250    1.363400
  S     -3.674540    7.622320    1.322730
  N     -4.486570    8.631890    0.384980
  C     -6.507660    9.902750   -1.466980
  C     -6.774770   10.095500   -2.833130
  O     -6.840970    9.134560   -3.792970
  C     -6.186300    7.900590   -3.619350
  C     -6.954210   11.393550   -3.291170
  C     -6.815990   12.499490   -2.460830
  C     -6.380620   12.303550   -1.129720
  C     -6.255840   11.009920   -0.655740
  O     -6.186040   13.420630   -0.392270
  C     -5.822980   13.284390    0.961970
  C     -7.051540   13.835050   -2.945000
  C     -7.967480   14.220310   -3.860620
  C     -9.085680   13.516460   -4.471470
  C     -9.848450   12.537500   -3.895400
  C    -10.996970   11.996130   -4.514440
  N    -11.933420   11.548600   -5.002460
  C     -9.661550   12.040940   -2.587540
  N     -9.617640   11.646580   -1.510520
  C     -9.411880   14.226380   -5.704000
  C     -8.706770   15.457190   -5.723570
  C     -7.844340   15.547240   -4.529230
  O     -7.143570   16.470180   -4.186680
  C     -8.839010   16.367250   -6.744870
  C     -9.695090   16.043210   -7.801890
  C    -10.379440   14.803710   -7.782330
  C    -10.253980   13.886730   -6.746460
  S    -11.370320   14.598680   -9.194320
  C    -10.864310   16.161150   -9.780950
  C     -9.995990   16.804140   -8.964870
  Br   -11.525850   16.793350  -11.417570
  H    -11.972570   -1.379950    0.525450
  H     -9.211920   -4.261850    3.556530
  H    -13.888360   -3.412700    0.756750
  H     -6.649090    0.466380    3.170870
  H     -5.408180    2.987020    5.614350
  H     -6.360980    4.356450    4.991010
  H     -4.794160    3.937400    4.237540
  H     -6.214080    5.051570    2.764410
  H     -7.992080    1.490380   -0.123570
  H     -9.349920    2.560090   -1.613090
  H     -7.769880    2.130680   -2.332360
  H     -8.715070    3.482730   -2.999610
  H     -5.892950    7.574670   -4.618530
  H     -6.845470    7.142130   -3.185870
  H     -5.294370    7.998850   -2.994930
  H     -7.187950   11.527840   -4.336070
  H     -6.009420   10.821830    0.376240
  H     -5.705850   14.300170    1.335770
  H     -4.877430   12.744530    1.071970
  H     -6.605430   12.776420    1.533330
  H     -6.398730   14.611310   -2.561280
  H     -8.297040   17.299780   -6.729450
  H    -10.788760   12.952110   -6.777920
  H     -9.582990   17.774320   -9.172530

 Total Charge           Charge          ....    0
 Multiplicity           Mult            ....    1
 Number of Electrons    NEL             ....  596
 Basis Dimension        Dim             .... 1246

ORBITAL ENERGIES
----------------

  NO   OCC          E(Eh)            E(eV)
   0   2.0000    -482.885941    -13139.9945
   1   2.0000    -482.883296    -13139.9225
   2   2.0000     -89.055927     -2423.3350
   3   2.0000     -88.975971     -2421.1593
   4   2.0000     -88.972625     -2421.0682
   5   2.0000     -62.563627     -1702.4428
   6   2.0000     -62.560997     -1702.3713
   7   2.0000     -56.397579     -1534.6562
   8   2.0000     -56.394944     -1534.5845
   9   2.0000     -56.394861     -1534.5822
  10   2.0000     -56.394831     -1534.5814
  11   2.0000     -56.392234     -1534.5107
  12   2.0000     -56.392201     -1534.5098
  13   2.0000     -19.260008      -524.0915
  14   2.0000     -19.253547      -523.9156
  15   2.0000     -19.250153      -523.8233
  16   2.0000     -19.246613      -523.7270
  17   2.0000     -19.219555      -522.9907
  18   2.0000     -19.210862      -522.7541
  19   2.0000     -14.461404      -393.5148
  20   2.0000     -14.460700      -393.4957
  21   2.0000     -14.458570      -393.4377
  22   2.0000     -14.457225      -393.4011
  23   2.0000     -14.427262      -392.5858
  24   2.0000     -14.423120      -392.4730
  25   2.0000     -14.415159      -392.2564
  26   2.0000     -14.413177      -392.2025
  27   2.0000     -14.407344      -392.0438
  28   2.0000     -14.407270      -392.0418
  29   2.0000     -10.379392      -282.4376
  30   2.0000     -10.379135      -282.4306
  31   2.0000     -10.371584      -282.2252
  32   2.0000     -10.361898      -281.9616
  33   2.0000     -10.359496      -281.8962
  34   2.0000     -10.356106      -281.8040
  35   2.0000     -10.349833      -281.6333
  36   2.0000     -10.348795      -281.6050
  37   2.0000     -10.346865      -281.5525
  38   2.0000     -10.346505      -281.5427
  39   2.0000     -10.346195      -281.5343
  40   2.0000     -10.342083      -281.4224
  41   2.0000     -10.340240      -281.3722
  42   2.0000     -10.339971      -281.3649
  43   2.0000     -10.338900      -281.3358
  44   2.0000     -10.338697      -281.3303
  45   2.0000     -10.337546      -281.2989
  46   2.0000     -10.336407      -281.2679
  47   2.0000     -10.332067      -281.1498
  48   2.0000     -10.328395      -281.0499
  49   2.0000     -10.326704      -281.0039
  50   2.0000     -10.326500      -280.9984
  51   2.0000     -10.323081      -280.9053
  52   2.0000     -10.322861      -280.8993
  53   2.0000     -10.321460      -280.8612
  54   2.0000     -10.320390      -280.8321
  55   2.0000     -10.320194      -280.8268
  56   2.0000     -10.317938      -280.7654
  57   2.0000     -10.316206      -280.7182
  58   2.0000     -10.315399      -280.6963
  59   2.0000     -10.314260      -280.6653
  60   2.0000     -10.309561      -280.5374
  61   2.0000     -10.308689      -280.5137
  62   2.0000     -10.308561      -280.5102
  63   2.0000     -10.308381      -280.5053
  64   2.0000     -10.307551      -280.4827
  65   2.0000     -10.306470      -280.4533
  66   2.0000     -10.305657      -280.4312
  67   2.0000     -10.304584      -280.4020
  68   2.0000     -10.303117      -280.3621
  69   2.0000     -10.301814      -280.3266
  70   2.0000     -10.301766      -280.3253
  71   2.0000     -10.299153      -280.2542
  72   2.0000     -10.298261      -280.2299
  73   2.0000     -10.297894      -280.2199
  74   2.0000     -10.296985      -280.1952
  75   2.0000     -10.294226      -280.1201
  76   2.0000     -10.293965      -280.1130
  77   2.0000     -10.293102      -280.0895
  78   2.0000     -10.292179      -280.0644
  79   2.0000     -10.289557      -279.9931
  80   2.0000     -10.289102      -279.9807
  81   2.0000     -10.283672      -279.8329
  82   2.0000     -10.280937      -279.7585
  83   2.0000     -10.279926      -279.7310
  84   2.0000     -10.277025      -279.6521
  85   2.0000      -8.793038      -239.2707
  86   2.0000      -8.790420      -239.1995
  87   2.0000      -8.147054      -221.6926
  88   2.0000      -8.072025      -219.6510
  89   2.0000      -8.068604      -219.5579
  90   2.0000      -6.629333      -180.3933
  91   2.0000      -6.626685      -180.3213
  92   2.0000      -6.614785      -179.9974
  93   2.0000      -6.614560      -179.9913
  94   2.0000      -6.612170      -179.9263
  95   2.0000      -6.611973      -179.9209
  96   2.0000      -6.117920      -166.4771
  97   2.0000      -6.110338      -166.2708
  98   2.0000      -6.110151      -166.2656
  99   2.0000      -6.041700      -164.4030
 100   2.0000      -6.038299      -164.3105
 101   2.0000      -6.037450      -164.2874
 102   2.0000      -6.034023      -164.1941
 103   2.0000      -6.033232      -164.1726
 104   2.0000      -6.029829      -164.0800
 105   2.0000      -2.745243       -74.7019
 106   2.0000      -2.742606       -74.6301
 107   2.0000      -2.741102       -74.5892
 108   2.0000      -2.740958       -74.5853
 109   2.0000      -2.738477       -74.5177
 110   2.0000      -2.738315       -74.5134
 111   2.0000      -2.729394       -74.2706
 112   2.0000      -2.729371       -74.2699
 113   2.0000      -2.726795       -74.1999
 114   2.0000      -2.726775       -74.1993
 115   2.0000      -1.165407       -31.7123
 116   2.0000      -1.159339       -31.5472
 117   2.0000      -1.155807       -31.4511
 118   2.0000      -1.151485       -31.3335
 119   2.0000      -1.149675       -31.2843
 120   2.0000      -1.135039       -30.8860
 121   2.0000      -1.126270       -30.6474
 122   2.0000      -1.117986       -30.4219
 123   2.0000      -1.045123       -28.4392
 124   2.0000      -1.023257       -27.8442
 125   2.0000      -1.019027       -27.7291
 126   2.0000      -1.012889       -27.5621
 127   2.0000      -1.010724       -27.5032
 128   2.0000      -1.007178       -27.4067
 129   2.0000      -1.004441       -27.3322
 130   2.0000      -0.998506       -27.1707
 131   2.0000      -0.992827       -27.0162
 132   2.0000      -0.989841       -26.9349
 133   2.0000      -0.986594       -26.8466
 134   2.0000      -0.985414       -26.8145
 135   2.0000      -0.984395       -26.7868
 136   2.0000      -0.965546       -26.2738
 137   2.0000      -0.958693       -26.0874
 138   2.0000      -0.942603       -25.6495
 139   2.0000      -0.938189       -25.5294
 140   2.0000      -0.917241       -24.9594
 141   2.0000      -0.908618       -24.7247
 142   2.0000      -0.908142       -24.7118
 143   2.0000      -0.904454       -24.6114
 144   2.0000      -0.901797       -24.5391
 145   2.0000      -0.888158       -24.1680
 146   2.0000      -0.886265       -24.1165
 147   2.0000      -0.882466       -24.0131
 148   2.0000      -0.875420       -23.8214
 149   2.0000      -0.862346       -23.4656
 150   2.0000      -0.855554       -23.2808
 151   2.0000      -0.853878       -23.2352
 152   2.0000      -0.840512       -22.8715
 153   2.0000      -0.831223       -22.6187
 154   2.0000      -0.828945       -22.5568
 155   2.0000      -0.827098       -22.5065
 156   2.0000      -0.824031       -22.4230
 157   2.0000      -0.813508       -22.1367
 158   2.0000      -0.803966       -21.8770
 159   2.0000      -0.796895       -21.6846
 160   2.0000      -0.781598       -21.2684
 161   2.0000      -0.775952       -21.1147
 162   2.0000      -0.769103       -20.9284
 163   2.0000      -0.760311       -20.6891
 164   2.0000      -0.758121       -20.6295
 165   2.0000      -0.751929       -20.4610
 166   2.0000      -0.741528       -20.1780
 167   2.0000      -0.731030       -19.8923
 168   2.0000      -0.721430       -19.6311
 169   2.0000      -0.704660       -19.1748
 170   2.0000      -0.701407       -19.0863
 171   2.0000      -0.698746       -19.0138
 172   2.0000      -0.693826       -18.8800
 173   2.0000      -0.691750       -18.8235
 174   2.0000      -0.688357       -18.7312
 175   2.0000      -0.683702       -18.6045
 176   2.0000      -0.676630       -18.4120
 177   2.0000      -0.667704       -18.1692
 178   2.0000      -0.663437       -18.0530
 179   2.0000      -0.660103       -17.9623
 180   2.0000      -0.656563       -17.8660
 181   2.0000      -0.650699       -17.7064
 182   2.0000      -0.648656       -17.6508
 183   2.0000      -0.636920       -17.3315
 184   2.0000      -0.626408       -17.0454
 185   2.0000      -0.623706       -16.9719
 186   2.0000      -0.620556       -16.8862
 187   2.0000      -0.619560       -16.8591
 188   2.0000      -0.615302       -16.7432
 189   2.0000      -0.612500       -16.6670
 190   2.0000      -0.608796       -16.5662
 191   2.0000      -0.607490       -16.5306
 192   2.0000      -0.598969       -16.2988
 193   2.0000      -0.595618       -16.2076
 194   2.0000      -0.592191       -16.1143
 195   2.0000      -0.584928       -15.9167
 196   2.0000      -0.579831       -15.7780
 197   2.0000      -0.577196       -15.7063
 198   2.0000      -0.571464       -15.5503
 199   2.0000      -0.568806       -15.4780
 200   2.0000      -0.567085       -15.4312
 201   2.0000      -0.565587       -15.3904
 202   2.0000      -0.561167       -15.2701
 203   2.0000      -0.557526       -15.1711
 204   2.0000      -0.550780       -14.9875
 205   2.0000      -0.548638       -14.9292
 206   2.0000      -0.545464       -14.8428
 207   2.0000      -0.543884       -14.7998
 208   2.0000      -0.541807       -14.7433
 209   2.0000      -0.539623       -14.6839
 210   2.0000      -0.537307       -14.6209
 211   2.0000      -0.536100       -14.5880
 212   2.0000      -0.534846       -14.5539
 213   2.0000      -0.532784       -14.4978
 214   2.0000      -0.530899       -14.4465
 215   2.0000      -0.525856       -14.3093
 216   2.0000      -0.525358       -14.2957
 217   2.0000      -0.520433       -14.1617
 218   2.0000      -0.517984       -14.0951
 219   2.0000      -0.516289       -14.0489
 220   2.0000      -0.512165       -13.9367
 221   2.0000      -0.507894       -13.8205
 222   2.0000      -0.505905       -13.7664
 223   2.0000      -0.503690       -13.7061
 224   2.0000      -0.502602       -13.6765
 225   2.0000      -0.501686       -13.6516
 226   2.0000      -0.496587       -13.5128
 227   2.0000      -0.495654       -13.4874
 228   2.0000      -0.493566       -13.4306
 229   2.0000      -0.492644       -13.4055
 230   2.0000      -0.491378       -13.3711
 231   2.0000      -0.487608       -13.2685
 232   2.0000      -0.481819       -13.1110
 233   2.0000      -0.480892       -13.0857
 234   2.0000      -0.479513       -13.0482
 235   2.0000      -0.476596       -12.9688
 236   2.0000      -0.473027       -12.8717
 237   2.0000      -0.472432       -12.8555
 238   2.0000      -0.462630       -12.5888
 239   2.0000      -0.460359       -12.5270
 240   2.0000      -0.459206       -12.4956
 241   2.0000      -0.455142       -12.3850
 242   2.0000      -0.453865       -12.3503
 243   2.0000      -0.452611       -12.3162
 244   2.0000      -0.448698       -12.2097
 245   2.0000      -0.448143       -12.1946
 246   2.0000      -0.447688       -12.1822
 247   2.0000      -0.445428       -12.1207
 248   2.0000      -0.443554       -12.0697
 249   2.0000      -0.442819       -12.0497
 250   2.0000      -0.442083       -12.0297
 251   2.0000      -0.440772       -11.9940
 252   2.0000      -0.439204       -11.9514
 253   2.0000      -0.438807       -11.9405
 254   2.0000      -0.436444       -11.8762
 255   2.0000      -0.436045       -11.8654
 256   2.0000      -0.432300       -11.7635
 257   2.0000      -0.429593       -11.6898
 258   2.0000      -0.428441       -11.6585
 259   2.0000      -0.427108       -11.6222
 260   2.0000      -0.426114       -11.5952
 261   2.0000      -0.422053       -11.4846
 262   2.0000      -0.419986       -11.4284
 263   2.0000      -0.418208       -11.3800
 264   2.0000      -0.417261       -11.3543
 265   2.0000      -0.416293       -11.3279
 266   2.0000      -0.412457       -11.2235
 267   2.0000      -0.411866       -11.2075
 268   2.0000      -0.409775       -11.1505
 269   2.0000      -0.408541       -11.1170
 270   2.0000      -0.406143       -11.0517
 271   2.0000      -0.403542       -10.9809
 272   2.0000      -0.400498       -10.8981
 273   2.0000      -0.400166       -10.8891
 274   2.0000      -0.392204       -10.6724
 275   2.0000      -0.390395       -10.6232
 276   2.0000      -0.385518       -10.4905
 277   2.0000      -0.384684       -10.4678
 278   2.0000      -0.375204       -10.2098
 279   2.0000      -0.375053       -10.2057
 280   2.0000      -0.372612       -10.1393
 281   2.0000      -0.372358       -10.1324
 282   2.0000      -0.368118       -10.0170
 283   2.0000      -0.354834        -9.6555
 284   2.0000      -0.353587        -9.6216
 285   2.0000      -0.349165        -9.5013
 286   2.0000      -0.347501        -9.4560
 287   2.0000      -0.341893        -9.3034
 288   2.0000      -0.330782        -9.0010
 289   2.0000      -0.316819        -8.6211
 290   2.0000      -0.315914        -8.5964
 291   2.0000      -0.311957        -8.4888
 292   2.0000      -0.306714        -8.3461
 293   2.0000      -0.295076        -8.0294
 294   2.0000      -0.293523        -7.9872
 295   2.0000      -0.288726        -7.8566
 296   2.0000      -0.274672        -7.4742
 297   2.0000      -0.264260        -7.1909
 298   0.0000      -0.121079        -3.2947
 299   0.0000      -0.085422        -2.3244
 300   0.0000      -0.080975        -2.2034
 301   0.0000      -0.059438        -1.6174
 302   0.0000      -0.050724        -1.3803

MULLIKEN ATOMIC CHARGES
-----------------------
   0 C :    0.284445
   1 C :   -0.341234
   2 C :   -0.186952
   3 N :    0.152178
   4 C :   -0.205143
   5 N :    0.162237
   6 C :    0.021781
   7 C :   -0.012710
   8 C :   -0.073907
   9 C :    0.120125
  10 C :   -0.087962
  11 C :   -0.025372
  12 S :    0.186166
  13 C :   -0.122350
  14 C :    0.037694
  15 Br:    0.025608
  16 C :    0.154648
  17 O :   -0.153299
  18 C :   -0.066834
  19 C :   -0.019252
  20 C :    0.022010
  21 C :    0.238639
  22 O :   -0.306703
  23 C :    0.177259
  24 C :   -0.117710
  25 C :   -0.023949
  26 C :    0.235051
  27 C :   -0.110586
  28 O :   -0.323844
  29 C :    0.170935
  30 C :    0.078720
  31 C :   -0.042636
  32 C :   -0.082555
  33 N :    0.088195
  34 C :   -0.130144
  35 C :   -0.158586
  36 N :    0.082208
  37 C :   -0.202610
  38 N :    0.235592
  39 C :   -0.203970
  40 N :    0.250995
  41 C :    0.014624
  42 C :    0.000446
  43 C :    0.014045
  44 N :   -0.278404
  45 S :    0.547015
  46 N :   -0.270724
  47 C :   -0.042046
  48 C :    0.226922
  49 O :   -0.307793
  50 C :    0.204622
  51 C :   -0.092904
  52 C :   -0.000111
  53 C :    0.255761
  54 C :   -0.102912
  55 O :   -0.303102
  56 C :    0.176700
  57 C :    0.054298
  58 C :   -0.109189
  59 C :    0.251159
  60 C :   -0.331901
  61 C :   -0.188468
  62 N :    0.167593
  63 C :   -0.160305
  64 N :    0.163844
  65 C :    0.003669
  66 C :    0.002131
  67 C :    0.133279
  68 O :   -0.141247
  69 C :   -0.072530
  70 C :    0.111833
  71 C :   -0.089568
  72 C :   -0.017975
  73 S :    0.186546
  74 C :   -0.125561
  75 C :    0.042421
  76 Br:    0.022176
  77 H :   -0.007195
  78 H :   -0.003930
  79 H :   -0.001527
  80 H :    0.038752
  81 H :    0.045759
  82 H :    0.025785
  83 H :    0.032345
  84 H :   -0.031590
  85 H :   -0.019835
  86 H :    0.051454
  87 H :    0.024720
  88 H :    0.031521
  89 H :    0.035699
  90 H :    0.021380
  91 H :    0.022689
  92 H :   -0.013031
  93 H :   -0.036283
  94 H :    0.041945
  95 H :    0.025401
  96 H :    0.031034
  97 H :    0.030221
  98 H :   -0.010033
  99 H :   -0.001747
 100 H :   -0.004056
Sum of atomic charges:   -0.0000000

LOEWDIN ATOMIC CHARGES
----------------------
   0 C :    0.076729
   1 C :   -0.138623
   2 C :   -0.018070
   3 N :   -0.053314
   4 C :   -0.026297
   5 N :   -0.049678
   6 C :   -0.021424
   7 C :   -0.050806
   8 C :    0.022996
   9 C :   -0.031911
  10 C :   -0.143128
  11 C :   -0.009902
  12 S :    0.432619
  13 C :   -0.270819
  14 C :   -0.069778
  15 Br:    0.138392
  16 C :    0.086738
  17 O :   -0.140311
  18 C :   -0.092584
  19 C :    0.087533
  20 C :   -0.052104
  21 C :    0.064572
  22 O :   -0.092403
  23 C :    0.080649
  24 C :   -0.047356
  25 C :   -0.014251
  26 C :    0.051756
  27 C :   -0.019022
  28 O :   -0.105208
  29 C :    0.077667
  30 C :   -0.005565
  31 C :   -0.004290
  32 C :   -0.011992
  33 N :    0.018626
  34 C :   -0.021513
  35 C :   -0.027909
  36 N :    0.016453
  37 C :   -0.035639
  38 N :   -0.005332
  39 C :   -0.037883
  40 N :    0.007733
  41 C :   -0.007358
  42 C :   -0.047706
  43 C :   -0.038879
  44 N :   -0.287715
  45 S :    0.686918
  46 N :   -0.285973
  47 C :   -0.035395
  48 C :    0.056197
  49 O :   -0.101193
  50 C :    0.077691
  51 C :   -0.014269
  52 C :   -0.052721
  53 C :    0.060827
  54 C :   -0.039138
  55 O :   -0.094927
  56 C :    0.079397
  57 C :    0.087350
  58 C :   -0.084811
  59 C :    0.064063
  60 C :   -0.126896
  61 C :   -0.021038
  62 N :   -0.038592
  63 C :   -0.012457
  64 N :   -0.049222
  65 C :   -0.017352
  66 C :   -0.053676
  67 C :    0.083965
  68 O :   -0.140659
  69 C :    0.022008
  70 C :   -0.033790
  71 C :   -0.142730
  72 C :   -0.010778
  73 S :    0.432582
  74 C :   -0.272272
  75 C :   -0.070400
  76 Br:    0.135761
  77 H :    0.041792
  78 H :    0.041249
  79 H :    0.039616
  80 H :    0.046076
  81 H :    0.033086
  82 H :    0.017031
  83 H :    0.019997
  84 H :    0.029461
  85 H :    0.032638
  86 H :    0.027304
  87 H :    0.016600
  88 H :    0.026253
  89 H :    0.027092
  90 H :    0.011090
  91 H :    0.017560
  92 H :    0.036004
  93 H :    0.029300
  94 H :    0.031387
  95 H :    0.016287
  96 H :    0.019288
  97 H :    0.047564
  98 H :    0.041051
  99 H :    0.041556
 100 H :    0.038549

  Mayer bond orders larger than 0.100000
B(  0-C ,  1-C ) :   1.6493 B(  0-C ,  6-C ) :   1.0075 B(  0-C , 18-C ) :   1.0511
B(  1-C ,  2-C ) :   1.1406 B(  1-C ,  4-C ) :   1.1355 B(  2-C ,  3-N ) :   2.9771
B(  4-C ,  5-N ) :   3.0039 B(  6-C ,  7-C ) :   1.2707 B(  6-C , 11-C ) :   1.4067
B(  7-C ,  8-C ) :   1.4207 B(  7-C , 16-C ) :   0.9500 B(  8-C ,  9-C ) :   1.2491
B(  8-C , 77-H ) :   1.0170 B(  9-C , 10-C ) :   1.3003 B(  9-C , 14-C ) :   1.1632
B( 10-C , 11-C ) :   1.3325 B( 10-C , 12-S ) :   1.0864 B( 11-C , 78-H ) :   0.9815
B( 12-S , 13-C ) :   1.0851 B( 13-C , 14-C ) :   1.6191 B( 13-C , 15-Br) :   1.0203
B( 14-C , 79-H ) :   1.0006 B( 16-C , 17-O ) :   2.1930 B( 16-C , 18-C ) :   0.9333
B( 18-C , 19-C ) :   1.6023 B( 19-C , 20-C ) :   1.1374 B( 19-C , 80-H ) :   0.9373
B( 20-C , 21-C ) :   1.2933 B( 20-C , 27-C ) :   1.3074 B( 21-C , 22-O ) :   1.1702
B( 21-C , 24-C ) :   1.2944 B( 22-O , 23-C ) :   0.9527 B( 23-C , 81-H ) :   0.9777
B( 23-C , 82-H ) :   0.9694 B( 23-C , 83-H ) :   0.9694 B( 24-C , 25-C ) :   1.3459
B( 24-C , 84-H ) :   0.9948 B( 25-C , 26-C ) :   1.3646 B( 25-C , 30-C ) :   0.9636
B( 26-C , 27-C ) :   1.3160 B( 26-C , 28-O ) :   1.1485 B( 27-C , 85-H ) :   0.9825
B( 28-O , 29-C ) :   0.9483 B( 29-C , 86-H ) :   0.9679 B( 29-C , 87-H ) :   0.9696
B( 29-C , 88-H ) :   0.9765 B( 30-C , 31-C ) :   1.3328 B( 30-C , 41-C ) :   0.1448
B( 30-C , 43-C ) :   1.2798 B( 31-C , 32-C ) :   1.0976 B( 31-C , 36-N ) :   1.4140
B( 32-C , 33-N ) :   1.4178 B( 32-C , 41-C ) :   1.3171 B( 33-N , 34-C ) :   1.7800
B( 34-C , 35-C ) :   1.1649 B( 34-C , 39-C ) :   1.1452 B( 35-C , 36-N ) :   1.7727
B( 35-C , 37-C ) :   1.1496 B( 37-C , 38-N ) :   3.0512 B( 39-C , 40-N ) :   3.0358
B( 41-C , 42-C ) :   1.2716 B( 41-C , 47-C ) :   0.9794 B( 42-C , 43-C ) :   1.1037
B( 42-C , 46-N ) :   1.4907 B( 43-C , 44-N ) :   1.4803 B( 44-N , 45-S ) :   1.2986
B( 44-N , 46-N ) :   0.1618 B( 45-S , 46-N ) :   1.3009 B( 47-C , 48-C ) :   1.3228
B( 47-C , 54-C ) :   1.3256 B( 48-C , 49-O ) :   1.1712 B( 48-C , 51-C ) :   1.3393
B( 49-O , 50-C ) :   0.9574 B( 50-C , 89-H ) :   0.9764 B( 50-C , 90-H ) :   0.9645
B( 50-C , 91-H ) :   0.9571 B( 51-C , 52-C ) :   1.3443 B( 51-C , 92-H ) :   1.0030
B( 52-C , 53-C ) :   1.3227 B( 52-C , 57-C ) :   1.0273 B( 53-C , 54-C ) :   1.3109
B( 53-C , 55-O ) :   1.2007 B( 54-C , 93-H ) :   0.9891 B( 55-O , 56-C ) :   0.9577
B( 56-C , 94-H ) :   0.9782 B( 56-C , 95-H ) :   0.9689 B( 56-C , 96-H ) :   0.9694
B( 57-C , 58-C ) :   1.7240 B( 57-C , 97-H ) :   0.9424 B( 58-C , 59-C ) :   1.0105
B( 58-C , 67-C ) :   0.9345 B( 59-C , 60-C ) :   1.6818 B( 59-C , 65-C ) :   1.0126
B( 60-C , 61-C ) :   1.1386 B( 60-C , 63-C ) :   1.1584 B( 61-C , 62-N ) :   2.9720
B( 63-C , 64-N ) :   2.9754 B( 65-C , 66-C ) :   1.2769 B( 65-C , 72-C ) :   1.4116
B( 66-C , 67-C ) :   0.9185 B( 66-C , 69-C ) :   1.4211 B( 67-C , 68-O ) :   2.2758
B( 69-C , 70-C ) :   1.2554 B( 69-C , 98-H ) :   1.0156 B( 70-C , 71-C ) :   1.3058
B( 70-C , 75-C ) :   1.1621 B( 71-C , 72-C ) :   1.3293 B( 71-C , 73-S ) :   1.0834
B( 72-C , 99-H ) :   0.9833 B( 73-S , 74-C ) :   1.0865 B( 74-C , 75-C ) :   1.6204
B( 74-C , 76-Br) :   1.0185 B( 75-C ,100-H ) :   0.9995

-----------------------------------------------------------------------------
         ABSORPTION SPECTRUM VIA TRANSITION ELECTRIC DIPOLE MOMENTS
-----------------------------------------------------------------------------
State   Energy  Wavelength   fosc         T2         TX        TY        TZ
        (cm-1)    (nm)                  (au**2)     (au)      (au)      (au)
-----------------------------------------------------------------------------
   0   13127.6    761.8   0.255259404   6.40137   0.05592   2.29479  -1.06405
   1   15209.2    657.5   0.037198821   0.80519   0.22431   0.85891   0.13097
   2   19834.7    504.2   0.299889339   4.97749  -0.00742   2.00766  -0.97299
   3   21874.9    457.1   0.178445862   2.68557   0.75919  -0.92652   1.11838
   4   22862.8    437.4   0.425947289   6.13342  -0.52596  -2.40811   0.24043
   5   23621.9    423.3   0.011574133   0.16131  -0.05606  -0.20082   0.34327
   6   25233.6    396.3   0.009597499   0.12521   0.16536  -0.30849  -0.05201
   7   26117.5    382.9   0.010895621   0.13734   0.36229   0.04917   0.06054
   8   26841.9    372.6   0.045143594   0.55368  -0.64310   0.14527  -0.34497
   9   27372.4    365.3   0.063898189   0.76851   0.00862   0.86475  -0.14370
  10   27444.8    364.4   0.078078525   0.93658   0.58266   0.47707  -0.60786
  11   27924.0    358.1   0.013615822   0.16052   0.18028   0.34323   0.10109
  12   28331.6    353.0   0.110384633   1.28267  -0.92719  -0.62018  -0.19586
  13   28597.9    349.7   0.077074437   0.88726  -0.30394   0.66573  -0.59303
  14   28957.1    345.3   0.176304978   2.00441   0.45335  -0.48317   1.25117
  15   29573.9    338.1   0.122186679   1.36016   0.40468  -0.75945   0.78717
  16   29706.6    336.6   0.064669146   0.71667  -0.51909  -0.62441   0.23942
  17   29921.8    334.2   0.014086814   0.15499  -0.20745   0.02068  -0.33396
  18   30188.9    331.2   0.127114708   1.38619   0.39588   0.81484  -0.75200
  19   30401.1    328.9   0.062357592   0.67527   0.12067   0.64435  -0.49550
  20   30856.4    324.1   0.183516972   1.95797  -0.99408  -0.97868   0.10938
  21   30919.1    323.4   0.187854049   2.00018   1.29705   0.10279   0.55433
  22   30972.0    322.9   0.076341365   0.81146  -0.11248   0.39872  -0.79989
  23   31349.1    319.0   0.117365277   1.23251  -0.87387   0.09519  -0.67809
  24   31778.8    314.7   0.266481142   2.76061   1.53583   0.17847   0.60827
  25   31876.2    313.7   0.019193182   0.19822  -0.10110  -0.25776   0.34866
  26   31987.0    312.6   0.011375933   0.11708  -0.10123   0.09174  -0.31372
  27   32413.9    308.5   0.117745346   1.19588   0.53448  -0.66042   0.68852
  28   32651.9    306.3   0.200259632   2.01911  -1.23167  -0.68357  -0.18665
  29   32934.5    303.6   0.053557966   0.53536  -0.53248   0.37136  -0.33752
  30   33093.1    302.2   0.034703480   0.34523  -0.32759   0.37922  -0.30677
  31   33151.6    301.6   0.087727901   0.87118  -0.20261  -0.71281   0.56748
  32   33879.4    295.2   0.012312946   0.11965  -0.14185  -0.30825   0.06714
  33   34538.5    289.5   0.259555578   2.47402   0.91125  -0.59154   1.13742
  34   34659.0    288.5   0.585869259   5.56494  -0.74047  -1.81440   1.31324
  35   34875.6    286.7   0.269178650   2.54094   1.42048  -0.09222   0.71741
  36   35083.1    285.0   0.015907097   0.14927   0.18996   0.31506   0.11799
  37   35230.6    283.8   0.017445137   0.16302   0.31268   0.04447   0.25153
  38   35385.2    282.6   0.054599018   0.50797  -0.63834   0.09233  -0.30327
  39   35741.5    279.8   0.007302728   0.06726  -0.11556  -0.18521   0.14002
  40   36366.1    275.0   0.063146375   0.57165   0.13455  -0.71360   0.21053
  41   36395.1    274.8   0.027431317   0.24813  -0.48702  -0.07610  -0.07174
  42   36650.2    272.8   0.038979390   0.35013   0.17906   0.54763  -0.13481
  43   36981.9    270.4   0.015999936   0.14243  -0.36499  -0.04568  -0.08441
  44   37123.2    269.4   0.189781393   1.68300  -1.21549  -0.13180  -0.43383
  45   37437.0    267.1   0.069720787   0.61311   0.22805  -0.60612   0.44014
  46   37740.1    265.0   0.000643849   0.00562   0.03897   0.06078  -0.02010
  47   37968.5    263.4   0.585798433   5.07926   2.11319   0.30303   0.72241
  48   38528.1    259.6   0.058039234   0.49593   0.36170   0.55450   0.24007
  49   39311.7    254.4   0.100250501   0.83954   0.00948  -0.79913   0.44815
  50   39730.9    251.7   0.382528006   3.16965   0.59189  -1.43830   0.86638
  51   39768.9    251.5   0.100386508   0.83101   0.47537   0.62167  -0.46751
  52   39933.3    250.4   0.123617405   1.01911  -0.70954  -0.69023  -0.19807
  53   40080.4    249.5   0.040573695   0.33326   0.39684  -0.12696   0.39958
  54   40128.6    249.2   0.073814845   0.60557   0.50157   0.58959  -0.07990

FINAL SINGLE POINT ENERGY     -9485.304269403499

DIPOLE MOMENT
-------------
                                X             Y             Z
Electronic contribution:   -107.13322     -30.22390     -77.55268
Nuclear contribution   :    109.10707      31.20606      77.69499
                        -----------------------------------------
Total Dipole Moment    :      1.97385       0.98216       0.14231
                        -----------------------------------------
Magnitude (a.u.)       :      2.20930
Magnitude (Debye)      :      5.61559

Rotational constants in cm-1:     0.001164     0.000201     0.000176
Rotational constants in MHz :    34.905776     6.022134     5.282977

                             ****ORCA TERMINATED NORMALLY****
TOTAL RUN TIME: 0 days 0 hours 12 minutes 14 seconds 249 msec
