                         Program Version 4.2.0 -  RELEASE  -
|  1> # ORCA input file
|  2> # SCF done       -221.604651461465          0.000425308364
|  3> ! CAM-B3LYP def2-SVP def2/J RIJCOSX Grid4 TightSCF
|  4> %maxcore 5000
|  5> %tddft
|  6>     Mode sTDDFT
|  7>     Ethresh 5.0
|  8>     maxcore 5000
|  9> end
| 10>
| 11> %pal
| 12>   nprocs 6
| 13>   end
| 14> * xyz 0 1
| 15>    C      -11.90179         1.18072        -0.92396
| 16>    C      -12.83124         1.29558        -1.91967
| 17>    F      -13.54013         2.42346        -2.05185
| 18>    C      -13.05631         0.23252        -2.81738
| 19>    F      -13.97375         0.37238        -3.78300
| 20>    C      -12.34849        -0.93148        -2.70652
| 21>    C      -11.38531        -1.08059        -1.69001
| 22>    C      -11.15582        -0.00644        -0.78204
| 23>    C      -10.19474        -0.13348         0.24773
| 24>    C       -9.48798        -1.30060         0.36882
| 25>    C       -9.72938        -2.36895        -0.53970
| 26>    C      -10.64540        -2.27515        -1.54732
| 27>    C       -8.86693        -3.50632        -0.18373
| 28>    O       -8.80253        -4.57405        -0.76984
| 29>    C       -8.12272        -3.10105         1.01275
| 30>    C       -8.45775        -1.72125         1.31684
| 31>    C       -7.90072        -0.92429         2.28171
| 32>    C       -6.86522        -1.30283         3.16271
| 33>    N       -6.01858        -1.53119         3.90394
| 34>    C       -8.27739         0.41677         2.50942
| 35>    N       -8.53961         1.50896         2.74500
| 36>    C       -7.31945        -3.92093         1.76510
| 37>    C       -6.97185        -5.26714         1.57838
| 38>    C       -6.22467        -5.97590         2.52943
| 39>    C       -6.02030        -7.29289         2.16836
| 40>    C       -6.59482        -7.59516         0.90956
| 41>    S       -7.40219        -6.27748         0.19799
| 42>    C       -6.36230        -8.96537         0.64362
| 43>    C       -5.65718        -9.53311         1.72133
| 44>    C       -5.40718        -8.49754         2.71047
| 45>    C       -4.75062        -8.63398         3.89738
| 46>    C       -4.20394        -9.86614         4.31639
| 47>    N       -3.75905       -10.86413         4.66319
| 48>    C       -4.57760        -7.55352         4.78909
| 49>    N       -4.44152        -6.67911         5.51755
| 50>    C       -5.42847       -10.89895         1.56179
| 51>    C       -5.94449       -11.37463         0.37051
| 52>    S       -6.71688       -10.10649        -0.57188
| 53>    C       -5.95539       -12.72360        -0.10573
| 54>    C       -6.39255       -13.05090        -1.38048
| 55>    C       -6.47851       -14.36644        -1.81711
| 56>    F       -6.92505       -14.55021        -3.07730
| 57>    C       -6.17664       -15.48273        -1.04254
| 58>    C       -5.68587       -15.17340         0.25741
| 59>    C       -5.56306       -13.81447         0.71751
| 60>    N       -5.08193       -13.75736         1.95774
| 61>    S       -4.80337       -15.24403         2.49039
| 62>    N       -5.28362       -16.04116         1.18410
| 63>    C       -6.37842       -16.83186        -1.47652
| 64>    C       -6.33813       -17.96585        -0.68123
| 65>    C       -6.65058       -19.11674        -1.39813
| 66>    C       -6.90791       -18.86008        -2.75900
| 67>    S       -6.78823       -17.20577        -3.14273
| 68>    C       -7.23530       -20.08241        -3.39503
| 69>    C       -7.20466       -21.11002        -2.42837
| 70>    C       -6.82497       -20.53782        -1.14733
| 71>    C       -6.66705       -21.20529         0.03148
| 72>    C       -6.88036       -22.59758         0.11774
| 73>    N       -7.06984       -23.72731         0.16984
| 74>    C       -6.29986       -20.55044         1.22606
| 75>    N       -6.01376       -20.01825         2.20027
| 76>    C       -7.52317       -22.35472        -2.95099
| 77>    C       -7.78429       -22.30184        -4.31476
| 78>    S       -7.65776       -20.65776        -4.93734
| 79>    C       -8.18618       -23.32643        -5.19393
| 80>    C       -8.17806       -24.67906        -5.01879
| 81>    C       -9.06530       -25.50215        -5.88959
| 82>    O       -9.62158       -25.13905        -6.89960
| 83>    C       -9.15952       -26.81247        -5.21769
| 84>    C       -9.95515       -27.87844        -5.52382
| 85>    C       -9.91396       -29.02412        -4.69802
| 86>    C       -9.04950       -29.03944        -3.56477
| 87>    C       -9.02575       -30.17987        -2.73715
| 88>    C       -9.81980       -31.25497        -3.02279
| 89>    C      -10.67205       -31.23964        -4.14533
| 90>    C      -10.71879       -30.14833        -4.96667
| 91>    F      -11.44036       -32.30711        -4.40034
| 92>    F       -9.79648       -32.33767        -2.23513
| 93>    C       -8.22801       -27.92430        -3.27957
| 94>    C       -8.27754       -26.82973        -4.09993
| 95>    C       -7.54641       -25.56397        -4.06518
| 96>    C       -6.34319       -25.37436        -3.43584
| 97>    C       -5.54764       -24.22523        -3.60579
| 98>    N       -4.87022       -23.30772        -3.73845
| 99>    C       -5.72189       -26.34770        -2.62514
|100>    N       -5.17489       -27.11083        -1.96596
|101>    H      -11.74186         2.00456        -0.24608
|102>    H      -12.53259        -1.73615        -3.40100
|103>    H      -10.04854         0.69728         0.91857
|104>    H      -10.80547        -3.10164        -2.22286
|105>    H       -6.89989        -3.49902         2.67065
|106>    H       -5.87349        -5.51788         3.43728
|107>    H       -4.92531       -11.54016         2.26178
|108>    H       -6.69145       -12.27558        -2.06956
|109>    H       -6.09877       -17.92281         0.36498
|110>    H       -7.61747       -23.25323        -2.36967
|111>    H       -8.64685       -22.99923        -6.12176
|112>    H      -10.61041       -27.84667        -6.38089
|113>    H       -8.37696       -30.20943        -1.87580
|114>    H      -11.37692       -30.15146        -5.82140
|115>    H       -7.59081       -27.95724        -2.41024
|116> *
|117>
|118>                          ****END OF INPUT****

CARTESIAN COORDINATES (ANGSTROEM)
---------------------------------
  C    -11.901790    1.180720   -0.923960
  C    -12.831240    1.295580   -1.919670
  F    -13.540130    2.423460   -2.051850
  C    -13.056310    0.232520   -2.817380
  F    -13.973750    0.372380   -3.783000
  C    -12.348490   -0.931480   -2.706520
  C    -11.385310   -1.080590   -1.690010
  C    -11.155820   -0.006440   -0.782040
  C    -10.194740   -0.133480    0.247730
  C     -9.487980   -1.300600    0.368820
  C     -9.729380   -2.368950   -0.539700
  C    -10.645400   -2.275150   -1.547320
  C     -8.866930   -3.506320   -0.183730
  O     -8.802530   -4.574050   -0.769840
  C     -8.122720   -3.101050    1.012750
  C     -8.457750   -1.721250    1.316840
  C     -7.900720   -0.924290    2.281710
  C     -6.865220   -1.302830    3.162710
  N     -6.018580   -1.531190    3.903940
  C     -8.277390    0.416770    2.509420
  N     -8.539610    1.508960    2.745000
  C     -7.319450   -3.920930    1.765100
  C     -6.971850   -5.267140    1.578380
  C     -6.224670   -5.975900    2.529430
  C     -6.020300   -7.292890    2.168360
  C     -6.594820   -7.595160    0.909560
  S     -7.402190   -6.277480    0.197990
  C     -6.362300   -8.965370    0.643620
  C     -5.657180   -9.533110    1.721330
  C     -5.407180   -8.497540    2.710470
  C     -4.750620   -8.633980    3.897380
  C     -4.203940   -9.866140    4.316390
  N     -3.759050  -10.864130    4.663190
  C     -4.577600   -7.553520    4.789090
  N     -4.441520   -6.679110    5.517550
  C     -5.428470  -10.898950    1.561790
  C     -5.944490  -11.374630    0.370510
  S     -6.716880  -10.106490   -0.571880
  C     -5.955390  -12.723600   -0.105730
  C     -6.392550  -13.050900   -1.380480
  C     -6.478510  -14.366440   -1.817110
  F     -6.925050  -14.550210   -3.077300
  C     -6.176640  -15.482730   -1.042540
  C     -5.685870  -15.173400    0.257410
  C     -5.563060  -13.814470    0.717510
  N     -5.081930  -13.757360    1.957740
  S     -4.803370  -15.244030    2.490390
  N     -5.283620  -16.041160    1.184100
  C     -6.378420  -16.831860   -1.476520
  C     -6.338130  -17.965850   -0.681230
  C     -6.650580  -19.116740   -1.398130
  C     -6.907910  -18.860080   -2.759000
  S     -6.788230  -17.205770   -3.142730
  C     -7.235300  -20.082410   -3.395030
  C     -7.204660  -21.110020   -2.428370
  C     -6.824970  -20.537820   -1.147330
  C     -6.667050  -21.205290    0.031480
  C     -6.880360  -22.597580    0.117740
  N     -7.069840  -23.727310    0.169840
  C     -6.299860  -20.550440    1.226060
  N     -6.013760  -20.018250    2.200270
  C     -7.523170  -22.354720   -2.950990
  C     -7.784290  -22.301840   -4.314760
  S     -7.657760  -20.657760   -4.937340
  C     -8.186180  -23.326430   -5.193930
  C     -8.178060  -24.679060   -5.018790
  C     -9.065300  -25.502150   -5.889590
  O     -9.621580  -25.139050   -6.899600
  C     -9.159520  -26.812470   -5.217690
  C     -9.955150  -27.878440   -5.523820
  C     -9.913960  -29.024120   -4.698020
  C     -9.049500  -29.039440   -3.564770
  C     -9.025750  -30.179870   -2.737150
  C     -9.819800  -31.254970   -3.022790
  C    -10.672050  -31.239640   -4.145330
  C    -10.718790  -30.148330   -4.966670
  F    -11.440360  -32.307110   -4.400340
  F     -9.796480  -32.337670   -2.235130
  C     -8.228010  -27.924300   -3.279570
  C     -8.277540  -26.829730   -4.099930
  C     -7.546410  -25.563970   -4.065180
  C     -6.343190  -25.374360   -3.435840
  C     -5.547640  -24.225230   -3.605790
  N     -4.870220  -23.307720   -3.738450
  C     -5.721890  -26.347700   -2.625140
  N     -5.174890  -27.110830   -1.965960
  H    -11.741860    2.004560   -0.246080
  H    -12.532590   -1.736150   -3.401000
  H    -10.048540    0.697280    0.918570
  H    -10.805470   -3.101640   -2.222860
  H     -6.899890   -3.499020    2.670650
  H     -5.873490   -5.517880    3.437280
  H     -4.925310  -11.540160    2.261780
  H     -6.691450  -12.275580   -2.069560
  H     -6.098770  -17.922810    0.364980
  H     -7.617470  -23.253230   -2.369670
  H     -8.646850  -22.999230   -6.121760
  H    -10.610410  -27.846670   -6.380890
  H     -8.376960  -30.209430   -1.875800
  H    -11.376920  -30.151460   -5.821400
  H     -7.590810  -27.957240   -2.410240

 Total Charge           Charge          ....    0
 Multiplicity           Mult            ....    1
 Number of Electrons    NEL             ....  610
 Basis Dimension        Dim             .... 1299

ORBITAL ENERGIES
----------------

  NO   OCC          E(Eh)            E(eV)
   0   2.0000     -89.046183     -2423.0698
   1   2.0000     -89.002977     -2421.8941
   2   2.0000     -89.000017     -2421.8136
   3   2.0000     -88.999224     -2421.7920
   4   2.0000     -88.996976     -2421.7308
   5   2.0000     -24.820647      -675.4041
   6   2.0000     -24.804219      -674.9571
   7   2.0000     -24.803119      -674.9272
   8   2.0000     -24.798502      -674.8016
   9   2.0000     -24.797450      -674.7729
  10   2.0000     -19.234373      -523.3939
  11   2.0000     -19.218629      -522.9655
  12   2.0000     -14.461219      -393.5098
  13   2.0000     -14.458756      -393.4427
  14   2.0000     -14.436923      -392.8486
  15   2.0000     -14.436862      -392.8470
  16   2.0000     -14.435610      -392.8129
  17   2.0000     -14.433843      -392.7648
  18   2.0000     -14.423927      -392.4950
  19   2.0000     -14.421464      -392.4280
  20   2.0000     -14.420767      -392.4090
  21   2.0000     -14.415926      -392.2773
  22   2.0000     -10.396975      -282.9161
  23   2.0000     -10.387864      -282.6681
  24   2.0000     -10.386991      -282.6444
  25   2.0000     -10.382148      -282.5126
  26   2.0000     -10.381565      -282.4967
  27   2.0000     -10.381044      -282.4826
  28   2.0000     -10.373802      -282.2855
  29   2.0000     -10.370077      -282.1841
  30   2.0000     -10.370033      -282.1829
  31   2.0000     -10.361380      -281.9475
  32   2.0000     -10.357426      -281.8399
  33   2.0000     -10.352374      -281.7024
  34   2.0000     -10.350455      -281.6502
  35   2.0000     -10.350068      -281.6397
  36   2.0000     -10.349869      -281.6343
  37   2.0000     -10.347897      -281.5806
  38   2.0000     -10.346894      -281.5533
  39   2.0000     -10.345840      -281.5246
  40   2.0000     -10.345142      -281.5056
  41   2.0000     -10.343127      -281.4508
  42   2.0000     -10.340866      -281.3893
  43   2.0000     -10.337595      -281.3003
  44   2.0000     -10.337229      -281.2903
  45   2.0000     -10.336923      -281.2820
  46   2.0000     -10.336677      -281.2753
  47   2.0000     -10.336418      -281.2682
  48   2.0000     -10.336310      -281.2653
  49   2.0000     -10.335935      -281.2551
  50   2.0000     -10.335867      -281.2532
  51   2.0000     -10.333865      -281.1988
  52   2.0000     -10.331727      -281.1406
  53   2.0000     -10.330878      -281.1175
  54   2.0000     -10.328930      -281.0645
  55   2.0000     -10.326166      -280.9893
  56   2.0000     -10.324318      -280.9390
  57   2.0000     -10.322180      -280.8808
  58   2.0000     -10.321569      -280.8642
  59   2.0000     -10.319943      -280.8199
  60   2.0000     -10.318296      -280.7751
  61   2.0000     -10.318209      -280.7727
  62   2.0000     -10.317490      -280.7532
  63   2.0000     -10.317244      -280.7465
  64   2.0000     -10.317159      -280.7442
  65   2.0000     -10.315025      -280.6861
  66   2.0000     -10.314914      -280.6831
  67   2.0000     -10.311794      -280.5982
  68   2.0000     -10.311201      -280.5821
  69   2.0000     -10.311197      -280.5819
  70   2.0000     -10.310970      -280.5758
  71   2.0000     -10.310894      -280.5737
  72   2.0000     -10.309326      -280.5310
  73   2.0000     -10.309116      -280.5253
  74   2.0000     -10.309099      -280.5248
  75   2.0000     -10.309066      -280.5239
  76   2.0000     -10.307748      -280.4881
  77   2.0000     -10.306464      -280.4532
  78   2.0000     -10.304097      -280.3887
  79   2.0000     -10.303305      -280.3672
  80   2.0000     -10.303081      -280.3611
  81   2.0000     -10.303050      -280.3602
  82   2.0000     -10.301666      -280.3226
  83   2.0000     -10.301547      -280.3193
  84   2.0000     -10.300476      -280.2902
  85   2.0000     -10.295224      -280.1473
  86   2.0000      -8.137617      -221.4358
  87   2.0000      -8.097604      -220.3470
  88   2.0000      -8.094729      -220.2688
  89   2.0000      -8.091526      -220.1816
  90   2.0000      -8.091117      -220.1705
  91   2.0000      -6.108840      -166.2300
  92   2.0000      -6.100951      -166.0153
  93   2.0000      -6.100115      -165.9926
  94   2.0000      -6.066793      -165.0858
  95   2.0000      -6.063862      -165.0061
  96   2.0000      -6.062652      -164.9732
  97   2.0000      -6.060942      -164.9266
  98   2.0000      -6.060450      -164.9132
  99   2.0000      -6.060044      -164.9022
 100   2.0000      -6.059738      -164.8939
 101   2.0000      -6.057256      -164.8263
 102   2.0000      -6.056169      -164.7967
 103   2.0000      -6.055978      -164.7915
 104   2.0000      -6.054098      -164.7404
 105   2.0000      -6.053562      -164.7258
 106   2.0000      -1.334681       -36.3185
 107   2.0000      -1.326825       -36.1047
 108   2.0000      -1.321025       -35.9469
 109   2.0000      -1.311924       -35.6993
 110   2.0000      -1.306139       -35.5419
 111   2.0000      -1.150088       -31.2955
 112   2.0000      -1.148203       -31.2442
 113   2.0000      -1.134524       -30.8720
 114   2.0000      -1.056280       -28.7428
 115   2.0000      -1.053255       -28.6605
 116   2.0000      -1.029433       -28.0123
 117   2.0000      -1.027714       -27.9655
 118   2.0000      -1.027004       -27.9462
 119   2.0000      -1.022963       -27.8362
 120   2.0000      -1.015934       -27.6450
 121   2.0000      -1.013511       -27.5790
 122   2.0000      -1.012969       -27.5643
 123   2.0000      -1.011903       -27.5353
 124   2.0000      -1.011049       -27.5120
 125   2.0000      -1.005890       -27.3716
 126   2.0000      -1.001324       -27.2474
 127   2.0000      -0.999376       -27.1944
 128   2.0000      -0.996103       -27.1053
 129   2.0000      -0.991913       -26.9913
 130   2.0000      -0.988530       -26.8993
 131   2.0000      -0.982763       -26.7423
 132   2.0000      -0.968813       -26.3627
 133   2.0000      -0.963962       -26.2307
 134   2.0000      -0.940988       -25.6056
 135   2.0000      -0.935538       -25.4573
 136   2.0000      -0.929803       -25.3012
 137   2.0000      -0.923625       -25.1331
 138   2.0000      -0.911575       -24.8052
 139   2.0000      -0.905415       -24.6376
 140   2.0000      -0.899748       -24.4834
 141   2.0000      -0.895868       -24.3778
 142   2.0000      -0.893030       -24.3006
 143   2.0000      -0.888108       -24.1666
 144   2.0000      -0.885383       -24.0925
 145   2.0000      -0.882364       -24.0104
 146   2.0000      -0.874696       -23.8017
 147   2.0000      -0.866499       -23.5786
 148   2.0000      -0.865142       -23.5417
 149   2.0000      -0.862772       -23.4772
 150   2.0000      -0.847854       -23.0713
 151   2.0000      -0.841567       -22.9002
 152   2.0000      -0.834966       -22.7206
 153   2.0000      -0.822370       -22.3778
 154   2.0000      -0.809194       -22.0193
 155   2.0000      -0.788338       -21.4518
 156   2.0000      -0.784239       -21.3402
 157   2.0000      -0.781783       -21.2734
 158   2.0000      -0.776680       -21.1345
 159   2.0000      -0.771523       -20.9942
 160   2.0000      -0.766843       -20.8669
 161   2.0000      -0.751831       -20.4584
 162   2.0000      -0.746871       -20.3234
 163   2.0000      -0.737267       -20.0621
 164   2.0000      -0.734284       -19.9809
 165   2.0000      -0.726269       -19.7628
 166   2.0000      -0.721309       -19.6278
 167   2.0000      -0.718973       -19.5643
 168   2.0000      -0.714873       -19.4527
 169   2.0000      -0.710149       -19.3241
 170   2.0000      -0.702934       -19.1278
 171   2.0000      -0.696492       -18.9525
 172   2.0000      -0.693503       -18.8712
 173   2.0000      -0.690253       -18.7827
 174   2.0000      -0.685882       -18.6638
 175   2.0000      -0.682801       -18.5800
 176   2.0000      -0.673176       -18.3181
 177   2.0000      -0.668009       -18.1775
 178   2.0000      -0.661669       -18.0049
 179   2.0000      -0.657729       -17.8977
 180   2.0000      -0.656683       -17.8692
 181   2.0000      -0.652856       -17.7651
 182   2.0000      -0.649494       -17.6736
 183   2.0000      -0.643413       -17.5082
 184   2.0000      -0.643261       -17.5040
 185   2.0000      -0.641629       -17.4596
 186   2.0000      -0.638858       -17.3842
 187   2.0000      -0.632075       -17.1996
 188   2.0000      -0.626965       -17.0606
 189   2.0000      -0.621723       -16.9180
 190   2.0000      -0.621081       -16.9005
 191   2.0000      -0.617818       -16.8117
 192   2.0000      -0.614040       -16.7089
 193   2.0000      -0.609117       -16.5749
 194   2.0000      -0.600422       -16.3383
 195   2.0000      -0.594894       -16.1879
 196   2.0000      -0.592328       -16.1181
 197   2.0000      -0.591350       -16.0915
 198   2.0000      -0.589300       -16.0357
 199   2.0000      -0.587551       -15.9881
 200   2.0000      -0.585570       -15.9342
 201   2.0000      -0.583471       -15.8771
 202   2.0000      -0.576070       -15.6757
 203   2.0000      -0.569145       -15.4872
 204   2.0000      -0.567360       -15.4387
 205   2.0000      -0.564390       -15.3578
 206   2.0000      -0.560372       -15.2485
 207   2.0000      -0.559133       -15.2148
 208   2.0000      -0.558574       -15.1996
 209   2.0000      -0.554971       -15.1015
 210   2.0000      -0.554576       -15.0908
 211   2.0000      -0.552828       -15.0432
 212   2.0000      -0.549923       -14.9642
 213   2.0000      -0.547201       -14.8901
 214   2.0000      -0.547077       -14.8867
 215   2.0000      -0.544021       -14.8036
 216   2.0000      -0.542847       -14.7716
 217   2.0000      -0.539376       -14.6772
 218   2.0000      -0.538293       -14.6477
 219   2.0000      -0.533843       -14.5266
 220   2.0000      -0.531558       -14.4644
 221   2.0000      -0.531124       -14.4526
 222   2.0000      -0.524864       -14.2823
 223   2.0000      -0.522749       -14.2247
 224   2.0000      -0.521540       -14.1918
 225   2.0000      -0.519385       -14.1332
 226   2.0000      -0.514631       -14.0038
 227   2.0000      -0.514178       -13.9915
 228   2.0000      -0.513070       -13.9614
 229   2.0000      -0.510250       -13.8846
 230   2.0000      -0.509290       -13.8585
 231   2.0000      -0.507998       -13.8233
 232   2.0000      -0.506582       -13.7848
 233   2.0000      -0.504936       -13.7400
 234   2.0000      -0.503590       -13.7034
 235   2.0000      -0.501145       -13.6368
 236   2.0000      -0.499199       -13.5839
 237   2.0000      -0.495645       -13.4872
 238   2.0000      -0.494358       -13.4522
 239   2.0000      -0.492208       -13.3937
 240   2.0000      -0.491899       -13.3853
 241   2.0000      -0.487675       -13.2703
 242   2.0000      -0.483959       -13.1692
 243   2.0000      -0.483343       -13.1524
 244   2.0000      -0.479448       -13.0465
 245   2.0000      -0.477502       -12.9935
 246   2.0000      -0.471380       -12.8269
 247   2.0000      -0.468080       -12.7371
 248   2.0000      -0.467048       -12.7090
 249   2.0000      -0.465968       -12.6796
 250   2.0000      -0.465672       -12.6716
 251   2.0000      -0.463851       -12.6220
 252   2.0000      -0.463511       -12.6128
 253   2.0000      -0.462275       -12.5791
 254   2.0000      -0.458892       -12.4871
 255   2.0000      -0.457240       -12.4421
 256   2.0000      -0.455517       -12.3952
 257   2.0000      -0.454013       -12.3543
 258   2.0000      -0.453291       -12.3347
 259   2.0000      -0.452688       -12.3183
 260   2.0000      -0.450170       -12.2497
 261   2.0000      -0.447189       -12.1686
 262   2.0000      -0.446600       -12.1526
 263   2.0000      -0.445814       -12.1312
 264   2.0000      -0.444631       -12.0990
 265   2.0000      -0.444202       -12.0873
 266   2.0000      -0.443227       -12.0608
 267   2.0000      -0.442668       -12.0456
 268   2.0000      -0.442580       -12.0432
 269   2.0000      -0.440548       -11.9879
 270   2.0000      -0.434725       -11.8295
 271   2.0000      -0.433908       -11.8072
 272   2.0000      -0.432101       -11.7581
 273   2.0000      -0.430914       -11.7258
 274   2.0000      -0.429495       -11.6872
 275   2.0000      -0.427821       -11.6416
 276   2.0000      -0.425410       -11.5760
 277   2.0000      -0.424822       -11.5600
 278   2.0000      -0.420748       -11.4491
 279   2.0000      -0.418080       -11.3765
 280   2.0000      -0.414747       -11.2858
 281   2.0000      -0.413571       -11.2538
 282   2.0000      -0.410544       -11.1715
 283   2.0000      -0.403454       -10.9785
 284   2.0000      -0.396749       -10.7961
 285   2.0000      -0.388889       -10.5822
 286   2.0000      -0.387147       -10.5348
 287   2.0000      -0.385124       -10.4798
 288   2.0000      -0.376277       -10.2390
 289   2.0000      -0.363375        -9.8879
 290   2.0000      -0.360966        -9.8224
 291   2.0000      -0.354272        -9.6402
 292   2.0000      -0.354137        -9.6366
 293   2.0000      -0.350276        -9.5315
 294   2.0000      -0.347219        -9.4483
 295   2.0000      -0.339365        -9.2346
 296   2.0000      -0.331893        -9.0313
 297   2.0000      -0.328200        -8.9308
 298   2.0000      -0.324974        -8.8430
 299   2.0000      -0.319157        -8.6847
 300   2.0000      -0.316572        -8.6143
 301   2.0000      -0.306813        -8.3488
 302   2.0000      -0.301968        -8.2170
 303   2.0000      -0.282146        -7.6776
 304   2.0000      -0.257991        -7.0203
 305   0.0000      -0.125429        -3.4131
 306   0.0000      -0.114153        -3.1063
 307   0.0000      -0.098100        -2.6694
 308   0.0000      -0.093268        -2.5380
 309   0.0000      -0.086077        -2.3423

MULLIKEN ATOMIC CHARGES
-----------------------
   0 C :   -0.107741
   1 C :    0.243816
   2 F :   -0.168906
   3 C :    0.239245
   4 F :   -0.170761
   5 C :   -0.106646
   6 C :    0.117234
   7 C :    0.113811
   8 C :   -0.083781
   9 C :    0.047409
  10 C :   -0.002129
  11 C :   -0.081859
  12 C :    0.172734
  13 O :   -0.190494
  14 C :   -0.099029
  15 C :    0.323780
  16 C :   -0.344249
  17 C :   -0.199939
  18 N :    0.157049
  19 C :   -0.181634
  20 N :    0.153574
  21 C :   -0.026539
  22 C :   -0.053121
  23 C :   -0.058730
  24 C :    0.048325
  25 C :   -0.068815
  26 S :    0.245684
  27 C :   -0.093273
  28 C :    0.030410
  29 C :    0.306368
  30 C :   -0.296769
  31 C :   -0.185152
  32 N :    0.181193
  33 C :   -0.193769
  34 N :    0.184582
  35 C :   -0.045478
  36 C :   -0.114324
  37 S :    0.176715
  38 C :    0.158676
  39 C :   -0.133528
  40 C :    0.186552
  41 F :   -0.187365
  42 C :    0.105475
  43 C :   -0.008282
  44 C :    0.018233
  45 N :   -0.277579
  46 S :    0.560962
  47 N :   -0.290146
  48 C :   -0.127241
  49 C :   -0.053561
  50 C :    0.031904
  51 C :   -0.097782
  52 S :    0.210723
  53 C :   -0.073392
  54 C :   -0.006848
  55 C :    0.308636
  56 C :   -0.289808
  57 C :   -0.185033
  58 N :    0.168549
  59 C :   -0.185427
  60 N :    0.177157
  61 C :    0.002925
  62 C :   -0.107961
  63 S :    0.212587
  64 C :    0.085300
  65 C :   -0.143535
  66 C :    0.136066
  67 O :   -0.143446
  68 C :    0.019337
  69 C :   -0.085687
  70 C :    0.115431
  71 C :    0.111746
  72 C :   -0.108346
  73 C :    0.243011
  74 C :    0.239640
  75 C :   -0.107026
  76 F :   -0.171724
  77 F :   -0.170828
  78 C :   -0.080355
  79 C :    0.032020
  80 C :    0.267361
  81 C :   -0.324219
  82 C :   -0.205439
  83 N :    0.166998
  84 C :   -0.168034
  85 N :    0.159560
  86 H :    0.009838
  87 H :   -0.000475
  88 H :   -0.004314
  89 H :   -0.010551
  90 H :    0.021651
  91 H :    0.028633
  92 H :    0.025589
  93 H :    0.003343
  94 H :    0.024197
  95 H :    0.024264
  96 H :    0.019907
  97 H :   -0.008743
  98 H :    0.007977
  99 H :    0.000142
 100 H :    0.003495
Sum of atomic charges:   -0.0000000

LOEWDIN ATOMIC CHARGES
----------------------
   0 C :   -0.028426
   1 C :    0.067592
   2 F :   -0.047106
   3 C :    0.068446
   4 F :   -0.048137
   5 C :   -0.033335
   6 C :   -0.009117
   7 C :   -0.005809
   8 C :    0.018888
   9 C :   -0.021682
  10 C :   -0.053055
  11 C :    0.030477
  12 C :    0.085945
  13 O :   -0.175665
  14 C :   -0.110271
  15 C :    0.075293
  16 C :   -0.138167
  17 C :   -0.024270
  18 N :   -0.044972
  19 C :   -0.017576
  20 N :   -0.050631
  21 C :    0.058328
  22 C :   -0.182373
  23 C :    0.013667
  24 C :   -0.074564
  25 C :   -0.168568
  26 S :    0.550623
  27 C :   -0.180948
  28 C :   -0.056545
  29 C :    0.075942
  30 C :   -0.095783
  31 C :   -0.017639
  32 N :   -0.025750
  33 C :   -0.019746
  34 N :   -0.022191
  35 C :   -0.014737
  36 C :   -0.153556
  37 S :    0.481883
  38 C :   -0.030896
  39 C :   -0.044418
  40 C :    0.088379
  41 F :   -0.061069
  42 C :   -0.073182
  43 C :   -0.033113
  44 C :   -0.043678
  45 N :   -0.270972
  46 S :    0.680381
  47 N :   -0.275210
  48 C :   -0.158775
  49 C :   -0.016230
  50 C :   -0.059716
  51 C :   -0.189381
  52 S :    0.496355
  53 C :   -0.157504
  54 C :   -0.065678
  55 C :    0.081747
  56 C :   -0.096800
  57 C :   -0.012710
  58 N :   -0.032386
  59 C :   -0.016871
  60 N :   -0.027889
  61 C :    0.013520
  62 C :   -0.180762
  63 S :    0.499643
  64 C :    0.043142
  65 C :   -0.094184
  66 C :    0.083049
  67 O :   -0.144153
  68 C :   -0.054617
  69 C :    0.030421
  70 C :   -0.009567
  71 C :   -0.005307
  72 C :   -0.029196
  73 C :    0.067293
  74 C :    0.066979
  75 C :   -0.033234
  76 F :   -0.049488
  77 F :   -0.048367
  78 C :    0.016618
  79 C :   -0.019796
  80 C :    0.064971
  81 C :   -0.136567
  82 C :   -0.016084
  83 N :   -0.044875
  84 C :   -0.018500
  85 N :   -0.045460
  86 H :    0.048589
  87 H :    0.044806
  88 H :    0.040684
  89 H :    0.040067
  90 H :    0.054588
  91 H :    0.048563
  92 H :    0.041187
  93 H :    0.036447
  94 H :    0.039440
  95 H :    0.042744
  96 H :    0.045474
  97 H :    0.040591
  98 H :    0.048088
  99 H :    0.044779
 100 H :    0.041624

  Mayer bond orders larger than 0.100000
B(  0-C ,  1-C ) :   1.4386 B(  0-C ,  5-C ) :   0.1083 B(  0-C ,  7-C ) :   1.1907
B(  0-C , 86-H ) :   1.0065 B(  1-C ,  2-F ) :   1.1374 B(  1-C ,  3-C ) :   1.1921
B(  3-C ,  4-F ) :   1.1347 B(  3-C ,  5-C ) :   1.4425 B(  5-C ,  6-C ) :   1.1919
B(  5-C , 87-H ) :   1.0068 B(  6-C ,  7-C ) :   1.2564 B(  6-C , 11-C ) :   1.1884
B(  7-C ,  8-C ) :   1.2126 B(  8-C ,  9-C ) :   1.4561 B(  8-C , 88-H ) :   0.9893
B(  9-C , 10-C ) :   1.2214 B(  9-C , 15-C ) :   0.9816 B( 10-C , 11-C ) :   1.4674
B( 10-C , 12-C ) :   0.9613 B( 11-C , 89-H ) :   1.0167 B( 12-C , 13-O ) :   2.1103
B( 12-C , 14-C ) :   0.9865 B( 14-C , 15-C ) :   1.0734 B( 14-C , 21-C ) :   1.4884
B( 15-C , 16-C ) :   1.6349 B( 16-C , 17-C ) :   1.1406 B( 16-C , 19-C ) :   1.1463
B( 17-C , 18-N ) :   2.9699 B( 19-C , 20-N ) :   2.9623 B( 21-C , 22-C ) :   1.2715
B( 21-C , 90-H ) :   0.9423 B( 22-C , 23-C ) :   1.3224 B( 22-C , 26-S ) :   1.0712
B( 23-C , 24-C ) :   1.3386 B( 23-C , 91-H ) :   1.0086 B( 24-C , 25-C ) :   1.3531
B( 24-C , 29-C ) :   0.9819 B( 25-C , 26-S ) :   1.1279 B( 25-C , 27-C ) :   1.2010
B( 27-C , 28-C ) :   1.4271 B( 27-C , 37-S ) :   1.1245 B( 28-C , 29-C ) :   0.9976
B( 28-C , 35-C ) :   1.2495 B( 29-C , 30-C ) :   1.7205 B( 30-C , 31-C ) :   1.1350
B( 30-C , 33-C ) :   1.1343 B( 31-C , 32-N ) :   2.9886 B( 33-C , 34-N ) :   2.9946
B( 35-C , 36-C ) :   1.4742 B( 35-C , 92-H ) :   0.9841 B( 36-C , 37-S ) :   1.0992
B( 36-C , 38-C ) :   1.1302 B( 38-C , 39-C ) :   1.3856 B( 38-C , 42-C ) :   0.1130
B( 38-C , 44-C ) :   1.1882 B( 39-C , 40-C ) :   1.2592 B( 39-C , 93-H ) :   0.9906
B( 40-C , 41-F ) :   1.0872 B( 40-C , 42-C ) :   1.3762 B( 42-C , 43-C ) :   1.1742
B( 42-C , 48-C ) :   1.1196 B( 43-C , 44-C ) :   1.1549 B( 43-C , 47-N ) :   1.5300
B( 44-C , 45-N ) :   1.5336 B( 45-N , 46-S ) :   1.2733 B( 45-N , 47-N ) :   0.1416
B( 46-S , 47-N ) :   1.2652 B( 48-C , 49-C ) :   1.4626 B( 48-C , 52-S ) :   1.1064
B( 49-C , 50-C ) :   1.2699 B( 49-C , 94-H ) :   0.9828 B( 50-C , 51-C ) :   1.4221
B( 50-C , 55-C ) :   0.9980 B( 51-C , 52-S ) :   1.1064 B( 51-C , 53-C ) :   1.1957
B( 53-C , 54-C ) :   1.4060 B( 53-C , 63-S ) :   1.1591 B( 54-C , 55-C ) :   0.9950
B( 54-C , 61-C ) :   1.3681 B( 55-C , 56-C ) :   1.7168 B( 56-C , 57-C ) :   1.1327
B( 56-C , 59-C ) :   1.1373 B( 57-C , 58-N ) :   2.9825 B( 59-C , 60-N ) :   2.9875
B( 61-C , 62-C ) :   1.3798 B( 61-C , 95-H ) :   0.9776 B( 62-C , 63-S ) :   1.0858
B( 62-C , 64-C ) :   1.1587 B( 64-C , 65-C ) :   1.6535 B( 64-C , 96-H ) :   0.9241
B( 65-C , 66-C ) :   0.9463 B( 65-C , 80-C ) :   1.0427 B( 66-C , 67-O ) :   2.2645
B( 66-C , 68-C ) :   0.9177 B( 68-C , 69-C ) :   1.4742 B( 68-C , 79-C ) :   1.2212
B( 69-C , 70-C ) :   1.1926 B( 69-C , 97-H ) :   1.0170 B( 70-C , 71-C ) :   1.2569
B( 70-C , 75-C ) :   1.1925 B( 71-C , 72-C ) :   1.1897 B( 71-C , 78-C ) :   1.2144
B( 72-C , 73-C ) :   1.4421 B( 72-C , 75-C ) :   0.1087 B( 72-C , 98-H ) :   1.0073
B( 73-C , 74-C ) :   1.1919 B( 73-C , 77-F ) :   1.1340 B( 74-C , 75-C ) :   1.4430
B( 74-C , 76-F ) :   1.1336 B( 75-C , 99-H ) :   1.0073 B( 78-C , 79-C ) :   1.4606
B( 78-C ,100-H ) :   0.9945 B( 79-C , 80-C ) :   0.9930 B( 80-C , 81-C ) :   1.6490
B( 81-C , 82-C ) :   1.1708 B( 81-C , 84-C ) :   1.1274 B( 82-C , 83-N ) :   2.9923
B( 84-C , 85-N ) :   2.9913

-----------------------------------------------------------------------------
         ABSORPTION SPECTRUM VIA TRANSITION ELECTRIC DIPOLE MOMENTS
-----------------------------------------------------------------------------
State   Energy  Wavelength   fosc         T2         TX        TY        TZ
        (cm-1)    (nm)                  (au**2)     (au)      (au)      (au)
-----------------------------------------------------------------------------
   0   13287.3    752.6   1.036587027  25.68299  -0.04073   4.92572   1.19105
   1   14581.1    685.8   0.127457899   2.87774   0.58905  -1.58908   0.07473
   2   18629.6    536.8   1.468498184  25.95054   0.09959  -4.97061  -1.11071
   3   20931.7    477.7   0.083153140   1.30783   0.81459  -0.54132   0.59265
   4   21618.7    462.6   0.143286811   2.18199  -0.60707   1.34452  -0.07559
   5   22891.5    436.8   0.177859035   2.55786  -0.94924   1.20184  -0.46086
   6   24024.0    416.3   0.038918069   0.53331  -0.40671   0.58627  -0.15552
   7   26127.9    382.7   0.023788728   0.29974  -0.45540  -0.30138   0.03902
   8   26421.7    378.5   0.022659309   0.28233  -0.37706   0.31407  -0.20375
   9   27375.1    365.3   0.071485667   0.85968   0.71710  -0.16694   0.56355
  10   27772.0    360.1   0.034270882   0.40625   0.39126  -0.20994   0.45726
  11   28105.6    355.8   0.016946200   0.19850   0.14998  -0.39048   0.15339
  12   28159.4    355.1   0.015373009   0.17973   0.31786  -0.03783   0.27795
  13   28539.7    350.4   0.028516205   0.32894   0.36242  -0.04284   0.44244
  14   28998.2    344.8   0.134790032   1.53025   0.41015   0.98016   0.63349
  15   29114.3    343.5   0.044470561   0.50285  -0.46559  -0.27393  -0.45939
  16   29365.1    340.5   0.069442154   0.77852   0.32664   0.19366   0.79644
  17   29728.4    336.4   0.182620844   2.02234   0.63207  -1.14912   0.54988
  18   29797.2    335.6   0.195293427   2.15769   0.54785  -0.15906   1.35361
  19   30040.2    332.9   0.243878455   2.67268  -1.26071  -0.67440  -0.79277
  20   30247.6    330.6   0.332643319   3.62045   0.21118   1.48299  -1.17328
  21   30823.0    324.4   0.040616234   0.43381  -0.25431  -0.60192   0.08263
  22   31398.1    318.5   0.193576486   2.02967  -0.34401  -1.14721  -0.77152
  23   31906.2    313.4   0.224453013   2.31593  -0.40171   1.46164  -0.13478
  24   32359.5    309.0   0.379845316   3.86439   1.00911   1.57425   0.60648
  25   32499.2    307.7   0.098593842   0.99874  -0.49451   0.38930  -0.77630
  26   32735.0    305.5   0.051313313   0.51605   0.55147   0.46028   0.00824
  27   33026.3    302.8   0.636183428   6.34158  -1.57787   1.22246  -1.53541
  28   33435.2    299.1   0.168721298   1.66128  -0.69644  -1.03479  -0.32475
  29   33671.5    297.0   0.167362931   1.63634  -0.53670  -1.03853  -0.51937
  30   33688.8    296.8   0.089702396   0.87658   0.15410   0.87035   0.30876
  31   33970.5    294.4   0.060486668   0.58618  -0.59933  -0.36227  -0.30944
  32   34107.2    293.2   0.221733793   2.14024   0.49802  -0.26316   1.35017
  33   34315.0    291.4   0.245816831   2.35832   0.79362  -1.07073   0.76290
  34   34595.9    289.1   0.088608387   0.84319  -0.32210  -0.61182  -0.60425
  35   34733.0    287.9   0.145900048   1.38289   0.29127   0.33312   1.08954
  36   34972.9    285.9   0.208650506   1.96410  -0.30450  -0.62285   1.21796
  37   35331.2    283.0   0.270898835   2.52420  -1.19729  -0.71434  -0.76186
  38   35442.4    282.1   0.127063447   1.18025   0.62161   0.11689   0.88328
  39   35608.3    280.8   0.095498954   0.88292   0.65760  -0.25939   0.61903
  40   35870.4    278.8   0.032895809   0.30191  -0.19150  -0.37767  -0.35015
  41   36103.8    277.0   0.100013685   0.91197   0.70810  -0.32931   0.54966
  42   36141.2    276.7   0.097230460   0.88568  -0.47937   0.04673  -0.80852
  43   36310.1    275.4   0.033727317   0.30579  -0.05734  -0.29863   0.46187
  44   36634.0    273.0   0.171477692   1.54099   0.46125   1.14024   0.16762
  45   36852.1    271.4   0.166453306   1.48698   0.50979   0.83027   0.73331
  46   37097.1    269.6   0.047084358   0.41784  -0.46251  -0.21767  -0.39566
  47   37271.9    268.3   0.024263534   0.21431   0.33649  -0.22976  -0.21977
  48   37489.7    266.7   0.005980517   0.05252  -0.02983  -0.00894  -0.22704
  49   37541.6    266.4   0.020286871   0.17790  -0.09671  -0.38393  -0.14543
  50   37846.1    264.2   0.009738016   0.08471  -0.13574  -0.05932  -0.25053
  51   37894.6    263.9   0.022853480   0.19854  -0.25767  -0.15495  -0.32885
  52   38074.9    262.6   0.010518415   0.09095   0.07163   0.13562   0.25966
  53   38424.9    260.2   0.112579254   0.96454   0.17033   0.90323   0.34599
  54   38519.7    259.6   0.008581108   0.07334   0.15754  -0.11643  -0.18699
  55   38772.7    257.9   0.127348484   1.08129   0.20572  -0.98558  -0.26002
  56   38902.5    257.1   0.009512368   0.08050   0.23894  -0.15285   0.00640
  57   39074.0    255.9   0.014293171   0.12042   0.06974   0.18713  -0.28380
  58   39443.8    253.5   0.025011402   0.20875  -0.22827   0.38091  -0.10750
  59   39460.7    253.4   0.111502073   0.93024  -0.41157   0.12582  -0.86314
  60   39798.6    251.3   0.030697649   0.25393   0.10090  -0.42633   0.24897
  61   39890.4    250.7   0.057939181   0.47817   0.16799  -0.65229  -0.15639
  62   40004.7    250.0   0.065865371   0.54203   0.48441  -0.25217   0.49375
  63   40071.1    249.6   0.043045728   0.35365   0.09340   0.46042   0.36461

FINAL SINGLE POINT ENERGY     -5630.681086177461

DIPOLE MOMENT
-------------
                                X             Y             Z
Electronic contribution:     -5.12381      -3.24526      -5.18897
Nuclear contribution   :      2.64045       3.84434       2.04552
                        -----------------------------------------
Total Dipole Moment    :     -2.48336       0.59908      -3.14345
                        -----------------------------------------
Magnitude (a.u.)       :      4.05059
Magnitude (Debye)      :     10.29577

Rotational constants in cm-1:     0.001324     0.000128     0.000120
Rotational constants in MHz :    39.700803     3.847723     3.587310

                             ****ORCA TERMINATED NORMALLY****
TOTAL RUN TIME: 0 days 0 hours 12 minutes 21 seconds 718 msec
