                         Program Version 4.2.0 -  RELEASE  -
|  1> # ORCA input file
|  2> # SCF done       -204.368241716577          0.000774460752
|  3> ! CAM-B3LYP def2-SVP def2/J RIJCOSX Grid4 TightSCF
|  4> %maxcore 5000
|  5> %tddft
|  6>     Mode sTDDFT
|  7>     Ethresh 5.0
|  8>     maxcore 5000
|  9> end
| 10>
| 11> %pal
| 12>   nprocs 6
| 13>   end
| 14> * xyz 0 1
| 15>    C        3.28315        -0.74659        -0.99120
| 16>    O        3.34685        -1.79950        -1.58519
| 17>    C        4.14547         0.42935        -1.22978
| 18>    C        3.80210         1.46299        -0.34272
| 19>    C        4.49666         2.66128        -0.38947
| 20>    C        5.51749         2.80361        -1.32229
| 21>    C        5.84838         1.76936        -2.20206
| 22>    C        5.15727         0.56582        -2.15733
| 23>   Br        7.23947         1.99213        -3.46009
| 24>   Br        6.46550         4.43770        -1.38161
| 25>    C        2.69646         1.01275         0.49934
| 26>    C        2.04720         1.79031         1.42093
| 27>    C        2.39937         3.12686         1.71361
| 28>    N        2.63534         4.21225         2.00051
| 29>    C        0.93130         1.40771         2.19727
| 30>    N        0.01923         1.18664         2.85891
| 31>    C        2.39583        -0.36394         0.13307
| 32>    C        1.51377        -1.15715         0.81531
| 33>    C        1.06376        -2.47038         0.57462
| 34>    C        1.21260        -3.34260        -0.49829
| 35>    C        0.55450        -4.54606        -0.28778
| 36>    C       -0.10417        -4.60693         0.96072
| 37>    S        0.06734        -3.17691         1.85695
| 38>    C       -0.70690        -5.88251         1.08943
| 39>    C       -0.43740        -6.62677        -0.07297
| 40>    C        0.35534        -5.81130        -0.98092
| 41>    C        0.80894        -6.15780        -2.21785
| 42>    C        0.57210        -7.43476        -2.77383
| 43>    N        0.39311        -8.47141        -3.22860
| 44>    C        1.53894        -5.27461        -3.04481
| 45>    N        2.11590        -4.57495        -3.74503
| 46>    C       -0.98797        -7.90719        -0.03189
| 47>    C       -1.66032        -8.14500         1.15444
| 48>    S       -1.61257        -6.75807         2.23175
| 49>    C       -2.33368        -9.35420         1.55848
| 50>    C       -2.65496        -9.62441         2.89807
| 51>    F       -2.35439        -8.72725         3.84879
| 52>    C       -3.25990       -10.79972         3.29805
| 53>    F       -3.51367       -10.95460         4.60608
| 54>    C       -3.61952       -11.81267         2.39598
| 55>    C       -3.32071       -11.53502         1.05201
| 56>    C       -2.70703       -10.36078         0.65207
| 57>    F       -2.48446       -10.20097        -0.65662
| 58>    F       -3.60743       -12.43244         0.10334
| 59>    C       -4.22769       -13.04781         2.82452
| 60>    C       -4.92883       -13.96155         2.05773
| 61>    C       -5.33580       -15.06624         2.80554
| 62>    C       -4.92985       -14.99117         4.14962
| 63>    S       -4.07988       -13.56132         4.49812
| 64>    C       -5.35526       -16.16744         4.81522
| 65>    C       -6.03865       -16.98495         3.89451
| 66>    C       -6.05815       -16.31294         2.60285
| 67>    C       -6.64313       -16.75585         1.45467
| 68>    C       -7.33043       -17.98784         1.39187
| 69>    N       -7.89521       -18.98380         1.34274
| 70>    C       -6.62259       -16.00687         0.25758
| 71>    N       -6.62189       -15.39637        -0.71215
| 72>    C       -6.49243       -18.16963         4.46393
| 73>    C       -6.12632       -18.28625         5.79739
| 74>    S       -5.25796       -16.86115         6.36369
| 75>    C       -6.47077       -19.35651         6.65491
| 76>    C       -5.93880       -19.71180         7.85575
| 77>    C       -6.73970       -20.55303         8.78899
| 78>    O       -7.74135       -21.17394         8.53110
| 79>    C       -6.07298       -20.40052        10.10174
| 80>    C       -4.89202       -19.65025         9.94705
| 81>    C       -4.70724       -19.35222         8.52863
| 82>    C       -3.50573       -19.07910         7.93194
| 83>    C       -3.31574       -19.09651         6.53393
| 84>    N       -3.12461       -19.14552         5.40352
| 85>    C       -2.31238       -18.84190         8.64565
| 86>    N       -1.32501       -18.62391         9.18726
| 87>    C       -4.11428       -19.34860        11.05129
| 88>    C       -4.52491       -19.80859        12.29752
| 89>    C       -5.68944       -20.56772        12.44172
| 90>    C       -6.47530       -20.86764        11.33582
| 91>   Br       -6.21493       -21.19330        14.14508
| 92>   Br       -3.47646       -19.38394        13.81079
| 93>    H        4.27492         3.48202         0.27286
| 94>    H        5.39992        -0.24310        -2.82900
| 95>    H        1.08289        -0.72496         1.71092
| 96>    H        1.78708        -3.09288        -1.37193
| 97>    H       -0.88555        -8.63103        -0.81822
| 98>    H       -5.14236       -13.82830         1.01381
| 99>    H       -7.03490       -18.93971         3.94577
|100>    H       -7.33684       -19.93546         6.34673
|101>    H       -3.21295       -18.76177        10.97359
|102>    H       -7.37686       -21.45152        11.43779
|103> *
|104>
|105>                          ****END OF INPUT****

CARTESIAN COORDINATES (ANGSTROEM)
---------------------------------
  C      3.283150   -0.746590   -0.991200
  O      3.346850   -1.799500   -1.585190
  C      4.145470    0.429350   -1.229780
  C      3.802100    1.462990   -0.342720
  C      4.496660    2.661280   -0.389470
  C      5.517490    2.803610   -1.322290
  C      5.848380    1.769360   -2.202060
  C      5.157270    0.565820   -2.157330
  Br     7.239470    1.992130   -3.460090
  Br     6.465500    4.437700   -1.381610
  C      2.696460    1.012750    0.499340
  C      2.047200    1.790310    1.420930
  C      2.399370    3.126860    1.713610
  N      2.635340    4.212250    2.000510
  C      0.931300    1.407710    2.197270
  N      0.019230    1.186640    2.858910
  C      2.395830   -0.363940    0.133070
  C      1.513770   -1.157150    0.815310
  C      1.063760   -2.470380    0.574620
  C      1.212600   -3.342600   -0.498290
  C      0.554500   -4.546060   -0.287780
  C     -0.104170   -4.606930    0.960720
  S      0.067340   -3.176910    1.856950
  C     -0.706900   -5.882510    1.089430
  C     -0.437400   -6.626770   -0.072970
  C      0.355340   -5.811300   -0.980920
  C      0.808940   -6.157800   -2.217850
  C      0.572100   -7.434760   -2.773830
  N      0.393110   -8.471410   -3.228600
  C      1.538940   -5.274610   -3.044810
  N      2.115900   -4.574950   -3.745030
  C     -0.987970   -7.907190   -0.031890
  C     -1.660320   -8.145000    1.154440
  S     -1.612570   -6.758070    2.231750
  C     -2.333680   -9.354200    1.558480
  C     -2.654960   -9.624410    2.898070
  F     -2.354390   -8.727250    3.848790
  C     -3.259900  -10.799720    3.298050
  F     -3.513670  -10.954600    4.606080
  C     -3.619520  -11.812670    2.395980
  C     -3.320710  -11.535020    1.052010
  C     -2.707030  -10.360780    0.652070
  F     -2.484460  -10.200970   -0.656620
  F     -3.607430  -12.432440    0.103340
  C     -4.227690  -13.047810    2.824520
  C     -4.928830  -13.961550    2.057730
  C     -5.335800  -15.066240    2.805540
  C     -4.929850  -14.991170    4.149620
  S     -4.079880  -13.561320    4.498120
  C     -5.355260  -16.167440    4.815220
  C     -6.038650  -16.984950    3.894510
  C     -6.058150  -16.312940    2.602850
  C     -6.643130  -16.755850    1.454670
  C     -7.330430  -17.987840    1.391870
  N     -7.895210  -18.983800    1.342740
  C     -6.622590  -16.006870    0.257580
  N     -6.621890  -15.396370   -0.712150
  C     -6.492430  -18.169630    4.463930
  C     -6.126320  -18.286250    5.797390
  S     -5.257960  -16.861150    6.363690
  C     -6.470770  -19.356510    6.654910
  C     -5.938800  -19.711800    7.855750
  C     -6.739700  -20.553030    8.788990
  O     -7.741350  -21.173940    8.531100
  C     -6.072980  -20.400520   10.101740
  C     -4.892020  -19.650250    9.947050
  C     -4.707240  -19.352220    8.528630
  C     -3.505730  -19.079100    7.931940
  C     -3.315740  -19.096510    6.533930
  N     -3.124610  -19.145520    5.403520
  C     -2.312380  -18.841900    8.645650
  N     -1.325010  -18.623910    9.187260
  C     -4.114280  -19.348600   11.051290
  C     -4.524910  -19.808590   12.297520
  C     -5.689440  -20.567720   12.441720
  C     -6.475300  -20.867640   11.335820
  Br    -6.214930  -21.193300   14.145080
  Br    -3.476460  -19.383940   13.810790
  H      4.274920    3.482020    0.272860
  H      5.399920   -0.243100   -2.829000
  H      1.082890   -0.724960    1.710920
  H      1.787080   -3.092880   -1.371930
  H     -0.885550   -8.631030   -0.818220
  H     -5.142360  -13.828300    1.013810
  H     -7.034900  -18.939710    3.945770
  H     -7.336840  -19.935460    6.346730
  H     -3.212950  -18.761770   10.973590
  H     -7.376860  -21.451520   11.437790

 Total Charge           Charge          ....    0
 Multiplicity           Mult            ....    1
 Number of Electrons    NEL             ....  658
 Basis Dimension        Dim             .... 1230

ORBITAL ENERGIES
----------------

  NO   OCC          E(Eh)            E(eV)
   0   2.0000    -482.883736    -13139.9345
   1   2.0000    -482.882925    -13139.9124
   2   2.0000    -482.880171    -13139.8375
   3   2.0000    -482.878573    -13139.7940
   4   2.0000     -89.007880     -2422.0275
   5   2.0000     -89.007697     -2422.0226
   6   2.0000     -89.007361     -2422.0134
   7   2.0000     -89.006575     -2421.9920
   8   2.0000     -62.561318     -1702.3800
   9   2.0000     -62.560571     -1702.3597
  10   2.0000     -62.557758     -1702.2831
  11   2.0000     -62.556212     -1702.2411
  12   2.0000     -56.395274     -1534.5934
  13   2.0000     -56.394538     -1534.5734
  14   2.0000     -56.392613     -1534.5210
  15   2.0000     -56.392516     -1534.5184
  16   2.0000     -56.391855     -1534.5004
  17   2.0000     -56.391762     -1534.4979
  18   2.0000     -56.391711     -1534.4965
  19   2.0000     -56.390176     -1534.4547
  20   2.0000     -56.389059     -1534.4243
  21   2.0000     -56.388951     -1534.4214
  22   2.0000     -56.387499     -1534.3819
  23   2.0000     -56.387402     -1534.3792
  24   2.0000     -24.832954      -675.7390
  25   2.0000     -24.832123      -675.7164
  26   2.0000     -24.824785      -675.5167
  27   2.0000     -24.824656      -675.5132
  28   2.0000     -19.232426      -523.3409
  29   2.0000     -19.231135      -523.3058
  30   2.0000     -14.441010      -392.9599
  31   2.0000     -14.440576      -392.9481
  32   2.0000     -14.439710      -392.9245
  33   2.0000     -14.436767      -392.8444
  34   2.0000     -14.430054      -392.6617
  35   2.0000     -14.429666      -392.6512
  36   2.0000     -14.429342      -392.6423
  37   2.0000     -14.424256      -392.5040
  38   2.0000     -10.407628      -283.2060
  39   2.0000     -10.407081      -283.1911
  40   2.0000     -10.406256      -283.1686
  41   2.0000     -10.405763      -283.1552
  42   2.0000     -10.383603      -282.5522
  43   2.0000     -10.383047      -282.5371
  44   2.0000     -10.378222      -282.4058
  45   2.0000     -10.377192      -282.3778
  46   2.0000     -10.365281      -282.0536
  47   2.0000     -10.363516      -282.0056
  48   2.0000     -10.362293      -281.9723
  49   2.0000     -10.361612      -281.9538
  50   2.0000     -10.361284      -281.9449
  51   2.0000     -10.359351      -281.8923
  52   2.0000     -10.358039      -281.8566
  53   2.0000     -10.357608      -281.8448
  54   2.0000     -10.356430      -281.8128
  55   2.0000     -10.355812      -281.7960
  56   2.0000     -10.355660      -281.7918
  57   2.0000     -10.354600      -281.7630
  58   2.0000     -10.351938      -281.6906
  59   2.0000     -10.350830      -281.6604
  60   2.0000     -10.350128      -281.6413
  61   2.0000     -10.349710      -281.6299
  62   2.0000     -10.347441      -281.5682
  63   2.0000     -10.347357      -281.5659
  64   2.0000     -10.340855      -281.3890
  65   2.0000     -10.340707      -281.3849
  66   2.0000     -10.340123      -281.3691
  67   2.0000     -10.339802      -281.3603
  68   2.0000     -10.339282      -281.3462
  69   2.0000     -10.339173      -281.3432
  70   2.0000     -10.338492      -281.3247
  71   2.0000     -10.335592      -281.2458
  72   2.0000     -10.331792      -281.1424
  73   2.0000     -10.331776      -281.1419
  74   2.0000     -10.331129      -281.1243
  75   2.0000     -10.328017      -281.0396
  76   2.0000     -10.326716      -281.0042
  77   2.0000     -10.325359      -280.9673
  78   2.0000     -10.322940      -280.9015
  79   2.0000     -10.321767      -280.8696
  80   2.0000     -10.321207      -280.8543
  81   2.0000     -10.320676      -280.8399
  82   2.0000     -10.320301      -280.8297
  83   2.0000     -10.320231      -280.8278
  84   2.0000     -10.319468      -280.8070
  85   2.0000     -10.319074      -280.7963
  86   2.0000     -10.318945      -280.7928
  87   2.0000     -10.316867      -280.7362
  88   2.0000     -10.315820      -280.7077
  89   2.0000     -10.315596      -280.7016
  90   2.0000     -10.313989      -280.6579
  91   2.0000     -10.313705      -280.6502
  92   2.0000     -10.313321      -280.6397
  93   2.0000     -10.308250      -280.5017
  94   2.0000      -8.790635      -239.2053
  95   2.0000      -8.789915      -239.1857
  96   2.0000      -8.787072      -239.1084
  97   2.0000      -8.785554      -239.0671
  98   2.0000      -8.102039      -220.4677
  99   2.0000      -8.102017      -220.4671
 100   2.0000      -8.101756      -220.4600
 101   2.0000      -8.101350      -220.4489
 102   2.0000      -6.626759      -180.3233
 103   2.0000      -6.626118      -180.3058
 104   2.0000      -6.623199      -180.2264
 105   2.0000      -6.621746      -180.1869
 106   2.0000      -6.612762      -179.9424
 107   2.0000      -6.611996      -179.9215
 108   2.0000      -6.611967      -179.9208
 109   2.0000      -6.611217      -179.9003
 110   2.0000      -6.609222      -179.8461
 111   2.0000      -6.608383      -179.8232
 112   2.0000      -6.607641      -179.8030
 113   2.0000      -6.606864      -179.7819
 114   2.0000      -6.071346      -165.2097
 115   2.0000      -6.071248      -165.2071
 116   2.0000      -6.071038      -165.2013
 117   2.0000      -6.070410      -165.1842
 118   2.0000      -6.067029      -165.0922
 119   2.0000      -6.066914      -165.0891
 120   2.0000      -6.066643      -165.0817
 121   2.0000      -6.066304      -165.0725
 122   2.0000      -6.064483      -165.0230
 123   2.0000      -6.064419      -165.0212
 124   2.0000      -6.064153      -165.0140
 125   2.0000      -6.063939      -165.0082
 126   2.0000      -2.742703       -74.6328
 127   2.0000      -2.741996       -74.6135
 128   2.0000      -2.739147       -74.5360
 129   2.0000      -2.738878       -74.5287
 130   2.0000      -2.738283       -74.5125
 131   2.0000      -2.738243       -74.5114
 132   2.0000      -2.737609       -74.4941
 133   2.0000      -2.737586       -74.4935
 134   2.0000      -2.735335       -74.4322
 135   2.0000      -2.734709       -74.4152
 136   2.0000      -2.733879       -74.3926
 137   2.0000      -2.733237       -74.3752
 138   2.0000      -2.727136       -74.2091
 139   2.0000      -2.727124       -74.2088
 140   2.0000      -2.726386       -74.1887
 141   2.0000      -2.726370       -74.1883
 142   2.0000      -2.723581       -74.1124
 143   2.0000      -2.723573       -74.1122
 144   2.0000      -2.722035       -74.0703
 145   2.0000      -2.722014       -74.0698
 146   2.0000      -1.357072       -36.9278
 147   2.0000      -1.350396       -36.7462
 148   2.0000      -1.339742       -36.4562
 149   2.0000      -1.332420       -36.2570
 150   2.0000      -1.148643       -31.2562
 151   2.0000      -1.147520       -31.2256
 152   2.0000      -1.062124       -28.9019
 153   2.0000      -1.061201       -28.8768
 154   2.0000      -1.037308       -28.2266
 155   2.0000      -1.033605       -28.1258
 156   2.0000      -1.032904       -28.1067
 157   2.0000      -1.031493       -28.0683
 158   2.0000      -1.026128       -27.9224
 159   2.0000      -1.019400       -27.7393
 160   2.0000      -1.018512       -27.7151
 161   2.0000      -1.017092       -27.6765
 162   2.0000      -1.016374       -27.6569
 163   2.0000      -1.014776       -27.6135
 164   2.0000      -1.009028       -27.4571
 165   2.0000      -1.006017       -27.3751
 166   2.0000      -1.004882       -27.3442
 167   2.0000      -0.988028       -26.8856
 168   2.0000      -0.984317       -26.7846
 169   2.0000      -0.975642       -26.5486
 170   2.0000      -0.971330       -26.4312
 171   2.0000      -0.942301       -25.6413
 172   2.0000      -0.934887       -25.4396
 173   2.0000      -0.930444       -25.3187
 174   2.0000      -0.927040       -25.2260
 175   2.0000      -0.922364       -25.0988
 176   2.0000      -0.919241       -25.0138
 177   2.0000      -0.915908       -24.9231
 178   2.0000      -0.907871       -24.7044
 179   2.0000      -0.901094       -24.5200
 180   2.0000      -0.887503       -24.1502
 181   2.0000      -0.884261       -24.0620
 182   2.0000      -0.879444       -23.9309
 183   2.0000      -0.874218       -23.7887
 184   2.0000      -0.873073       -23.7575
 185   2.0000      -0.870932       -23.6993
 186   2.0000      -0.865164       -23.5423
 187   2.0000      -0.861810       -23.4511
 188   2.0000      -0.857558       -23.3354
 189   2.0000      -0.837900       -22.8004
 190   2.0000      -0.813831       -22.1455
 191   2.0000      -0.804814       -21.9001
 192   2.0000      -0.793341       -21.5879
 193   2.0000      -0.789715       -21.4892
 194   2.0000      -0.782552       -21.2943
 195   2.0000      -0.776635       -21.1333
 196   2.0000      -0.772441       -21.0192
 197   2.0000      -0.761757       -20.7285
 198   2.0000      -0.758404       -20.6372
 199   2.0000      -0.736438       -20.0395
 200   2.0000      -0.733012       -19.9463
 201   2.0000      -0.718849       -19.5609
 202   2.0000      -0.716846       -19.5064
 203   2.0000      -0.716211       -19.4891
 204   2.0000      -0.708411       -19.2768
 205   2.0000      -0.705387       -19.1945
 206   2.0000      -0.703337       -19.1388
 207   2.0000      -0.699362       -19.0306
 208   2.0000      -0.696449       -18.9513
 209   2.0000      -0.692513       -18.8442
 210   2.0000      -0.686491       -18.6804
 211   2.0000      -0.683553       -18.6004
 212   2.0000      -0.670962       -18.2578
 213   2.0000      -0.668744       -18.1975
 214   2.0000      -0.661218       -17.9927
 215   2.0000      -0.655575       -17.8391
 216   2.0000      -0.647696       -17.6247
 217   2.0000      -0.646617       -17.5953
 218   2.0000      -0.639341       -17.3973
 219   2.0000      -0.635543       -17.2940
 220   2.0000      -0.631710       -17.1897
 221   2.0000      -0.630731       -17.1631
 222   2.0000      -0.627281       -17.0692
 223   2.0000      -0.624422       -16.9914
 224   2.0000      -0.623458       -16.9652
 225   2.0000      -0.619679       -16.8623
 226   2.0000      -0.609574       -16.5874
 227   2.0000      -0.604415       -16.4470
 228   2.0000      -0.603364       -16.4184
 229   2.0000      -0.597301       -16.2534
 230   2.0000      -0.590272       -16.0621
 231   2.0000      -0.586951       -15.9718
 232   2.0000      -0.583178       -15.8691
 233   2.0000      -0.581072       -15.8118
 234   2.0000      -0.573435       -15.6040
 235   2.0000      -0.570888       -15.5346
 236   2.0000      -0.563001       -15.3200
 237   2.0000      -0.562385       -15.3033
 238   2.0000      -0.561047       -15.2669
 239   2.0000      -0.560488       -15.2517
 240   2.0000      -0.557830       -15.1793
 241   2.0000      -0.555731       -15.1222
 242   2.0000      -0.554418       -15.0865
 243   2.0000      -0.552731       -15.0406
 244   2.0000      -0.550975       -14.9928
 245   2.0000      -0.546616       -14.8742
 246   2.0000      -0.542042       -14.7497
 247   2.0000      -0.539345       -14.6763
 248   2.0000      -0.536587       -14.6013
 249   2.0000      -0.531382       -14.4596
 250   2.0000      -0.527130       -14.3439
 251   2.0000      -0.524446       -14.2709
 252   2.0000      -0.522445       -14.2164
 253   2.0000      -0.517067       -14.0701
 254   2.0000      -0.516209       -14.0468
 255   2.0000      -0.515130       -14.0174
 256   2.0000      -0.514969       -14.0130
 257   2.0000      -0.510716       -13.8973
 258   2.0000      -0.509667       -13.8688
 259   2.0000      -0.509153       -13.8547
 260   2.0000      -0.507793       -13.8178
 261   2.0000      -0.506202       -13.7745
 262   2.0000      -0.505767       -13.7626
 263   2.0000      -0.503619       -13.7042
 264   2.0000      -0.499832       -13.6011
 265   2.0000      -0.496329       -13.5058
 266   2.0000      -0.495591       -13.4857
 267   2.0000      -0.491641       -13.3782
 268   2.0000      -0.485026       -13.1982
 269   2.0000      -0.475261       -12.9325
 270   2.0000      -0.473064       -12.8727
 271   2.0000      -0.471164       -12.8210
 272   2.0000      -0.470828       -12.8119
 273   2.0000      -0.469995       -12.7892
 274   2.0000      -0.468932       -12.7603
 275   2.0000      -0.468000       -12.7349
 276   2.0000      -0.467070       -12.7096
 277   2.0000      -0.465422       -12.6648
 278   2.0000      -0.463355       -12.6085
 279   2.0000      -0.462381       -12.5820
 280   2.0000      -0.461938       -12.5700
 281   2.0000      -0.461236       -12.5509
 282   2.0000      -0.459947       -12.5158
 283   2.0000      -0.455988       -12.4081
 284   2.0000      -0.453790       -12.3483
 285   2.0000      -0.453125       -12.3302
 286   2.0000      -0.452244       -12.3062
 287   2.0000      -0.450548       -12.2600
 288   2.0000      -0.449774       -12.2390
 289   2.0000      -0.449555       -12.2330
 290   2.0000      -0.447543       -12.1783
 291   2.0000      -0.446993       -12.1633
 292   2.0000      -0.442588       -12.0434
 293   2.0000      -0.441007       -12.0004
 294   2.0000      -0.439092       -11.9483
 295   2.0000      -0.438431       -11.9303
 296   2.0000      -0.436827       -11.8867
 297   2.0000      -0.435953       -11.8629
 298   2.0000      -0.433641       -11.8000
 299   2.0000      -0.432963       -11.7815
 300   2.0000      -0.430087       -11.7033
 301   2.0000      -0.420616       -11.4455
 302   2.0000      -0.418888       -11.3985
 303   2.0000      -0.412177       -11.2159
 304   2.0000      -0.409909       -11.1542
 305   2.0000      -0.407520       -11.0892
 306   2.0000      -0.403665       -10.9843
 307   2.0000      -0.402112       -10.9420
 308   2.0000      -0.397041       -10.8040
 309   2.0000      -0.392979       -10.6935
 310   2.0000      -0.384805       -10.4711
 311   2.0000      -0.374989       -10.2040
 312   2.0000      -0.364978        -9.9316
 313   2.0000      -0.363259        -9.8848
 314   2.0000      -0.358304        -9.7500
 315   2.0000      -0.355606        -9.6765
 316   2.0000      -0.353637        -9.6230
 317   2.0000      -0.349953        -9.5227
 318   2.0000      -0.348590        -9.4856
 319   2.0000      -0.345691        -9.4067
 320   2.0000      -0.344754        -9.3812
 321   2.0000      -0.339536        -9.2392
 322   2.0000      -0.336152        -9.1472
 323   2.0000      -0.334268        -9.0959
 324   2.0000      -0.326724        -8.8906
 325   2.0000      -0.320145        -8.7116
 326   2.0000      -0.316637        -8.6161
 327   2.0000      -0.289677        -7.8825
 328   2.0000      -0.272554        -7.4166
 329   0.0000      -0.127037        -3.4569
 330   0.0000      -0.120802        -3.2872
 331   0.0000      -0.099581        -2.7097
 332   0.0000      -0.098571        -2.6822
 333   0.0000      -0.078314        -2.1310

MULLIKEN ATOMIC CHARGES
-----------------------
   0 C :    0.158133
   1 O :   -0.139092
   2 C :   -0.016605
   3 C :    0.033848
   4 C :   -0.006804
   5 C :   -0.025455
   6 C :   -0.017397
   7 C :   -0.016797
   8 Br:    0.020041
   9 Br:    0.024791
  10 C :    0.307973
  11 C :   -0.344573
  12 C :   -0.186632
  13 N :    0.163635
  14 C :   -0.191278
  15 N :    0.154411
  16 C :   -0.089697
  17 C :    0.037934
  18 C :   -0.114409
  19 C :   -0.003454
  20 C :   -0.002222
  21 C :   -0.083976
  22 S :    0.212411
  23 C :   -0.102100
  24 C :    0.017257
  25 C :    0.309404
  26 C :   -0.294134
  27 C :   -0.193081
  28 N :    0.183816
  29 C :   -0.190216
  30 N :    0.196001
  31 C :   -0.044548
  32 C :   -0.090167
  33 S :    0.223355
  34 C :    0.016176
  35 C :    0.157987
  36 F :   -0.168934
  37 C :    0.154594
  38 F :   -0.169700
  39 C :    0.009277
  40 C :    0.173650
  41 C :    0.166199
  42 F :   -0.157002
  43 F :   -0.155999
  44 C :   -0.093302
  45 C :   -0.032012
  46 C :    0.009545
  47 C :   -0.098226
  48 S :    0.223777
  49 C :   -0.080280
  50 C :    0.028706
  51 C :    0.301576
  52 C :   -0.289014
  53 C :   -0.190372
  54 N :    0.182703
  55 C :   -0.187675
  56 N :    0.182923
  57 C :    0.004378
  58 C :   -0.094601
  59 S :    0.209403
  60 C :    0.049883
  61 C :   -0.135963
  62 C :    0.141943
  63 O :   -0.129892
  64 C :    0.001004
  65 C :    0.018764
  66 C :    0.239926
  67 C :   -0.314322
  68 C :   -0.207651
  69 N :    0.178099
  70 C :   -0.176908
  71 N :    0.166281
  72 C :   -0.006978
  73 C :   -0.022646
  74 C :   -0.018022
  75 C :   -0.018382
  76 Br:    0.019736
  77 Br:    0.024958
  78 H :    0.008343
  79 H :    0.011455
  80 H :    0.009624
  81 H :    0.039904
  82 H :    0.023300
  83 H :    0.022375
  84 H :    0.021834
  85 H :    0.037263
  86 H :    0.011587
  87 H :    0.010333
Sum of atomic charges:   -0.0000000

LOEWDIN ATOMIC CHARGES
----------------------
   0 C :    0.087062
   1 O :   -0.127615
   2 C :   -0.041543
   3 C :   -0.013224
   4 C :   -0.006566
   5 C :   -0.118394
   6 C :   -0.121663
   7 C :    0.008473
   8 Br:    0.142037
   9 Br:    0.143617
  10 C :    0.075325
  11 C :   -0.134408
  12 C :   -0.020049
  13 N :   -0.042306
  14 C :   -0.023546
  15 N :   -0.046666
  16 C :   -0.096981
  17 C :    0.043988
  18 C :   -0.175657
  19 C :    0.018888
  20 C :   -0.070279
  21 C :   -0.160424
  22 S :    0.502343
  23 C :   -0.189305
  24 C :   -0.057572
  25 C :    0.073087
  26 C :   -0.089352
  27 C :   -0.017999
  28 N :   -0.022524
  29 C :   -0.022529
  30 N :   -0.012222
  31 C :   -0.017813
  32 C :   -0.162268
  33 S :    0.505376
  34 C :   -0.078523
  35 C :    0.054236
  36 F :   -0.045730
  37 C :    0.053909
  38 F :   -0.046182
  39 C :   -0.078306
  40 C :    0.067117
  41 C :    0.067221
  42 F :   -0.029953
  43 F :   -0.029994
  44 C :   -0.163795
  45 C :   -0.015862
  46 C :   -0.059227
  47 C :   -0.185465
  48 S :    0.507190
  49 C :   -0.153272
  50 C :   -0.068089
  51 C :    0.077870
  52 C :   -0.092346
  53 C :   -0.017215
  54 N :   -0.023683
  55 C :   -0.018547
  56 N :   -0.021791
  57 C :    0.015943
  58 C :   -0.178176
  59 S :    0.513288
  60 C :    0.054270
  61 C :   -0.101474
  62 C :    0.084099
  63 O :   -0.130575
  64 C :   -0.043608
  65 C :   -0.010073
  66 C :    0.058726
  67 C :   -0.136979
  68 C :   -0.037210
  69 N :   -0.041334
  70 C :   -0.022877
  71 N :   -0.039211
  72 C :   -0.009022
  73 C :   -0.117873
  74 C :   -0.122630
  75 C :    0.008525
  76 Br:    0.141672
  77 Br:    0.144878
  78 H :    0.044810
  79 H :    0.048314
  80 H :    0.043003
  81 H :    0.043998
  82 H :    0.041208
  83 H :    0.041587
  84 H :    0.048400
  85 H :    0.056858
  86 H :    0.044837
  87 H :    0.047771

  Mayer bond orders larger than 0.100000
B(  0-C ,  1-O ) :   2.1832 B(  0-C ,  2-C ) :   0.9526 B(  0-C , 16-C ) :   0.9400
B(  2-C ,  3-C ) :   1.3293 B(  2-C ,  7-C ) :   1.3700 B(  3-C ,  4-C ) :   1.3633
B(  3-C , 10-C ) :   0.9886 B(  4-C ,  5-C ) :   1.3713 B(  4-C , 78-H ) :   0.9786
B(  5-C ,  6-C ) :   1.4192 B(  5-C ,  9-Br) :   1.0599 B(  6-C ,  7-C ) :   1.3508
B(  6-C ,  8-Br) :   1.0379 B(  7-C , 79-H ) :   1.0082 B( 10-C , 11-C ) :   1.6366
B( 10-C , 16-C ) :   1.0804 B( 11-C , 12-C ) :   1.1414 B( 11-C , 14-C ) :   1.1376
B( 12-C , 13-N ) :   2.9715 B( 14-C , 15-N ) :   2.9704 B( 16-C , 17-C ) :   1.5981
B( 17-C , 18-C ) :   1.2147 B( 17-C , 80-H ) :   0.9097 B( 18-C , 19-C ) :   1.3965
B( 18-C , 22-S ) :   1.0799 B( 19-C , 20-C ) :   1.3164 B( 19-C , 81-H ) :   0.9716
B( 20-C , 21-C ) :   1.3888 B( 20-C , 25-C ) :   0.9925 B( 21-C , 22-S ) :   1.1696
B( 21-C , 23-C ) :   1.1969 B( 23-C , 24-C ) :   1.4274 B( 23-C , 33-S ) :   1.1173
B( 24-C , 25-C ) :   0.9935 B( 24-C , 31-C ) :   1.2937 B( 25-C , 26-C ) :   1.7228
B( 26-C , 27-C ) :   1.1354 B( 26-C , 29-C ) :   1.1342 B( 27-C , 28-N ) :   2.9910
B( 29-C , 30-N ) :   2.9955 B( 31-C , 32-C ) :   1.4700 B( 31-C , 82-H ) :   0.9922
B( 32-C , 33-S ) :   1.1156 B( 32-C , 34-C ) :   1.0879 B( 34-C , 35-C ) :   1.2773
B( 34-C , 39-C ) :   0.1219 B( 34-C , 41-C ) :   1.2883 B( 35-C , 36-F ) :   1.1411
B( 35-C , 37-C ) :   1.3327 B( 37-C , 38-F ) :   1.1431 B( 37-C , 39-C ) :   1.2792
B( 39-C , 40-C ) :   1.2923 B( 39-C , 44-C ) :   1.0845 B( 40-C , 41-C ) :   1.3191
B( 40-C , 43-F ) :   1.1531 B( 41-C , 42-F ) :   1.1505 B( 44-C , 45-C ) :   1.4717
B( 44-C , 48-S ) :   1.1155 B( 45-C , 46-C ) :   1.2926 B( 45-C , 83-H ) :   0.9935
B( 46-C , 47-C ) :   1.4276 B( 46-C , 51-C ) :   0.9978 B( 47-C , 48-S ) :   1.1219
B( 47-C , 49-C ) :   1.2017 B( 49-C , 50-C ) :   1.4071 B( 49-C , 59-S ) :   1.1598
B( 50-C , 51-C ) :   0.9901 B( 50-C , 57-C ) :   1.3039 B( 51-C , 52-C ) :   1.7224
B( 52-C , 53-C ) :   1.1338 B( 52-C , 55-C ) :   1.1319 B( 53-C , 54-N ) :   2.9924
B( 55-C , 56-N ) :   2.9929 B( 57-C , 58-C ) :   1.3978 B( 57-C , 84-H ) :   1.0013
B( 58-C , 59-S ) :   1.0875 B( 58-C , 60-C ) :   1.1430 B( 60-C , 61-C ) :   1.6406
B( 60-C , 85-H ) :   0.9469 B( 61-C , 62-C ) :   0.9402 B( 61-C , 66-C ) :   1.0356
B( 62-C , 63-O ) :   2.2791 B( 62-C , 64-C ) :   0.9209 B( 64-C , 65-C ) :   1.3301
B( 64-C , 75-C ) :   1.3742 B( 65-C , 66-C ) :   1.0058 B( 65-C , 72-C ) :   1.3717
B( 66-C , 67-C ) :   1.6659 B( 67-C , 68-C ) :   1.1530 B( 67-C , 70-C ) :   1.1278
B( 68-C , 69-N ) :   3.0223 B( 70-C , 71-N ) :   2.9954 B( 72-C , 73-C ) :   1.3682
B( 72-C , 86-H ) :   0.9832 B( 73-C , 74-C ) :   1.4203 B( 73-C , 77-Br) :   1.0527
B( 74-C , 75-C ) :   1.3571 B( 74-C , 76-Br) :   1.0375 B( 75-C , 87-H ) :   1.0075

-----------------------------------------------------------------------------
         ABSORPTION SPECTRUM VIA TRANSITION ELECTRIC DIPOLE MOMENTS
-----------------------------------------------------------------------------
State   Energy  Wavelength   fosc         T2         TX        TY        TZ
        (cm-1)    (nm)                  (au**2)     (au)      (au)      (au)
-----------------------------------------------------------------------------
   0   14924.3    670.0   0.592814316  13.07680  -0.97234  -3.12142   1.54535
   1   15860.2    630.5   0.167230112   3.47122  -0.95736  -1.59218  -0.14023
   2   21058.1    474.9   1.105909508  17.28922   0.52225   3.49878  -2.18518
   3   22331.2    447.8   1.025982215  15.12524   2.08394   3.21075   0.68814
   4   24175.4    413.6   0.002208102   0.03007   0.16224  -0.05869  -0.01736
   5   25171.6    397.3   0.052370350   0.68494  -0.61841  -0.04141   0.54844
   6   26868.7    372.2   0.118971631   1.45771  -0.39480  -1.11506   0.24187
   7   27210.6    367.5   0.028252190   0.34181   0.45573   0.33740  -0.14243
   8   28355.6    352.7   0.530872411   6.16348   0.91983   1.40971  -1.82486
   9   28584.4    349.8   0.201696260   2.32297  -1.19452  -0.58556   0.74378
  10   29210.9    342.3   0.006730851   0.07586   0.21901   0.10017  -0.13363
  11   29313.9    341.1   0.204961072   2.30183   0.77085   0.86861  -0.97629
  12   29919.3    334.2   0.366793799   4.03595  -0.77859  -0.69704  -1.71577
  13   30038.9    332.9   0.016797803   0.18410  -0.08636  -0.06300  -0.41553
  14   30408.8    328.9   0.143764425   1.55642  -0.96192  -0.36617   0.70501
  15   31061.6    321.9   0.143796814   1.52406   1.09329   0.19173  -0.54038
  16   31349.5    319.0   0.090970909   0.95532  -0.05819  -0.10594  -0.96990
  17   31597.5    316.5   0.313138115   3.26257  -0.26903  -0.32372  -1.75653
  18   31958.2    312.9   0.062048699   0.63918   0.01186   0.09449   0.79380
  19   32637.1    306.4   0.017156355   0.17306   0.19424  -0.36459   0.04904
  20   32661.8    306.2   0.093666881   0.94411  -0.12566   0.93667   0.22577
  21   32732.0    305.5   0.380767464   3.82969  -1.04294  -1.50206   0.69697
  22   32923.6    303.7   0.050818524   0.50815  -0.15524  -0.69031   0.08677
  23   33096.9    302.1   0.050980719   0.50710  -0.33616   0.05121   0.62568
  24   33324.8    300.1   0.101655339   1.00424  -0.09636  -0.81653   0.57293
  25   33425.2    299.2   0.122346419   1.20502   0.49773  -0.28100  -0.93719
  26   33793.6    295.9   0.073386631   0.71492   0.62370   0.34358  -0.45593
  27   33812.3    295.8   0.286447930   2.78898  -1.22526  -0.87125   0.72709
  28   33912.4    294.9   0.173165739   1.68105   0.14467   0.75407   1.04474
  29   34839.6    287.0   0.097648773   0.92272   0.49289  -0.00807   0.82444
  30   34972.2    285.9   0.325976555   3.06859  -0.20227   0.48651   1.67062
  31   35189.4    284.2   0.060529102   0.56628   0.01838  -0.29757   0.69093
  32   35360.3    282.8   0.111659077   1.03957  -0.81323   0.54958   0.27603
  33   35823.3    279.1   0.560211839   5.14828   1.05512  -0.65801  -1.89790
  34   36016.7    277.6   0.272487974   2.49068   1.22842   0.62269  -0.77067
  35   36299.5    275.5   0.056743837   0.51463   0.12922   0.32041   0.62870
  36   36510.5    273.9   0.007354249   0.06631  -0.07217  -0.08279   0.23292
  37   36726.7    272.3   0.001631656   0.01463   0.07096  -0.06019  -0.07725
  38   37026.8    270.1   0.008712806   0.07747   0.09805   0.10380  -0.23891
  39   37056.3    269.9   0.002648624   0.02353   0.08582   0.10189   0.07605
  40   37086.1    269.6   0.001165017   0.01034  -0.08588  -0.00748   0.05396
  41   37270.6    268.3   0.005911645   0.05222   0.04763   0.14253  -0.17215
  42   37414.2    267.3   0.162611670   1.43084  -0.33135  -1.12684  -0.22645
  43   37741.4    265.0   0.048219469   0.42061   0.28668   0.19554  -0.54789
  44   38005.4    263.1   0.033149061   0.28714   0.17114  -0.15548  -0.48341
  45   38529.1    259.5   0.018775048   0.16042   0.32425  -0.04244  -0.23127
  46   38765.1    258.0   0.015479312   0.13146  -0.35613   0.03193   0.06008
  47   38891.9    257.1   0.042156032   0.35684  -0.12201  -0.40548   0.42135
  48   38956.3    256.7   0.009380006   0.07927  -0.02649  -0.05102  -0.27561
  49   39423.9    253.7   0.055300953   0.46179   0.48863  -0.06774   0.46738
  50   39484.6    253.3   0.005876674   0.04900  -0.17290   0.12341   0.06224
  51   39739.9    251.6   0.332720528   2.75631  -1.16316  -1.09933  -0.44141
  52   40201.2    248.7   0.000221853   0.00182   0.04144   0.00914  -0.00396

FINAL SINGLE POINT ENERGY    -15011.865139524503

DIPOLE MOMENT
-------------
                                X             Y             Z
Electronic contribution:     84.89852      47.67105      84.60688
Nuclear contribution   :    -85.64294     -47.74839     -82.51399
                        -----------------------------------------
Total Dipole Moment    :     -0.74442      -0.07733       2.09289
                        -----------------------------------------
Magnitude (a.u.)       :      2.22268
Magnitude (Debye)      :      5.64961

Rotational constants in cm-1:     0.001093     0.000106     0.000100
Rotational constants in MHz :    32.773803     3.192692     3.001689

                             ****ORCA TERMINATED NORMALLY****
TOTAL RUN TIME: 0 days 0 hours 10 minutes 59 seconds 569 msec
