                         Program Version 4.2.0 -  RELEASE  -
|  1> # ORCA input file
|  2> # SCF done       -156.750740770263          0.000460213986
|  3> ! CAM-B3LYP def2-SVP def2/J RIJCOSX Grid4 TightSCF
|  4> %maxcore 5000
|  5> %tddft
|  6>     Mode sTDDFT
|  7>     Ethresh 5.0
|  8>     maxcore 5000
|  9> end
| 10>
| 11> %pal
| 12>   nprocs 6
| 13>   end
| 14> * xyz 0 1
| 15>    C       -1.34629        -0.26142         0.76735
| 16>    S       -0.29784         0.71749        -0.16465
| 17>    C       -0.14573         1.86890         1.14439
| 18>    C       -0.87718         1.46422         2.24205
| 19>    C       -1.56756         0.24573         2.01163
| 20>    C       -2.45107        -0.38117         3.04036
| 21>    S       -3.92091        -1.18336         2.28155
| 22>    C       -2.86385         0.64916         4.08210
| 23>    C       -1.61558         1.32171         4.63417
| 24>    C       -0.91460         2.17743         3.57470
| 25>    O        0.37647         2.44510         4.08045
| 26>    C        0.60708         3.06622         0.93202
| 27>    S        0.15985         4.56439         1.70830
| 28>    C        1.39160         5.45652         0.85826
| 29>    C        2.08993         4.60888        -0.00386
| 30>    C        1.63419         3.26797         0.02284
| 31>    C        2.14998         2.19309        -0.82306
| 32>    C        2.30813         2.30981        -2.13357
| 33>    O        3.12619         5.09997        -0.73295
| 34>    C        4.31103         4.33599        -0.84959
| 35>    C        1.55926         6.83453         1.12160
| 36>    C        2.38942         7.65372         0.41252
| 37>    C        2.62751         9.00600         0.69120
| 38>    C        3.50096         9.76256        -0.05509
| 39>    C        3.87375        11.11531         0.12351
| 40>    C        4.79018        11.57071        -0.77901
| 41>    C        5.18556        10.60434        -1.72851
| 42>    S        4.35993         9.09115        -1.43393
| 43>    C        6.07934        10.71424        -2.77632
| 44>    C        6.86766        11.81520        -3.17528
| 45>    C        7.65181        11.56183        -4.25959
| 46>    C        7.51821        10.25125        -4.79067
| 47>    S        6.35195         9.35181        -3.84421
| 48>    C        8.24856         9.72924        -5.82802
| 49>    C        8.17388         8.43344        -6.38346
| 50>    S        9.67067         7.75534        -6.98243
| 51>    C        8.94352         6.18593        -7.26840
| 52>    C        7.58761         6.23970        -6.97357
| 53>    C        7.14133         7.50937        -6.50166
| 54>    C        5.72090         7.74618        -6.34148
| 55>    C        5.10517         8.90983        -6.52360
| 56>    O        6.62886         5.28874        -7.09378
| 57>    C        6.85874         4.07274        -7.75994
| 58>    C        9.77788         5.11923        -7.69660
| 59>    C       11.08782         5.25276        -8.00607
| 60>    C       11.91891         4.17135        -8.40481
| 61>    S       11.30728         2.54024        -8.53756
| 62>    C       12.84124         1.96024        -9.04484
| 63>    C       13.77614         2.94720        -9.11439
| 64>    C       13.25962         4.21307        -8.73712
| 65>    C       14.09063         5.44518        -8.75598
| 66>    S       13.60128         6.51765       -10.19183
| 67>    C       15.58163         5.12409        -8.79577
| 68>    C       15.90096         4.04322        -9.82439
| 69>    C       15.21944         2.71346        -9.47370
| 70>    O       15.89635         2.02836        -8.43697
| 71>    H       -1.74745        -1.16260         0.34784
| 72>    H       -1.93392        -1.21759         3.52228
| 73>    H       -4.41295        -0.07827         1.72536
| 74>    H       -3.42135         0.16182         4.88288
| 75>    H       -3.51301         1.39834         3.62014
| 76>    H       -0.90130         0.56935         4.97359
| 77>    H       -1.86249         1.95580         5.48541
| 78>    H       -1.47088         3.12293         3.44315
| 79>    H        0.79467         3.12840         3.54424
| 80>    H        2.37746         1.26080        -0.32117
| 81>    H        2.05092         3.21687        -2.65579
| 82>    H        2.68513         1.49738        -2.73040
| 83>    H        5.12999         5.05658        -0.86655
| 84>    H        4.31941         3.75746        -1.77671
| 85>    H        4.43798         3.65756        -0.00351
| 86>    H        0.98120         7.23779         1.94350
| 87>    H        2.92090         7.23513        -0.42947
| 88>    H        2.12585         9.47677         1.52625
| 89>    H        3.45579        11.71053         0.91666
| 90>    H        5.18633        12.57065        -0.78909
| 91>    H        6.83940        12.75466        -2.65251
| 92>    H        8.32368        12.27503        -4.70435
| 93>    H        9.06321        10.34431        -6.19205
| 94>    H        5.14595         6.85780        -6.12057
| 95>    H        5.63945         9.80467        -6.79569
| 96>    H        4.03810         8.99856        -6.41986
| 97>    H        5.86978         3.63825        -7.91045
| 98>    H        7.45548         3.38554        -7.15189
| 99>    H        7.33626         4.22575        -8.73143
|100>    H        9.35257         4.12955        -7.75485
|101>    H       11.54846         6.23018        -7.96693
|102>    H       12.97099         0.91855        -9.25935
|103>    H       13.86722         6.08768        -7.90024
|104>    H       13.63504         5.55577       -11.11070
|105>    H       15.89142         4.79326        -7.79952
|106>    H       16.13816         6.03334        -9.02887
|107>    H       16.97852         3.87778        -9.86781
|108>    H       15.56864         4.36552       -10.81307
|109>    H       15.28278         2.02933       -10.32789
|110>    H       15.83598         2.55214        -7.62975
|111> *
|112>
|113>                          ****END OF INPUT****

CARTESIAN COORDINATES (ANGSTROEM)
---------------------------------
  C     -1.346290   -0.261420    0.767350
  S     -0.297840    0.717490   -0.164650
  C     -0.145730    1.868900    1.144390
  C     -0.877180    1.464220    2.242050
  C     -1.567560    0.245730    2.011630
  C     -2.451070   -0.381170    3.040360
  S     -3.920910   -1.183360    2.281550
  C     -2.863850    0.649160    4.082100
  C     -1.615580    1.321710    4.634170
  C     -0.914600    2.177430    3.574700
  O      0.376470    2.445100    4.080450
  C      0.607080    3.066220    0.932020
  S      0.159850    4.564390    1.708300
  C      1.391600    5.456520    0.858260
  C      2.089930    4.608880   -0.003860
  C      1.634190    3.267970    0.022840
  C      2.149980    2.193090   -0.823060
  C      2.308130    2.309810   -2.133570
  O      3.126190    5.099970   -0.732950
  C      4.311030    4.335990   -0.849590
  C      1.559260    6.834530    1.121600
  C      2.389420    7.653720    0.412520
  C      2.627510    9.006000    0.691200
  C      3.500960    9.762560   -0.055090
  C      3.873750   11.115310    0.123510
  C      4.790180   11.570710   -0.779010
  C      5.185560   10.604340   -1.728510
  S      4.359930    9.091150   -1.433930
  C      6.079340   10.714240   -2.776320
  C      6.867660   11.815200   -3.175280
  C      7.651810   11.561830   -4.259590
  C      7.518210   10.251250   -4.790670
  S      6.351950    9.351810   -3.844210
  C      8.248560    9.729240   -5.828020
  C      8.173880    8.433440   -6.383460
  S      9.670670    7.755340   -6.982430
  C      8.943520    6.185930   -7.268400
  C      7.587610    6.239700   -6.973570
  C      7.141330    7.509370   -6.501660
  C      5.720900    7.746180   -6.341480
  C      5.105170    8.909830   -6.523600
  O      6.628860    5.288740   -7.093780
  C      6.858740    4.072740   -7.759940
  C      9.777880    5.119230   -7.696600
  C     11.087820    5.252760   -8.006070
  C     11.918910    4.171350   -8.404810
  S     11.307280    2.540240   -8.537560
  C     12.841240    1.960240   -9.044840
  C     13.776140    2.947200   -9.114390
  C     13.259620    4.213070   -8.737120
  C     14.090630    5.445180   -8.755980
  S     13.601280    6.517650  -10.191830
  C     15.581630    5.124090   -8.795770
  C     15.900960    4.043220   -9.824390
  C     15.219440    2.713460   -9.473700
  O     15.896350    2.028360   -8.436970
  H     -1.747450   -1.162600    0.347840
  H     -1.933920   -1.217590    3.522280
  H     -4.412950   -0.078270    1.725360
  H     -3.421350    0.161820    4.882880
  H     -3.513010    1.398340    3.620140
  H     -0.901300    0.569350    4.973590
  H     -1.862490    1.955800    5.485410
  H     -1.470880    3.122930    3.443150
  H      0.794670    3.128400    3.544240
  H      2.377460    1.260800   -0.321170
  H      2.050920    3.216870   -2.655790
  H      2.685130    1.497380   -2.730400
  H      5.129990    5.056580   -0.866550
  H      4.319410    3.757460   -1.776710
  H      4.437980    3.657560   -0.003510
  H      0.981200    7.237790    1.943500
  H      2.920900    7.235130   -0.429470
  H      2.125850    9.476770    1.526250
  H      3.455790   11.710530    0.916660
  H      5.186330   12.570650   -0.789090
  H      6.839400   12.754660   -2.652510
  H      8.323680   12.275030   -4.704350
  H      9.063210   10.344310   -6.192050
  H      5.145950    6.857800   -6.120570
  H      5.639450    9.804670   -6.795690
  H      4.038100    8.998560   -6.419860
  H      5.869780    3.638250   -7.910450
  H      7.455480    3.385540   -7.151890
  H      7.336260    4.225750   -8.731430
  H      9.352570    4.129550   -7.754850
  H     11.548460    6.230180   -7.966930
  H     12.970990    0.918550   -9.259350
  H     13.867220    6.087680   -7.900240
  H     13.635040    5.555770  -11.110700
  H     15.891420    4.793260   -7.799520
  H     16.138160    6.033340   -9.028870
  H     16.978520    3.877780   -9.867810
  H     15.568640    4.365520  -10.813070
  H     15.282780    2.029330  -10.327890
  H     15.835980    2.552140   -7.629750

 Total Charge           Charge          ....    0
 Multiplicity           Mult            ....    1
 Number of Electrons    NEL             ....  464
 Basis Dimension        Dim             .... 1016

ORBITAL ENERGIES
----------------

  NO   OCC          E(Eh)            E(eV)
   0   2.0000     -88.958576     -2420.6859
   1   2.0000     -88.950245     -2420.4592
   2   2.0000     -88.944711     -2420.3086
   3   2.0000     -88.934643     -2420.0347
   4   2.0000     -88.934619     -2420.0340
   5   2.0000     -88.933590     -2420.0060
   6   2.0000     -88.907305     -2419.2908
   7   2.0000     -88.905562     -2419.2433
   8   2.0000     -19.245410      -523.6942
   9   2.0000     -19.244403      -523.6668
  10   2.0000     -19.199519      -522.4455
  11   2.0000     -19.195590      -522.3386
  12   2.0000     -10.332972      -281.1745
  13   2.0000     -10.328479      -281.0522
  14   2.0000     -10.323106      -280.9060
  15   2.0000     -10.315842      -280.7083
  16   2.0000     -10.315503      -280.6991
  17   2.0000     -10.311962      -280.6028
  18   2.0000     -10.310296      -280.5574
  19   2.0000     -10.303180      -280.3638
  20   2.0000     -10.301679      -280.3229
  21   2.0000     -10.300172      -280.2819
  22   2.0000     -10.299764      -280.2708
  23   2.0000     -10.297519      -280.2097
  24   2.0000     -10.297422      -280.2071
  25   2.0000     -10.297385      -280.2061
  26   2.0000     -10.294659      -280.1319
  27   2.0000     -10.293581      -280.1026
  28   2.0000     -10.288308      -279.9591
  29   2.0000     -10.286829      -279.9188
  30   2.0000     -10.283855      -279.8379
  31   2.0000     -10.281673      -279.7785
  32   2.0000     -10.281216      -279.7661
  33   2.0000     -10.281141      -279.7641
  34   2.0000     -10.279516      -279.7198
  35   2.0000     -10.278880      -279.7025
  36   2.0000     -10.277086      -279.6537
  37   2.0000     -10.276909      -279.6489
  38   2.0000     -10.274666      -279.5879
  39   2.0000     -10.274311      -279.5782
  40   2.0000     -10.273957      -279.5686
  41   2.0000     -10.272008      -279.5156
  42   2.0000     -10.271184      -279.4931
  43   2.0000     -10.269219      -279.4396
  44   2.0000     -10.267901      -279.4038
  45   2.0000     -10.267893      -279.4036
  46   2.0000     -10.267717      -279.3988
  47   2.0000     -10.266412      -279.3633
  48   2.0000     -10.265759      -279.3455
  49   2.0000     -10.264966      -279.3239
  50   2.0000     -10.262440      -279.2552
  51   2.0000     -10.262362      -279.2531
  52   2.0000     -10.258287      -279.1422
  53   2.0000     -10.256717      -279.0995
  54   2.0000     -10.253763      -279.0191
  55   2.0000     -10.247688      -278.8538
  56   2.0000      -8.053546      -219.1481
  57   2.0000      -8.045359      -218.9253
  58   2.0000      -8.040335      -218.7886
  59   2.0000      -8.030929      -218.5327
  60   2.0000      -8.030334      -218.5165
  61   2.0000      -8.029185      -218.4852
  62   2.0000      -8.002871      -217.7692
  63   2.0000      -8.000845      -217.7141
  64   2.0000      -6.022894      -163.8913
  65   2.0000      -6.018923      -163.7832
  66   2.0000      -6.015493      -163.6899
  67   2.0000      -6.014610      -163.6658
  68   2.0000      -6.010260      -163.5475
  69   2.0000      -6.009481      -163.5263
  70   2.0000      -6.007835      -163.4815
  71   2.0000      -6.005437      -163.4162
  72   2.0000      -6.002751      -163.3431
  73   2.0000      -6.000643      -163.2858
  74   2.0000      -5.999800      -163.2629
  75   2.0000      -5.998871      -163.2376
  76   2.0000      -5.996669      -163.1776
  77   2.0000      -5.995953      -163.1582
  78   2.0000      -5.994687      -163.1237
  79   2.0000      -5.991796      -163.0451
  80   2.0000      -5.991774      -163.0445
  81   2.0000      -5.990317      -163.0048
  82   2.0000      -5.973363      -162.5435
  83   2.0000      -5.971295      -162.4872
  84   2.0000      -5.969360      -162.4345
  85   2.0000      -5.967433      -162.3821
  86   2.0000      -5.962473      -162.2471
  87   2.0000      -5.960450      -162.1921
  88   2.0000      -1.148200       -31.2441
  89   2.0000      -1.146693       -31.2031
  90   2.0000      -1.090961       -29.6866
  91   2.0000      -1.088973       -29.6325
  92   2.0000      -0.992243       -27.0003
  93   2.0000      -0.986493       -26.8439
  94   2.0000      -0.977763       -26.6063
  95   2.0000      -0.971695       -26.4412
  96   2.0000      -0.970882       -26.4190
  97   2.0000      -0.960423       -26.1344
  98   2.0000      -0.919483       -25.0204
  99   2.0000      -0.915211       -24.9042
 100   2.0000      -0.904670       -24.6173
 101   2.0000      -0.897361       -24.4184
 102   2.0000      -0.886162       -24.1137
 103   2.0000      -0.873069       -23.7574
 104   2.0000      -0.864127       -23.5141
 105   2.0000      -0.863625       -23.5004
 106   2.0000      -0.852671       -23.2024
 107   2.0000      -0.844817       -22.9886
 108   2.0000      -0.841577       -22.9005
 109   2.0000      -0.830642       -22.6029
 110   2.0000      -0.823287       -22.4028
 111   2.0000      -0.819830       -22.3087
 112   2.0000      -0.817278       -22.2393
 113   2.0000      -0.816163       -22.2089
 114   2.0000      -0.812603       -22.1121
 115   2.0000      -0.805435       -21.9170
 116   2.0000      -0.792317       -21.5600
 117   2.0000      -0.781153       -21.2563
 118   2.0000      -0.771276       -20.9875
 119   2.0000      -0.766355       -20.8536
 120   2.0000      -0.765094       -20.8193
 121   2.0000      -0.755293       -20.5526
 122   2.0000      -0.743150       -20.2221
 123   2.0000      -0.726893       -19.7798
 124   2.0000      -0.701925       -19.1003
 125   2.0000      -0.700304       -19.0563
 126   2.0000      -0.694976       -18.9113
 127   2.0000      -0.690211       -18.7816
 128   2.0000      -0.686445       -18.6791
 129   2.0000      -0.674602       -18.3569
 130   2.0000      -0.665868       -18.1192
 131   2.0000      -0.662400       -18.0248
 132   2.0000      -0.660479       -17.9726
 133   2.0000      -0.645936       -17.5768
 134   2.0000      -0.642421       -17.4812
 135   2.0000      -0.641582       -17.4583
 136   2.0000      -0.639414       -17.3993
 137   2.0000      -0.621112       -16.9013
 138   2.0000      -0.617016       -16.7898
 139   2.0000      -0.611593       -16.6423
 140   2.0000      -0.607592       -16.5334
 141   2.0000      -0.602034       -16.3822
 142   2.0000      -0.600119       -16.3301
 143   2.0000      -0.597249       -16.2520
 144   2.0000      -0.588448       -16.0125
 145   2.0000      -0.587746       -15.9934
 146   2.0000      -0.581704       -15.8290
 147   2.0000      -0.576471       -15.6866
 148   2.0000      -0.567793       -15.4504
 149   2.0000      -0.565556       -15.3896
 150   2.0000      -0.558032       -15.1848
 151   2.0000      -0.555566       -15.1177
 152   2.0000      -0.552976       -15.0472
 153   2.0000      -0.551688       -15.0122
 154   2.0000      -0.543918       -14.8008
 155   2.0000      -0.537700       -14.6316
 156   2.0000      -0.529887       -14.4189
 157   2.0000      -0.528612       -14.3843
 158   2.0000      -0.523554       -14.2466
 159   2.0000      -0.522382       -14.2147
 160   2.0000      -0.518957       -14.1215
 161   2.0000      -0.513776       -13.9805
 162   2.0000      -0.508531       -13.8378
 163   2.0000      -0.506118       -13.7722
 164   2.0000      -0.505215       -13.7476
 165   2.0000      -0.504819       -13.7368
 166   2.0000      -0.500904       -13.6303
 167   2.0000      -0.499413       -13.5897
 168   2.0000      -0.493649       -13.4329
 169   2.0000      -0.492158       -13.3923
 170   2.0000      -0.489221       -13.3124
 171   2.0000      -0.488780       -13.3004
 172   2.0000      -0.488114       -13.2822
 173   2.0000      -0.486250       -13.2315
 174   2.0000      -0.483154       -13.1473
 175   2.0000      -0.478047       -13.0083
 176   2.0000      -0.477196       -12.9852
 177   2.0000      -0.472560       -12.8590
 178   2.0000      -0.470698       -12.8083
 179   2.0000      -0.461883       -12.5685
 180   2.0000      -0.460455       -12.5296
 181   2.0000      -0.457816       -12.4578
 182   2.0000      -0.455761       -12.4019
 183   2.0000      -0.454233       -12.3603
 184   2.0000      -0.450205       -12.2507
 185   2.0000      -0.448840       -12.2136
 186   2.0000      -0.447795       -12.1851
 187   2.0000      -0.446396       -12.1470
 188   2.0000      -0.443698       -12.0736
 189   2.0000      -0.439549       -11.9607
 190   2.0000      -0.438434       -11.9304
 191   2.0000      -0.436408       -11.8753
 192   2.0000      -0.425255       -11.5718
 193   2.0000      -0.423580       -11.5262
 194   2.0000      -0.422141       -11.4870
 195   2.0000      -0.418013       -11.3747
 196   2.0000      -0.417206       -11.3528
 197   2.0000      -0.413810       -11.2604
 198   2.0000      -0.413042       -11.2394
 199   2.0000      -0.412031       -11.2119
 200   2.0000      -0.410654       -11.1745
 201   2.0000      -0.408310       -11.1107
 202   2.0000      -0.405422       -11.0321
 203   2.0000      -0.402736       -10.9590
 204   2.0000      -0.395898       -10.7729
 205   2.0000      -0.395363       -10.7584
 206   2.0000      -0.391463       -10.6522
 207   2.0000      -0.389910       -10.6100
 208   2.0000      -0.384287       -10.4570
 209   2.0000      -0.382807       -10.4167
 210   2.0000      -0.378918       -10.3109
 211   2.0000      -0.376610       -10.2481
 212   2.0000      -0.376385       -10.2420
 213   2.0000      -0.367129        -9.9901
 214   2.0000      -0.349103        -9.4996
 215   2.0000      -0.346640        -9.4326
 216   2.0000      -0.338989        -9.2243
 217   2.0000      -0.338054        -9.1989
 218   2.0000      -0.330162        -8.9842
 219   2.0000      -0.327999        -8.9253
 220   2.0000      -0.314995        -8.5714
 221   2.0000      -0.309388        -8.4189
 222   2.0000      -0.307892        -8.3782
 223   2.0000      -0.303621        -8.2619
 224   2.0000      -0.298476        -8.1219
 225   2.0000      -0.296577        -8.0703
 226   2.0000      -0.290104        -7.8941
 227   2.0000      -0.284102        -7.7308
 228   2.0000      -0.264548        -7.1987
 229   2.0000      -0.255626        -6.9559
 230   2.0000      -0.231530        -6.3003
 231   2.0000      -0.195369        -5.3162
 232   0.0000      -0.076786        -2.0895
 233   0.0000      -0.033011        -0.8983
 234   0.0000      -0.015431        -0.4199
 235   0.0000       0.006143         0.1672
 236   0.0000       0.025455         0.6927

MULLIKEN ATOMIC CHARGES
-----------------------
   0 C :   -0.100045
   1 S :    0.119024
   2 C :   -0.156708
   3 C :   -0.013000
   4 C :    0.006175
   5 C :   -0.135273
   6 S :   -0.042130
   7 C :    0.089560
   8 C :    0.047885
   9 C :    0.186318
  10 O :   -0.286105
  11 C :   -0.138151
  12 S :    0.093594
  13 C :   -0.108028
  14 C :    0.145622
  15 C :    0.044311
  16 C :   -0.087191
  17 C :    0.003198
  18 O :   -0.328141
  19 C :    0.197399
  20 C :    0.025574
  21 C :   -0.016520
  22 C :    0.002876
  23 C :   -0.024632
  24 C :    0.037990
  25 C :    0.023532
  26 C :   -0.036765
  27 S :    0.057282
  28 C :   -0.058103
  29 C :    0.027796
  30 C :    0.032435
  31 C :   -0.032728
  32 S :    0.103532
  33 C :   -0.008768
  34 C :   -0.132918
  35 S :    0.083527
  36 C :   -0.155175
  37 C :    0.195607
  38 C :    0.040097
  39 C :   -0.042600
  40 C :    0.015884
  41 O :   -0.308917
  42 C :    0.177751
  43 C :   -0.000462
  44 C :   -0.014489
  45 C :   -0.100182
  46 S :    0.084908
  47 C :   -0.108108
  48 C :   -0.054056
  49 C :    0.043033
  50 C :   -0.182572
  51 S :   -0.040061
  52 C :    0.103986
  53 C :    0.050582
  54 C :    0.218901
  55 O :   -0.300735
  56 H :    0.016899
  57 H :    0.054161
  58 H :    0.047864
  59 H :    0.009466
  60 H :   -0.000761
  61 H :    0.009982
  62 H :    0.004639
  63 H :    0.004277
  64 H :    0.157254
  65 H :    0.026582
  66 H :    0.035702
  67 H :    0.025779
  68 H :    0.038070
  69 H :    0.024559
  70 H :    0.024689
  71 H :   -0.025149
  72 H :    0.028877
  73 H :   -0.021393
  74 H :   -0.014942
  75 H :   -0.016356
  76 H :   -0.019838
  77 H :   -0.016421
  78 H :   -0.012272
  79 H :   -0.001057
  80 H :    0.024883
  81 H :    0.018333
  82 H :    0.032698
  83 H :    0.036259
  84 H :    0.034000
  85 H :   -0.030953
  86 H :   -0.005392
  87 H :    0.013567
  88 H :    0.046347
  89 H :    0.053502
  90 H :   -0.010132
  91 H :    0.010700
  92 H :    0.008924
  93 H :   -0.008470
  94 H :   -0.007463
  95 H :    0.156764
Sum of atomic charges:    0.0000000

LOEWDIN ATOMIC CHARGES
----------------------
   0 C :   -0.191073
   1 S :    0.467309
   2 C :   -0.194082
   3 C :   -0.072861
   4 C :   -0.085404
   5 C :   -0.118883
   6 S :    0.163699
   7 C :   -0.039672
   8 C :   -0.029850
   9 C :    0.059834
  10 O :   -0.129671
  11 C :   -0.181143
  12 S :    0.443157
  13 C :   -0.199057
  14 C :    0.023577
  15 C :   -0.086118
  16 C :   -0.041300
  17 C :   -0.031789
  18 O :   -0.101593
  19 C :    0.084673
  20 C :   -0.042790
  21 C :   -0.035231
  22 C :   -0.050484
  23 C :   -0.147484
  24 C :   -0.032637
  25 C :   -0.036281
  26 C :   -0.173077
  27 S :    0.372282
  28 C :   -0.186673
  29 C :   -0.040363
  30 C :   -0.036629
  31 C :   -0.146747
  32 S :    0.421498
  33 C :   -0.092395
  34 C :   -0.156183
  35 S :    0.410101
  36 C :   -0.217293
  37 C :    0.035001
  38 C :   -0.088489
  39 C :   -0.041033
  40 C :   -0.039520
  41 O :   -0.094631
  42 C :    0.079505
  43 C :   -0.047089
  44 C :   -0.060430
  45 C :   -0.164969
  46 S :    0.423394
  47 C :   -0.180063
  48 C :   -0.089909
  49 C :   -0.091091
  50 C :   -0.113751
  51 S :    0.155432
  52 C :   -0.040638
  53 C :   -0.044602
  54 C :    0.067368
  55 O :   -0.129142
  56 H :    0.018914
  57 H :    0.034735
  58 H :   -0.035611
  59 H :    0.027227
  60 H :    0.019638
  61 H :    0.027721
  62 H :    0.028183
  63 H :    0.005297
  64 H :    0.038601
  65 H :    0.027858
  66 H :    0.027448
  67 H :    0.025755
  68 H :    0.025858
  69 H :    0.015572
  70 H :    0.018870
  71 H :    0.025401
  72 H :    0.021531
  73 H :    0.029670
  74 H :    0.032518
  75 H :    0.030873
  76 H :    0.029629
  77 H :    0.031253
  78 H :    0.031814
  79 H :    0.027970
  80 H :    0.021117
  81 H :    0.022867
  82 H :    0.028504
  83 H :    0.015917
  84 H :    0.020022
  85 H :    0.019104
  86 H :    0.019794
  87 H :    0.023134
  88 H :    0.030412
  89 H :   -0.036569
  90 H :    0.016246
  91 H :    0.026976
  92 H :    0.029212
  93 H :    0.019063
  94 H :    0.026116
  95 H :    0.066653

  Mayer bond orders larger than 0.100000
B(  0-C ,  1-S ) :   1.1554 B(  0-C ,  4-C ) :   1.5687 B(  0-C , 56-H ) :   0.9607
B(  1-S ,  2-C ) :   1.1510 B(  2-C ,  3-C ) :   1.5273 B(  2-C , 11-C ) :   1.0808
B(  3-C ,  4-C ) :   1.3324 B(  3-C ,  9-C ) :   0.9533 B(  4-C ,  5-C ) :   0.9421
B(  5-C ,  6-S ) :   1.0474 B(  5-C ,  7-C ) :   1.0277 B(  5-C , 57-H ) :   0.9014
B(  6-S , 58-H ) :   0.9559 B(  7-C ,  8-C ) :   1.0545 B(  7-C , 59-H ) :   0.9305
B(  7-C , 60-H ) :   0.9412 B(  8-C ,  9-C ) :   1.0638 B(  8-C , 61-H ) :   0.9320
B(  8-C , 62-H ) :   0.9270 B(  9-C , 10-O ) :   1.1122 B(  9-C , 63-H ) :   0.9061
B( 10-O , 64-H ) :   0.9658 B( 11-C , 12-S ) :   1.1145 B( 11-C , 13-C ) :   0.1107
B( 11-C , 15-C ) :   1.4875 B( 12-S , 13-C ) :   1.0689 B( 13-C , 14-C ) :   1.4530
B( 13-C , 20-C ) :   1.1402 B( 14-C , 15-C ) :   1.2291 B( 14-C , 18-O ) :   1.1528
B( 15-C , 16-C ) :   1.0321 B( 16-C , 17-C ) :   1.9743 B( 16-C , 65-H ) :   0.9410
B( 17-C , 66-H ) :   0.9568 B( 17-C , 67-H ) :   0.9511 B( 18-O , 19-C ) :   0.9322
B( 19-C , 68-H ) :   0.9774 B( 19-C , 69-H ) :   0.9702 B( 19-C , 70-H ) :   0.9649
B( 20-C , 21-C ) :   1.6255 B( 20-C , 71-H ) :   0.9633 B( 21-C , 22-C ) :   1.1584
B( 21-C , 72-H ) :   0.9595 B( 22-C , 23-C ) :   1.5458 B( 22-C , 73-H ) :   0.9863
B( 23-C , 24-C ) :   1.1504 B( 23-C , 27-S ) :   1.0319 B( 24-C , 25-C ) :   1.5770
B( 24-C , 74-H ) :   0.9988 B( 25-C , 26-C ) :   1.1975 B( 25-C , 75-H ) :   0.9941
B( 26-C , 27-S ) :   1.0489 B( 26-C , 28-C ) :   1.4953 B( 28-C , 29-C ) :   1.1881
B( 28-C , 32-S ) :   1.0445 B( 29-C , 30-C ) :   1.5899 B( 29-C , 76-H ) :   0.9932
B( 30-C , 31-C ) :   1.1396 B( 30-C , 77-H ) :   0.9978 B( 31-C , 32-S ) :   1.0671
B( 31-C , 33-C ) :   1.5936 B( 33-C , 34-C ) :   1.1520 B( 33-C , 78-H ) :   0.9456
B( 34-C , 35-S ) :   1.0932 B( 34-C , 38-C ) :   1.4595 B( 35-S , 36-C ) :   1.0644
B( 36-C , 37-C ) :   1.4292 B( 36-C , 43-C ) :   1.1448 B( 37-C , 38-C ) :   1.2207
B( 37-C , 41-O ) :   1.2031 B( 38-C , 39-C ) :   1.0955 B( 39-C , 40-C ) :   1.9255
B( 39-C , 79-H ) :   0.9520 B( 40-C , 80-H ) :   0.9516 B( 40-C , 81-H ) :   0.9492
B( 41-O , 42-C ) :   0.9532 B( 42-C , 82-H ) :   0.9736 B( 42-C , 83-H ) :   0.9676
B( 42-C , 84-H ) :   0.9666 B( 43-C , 44-C ) :   1.6565 B( 43-C , 85-H ) :   0.9747
B( 44-C , 45-C ) :   1.1570 B( 44-C , 86-H ) :   0.9606 B( 45-C , 46-S ) :   1.1253
B( 45-C , 49-C ) :   1.4924 B( 46-S , 47-C ) :   1.1506 B( 47-C , 48-C ) :   1.5805
B( 47-C , 87-H ) :   0.9683 B( 48-C , 49-C ) :   1.2974 B( 48-C , 54-C ) :   0.9666
B( 49-C , 50-C ) :   0.9677 B( 50-C , 51-S ) :   1.0396 B( 50-C , 52-C ) :   1.0185
B( 50-C , 88-H ) :   0.9142 B( 51-S , 89-H ) :   0.9525 B( 52-C , 53-C ) :   1.0560
B( 52-C , 90-H ) :   0.9350 B( 52-C , 91-H ) :   0.9279 B( 53-C , 54-C ) :   1.0474
B( 53-C , 92-H ) :   0.9277 B( 53-C , 93-H ) :   0.9335 B( 54-C , 55-O ) :   1.0522
B( 54-C , 94-H ) :   0.9086 B( 55-O , 95-H ) :   0.9823

-----------------------------------------------------------------------------
         ABSORPTION SPECTRUM VIA TRANSITION ELECTRIC DIPOLE MOMENTS
-----------------------------------------------------------------------------
State   Energy  Wavelength   fosc         T2         TX        TY        TZ
        (cm-1)    (nm)                  (au**2)     (au)      (au)      (au)
-----------------------------------------------------------------------------
   0   12604.9    793.3   1.249436094  32.63256  -3.99241  -1.04712   3.94927
   1   19970.6    500.7   0.098102965   1.61721   0.27874   1.24057  -0.02254
   2   22280.1    448.8   1.207908386  17.84814  -0.16197   4.14084   0.82180
   3   24486.4    408.4   0.249908874   3.35994  -0.80166   1.54847   0.56527
   4   24983.1    400.3   0.087754086   1.15637   0.04241   0.99311   0.41026
   5   27122.4    368.7   0.161369911   1.95871  -1.05852  -0.78342  -0.47381
   6   29036.2    344.4   0.078647325   0.89170  -0.91119  -0.18499  -0.16494
   7   30619.1    326.6   0.144536284   1.55403   1.16483  -0.21505  -0.38854
   8   31473.9    317.7   0.040998578   0.42884   0.39780   0.39674   0.33643
   9   32419.3    308.5   0.011187321   0.11361  -0.00315  -0.32728   0.08054
  10   32792.6    304.9   0.006295071   0.06320   0.00806   0.14486  -0.20530
  11   33347.5    299.9   0.054156640   0.53464  -0.49046  -0.01524   0.54209
  12   33827.4    295.6   0.131583837   1.28059  -0.68294   0.81744   0.38205
  13   34223.0    292.2   0.030315386   0.29162   0.00704   0.53955   0.02152
  14   34411.0    290.6   0.049474710   0.47333   0.03879   0.68686   0.00676
  15   35006.3    285.7   0.093343589   0.87784   0.91385   0.19962  -0.05358
  16   35348.8    282.9   0.025524163   0.23771   0.13822   0.23628  -0.40346
  17   35997.8    277.8   0.041482695   0.37937   0.38209   0.48273  -0.01874
  18   36325.1    275.3   0.071085778   0.64425  -0.53784  -0.43472   0.40742
  19   36858.9    271.3   0.087600154   0.78242   0.77477   0.42301  -0.05663
  20   37509.9    266.6   0.009869882   0.08662   0.17047  -0.21049   0.11514
  21   37993.4    263.2   0.142382220   1.23374  -0.97970  -0.01471   0.52318
  22   38781.7    257.9   0.062837331   0.53342  -0.47501   0.31781   0.45472
  23   39186.2    255.2   0.001619367   0.01360   0.02579   0.08941  -0.07032
  24   39836.0    251.0   0.083434541   0.68952   0.77822  -0.04814  -0.28560
  25   40102.0    249.4   0.017721246   0.14548   0.37958  -0.03676   0.00677
  26   40288.2    248.2   0.004954466   0.04049   0.13135   0.13370   0.07320

FINAL SINGLE POINT ENERGY     -5183.538863164381

DIPOLE MOMENT
-------------
                                X             Y             Z
Electronic contribution:    -11.79345      13.73883       1.92963
Nuclear contribution   :     11.67503     -13.25472      -1.68835
                        -----------------------------------------
Total Dipole Moment    :     -0.11842       0.48411       0.24128
                        -----------------------------------------
Magnitude (a.u.)       :      0.55371
Magnitude (Debye)      :      1.40742

Rotational constants in cm-1:     0.001522     0.000364     0.000307
Rotational constants in MHz :    45.617921    10.905301     9.199027

                             ****ORCA TERMINATED NORMALLY****
TOTAL RUN TIME: 0 days 0 hours 11 minutes 16 seconds 861 msec
