                         Program Version 4.2.0 -  RELEASE  -
|  1> # ORCA input file
|  2> # SCF done       -165.194840684094          0.000762116723
|  3> ! CAM-B3LYP def2-SVP def2/J RIJCOSX Grid4 TightSCF
|  4> %maxcore 5000
|  5> %tddft
|  6>     Mode sTDDFT
|  7>     Ethresh 5.0
|  8>     maxcore 5000
|  9> end
| 10>
| 11> %pal
| 12>   nprocs 6
| 13>   end
| 14> * xyz 0 1
| 15>    C        0.86437        -5.15620         3.08149
| 16>    N        1.28108        -6.13958         3.80604
| 17>    C        2.06245        -6.91480         3.00534
| 18>    C        2.11478        -6.38408         1.74425
| 19>    N        1.34963        -5.21965         1.79128
| 20>    C        0.87568        -4.52496         0.67563
| 21>    O        0.77161        -5.02227        -0.41297
| 22>    N        0.53283        -3.20679         0.93717
| 23>    C       -0.29887        -2.44325         0.13928
| 24>    C       -0.33174        -1.21013         0.70162
| 25>    N        0.47689        -1.17421         1.80564
| 26>    C        0.97285        -2.35709         1.93116
| 27>    C        2.72875        -6.86928         0.54006
| 28>    O        3.36249        -6.03177        -0.32181
| 29>    C        2.67407        -8.12085        -0.01229
| 30>    C        2.21250        -9.50075         0.20326
| 31>    O        1.77626       -10.04726         1.17944
| 32>    N        2.49975       -10.12164        -1.01134
| 33>    C        3.08330        -9.31256        -1.97917
| 34>    O        3.35220        -9.65858        -3.10269
| 35>    C        3.23727        -8.01863        -1.31057
| 36>    C        3.67226        -6.71511        -1.45881
| 37>    C        4.36532        -6.06235        -2.51613
| 38>    C        4.28909        -6.50300        -3.79678
| 39>    C        4.92443        -5.90355        -4.91114
| 40>    C        4.38222        -5.96243        -6.16655
| 41>    C        4.86170        -5.40071        -7.38151
| 42>    C        3.95600        -5.40654        -8.39792
| 43>    C        2.69321        -5.93179        -8.02940
| 44>    S        2.75989        -6.59224        -6.41003
| 45>    C        1.46093        -5.79586        -8.63785
| 46>    C        1.08511        -5.19784        -9.86301
| 47>    C       -0.25547        -4.97586        -9.97458
| 48>    C       -1.00544        -5.34630        -8.82510
| 49>    S        0.03930        -6.15928        -7.68308
| 50>    C       -2.29423        -4.99169        -8.49980
| 51>    C       -2.78308        -5.16852        -7.19172
| 52>    O       -2.04703        -5.92830        -6.33230
| 53>    C       -3.80211        -4.57307        -6.45514
| 54>    C       -4.93942        -3.66308        -6.51948
| 55>    O       -5.46623        -3.10026        -7.44472
| 56>    N       -5.34448        -3.54314        -5.18125
| 57>    C       -4.58358        -4.25501        -4.26765
| 58>    O       -4.71480        -4.23019        -3.06660
| 59>    C       -3.60464        -4.95260        -5.10197
| 60>    C       -2.51043        -5.79306        -5.06229
| 61>    C       -1.82148        -6.48261        -4.03281
| 62>    C       -2.09103        -6.32446        -2.71794
| 63>    C       -1.38504        -7.04003        -1.70809
| 64>    C       -0.42723        -8.02814        -1.82116
| 65>    N        0.01640        -8.40780        -0.60113
| 66>    C       -0.60337        -7.66762         0.26289
| 67>    N       -1.50030        -6.82060        -0.33460
| 68>    C       -2.20189        -5.82618         0.36136
| 69>    O       -1.67776        -5.18189         1.23518
| 70>    N       -3.52239        -5.68559        -0.00204
| 71>    C       -4.34427        -4.62204         0.33803
| 72>    C       -5.58647        -4.95854        -0.08177
| 73>    N       -5.57557        -6.21029        -0.64111
| 74>    C       -4.35934        -6.61920        -0.59705
| 75>    H        0.17754        -4.40145         3.40602
| 76>    H        2.53508        -7.80204         3.37303
| 77>    H       -0.77757        -2.86211        -0.72071
| 78>    H       -0.87278        -0.33918         0.39280
| 79>    H        1.67905        -2.64864         2.68215
| 80>    H        2.25481       -11.08431        -1.19271
| 81>    H        4.89865        -5.15624        -2.26558
| 82>    H        3.64063        -7.34506        -4.00714
| 83>    H        5.82399        -5.32206        -4.76188
| 84>    H        5.85366        -4.99024        -7.45313
| 85>    H        4.13651        -4.99972        -9.37714
| 86>    H        1.80776        -4.92518       -10.61176
| 87>    H       -0.72563        -4.50091       -10.81737
| 88>    H       -2.90669        -4.44564        -9.19847
| 89>    H       -6.11905        -2.95651        -4.90608
| 90>    H       -1.03205        -7.13777        -4.36880
| 91>    H       -2.86427        -5.62705        -2.42897
| 92>    H       -0.03910        -8.48594        -2.70820
| 93>    H       -0.48442        -7.72510         1.32625
| 94>    H       -3.94938        -3.75146         0.81780
| 95>    H       -6.49508        -4.39592        -0.02360
| 96>    H       -4.01308        -7.57398        -0.93851
| 97> *
| 98>
| 99>                          ****END OF INPUT****

CARTESIAN COORDINATES (ANGSTROEM)
---------------------------------
  C      0.864370   -5.156200    3.081490
  N      1.281080   -6.139580    3.806040
  C      2.062450   -6.914800    3.005340
  C      2.114780   -6.384080    1.744250
  N      1.349630   -5.219650    1.791280
  C      0.875680   -4.524960    0.675630
  O      0.771610   -5.022270   -0.412970
  N      0.532830   -3.206790    0.937170
  C     -0.298870   -2.443250    0.139280
  C     -0.331740   -1.210130    0.701620
  N      0.476890   -1.174210    1.805640
  C      0.972850   -2.357090    1.931160
  C      2.728750   -6.869280    0.540060
  O      3.362490   -6.031770   -0.321810
  C      2.674070   -8.120850   -0.012290
  C      2.212500   -9.500750    0.203260
  O      1.776260  -10.047260    1.179440
  N      2.499750  -10.121640   -1.011340
  C      3.083300   -9.312560   -1.979170
  O      3.352200   -9.658580   -3.102690
  C      3.237270   -8.018630   -1.310570
  C      3.672260   -6.715110   -1.458810
  C      4.365320   -6.062350   -2.516130
  C      4.289090   -6.503000   -3.796780
  C      4.924430   -5.903550   -4.911140
  C      4.382220   -5.962430   -6.166550
  C      4.861700   -5.400710   -7.381510
  C      3.956000   -5.406540   -8.397920
  C      2.693210   -5.931790   -8.029400
  S      2.759890   -6.592240   -6.410030
  C      1.460930   -5.795860   -8.637850
  C      1.085110   -5.197840   -9.863010
  C     -0.255470   -4.975860   -9.974580
  C     -1.005440   -5.346300   -8.825100
  S      0.039300   -6.159280   -7.683080
  C     -2.294230   -4.991690   -8.499800
  C     -2.783080   -5.168520   -7.191720
  O     -2.047030   -5.928300   -6.332300
  C     -3.802110   -4.573070   -6.455140
  C     -4.939420   -3.663080   -6.519480
  O     -5.466230   -3.100260   -7.444720
  N     -5.344480   -3.543140   -5.181250
  C     -4.583580   -4.255010   -4.267650
  O     -4.714800   -4.230190   -3.066600
  C     -3.604640   -4.952600   -5.101970
  C     -2.510430   -5.793060   -5.062290
  C     -1.821480   -6.482610   -4.032810
  C     -2.091030   -6.324460   -2.717940
  C     -1.385040   -7.040030   -1.708090
  C     -0.427230   -8.028140   -1.821160
  N      0.016400   -8.407800   -0.601130
  C     -0.603370   -7.667620    0.262890
  N     -1.500300   -6.820600   -0.334600
  C     -2.201890   -5.826180    0.361360
  O     -1.677760   -5.181890    1.235180
  N     -3.522390   -5.685590   -0.002040
  C     -4.344270   -4.622040    0.338030
  C     -5.586470   -4.958540   -0.081770
  N     -5.575570   -6.210290   -0.641110
  C     -4.359340   -6.619200   -0.597050
  H      0.177540   -4.401450    3.406020
  H      2.535080   -7.802040    3.373030
  H     -0.777570   -2.862110   -0.720710
  H     -0.872780   -0.339180    0.392800
  H      1.679050   -2.648640    2.682150
  H      2.254810  -11.084310   -1.192710
  H      4.898650   -5.156240   -2.265580
  H      3.640630   -7.345060   -4.007140
  H      5.823990   -5.322060   -4.761880
  H      5.853660   -4.990240   -7.453130
  H      4.136510   -4.999720   -9.377140
  H      1.807760   -4.925180  -10.611760
  H     -0.725630   -4.500910  -10.817370
  H     -2.906690   -4.445640   -9.198470
  H     -6.119050   -2.956510   -4.906080
  H     -1.032050   -7.137770   -4.368800
  H     -2.864270   -5.627050   -2.428970
  H     -0.039100   -8.485940   -2.708200
  H     -0.484420   -7.725100    1.326250
  H     -3.949380   -3.751460    0.817800
  H     -6.495080   -4.395920   -0.023600
  H     -4.013080   -7.573980   -0.938510

 Total Charge           Charge          ....    0
 Multiplicity           Mult            ....    1
 Number of Electrons    NEL             ....  428
 Basis Dimension        Dim             ....  958

ORBITAL ENERGIES
----------------

  NO   OCC          E(Eh)            E(eV)
   0   2.0000     -88.949707     -2420.4446
   1   2.0000     -88.947913     -2420.3958
   2   2.0000     -19.308121      -525.4007
   3   2.0000     -19.303907      -525.2860
   4   2.0000     -19.251420      -523.8578
   5   2.0000     -19.238815      -523.5148
   6   2.0000     -19.211500      -522.7715
   7   2.0000     -19.204447      -522.5796
   8   2.0000     -19.200998      -522.4857
   9   2.0000     -19.194113      -522.2984
  10   2.0000     -14.500727      -394.5848
  11   2.0000     -14.500504      -394.5788
  12   2.0000     -14.499502      -394.5515
  13   2.0000     -14.496463      -394.4688
  14   2.0000     -14.451062      -393.2334
  15   2.0000     -14.441328      -392.9685
  16   2.0000     -14.409864      -392.1123
  17   2.0000     -14.406200      -392.0126
  18   2.0000     -14.402483      -391.9115
  19   2.0000     -14.402157      -391.9026
  20   2.0000     -10.464175      -284.7447
  21   2.0000     -10.456026      -284.5229
  22   2.0000     -10.398373      -282.9541
  23   2.0000     -10.394325      -282.8440
  24   2.0000     -10.389917      -282.7240
  25   2.0000     -10.387461      -282.6572
  26   2.0000     -10.360224      -281.9160
  27   2.0000     -10.358297      -281.8636
  28   2.0000     -10.354122      -281.7500
  29   2.0000     -10.353977      -281.7460
  30   2.0000     -10.345163      -281.5062
  31   2.0000     -10.345129      -281.5053
  32   2.0000     -10.341505      -281.4067
  33   2.0000     -10.341088      -281.3953
  34   2.0000     -10.327923      -281.0371
  35   2.0000     -10.327750      -281.0324
  36   2.0000     -10.322835      -280.8986
  37   2.0000     -10.322551      -280.8909
  38   2.0000     -10.316926      -280.7378
  39   2.0000     -10.311967      -280.6029
  40   2.0000     -10.311354      -280.5862
  41   2.0000     -10.309980      -280.5488
  42   2.0000     -10.301997      -280.3316
  43   2.0000     -10.300980      -280.3039
  44   2.0000     -10.300027      -280.2780
  45   2.0000     -10.299948      -280.2758
  46   2.0000     -10.298537      -280.2375
  47   2.0000     -10.297138      -280.1994
  48   2.0000     -10.295641      -280.1586
  49   2.0000     -10.294324      -280.1228
  50   2.0000     -10.293166      -280.0913
  51   2.0000     -10.292898      -280.0840
  52   2.0000     -10.291088      -280.0347
  53   2.0000     -10.290646      -280.0227
  54   2.0000     -10.290109      -280.0081
  55   2.0000     -10.288337      -279.9599
  56   2.0000     -10.286994      -279.9233
  57   2.0000     -10.284957      -279.8679
  58   2.0000     -10.280971      -279.7594
  59   2.0000     -10.278673      -279.6969
  60   2.0000      -8.046342      -218.9521
  61   2.0000      -8.044062      -218.8901
  62   2.0000      -6.016131      -163.7072
  63   2.0000      -6.013990      -163.6490
  64   2.0000      -6.012042      -163.5960
  65   2.0000      -6.009480      -163.5263
  66   2.0000      -6.007070      -163.4607
  67   2.0000      -6.004812      -163.3992
  68   2.0000      -1.227446       -33.4005
  69   2.0000      -1.219872       -33.1944
  70   2.0000      -1.207707       -32.8634
  71   2.0000      -1.197000       -32.5720
  72   2.0000      -1.151489       -31.3336
  73   2.0000      -1.143055       -31.1041
  74   2.0000      -1.131667       -30.7942
  75   2.0000      -1.130443       -30.7609
  76   2.0000      -1.129163       -30.7261
  77   2.0000      -1.127409       -30.6783
  78   2.0000      -1.125047       -30.6141
  79   2.0000      -1.121831       -30.5266
  80   2.0000      -1.038749       -28.2658
  81   2.0000      -1.030055       -28.0292
  82   2.0000      -1.014970       -27.6187
  83   2.0000      -1.009923       -27.4814
  84   2.0000      -1.004874       -27.3440
  85   2.0000      -0.984539       -26.7907
  86   2.0000      -0.983221       -26.7548
  87   2.0000      -0.982526       -26.7359
  88   2.0000      -0.936115       -25.4730
  89   2.0000      -0.927259       -25.2320
  90   2.0000      -0.918299       -24.9882
  91   2.0000      -0.914210       -24.8769
  92   2.0000      -0.907321       -24.6895
  93   2.0000      -0.896217       -24.3873
  94   2.0000      -0.874842       -23.8057
  95   2.0000      -0.861278       -23.4366
  96   2.0000      -0.857282       -23.3278
  97   2.0000      -0.854736       -23.2586
  98   2.0000      -0.849143       -23.1064
  99   2.0000      -0.828859       -22.5544
 100   2.0000      -0.826914       -22.5015
 101   2.0000      -0.810759       -22.0619
 102   2.0000      -0.795666       -21.6512
 103   2.0000      -0.790666       -21.5151
 104   2.0000      -0.787073       -21.4173
 105   2.0000      -0.767370       -20.8812
 106   2.0000      -0.765432       -20.8285
 107   2.0000      -0.757167       -20.6036
 108   2.0000      -0.755880       -20.5685
 109   2.0000      -0.747057       -20.3285
 110   2.0000      -0.739780       -20.1304
 111   2.0000      -0.738686       -20.1007
 112   2.0000      -0.727042       -19.7838
 113   2.0000      -0.711304       -19.3556
 114   2.0000      -0.706077       -19.2133
 115   2.0000      -0.699150       -19.0248
 116   2.0000      -0.696356       -18.9488
 117   2.0000      -0.692021       -18.8308
 118   2.0000      -0.691524       -18.8173
 119   2.0000      -0.685326       -18.6487
 120   2.0000      -0.679639       -18.4939
 121   2.0000      -0.664522       -18.0826
 122   2.0000      -0.662338       -18.0231
 123   2.0000      -0.659535       -17.9469
 124   2.0000      -0.649418       -17.6716
 125   2.0000      -0.635944       -17.3049
 126   2.0000      -0.628906       -17.1134
 127   2.0000      -0.626348       -17.0438
 128   2.0000      -0.621291       -16.9062
 129   2.0000      -0.608258       -16.5515
 130   2.0000      -0.601401       -16.3650
 131   2.0000      -0.595868       -16.2144
 132   2.0000      -0.593396       -16.1471
 133   2.0000      -0.591260       -16.0890
 134   2.0000      -0.587711       -15.9924
 135   2.0000      -0.586401       -15.9568
 136   2.0000      -0.584879       -15.9154
 137   2.0000      -0.582660       -15.8550
 138   2.0000      -0.580026       -15.7833
 139   2.0000      -0.575592       -15.6626
 140   2.0000      -0.568950       -15.4819
 141   2.0000      -0.563501       -15.3336
 142   2.0000      -0.562485       -15.3060
 143   2.0000      -0.559596       -15.2274
 144   2.0000      -0.556024       -15.1302
 145   2.0000      -0.549069       -14.9409
 146   2.0000      -0.547672       -14.9029
 147   2.0000      -0.544573       -14.8186
 148   2.0000      -0.543968       -14.8021
 149   2.0000      -0.541642       -14.7388
 150   2.0000      -0.540381       -14.7045
 151   2.0000      -0.539365       -14.6769
 152   2.0000      -0.534660       -14.5488
 153   2.0000      -0.531842       -14.4721
 154   2.0000      -0.526502       -14.3269
 155   2.0000      -0.524180       -14.2637
 156   2.0000      -0.523277       -14.2391
 157   2.0000      -0.523030       -14.2324
 158   2.0000      -0.515974       -14.0404
 159   2.0000      -0.514558       -14.0018
 160   2.0000      -0.510400       -13.8887
 161   2.0000      -0.509281       -13.8582
 162   2.0000      -0.507354       -13.8058
 163   2.0000      -0.504974       -13.7410
 164   2.0000      -0.504497       -13.7281
 165   2.0000      -0.501308       -13.6413
 166   2.0000      -0.499859       -13.6018
 167   2.0000      -0.497095       -13.5266
 168   2.0000      -0.494473       -13.4553
 169   2.0000      -0.491036       -13.3618
 170   2.0000      -0.490434       -13.3454
 171   2.0000      -0.483557       -13.1583
 172   2.0000      -0.482338       -13.1251
 173   2.0000      -0.478260       -13.0141
 174   2.0000      -0.477097       -12.9825
 175   2.0000      -0.472522       -12.8580
 176   2.0000      -0.467552       -12.7227
 177   2.0000      -0.466044       -12.6817
 178   2.0000      -0.461802       -12.5663
 179   2.0000      -0.454574       -12.3696
 180   2.0000      -0.439508       -11.9596
 181   2.0000      -0.428421       -11.6579
 182   2.0000      -0.425662       -11.5829
 183   2.0000      -0.420114       -11.4319
 184   2.0000      -0.417227       -11.3533
 185   2.0000      -0.409468       -11.1422
 186   2.0000      -0.393732       -10.7140
 187   2.0000      -0.392821       -10.6892
 188   2.0000      -0.388285       -10.5658
 189   2.0000      -0.381585       -10.3835
 190   2.0000      -0.378711       -10.3053
 191   2.0000      -0.375537       -10.2189
 192   2.0000      -0.372770       -10.1436
 193   2.0000      -0.368405       -10.0248
 194   2.0000      -0.365481        -9.9452
 195   2.0000      -0.362387        -9.8610
 196   2.0000      -0.359924        -9.7940
 197   2.0000      -0.358172        -9.7464
 198   2.0000      -0.357734        -9.7344
 199   2.0000      -0.355120        -9.6633
 200   2.0000      -0.354302        -9.6410
 201   2.0000      -0.353027        -9.6063
 202   2.0000      -0.349966        -9.5231
 203   2.0000      -0.346758        -9.4358
 204   2.0000      -0.343064        -9.3352
 205   2.0000      -0.335729        -9.1357
 206   2.0000      -0.330494        -8.9932
 207   2.0000      -0.326460        -8.8834
 208   2.0000      -0.321084        -8.7371
 209   2.0000      -0.317808        -8.6480
 210   2.0000      -0.310213        -8.4413
 211   2.0000      -0.285648        -7.7729
 212   2.0000      -0.259991        -7.0747
 213   2.0000      -0.221940        -6.0393
 214   0.0000      -0.092271        -2.5108
 215   0.0000      -0.056838        -1.5466
 216   0.0000      -0.040575        -1.1041
 217   0.0000      -0.032713        -0.8902
 218   0.0000      -0.030516        -0.8304

MULLIKEN ATOMIC CHARGES
-----------------------
   0 C :    0.096672
   1 N :   -0.090794
   2 C :   -0.005932
   3 C :    0.037280
   4 N :   -0.197058
   5 C :    0.262724
   6 O :   -0.171861
   7 N :   -0.176118
   8 C :    0.086037
   9 C :    0.012601
  10 N :   -0.113823
  11 C :    0.084957
  12 C :    0.084819
  13 O :   -0.203889
  14 C :   -0.017022
  15 C :    0.217644
  16 O :   -0.148056
  17 N :   -0.164334
  18 C :    0.163172
  19 O :   -0.161495
  20 C :   -0.080379
  21 C :    0.122292
  22 C :   -0.013546
  23 C :   -0.003032
  24 C :   -0.003694
  25 C :   -0.027679
  26 C :    0.042514
  27 C :    0.040327
  28 C :   -0.048857
  29 S :    0.080824
  30 C :   -0.052230
  31 C :    0.043697
  32 C :    0.031529
  33 C :   -0.023187
  34 S :    0.096184
  35 C :   -0.035050
  36 C :    0.099273
  37 O :   -0.237966
  38 C :   -0.029663
  39 C :    0.152539
  40 O :   -0.144340
  41 N :   -0.164647
  42 C :    0.189609
  43 O :   -0.166323
  44 C :   -0.087890
  45 C :    0.135254
  46 C :   -0.001838
  47 C :   -0.012187
  48 C :    0.117533
  49 C :   -0.019484
  50 N :   -0.120987
  51 C :    0.143438
  52 N :   -0.178448
  53 C :    0.231828
  54 O :   -0.184137
  55 N :   -0.175762
  56 C :    0.085557
  57 C :    0.047883
  58 N :   -0.100396
  59 C :    0.090414
  60 H :    0.050469
  61 H :    0.005793
  62 H :    0.022163
  63 H :    0.008909
  64 H :    0.042620
  65 H :    0.134340
  66 H :   -0.002662
  67 H :    0.037929
  68 H :   -0.002227
  69 H :   -0.004275
  70 H :   -0.006351
  71 H :   -0.007682
  72 H :   -0.004269
  73 H :    0.007059
  74 H :    0.135586
  75 H :   -0.005428
  76 H :    0.030311
  77 H :    0.004090
  78 H :    0.041078
  79 H :    0.024303
  80 H :    0.008667
  81 H :    0.045078
Sum of atomic charges:   -0.0000000

LOEWDIN ATOMIC CHARGES
----------------------
   0 C :    0.042182
   1 N :   -0.088494
   2 C :   -0.001824
   3 C :   -0.032161
   4 N :    0.028374
   5 C :    0.117836
   6 O :   -0.144239
   7 N :    0.035085
   8 C :   -0.003466
   9 C :   -0.025933
  10 N :   -0.093571
  11 C :    0.027478
  12 C :    0.037273
  13 O :    0.016681
  14 C :   -0.075641
  15 C :    0.085871
  16 O :   -0.165543
  17 N :    0.001747
  18 C :    0.082636
  19 O :   -0.173226
  20 C :   -0.102606
  21 C :    0.068704
  22 C :   -0.036667
  23 C :   -0.003963
  24 C :   -0.047654
  25 C :   -0.135294
  26 C :   -0.025554
  27 C :   -0.026259
  28 C :   -0.162827
  29 S :    0.381287
  30 C :   -0.191863
  31 C :   -0.021414
  32 C :   -0.037573
  33 C :   -0.123660
  34 S :    0.398908
  35 C :   -0.086830
  36 C :    0.070532
  37 O :    0.004878
  38 C :   -0.107889
  39 C :    0.084538
  40 O :   -0.163400
  41 N :   -0.006157
  42 C :    0.088586
  43 O :   -0.173722
  44 C :   -0.098704
  45 C :    0.062904
  46 C :   -0.029651
  47 C :   -0.015292
  48 C :   -0.022213
  49 C :   -0.012226
  50 N :   -0.069229
  51 C :    0.058732
  52 N :    0.033446
  53 C :    0.126193
  54 O :   -0.149079
  55 N :    0.030008
  56 C :   -0.001839
  57 C :   -0.006385
  58 N :   -0.079205
  59 C :    0.035838
  60 H :    0.027137
  61 H :    0.031181
  62 H :    0.029759
  63 H :    0.024483
  64 H :    0.024069
  65 H :    0.092345
  66 H :    0.036491
  67 H :    0.030850
  68 H :    0.035755
  69 H :    0.035964
  70 H :    0.034492
  71 H :    0.033417
  72 H :    0.035297
  73 H :    0.047671
  74 H :    0.093185
  75 H :    0.040091
  76 H :    0.033706
  77 H :    0.023610
  78 H :    0.028708
  79 H :    0.032131
  80 H :    0.025721
  81 H :    0.025474

  Mayer bond orders larger than 0.100000
B(  0-C ,  1-N ) :   1.7435 B(  0-C ,  3-C ) :   0.1037 B(  0-C ,  4-N ) :   1.0878
B(  0-C , 60-H ) :   0.9712 B(  1-N ,  2-C ) :   1.3466 B(  2-C ,  3-C ) :   1.5789
B(  2-C , 61-H ) :   1.0118 B(  3-C ,  4-N ) :   1.1061 B(  3-C , 12-C ) :   0.9764
B(  4-N ,  5-C ) :   0.9874 B(  5-C ,  6-O ) :   2.1252 B(  5-C ,  7-N ) :   1.0086
B(  7-N ,  8-C ) :   1.1027 B(  7-N , 11-C ) :   1.0980 B(  8-C ,  9-C ) :   1.5860
B(  8-C , 62-H ) :   0.9926 B(  9-C , 10-N ) :   1.3238 B(  9-C , 63-H ) :   1.0006
B( 10-N , 11-C ) :   1.7633 B( 11-C , 64-H ) :   0.9749 B( 12-C , 13-O ) :   1.1334
B( 12-C , 14-C ) :   1.5569 B( 13-O , 21-C ) :   1.1349 B( 14-C , 15-C ) :   0.8500
B( 14-C , 20-C ) :   1.2650 B( 15-C , 16-O ) :   2.2676 B( 15-C , 17-N ) :   1.0664
B( 17-N , 18-C ) :   1.1047 B( 17-N , 65-H ) :   0.9160 B( 18-C , 19-O ) :   2.1971
B( 18-C , 20-C ) :   0.8843 B( 20-C , 21-C ) :   1.4347 B( 21-C , 22-C ) :   1.1348
B( 22-C , 23-C ) :   1.6634 B( 22-C , 66-H ) :   0.9673 B( 23-C , 24-C ) :   1.1290
B( 23-C , 67-H ) :   0.9514 B( 24-C , 25-C ) :   1.6110 B( 24-C , 68-H ) :   0.9812
B( 25-C , 26-C ) :   1.1305 B( 25-C , 29-S ) :   1.0361 B( 26-C , 27-C ) :   1.6109
B( 26-C , 69-H ) :   0.9968 B( 27-C , 28-C ) :   1.1770 B( 27-C , 70-H ) :   0.9934
B( 28-C , 29-S ) :   1.0664 B( 28-C , 30-C ) :   1.5080 B( 30-C , 31-C ) :   1.1834
B( 30-C , 34-S ) :   1.0241 B( 31-C , 32-C ) :   1.6019 B( 31-C , 71-H ) :   0.9953
B( 32-C , 33-C ) :   1.1424 B( 32-C , 72-H ) :   0.9976 B( 33-C , 34-S ) :   1.0782
B( 33-C , 35-C ) :   1.5253 B( 35-C , 36-C ) :   1.2272 B( 35-C , 73-H ) :   0.9713
B( 36-C , 37-O ) :   1.1058 B( 36-C , 38-C ) :   1.3595 B( 37-O , 45-C ) :   1.1043
B( 38-C , 39-C ) :   0.8990 B( 38-C , 44-C ) :   1.2819 B( 39-C , 40-O ) :   2.2713
B( 39-C , 41-N ) :   1.0531 B( 41-N , 42-C ) :   1.1135 B( 41-N , 74-H ) :   0.9159
B( 42-C , 43-O ) :   2.1492 B( 42-C , 44-C ) :   0.8935 B( 44-C , 45-C ) :   1.4320
B( 45-C , 46-C ) :   1.1589 B( 46-C , 47-C ) :   1.6639 B( 46-C , 75-H ) :   0.9658
B( 47-C , 48-C ) :   1.0932 B( 47-C , 76-H ) :   0.9469 B( 48-C , 49-C ) :   1.4918
B( 48-C , 52-N ) :   1.0731 B( 49-C , 50-N ) :   1.3681 B( 49-C , 77-H ) :   0.9945
B( 50-N , 51-C ) :   1.6529 B( 51-C , 52-N ) :   1.1271 B( 51-C , 78-H ) :   0.9734
B( 52-N , 53-C ) :   0.9878 B( 53-C , 54-O ) :   2.0879 B( 53-C , 55-N ) :   1.0560
B( 55-N , 56-C ) :   1.0741 B( 55-N , 59-C ) :   1.0609 B( 56-C , 57-C ) :   1.6034
B( 56-C , 79-H ) :   0.9945 B( 57-C , 58-N ) :   1.3002 B( 57-C , 80-H ) :   0.9998
B( 58-N , 59-C ) :   1.7920 B( 59-C , 81-H ) :   0.9761

-----------------------------------------------------------------------------
         ABSORPTION SPECTRUM VIA TRANSITION ELECTRIC DIPOLE MOMENTS
-----------------------------------------------------------------------------
State   Energy  Wavelength   fosc         T2         TX        TY        TZ
        (cm-1)    (nm)                  (au**2)     (au)      (au)      (au)
-----------------------------------------------------------------------------
   0   13524.2    739.4   0.546020880  13.29146   3.38313  -0.56733   1.23452
   1   19675.8    508.2   0.035565694   0.59508  -0.47119   0.34441  -0.50442
   2   21933.8    455.9   0.548680299   8.23534  -0.54972   0.98125  -2.64013
   3   24348.7    410.7   0.969171361  13.10388   1.43651   0.21427  -3.31578
   4   26922.7    371.4   0.119207479   1.45768  -0.75953  -0.16494   0.92390
   5   27048.7    369.7   0.034917487   0.42498  -0.49657  -0.02065   0.42187
   6   27749.7    360.4   0.043419541   0.51511  -0.11909   0.43799   0.55597
   7   28407.2    352.0   0.368680588   4.27265   1.67779  -0.78860   0.91421
   8   29204.1    342.4   0.060368481   0.68052  -0.73805   0.25414  -0.26688
   9   31117.9    321.4   0.085127788   0.90061  -0.66463  -0.33168  -0.59064
  10   31863.4    313.8   0.015257363   0.15764   0.23850   0.17266   0.26636
  11   32421.6    308.4   0.092332414   0.93755   0.06637   0.71528  -0.64925
  12   32750.5    305.3   0.090661126   0.91134  -0.71043   0.51382   0.37765
  13   32881.0    304.1   0.109250820   1.09384  -0.48970  -0.19185  -0.90401
  14   33670.4    297.0   0.223895463   2.18914  -0.22470  -0.31320   1.42848
  15   34018.3    294.0   0.103661049   1.00318   0.83129  -0.55823  -0.02279
  16   34633.5    288.7   0.028979299   0.27547  -0.33357   0.16841  -0.36856
  17   35150.2    284.5   0.040788059   0.38202   0.35428  -0.21734   0.45746
  18   35910.8    278.5   0.027251183   0.24982  -0.24997  -0.06776  -0.42749
  19   36687.8    272.6   0.001394283   0.01251   0.05324  -0.06755  -0.07151
  20   36771.6    271.9   0.003351518   0.03001  -0.15296   0.03558   0.07310
  21   37037.2    270.0   0.031138994   0.27678   0.10995  -0.50988   0.06867
  22   37685.8    265.4   0.003469242   0.03031  -0.03791   0.00035  -0.16991
  23   37905.7    263.8   0.011985958   0.10410   0.17306   0.09787   0.25411
  24   38031.5    262.9   0.057532848   0.49802  -0.17158  -0.07656  -0.68023
  25   38208.9    261.7   0.105434603   0.90843  -0.28878   0.58134   0.69791
  26   38550.7    259.4   0.039241181   0.33511   0.53486   0.16688   0.14557
  27   38951.2    256.7   0.034301444   0.28991   0.19814  -0.23096   0.44420
  28   39019.6    256.3   0.045415948   0.38318   0.22036   0.56344   0.13099
  29   39178.6    255.2   0.037457499   0.31475  -0.35984   0.00569  -0.43039
  30   39587.0    252.6   0.001620245   0.01347   0.11567  -0.00082   0.00967

FINAL SINGLE POINT ENERGY     -3479.658885187090

DIPOLE MOMENT
-------------
                                X             Y             Z
Electronic contribution:     -1.76103      -8.32962       0.71654
Nuclear contribution   :      2.95296       9.54583      -2.66853
                        -----------------------------------------
Total Dipole Moment    :      1.19193       1.21621      -1.95199
                        -----------------------------------------
Magnitude (a.u.)       :      2.59039
Magnitude (Debye)      :      6.58425

Rotational constants in cm-1:     0.001613     0.001191     0.000847
Rotational constants in MHz :    48.343743    35.713351    25.378471

                             ****ORCA TERMINATED NORMALLY****
TOTAL RUN TIME: 0 days 0 hours 7 minutes 11 seconds 2 msec
