                         Program Version 4.2.0 -  RELEASE  -
|  1> # ORCA input file
|  2> # SCF done       -137.071925165194          0.000506684171
|  3> ! CAM-B3LYP def2-SVP def2/J RIJCOSX Grid4 TightSCF
|  4> %maxcore 5000
|  5> %tddft
|  6>     Mode sTDDFT
|  7>     Ethresh 5.0
|  8>     maxcore 5000
|  9> end
| 10>
| 11> %pal
| 12>   nprocs 6
| 13>   end
| 14> * xyz 0 1
| 15>    C       -2.45111        -0.84478         2.68621
| 16>    C       -2.77574        -2.16225         2.43722
| 17>    C       -1.95731        -3.25748         2.76823
| 18>    N       -1.34815        -4.20357         3.00620
| 19>    C       -3.95582        -2.62663         1.82637
| 20>    N       -4.87878        -3.11421         1.34304
| 21>    C       -1.21571        -0.39929         3.33179
| 22>    C       -1.23836         1.01288         3.42334
| 23>    C       -0.21754         1.73496         3.98753
| 24>    C        0.88429         1.02891         4.48585
| 25>    C        0.89891        -0.38002         4.38746
| 26>    C       -0.13698        -1.11154         3.81694
| 27>    S        2.35371        -1.05328         5.06209
| 28>    C        2.91291         0.54924         5.46080
| 29>    C        2.05766         1.53727         5.10914
| 30>   Br        4.57554         0.76575         6.30477
| 31>    C       -2.49853         1.51578         2.82798
| 32>    O       -2.83340         2.68315         2.74366
| 33>    C       -3.22811         0.32149         2.37901
| 34>    C       -4.46967         0.34124         1.76215
| 35>    C       -5.20871         1.47288         1.46224
| 36>    C       -6.45290         1.39893         0.84919
| 37>    C       -7.29948         2.46267         0.48306
| 38>    C       -8.47275         2.06791        -0.10644
| 39>    C       -8.59863         0.67514        -0.22639
| 40>    S       -7.18788        -0.12699         0.42383
| 41>    C       -9.63683        -0.08524        -0.75363
| 42>    C      -10.85443         0.32228        -1.32849
| 43>    C      -11.64118        -0.72038        -1.73459
| 44>    C      -11.08382        -1.99628        -1.49807
| 45>    S       -9.51402        -1.82336        -0.74397
| 46>    C      -11.65930        -3.21629        -1.79276
| 47>    C      -11.11412        -4.47634        -1.54492
| 48>    S       -9.55357        -4.69578        -0.80051
| 49>    C       -9.69311        -6.43118        -0.86341
| 50>    C      -10.92085        -6.80952        -1.42491
| 51>    C      -11.69806        -5.72649        -1.81934
| 52>    C      -13.03789        -5.88204        -2.46805
| 53>    C      -13.23186        -7.30732        -2.97682
| 54>    C      -12.87791        -8.31223        -1.87139
| 55>    N      -13.20732        -9.69267        -2.17846
| 56>    C      -11.37843        -8.22517        -1.57408
| 57>    C       -8.58876        -7.15077        -0.36461
| 58>    C       -8.34301        -8.49288        -0.38522
| 59>    C       -7.15912        -9.03073         0.16314
| 60>    C       -6.86170       -10.36122         0.16729
| 61>    C       -5.68868       -10.95532         0.70026
| 62>    C       -4.64989       -10.30099         1.28667
| 63>    C       -3.49970       -10.95405         1.79915
| 64>    C       -2.46508       -10.29892         2.37596
| 65>    C       -1.29927       -10.94783         2.89636
| 66>    C       -0.28589       -10.29262         3.46695
| 67>    H       -0.26422         2.81135         4.04411
| 68>    H       -0.07732        -2.18582         3.76708
| 69>    H        2.24339         2.58189         5.28073
| 70>    H       -4.90770        -0.61089         1.48650
| 71>    H       -4.81479         2.44783         1.70865
| 72>    H       -7.02413         3.48680         0.66243
| 73>    H       -9.23603         2.74416        -0.44854
| 74>    H      -11.12185         1.35873        -1.42972
| 75>    H      -12.60685        -0.60560        -2.19530
| 76>    H      -12.63762        -3.18763        -2.25431
| 77>    H      -13.13745        -5.17500        -3.29517
| 78>    H      -13.81833        -5.64481        -1.73697
| 79>    H      -12.58546        -7.48253        -3.84100
| 80>    H      -14.26812        -7.44706        -3.29454
| 81>    H      -13.43573        -8.04661        -0.96510
| 82>    H      -12.75505        -9.97999        -3.04066
| 83>    H      -14.20742        -9.80366        -2.30202
| 84>    H      -10.82871        -8.70237        -2.39264
| 85>    H      -11.16793        -8.78610        -0.66239
| 86>    H       -7.82240        -6.52203         0.07497
| 87>    H       -9.04028        -9.18263        -0.83462
| 88>    H       -6.46541        -8.32606         0.59964
| 89>    H       -7.58223       -11.03968        -0.27382
| 90>    H       -5.62510       -12.03421         0.62450
| 91>    H       -4.67226        -9.22433         1.37911
| 92>    H       -3.46296       -12.03370         1.71561
| 93>    H       -2.49902        -9.22023         2.45924
| 94>    H       -1.26605       -12.02668         2.80843
| 95>    H       -0.29601        -9.21979         3.56514
| 96>    H        0.57991       -10.80379         3.85064
| 97> *
| 98>
| 99>                          ****END OF INPUT****

CARTESIAN COORDINATES (ANGSTROEM)
---------------------------------
  C     -2.451110   -0.844780    2.686210
  C     -2.775740   -2.162250    2.437220
  C     -1.957310   -3.257480    2.768230
  N     -1.348150   -4.203570    3.006200
  C     -3.955820   -2.626630    1.826370
  N     -4.878780   -3.114210    1.343040
  C     -1.215710   -0.399290    3.331790
  C     -1.238360    1.012880    3.423340
  C     -0.217540    1.734960    3.987530
  C      0.884290    1.028910    4.485850
  C      0.898910   -0.380020    4.387460
  C     -0.136980   -1.111540    3.816940
  S      2.353710   -1.053280    5.062090
  C      2.912910    0.549240    5.460800
  C      2.057660    1.537270    5.109140
  Br     4.575540    0.765750    6.304770
  C     -2.498530    1.515780    2.827980
  O     -2.833400    2.683150    2.743660
  C     -3.228110    0.321490    2.379010
  C     -4.469670    0.341240    1.762150
  C     -5.208710    1.472880    1.462240
  C     -6.452900    1.398930    0.849190
  C     -7.299480    2.462670    0.483060
  C     -8.472750    2.067910   -0.106440
  C     -8.598630    0.675140   -0.226390
  S     -7.187880   -0.126990    0.423830
  C     -9.636830   -0.085240   -0.753630
  C    -10.854430    0.322280   -1.328490
  C    -11.641180   -0.720380   -1.734590
  C    -11.083820   -1.996280   -1.498070
  S     -9.514020   -1.823360   -0.743970
  C    -11.659300   -3.216290   -1.792760
  C    -11.114120   -4.476340   -1.544920
  S     -9.553570   -4.695780   -0.800510
  C     -9.693110   -6.431180   -0.863410
  C    -10.920850   -6.809520   -1.424910
  C    -11.698060   -5.726490   -1.819340
  C    -13.037890   -5.882040   -2.468050
  C    -13.231860   -7.307320   -2.976820
  C    -12.877910   -8.312230   -1.871390
  N    -13.207320   -9.692670   -2.178460
  C    -11.378430   -8.225170   -1.574080
  C     -8.588760   -7.150770   -0.364610
  C     -8.343010   -8.492880   -0.385220
  C     -7.159120   -9.030730    0.163140
  C     -6.861700  -10.361220    0.167290
  C     -5.688680  -10.955320    0.700260
  C     -4.649890  -10.300990    1.286670
  C     -3.499700  -10.954050    1.799150
  C     -2.465080  -10.298920    2.375960
  C     -1.299270  -10.947830    2.896360
  C     -0.285890  -10.292620    3.466950
  H     -0.264220    2.811350    4.044110
  H     -0.077320   -2.185820    3.767080
  H      2.243390    2.581890    5.280730
  H     -4.907700   -0.610890    1.486500
  H     -4.814790    2.447830    1.708650
  H     -7.024130    3.486800    0.662430
  H     -9.236030    2.744160   -0.448540
  H    -11.121850    1.358730   -1.429720
  H    -12.606850   -0.605600   -2.195300
  H    -12.637620   -3.187630   -2.254310
  H    -13.137450   -5.175000   -3.295170
  H    -13.818330   -5.644810   -1.736970
  H    -12.585460   -7.482530   -3.841000
  H    -14.268120   -7.447060   -3.294540
  H    -13.435730   -8.046610   -0.965100
  H    -12.755050   -9.979990   -3.040660
  H    -14.207420   -9.803660   -2.302020
  H    -10.828710   -8.702370   -2.392640
  H    -11.167930   -8.786100   -0.662390
  H     -7.822400   -6.522030    0.074970
  H     -9.040280   -9.182630   -0.834620
  H     -6.465410   -8.326060    0.599640
  H     -7.582230  -11.039680   -0.273820
  H     -5.625100  -12.034210    0.624500
  H     -4.672260   -9.224330    1.379110
  H     -3.462960  -12.033700    1.715610
  H     -2.499020   -9.220230    2.459240
  H     -1.266050  -12.026680    2.808430
  H     -0.296010   -9.219790    3.565140
  H      0.579910  -10.803790    3.850640

 Total Charge           Charge          ....    0
 Multiplicity           Mult            ....    1
 Number of Electrons    NEL             ....  416
 Basis Dimension        Dim             ....  912

ORBITAL ENERGIES
----------------

  NO   OCC          E(Eh)            E(eV)
   0   2.0000    -482.871048    -13139.5892
   1   2.0000     -88.957827     -2420.6655
   2   2.0000     -88.957476     -2420.6560
   3   2.0000     -88.955834     -2420.6113
   4   2.0000     -88.948621     -2420.4150
   5   2.0000     -62.548757     -1702.0382
   6   2.0000     -56.382689     -1534.2510
   7   2.0000     -56.380011     -1534.1781
   8   2.0000     -56.379968     -1534.1769
   9   2.0000     -19.187780      -522.1260
  10   2.0000     -14.390780      -391.5930
  11   2.0000     -14.388680      -391.5359
  12   2.0000     -14.387331      -391.4992
  13   2.0000     -10.341066      -281.3947
  14   2.0000     -10.338006      -281.3114
  15   2.0000     -10.327831      -281.0346
  16   2.0000     -10.315422      -280.6969
  17   2.0000     -10.314105      -280.6611
  18   2.0000     -10.312322      -280.6126
  19   2.0000     -10.309828      -280.5447
  20   2.0000     -10.309325      -280.5310
  21   2.0000     -10.308808      -280.5169
  22   2.0000     -10.308102      -280.4977
  23   2.0000     -10.304907      -280.4108
  24   2.0000     -10.304532      -280.4006
  25   2.0000     -10.301198      -280.3099
  26   2.0000     -10.298664      -280.2409
  27   2.0000     -10.295840      -280.1640
  28   2.0000     -10.295622      -280.1581
  29   2.0000     -10.294226      -280.1201
  30   2.0000     -10.292803      -280.0814
  31   2.0000     -10.290252      -280.0120
  32   2.0000     -10.286366      -279.9062
  33   2.0000     -10.284511      -279.8558
  34   2.0000     -10.283972      -279.8411
  35   2.0000     -10.282943      -279.8131
  36   2.0000     -10.282586      -279.8034
  37   2.0000     -10.282316      -279.7960
  38   2.0000     -10.280775      -279.7541
  39   2.0000     -10.280706      -279.7522
  40   2.0000     -10.280174      -279.7378
  41   2.0000     -10.279751      -279.7262
  42   2.0000     -10.278634      -279.6959
  43   2.0000     -10.274202      -279.5752
  44   2.0000     -10.273482      -279.5557
  45   2.0000     -10.270523      -279.4752
  46   2.0000     -10.270271      -279.4683
  47   2.0000     -10.269114      -279.4368
  48   2.0000     -10.267757      -279.3999
  49   2.0000     -10.266675      -279.3704
  50   2.0000     -10.266207      -279.3577
  51   2.0000     -10.264803      -279.3195
  52   2.0000     -10.262976      -279.2698
  53   2.0000     -10.261603      -279.2324
  54   2.0000     -10.260804      -279.2107
  55   2.0000     -10.256508      -279.0938
  56   2.0000      -8.778172      -238.8662
  57   2.0000      -8.054029      -219.1613
  58   2.0000      -8.053383      -219.1437
  59   2.0000      -8.051452      -219.0911
  60   2.0000      -8.044596      -218.9046
  61   2.0000      -6.614395      -179.9868
  62   2.0000      -6.599924      -179.5930
  63   2.0000      -6.599786      -179.5893
  64   2.0000      -6.023701      -163.9133
  65   2.0000      -6.023101      -163.8969
  66   2.0000      -6.020667      -163.8307
  67   2.0000      -6.019398      -163.7961
  68   2.0000      -6.018817      -163.7803
  69   2.0000      -6.016601      -163.7200
  70   2.0000      -6.015203      -163.6820
  71   2.0000      -6.014622      -163.6662
  72   2.0000      -6.014135      -163.6529
  73   2.0000      -6.013486      -163.6353
  74   2.0000      -6.010087      -163.5428
  75   2.0000      -6.005918      -163.4293
  76   2.0000      -2.730261       -74.2942
  77   2.0000      -2.726227       -74.1844
  78   2.0000      -2.726097       -74.1809
  79   2.0000      -2.714615       -73.8684
  80   2.0000      -2.714598       -73.8680
  81   2.0000      -1.100530       -29.9470
  82   2.0000      -1.007169       -27.4064
  83   2.0000      -1.000799       -27.2331
  84   2.0000      -0.996661       -27.1205
  85   2.0000      -0.989682       -26.9306
  86   2.0000      -0.980982       -26.6939
  87   2.0000      -0.974743       -26.5241
  88   2.0000      -0.968974       -26.3671
  89   2.0000      -0.964671       -26.2500
  90   2.0000      -0.921950       -25.0875
  91   2.0000      -0.920800       -25.0563
  92   2.0000      -0.910242       -24.7689
  93   2.0000      -0.906090       -24.6560
  94   2.0000      -0.896395       -24.3921
  95   2.0000      -0.890624       -24.2351
  96   2.0000      -0.885569       -24.0976
  97   2.0000      -0.873033       -23.7564
  98   2.0000      -0.864698       -23.5296
  99   2.0000      -0.862958       -23.4823
 100   2.0000      -0.854584       -23.2544
 101   2.0000      -0.848579       -23.0910
 102   2.0000      -0.836960       -22.7748
 103   2.0000      -0.828629       -22.5481
 104   2.0000      -0.826582       -22.4924
 105   2.0000      -0.814479       -22.1631
 106   2.0000      -0.808244       -21.9934
 107   2.0000      -0.799058       -21.7435
 108   2.0000      -0.789405       -21.4808
 109   2.0000      -0.767764       -20.8919
 110   2.0000      -0.750381       -20.4189
 111   2.0000      -0.734775       -19.9942
 112   2.0000      -0.729217       -19.8430
 113   2.0000      -0.719123       -19.5683
 114   2.0000      -0.709675       -19.3112
 115   2.0000      -0.694435       -18.8965
 116   2.0000      -0.686376       -18.6772
 117   2.0000      -0.674361       -18.3503
 118   2.0000      -0.670267       -18.2389
 119   2.0000      -0.665431       -18.1073
 120   2.0000      -0.658010       -17.9054
 121   2.0000      -0.649514       -17.6742
 122   2.0000      -0.645204       -17.5569
 123   2.0000      -0.638404       -17.3719
 124   2.0000      -0.635538       -17.2939
 125   2.0000      -0.633897       -17.2492
 126   2.0000      -0.624233       -16.9862
 127   2.0000      -0.612904       -16.6780
 128   2.0000      -0.609855       -16.5950
 129   2.0000      -0.607288       -16.5252
 130   2.0000      -0.600979       -16.3535
 131   2.0000      -0.600244       -16.3335
 132   2.0000      -0.581737       -15.8299
 133   2.0000      -0.576688       -15.6925
 134   2.0000      -0.572108       -15.5678
 135   2.0000      -0.570782       -15.5318
 136   2.0000      -0.564377       -15.3575
 137   2.0000      -0.557327       -15.1656
 138   2.0000      -0.546107       -14.8603
 139   2.0000      -0.544577       -14.8187
 140   2.0000      -0.536491       -14.5987
 141   2.0000      -0.533029       -14.5044
 142   2.0000      -0.524024       -14.2594
 143   2.0000      -0.521006       -14.1773
 144   2.0000      -0.520331       -14.1589
 145   2.0000      -0.514941       -14.0122
 146   2.0000      -0.512685       -13.9509
 147   2.0000      -0.511271       -13.9124
 148   2.0000      -0.510656       -13.8956
 149   2.0000      -0.507715       -13.8156
 150   2.0000      -0.505100       -13.7445
 151   2.0000      -0.500865       -13.6292
 152   2.0000      -0.498000       -13.5513
 153   2.0000      -0.491395       -13.3715
 154   2.0000      -0.488634       -13.2964
 155   2.0000      -0.487593       -13.2681
 156   2.0000      -0.484586       -13.1863
 157   2.0000      -0.482511       -13.1298
 158   2.0000      -0.481988       -13.1156
 159   2.0000      -0.473248       -12.8777
 160   2.0000      -0.472002       -12.8438
 161   2.0000      -0.470030       -12.7902
 162   2.0000      -0.467411       -12.7189
 163   2.0000      -0.466874       -12.7043
 164   2.0000      -0.463759       -12.6195
 165   2.0000      -0.455699       -12.4002
 166   2.0000      -0.451573       -12.2879
 167   2.0000      -0.449483       -12.2311
 168   2.0000      -0.445325       -12.1179
 169   2.0000      -0.441410       -12.0114
 170   2.0000      -0.439520       -11.9599
 171   2.0000      -0.437808       -11.9134
 172   2.0000      -0.435444       -11.8490
 173   2.0000      -0.433792       -11.8041
 174   2.0000      -0.427662       -11.6373
 175   2.0000      -0.427419       -11.6307
 176   2.0000      -0.426783       -11.6134
 177   2.0000      -0.422076       -11.4853
 178   2.0000      -0.421907       -11.4807
 179   2.0000      -0.420934       -11.4542
 180   2.0000      -0.418725       -11.3941
 181   2.0000      -0.415008       -11.2929
 182   2.0000      -0.414385       -11.2760
 183   2.0000      -0.409536       -11.1440
 184   2.0000      -0.404900       -11.0179
 185   2.0000      -0.402545       -10.9538
 186   2.0000      -0.399652       -10.8751
 187   2.0000      -0.399351       -10.8669
 188   2.0000      -0.391597       -10.6559
 189   2.0000      -0.386343       -10.5129
 190   2.0000      -0.383008       -10.4222
 191   2.0000      -0.379210       -10.3188
 192   2.0000      -0.368464       -10.0264
 193   2.0000      -0.361237        -9.8298
 194   2.0000      -0.360818        -9.8184
 195   2.0000      -0.347045        -9.4436
 196   2.0000      -0.343283        -9.3412
 197   2.0000      -0.330471        -8.9926
 198   2.0000      -0.322902        -8.7866
 199   2.0000      -0.314180        -8.5493
 200   2.0000      -0.309194        -8.4136
 201   2.0000      -0.308801        -8.4029
 202   2.0000      -0.302050        -8.2192
 203   2.0000      -0.294938        -8.0257
 204   2.0000      -0.276909        -7.5351
 205   2.0000      -0.270615        -7.3638
 206   2.0000      -0.237901        -6.4736
 207   2.0000      -0.207260        -5.6398
 208   0.0000      -0.106599        -2.9007
 209   0.0000      -0.058595        -1.5945
 210   0.0000      -0.042930        -1.1682
 211   0.0000      -0.025917        -0.7052
 212   0.0000       0.001589         0.0432

MULLIKEN ATOMIC CHARGES
-----------------------
   0 C :    0.336053
   1 C :   -0.376643
   2 C :   -0.190351
   3 N :    0.121061
   4 C :   -0.196073
   5 N :    0.123033
   6 C :    0.012523
   7 C :   -0.005878
   8 C :   -0.084354
   9 C :    0.118286
  10 C :   -0.091211
  11 C :   -0.032546
  12 S :    0.172684
  13 C :   -0.122864
  14 C :    0.035004
  15 Br:    0.007500
  16 C :    0.132709
  17 O :   -0.172389
  18 C :   -0.089657
  19 C :   -0.048031
  20 C :   -0.021979
  21 C :    0.009664
  22 C :    0.014081
  23 C :    0.043486
  24 C :   -0.054005
  25 S :    0.098390
  26 C :   -0.005132
  27 C :    0.014664
  28 C :    0.050080
  29 C :   -0.054230
  30 S :    0.090741
  31 C :    0.010004
  32 C :   -0.104635
  33 S :    0.112919
  34 C :   -0.084084
  35 C :   -0.051598
  36 C :   -0.096938
  37 C :    0.128416
  38 C :    0.067620
  39 C :   -0.068854
  40 N :   -0.164525
  41 C :    0.149943
  42 C :    0.018388
  43 C :    0.005951
  44 C :    0.018605
  45 C :    0.021225
  46 C :    0.004702
  47 C :    0.035949
  48 C :    0.009387
  49 C :    0.010593
  50 C :   -0.002430
  51 C :   -0.012316
  52 H :   -0.017480
  53 H :   -0.012119
  54 H :   -0.007946
  55 H :    0.014149
  56 H :    0.010723
  57 H :   -0.005106
  58 H :   -0.009740
  59 H :   -0.011802
  60 H :   -0.008261
  61 H :   -0.008063
  62 H :    0.018327
  63 H :    0.018016
  64 H :   -0.005903
  65 H :   -0.011410
  66 H :   -0.001791
  67 H :    0.086792
  68 H :    0.088835
  69 H :    0.009431
  70 H :    0.032175
  71 H :    0.000218
  72 H :   -0.009167
  73 H :   -0.002262
  74 H :   -0.015802
  75 H :   -0.017338
  76 H :   -0.003147
  77 H :   -0.015860
  78 H :    0.000477
  79 H :   -0.009586
  80 H :    0.028616
  81 H :    0.022082
Sum of atomic charges:   -0.0000000

LOEWDIN ATOMIC CHARGES
----------------------
   0 C :    0.073048
   1 C :   -0.168661
   2 C :   -0.018219
   3 N :   -0.083995
   4 C :   -0.021357
   5 N :   -0.080310
   6 C :   -0.016732
   7 C :   -0.047097
   8 C :    0.013938
   9 C :   -0.038076
  10 C :   -0.147056
  11 C :   -0.016927
  12 S :    0.422199
  13 C :   -0.277130
  14 C :   -0.071183
  15 Br:    0.124463
  16 C :    0.080047
  17 O :   -0.165344
  18 C :   -0.119172
  19 C :    0.044377
  20 C :   -0.079591
  21 C :   -0.103179
  22 C :   -0.053139
  23 C :   -0.009596
  24 C :   -0.202678
  25 S :    0.416309
  26 C :   -0.143276
  27 C :   -0.054786
  28 C :   -0.009285
  29 C :   -0.177692
  30 S :    0.405488
  31 C :   -0.028682
  32 C :   -0.194118
  33 S :    0.446464
  34 C :   -0.142806
  35 C :   -0.061302
  36 C :   -0.032311
  37 C :   -0.027661
  38 C :   -0.041496
  39 C :    0.012684
  40 N :   -0.101107
  41 C :   -0.025784
  42 C :   -0.057102
  43 C :   -0.005281
  44 C :   -0.021708
  45 C :   -0.017230
  46 C :   -0.044073
  47 C :    0.002231
  48 C :   -0.030675
  49 C :   -0.009629
  50 C :   -0.031097
  51 C :   -0.033115
  52 H :    0.037744
  53 H :    0.039054
  54 H :    0.036735
  55 H :    0.028975
  56 H :    0.037008
  57 H :    0.036278
  58 H :    0.033858
  59 H :    0.032860
  60 H :    0.035339
  61 H :    0.040458
  62 H :    0.031936
  63 H :    0.035244
  64 H :    0.019732
  65 H :    0.019137
  66 H :    0.020620
  67 H :    0.050571
  68 H :    0.053296
  69 H :    0.029041
  70 H :    0.037199
  71 H :    0.033758
  72 H :    0.028335
  73 H :    0.029344
  74 H :    0.027858
  75 H :    0.027163
  76 H :    0.029286
  77 H :    0.026535
  78 H :    0.031957
  79 H :    0.027461
  80 H :    0.027109
  81 H :    0.024521

  Mayer bond orders larger than 0.100000
B(  0-C ,  1-C ) :   1.5479 B(  0-C ,  6-C ) :   0.9819 B(  0-C , 18-C ) :   1.1466
B(  1-C ,  2-C ) :   1.1573 B(  1-C ,  4-C ) :   1.1598 B(  2-C ,  3-N ) :   2.9552
B(  4-C ,  5-N ) :   2.9583 B(  6-C ,  7-C ) :   1.2800 B(  6-C , 11-C ) :   1.4228
B(  7-C ,  8-C ) :   1.4338 B(  7-C , 16-C ) :   0.9289 B(  8-C ,  9-C ) :   1.2324
B(  8-C , 52-H ) :   1.0171 B(  9-C , 10-C ) :   1.3238 B(  9-C , 14-C ) :   1.1593
B( 10-C , 11-C ) :   1.3141 B( 10-C , 12-S ) :   1.0800 B( 11-C , 53-H ) :   0.9806
B( 12-S , 13-C ) :   1.0850 B( 13-C , 14-C ) :   1.6213 B( 13-C , 15-Br) :   1.0084
B( 14-C , 54-H ) :   1.0005 B( 16-C , 17-O ) :   2.1844 B( 16-C , 18-C ) :   0.9757
B( 18-C , 19-C ) :   1.4213 B( 19-C , 20-C ) :   1.3158 B( 19-C , 55-H ) :   0.9409
B( 20-C , 21-C ) :   1.3562 B( 20-C , 56-H ) :   0.9823 B( 21-C , 22-C ) :   1.2176
B( 21-C , 25-S ) :   1.1015 B( 22-C , 23-C ) :   1.4914 B( 22-C , 57-H ) :   1.0023
B( 23-C , 24-C ) :   1.2604 B( 23-C , 58-H ) :   0.9957 B( 24-C , 25-S ) :   1.0507
B( 24-C , 26-C ) :   1.4064 B( 26-C , 27-C ) :   1.2324 B( 26-C , 30-S ) :   1.0943
B( 27-C , 28-C ) :   1.5318 B( 27-C , 59-H ) :   0.9954 B( 28-C , 29-C ) :   1.1896
B( 28-C , 60-H ) :   0.9985 B( 29-C , 30-S ) :   1.0343 B( 29-C , 31-C ) :   1.4888
B( 31-C , 32-C ) :   1.2641 B( 31-C , 61-H ) :   0.9628 B( 32-C , 33-S ) :   1.0765
B( 32-C , 36-C ) :   1.3692 B( 33-S , 34-C ) :   1.1451 B( 34-C , 35-C ) :   1.3973
B( 34-C , 42-C ) :   1.1639 B( 35-C , 36-C ) :   1.4208 B( 35-C , 41-C ) :   1.0259
B( 36-C , 37-C ) :   1.0530 B( 37-C , 38-C ) :   1.0789 B( 37-C , 62-H ) :   0.9115
B( 37-C , 63-H ) :   0.9019 B( 38-C , 39-C ) :   1.0300 B( 38-C , 64-H ) :   0.9287
B( 38-C , 65-H ) :   0.9292 B( 39-C , 40-N ) :   1.1086 B( 39-C , 41-C ) :   1.0426
B( 39-C , 66-H ) :   0.9249 B( 40-N , 67-H ) :   0.9690 B( 40-N , 68-H ) :   0.9694
B( 41-C , 69-H ) :   0.8991 B( 41-C , 70-H ) :   0.9127 B( 42-C , 43-C ) :   1.5864
B( 42-C , 71-H ) :   0.9518 B( 43-C , 44-C ) :   1.1773 B( 43-C , 72-H ) :   0.9836
B( 44-C , 45-C ) :   1.6156 B( 44-C , 73-H ) :   0.9795 B( 45-C , 46-C ) :   1.1388
B( 45-C , 74-H ) :   0.9766 B( 46-C , 47-C ) :   1.6497 B( 46-C , 75-H ) :   0.9767
B( 47-C , 48-C ) :   1.1463 B( 47-C , 76-H ) :   0.9726 B( 48-C , 49-C ) :   1.6610
B( 48-C , 77-H ) :   0.9876 B( 49-C , 50-C ) :   1.1094 B( 49-C , 78-H ) :   0.9805
B( 50-C , 51-C ) :   1.8952 B( 50-C , 79-H ) :   0.9742 B( 51-C , 80-H ) :   0.9593
B( 51-C , 81-H ) :   0.9524

-----------------------------------------------------------------------------
         ABSORPTION SPECTRUM VIA TRANSITION ELECTRIC DIPOLE MOMENTS
-----------------------------------------------------------------------------
State   Energy  Wavelength   fosc         T2         TX        TY        TZ
        (cm-1)    (nm)                  (au**2)     (au)      (au)      (au)
-----------------------------------------------------------------------------
   0    8594.4   1163.5   0.612631761  23.46705  -2.55909  -3.88593  -1.34820
   1   16433.4    608.5   0.546307232  10.94421  -2.76593   1.28560  -1.28105
   2   19219.0    520.3   1.397249442  23.93419   3.52922  -2.99847   1.57733
   3   21926.4    456.1   0.403420914   6.05712   2.20979  -0.21442   1.06206
   4   22934.3    436.0   0.279330699   4.00967  -0.42686   1.95197  -0.13149
   5   24738.5    404.2   0.289111632   3.84740  -1.75424   0.17014  -0.86088
   6   25901.4    386.1   0.069938168   0.88893   0.67454  -0.56299   0.34200
   7   26595.3    376.0   0.379489903   4.69754  -1.81425  -0.81463  -0.86165
   8   26886.2    371.9   0.000009983   0.00012  -0.00581  -0.00935   0.00108
   9   27821.1    359.4   0.027689595   0.32766   0.34652   0.42731   0.15807
  10   28445.6    351.5   0.004991870   0.05777  -0.04410  -0.23422  -0.03110
  11   30000.1    333.3   0.047429341   0.52048   0.48261  -0.48820   0.22188
  12   30042.2    332.9   0.020286590   0.22231   0.33688  -0.28561   0.16506
  13   30488.7    328.0   0.025412545   0.27440   0.33784  -0.38485   0.11028
  14   30980.4    322.8   0.002973257   0.03160   0.14445  -0.07237   0.07411
  15   31343.5    319.0   0.001563486   0.01642   0.08373   0.04772   0.08446
  16   31565.6    316.8   0.000391267   0.00408   0.05787   0.02576   0.00825
  17   31675.5    315.7   0.190895552   1.98403  -1.17185  -0.47316  -0.62201
  18   32603.2    306.7   0.325926543   3.29105  -1.48273  -0.69998  -0.77626
  19   33325.2    300.1   0.009692048   0.09575  -0.16923  -0.22058  -0.13583
  20   33895.5    295.0   0.261650333   2.54129   1.39933   0.30867   0.69849
  21   34133.0    293.0   0.006080159   0.05864   0.00437   0.24212   0.00161
  22   35031.1    285.5   0.145904658   1.37117   0.68738   0.86449   0.38901
  23   35696.3    280.1   0.018366698   0.16939  -0.08003  -0.40108  -0.04606
  24   35833.0    279.1   0.000709072   0.00651   0.04191  -0.06867   0.00652
  25   36672.2    272.7   0.092758561   0.83271  -0.38016  -0.78808  -0.25906
  26   37813.6    264.5   0.085862105   0.74753   0.07950  -0.86087  -0.01081
  27   38809.8    257.7   0.126137488   1.06999  -0.39265  -0.91945  -0.26538
  28   39083.8    255.9   0.000092436   0.00078   0.02445  -0.00598  -0.01205
  29   39265.6    254.7   0.035095931   0.29425  -0.47452  -0.08734  -0.24791
  30   40304.2    248.1   0.084088652   0.68685  -0.38923   0.71174  -0.16964

FINAL SINGLE POINT ENERGY     -6059.789524868906

DIPOLE MOMENT
-------------
                                X             Y             Z
Electronic contribution:    157.28836     112.57429      80.18782
Nuclear contribution   :   -161.36077    -113.11811     -82.34067
                        -----------------------------------------
Total Dipole Moment    :     -4.07241      -0.54382      -2.15284
                        -----------------------------------------
Magnitude (a.u.)       :      4.63842
Magnitude (Debye)      :     11.78993

Rotational constants in cm-1:     0.001543     0.000501     0.000378
Rotational constants in MHz :    46.263553    15.006991    11.342255

                             ****ORCA TERMINATED NORMALLY****
TOTAL RUN TIME: 0 days 0 hours 6 minutes 4 seconds 218 msec
