                         Program Version 4.2.0 -  RELEASE  -
|  1> # ORCA input file
|  2> # SCF done       -156.889013071859          0.000629874661
|  3> ! CAM-B3LYP def2-SVP def2/J RIJCOSX Grid4 TightSCF
|  4> %maxcore 5000
|  5> %tddft
|  6>     Mode sTDDFT
|  7>     Ethresh 5.0
|  8>     maxcore 5000
|  9> end
| 10>
| 11> %pal
| 12>   nprocs 6
| 13>   end
| 14> * xyz 0 1
| 15>    C      -14.30145         4.54969         0.86605
| 16>    C      -14.72178         4.88161         2.12739
| 17>    C      -16.05496         4.77453         2.57364
| 18>    N      -17.12258         4.70844         2.98969
| 19>    C      -13.86830         5.36353         3.14096
| 20>    N      -13.20691         5.75410         3.99394
| 21>    C      -15.14546         4.03812        -0.21099
| 22>    C      -14.33780         3.79066        -1.35199
| 23>    C      -14.85057         3.30602        -2.53140
| 24>    C      -16.22477         3.05294        -2.59053
| 25>    C      -17.02232         3.30140        -1.44773
| 26>    C      -16.50357         3.79166        -0.25440
| 27>    S      -18.69099         2.92117        -1.73828
| 28>    C      -18.30255         2.43962        -3.36839
| 29>    C      -16.98962         2.55758        -3.68117
| 30>   Br      -19.66414         1.82815        -4.50342
| 31>    C      -12.95034         4.13988        -1.03305
| 32>    O      -11.96870         4.04760        -1.76938
| 33>    C      -12.95421         4.62414         0.34856
| 34>    C      -11.80399         5.06544         0.95990
| 35>    N      -10.64993         5.04701         0.28778
| 36>    C       -9.42417         5.44225         0.71530
| 37>    S       -9.16732         6.08236         2.30736
| 38>    C       -7.48298         6.24975         1.93629
| 39>    N       -6.64029         6.76875         2.93086
| 40>    O       -5.45862         6.87744         2.66564
| 41>    O       -7.16249         7.07123         3.98800
| 42>    C       -7.14935         5.84047         0.67344
| 43>    C       -8.25717         5.36866        -0.05700
| 44>    C       -8.23808         4.84953        -1.40087
| 45>    C       -7.14296         4.72913        -2.17121
| 46>    C       -7.11427         4.17405        -3.50191
| 47>    C       -7.88863         3.20219        -4.00216
| 48>    C       -8.93267         2.44812        -3.24074
| 49>    C       -7.72086         2.71351        -5.42597
| 50>    N       -6.83661         3.47452        -6.26406
| 51>    C       -7.16812         4.66354        -6.82775
| 52>    C       -8.35743         5.29472        -6.73173
| 53>    C       -8.66896         6.48958        -7.43988
| 54>    C       -9.85232         7.19251        -7.38161
| 55>    C       -9.84298         8.30910        -8.22292
| 56>    C       -8.65330         8.47815        -8.93587
| 57>    S       -7.52158         7.22681        -8.55016
| 58>    C       -8.64182         9.58080        -9.78888
| 59>    C       -9.83421        10.27150        -9.73714
| 60>    S      -10.97857         9.54983        -8.61439
| 61>    C      -10.19394        11.43043       -10.47588
| 62>    S      -11.74085        12.20606       -10.29881
| 63>    C      -11.37323        13.40949       -11.46814
| 64>    C      -10.12056        13.22617       -11.97147
| 65>    C       -9.44818        12.11356       -11.41737
| 66>    O       -8.17980        11.77515       -11.80578
| 67>    C       -7.55791        12.51857       -12.74293
| 68>    O       -6.44855        12.23294       -13.09279
| 69>    C       -8.29044        13.72969       -13.34617
| 70>    O       -7.76893        14.40932       -14.18062
| 71>    O       -9.53944        14.01885       -12.92239
| 72>    H      -14.21360         3.12846        -3.38369
| 73>    H      -17.15264         3.96609         0.58727
| 74>    H      -16.57775         2.30636        -4.64144
| 75>    H      -11.78758         5.43612         1.97651
| 76>    H      -10.74356         4.68107        -0.67775
| 77>    H       -6.14010         5.88811         0.30888
| 78>    H       -9.19136         4.56414        -1.81586
| 79>    H       -6.19089         5.09282        -1.80862
| 80>    H       -6.33775         4.58350        -4.13614
| 81>    H       -8.66949         2.37623        -2.18783
| 82>    H       -9.04040         1.44377        -3.64664
| 83>    H       -9.90295         2.93921        -3.31589
| 84>    H       -8.70930         2.69195        -5.89986
| 85>    H       -7.35360         1.68124        -5.39820
| 86>    H       -5.86354         3.21987        -6.25414
| 87>    H       -6.38931         5.09796        -7.44082
| 88>    H       -9.14432         4.91118        -6.10070
| 89>    H      -10.68142         6.90520        -6.76205
| 90>    H       -7.81789         9.86559       -10.41504
| 91>    H      -12.08031        14.17130       -11.71926
| 92> *
| 93>
| 94>                          ****END OF INPUT****

CARTESIAN COORDINATES (ANGSTROEM)
---------------------------------
  C    -14.301450    4.549690    0.866050
  C    -14.721780    4.881610    2.127390
  C    -16.054960    4.774530    2.573640
  N    -17.122580    4.708440    2.989690
  C    -13.868300    5.363530    3.140960
  N    -13.206910    5.754100    3.993940
  C    -15.145460    4.038120   -0.210990
  C    -14.337800    3.790660   -1.351990
  C    -14.850570    3.306020   -2.531400
  C    -16.224770    3.052940   -2.590530
  C    -17.022320    3.301400   -1.447730
  C    -16.503570    3.791660   -0.254400
  S    -18.690990    2.921170   -1.738280
  C    -18.302550    2.439620   -3.368390
  C    -16.989620    2.557580   -3.681170
  Br   -19.664140    1.828150   -4.503420
  C    -12.950340    4.139880   -1.033050
  O    -11.968700    4.047600   -1.769380
  C    -12.954210    4.624140    0.348560
  C    -11.803990    5.065440    0.959900
  N    -10.649930    5.047010    0.287780
  C     -9.424170    5.442250    0.715300
  S     -9.167320    6.082360    2.307360
  C     -7.482980    6.249750    1.936290
  N     -6.640290    6.768750    2.930860
  O     -5.458620    6.877440    2.665640
  O     -7.162490    7.071230    3.988000
  C     -7.149350    5.840470    0.673440
  C     -8.257170    5.368660   -0.057000
  C     -8.238080    4.849530   -1.400870
  C     -7.142960    4.729130   -2.171210
  C     -7.114270    4.174050   -3.501910
  C     -7.888630    3.202190   -4.002160
  C     -8.932670    2.448120   -3.240740
  C     -7.720860    2.713510   -5.425970
  N     -6.836610    3.474520   -6.264060
  C     -7.168120    4.663540   -6.827750
  C     -8.357430    5.294720   -6.731730
  C     -8.668960    6.489580   -7.439880
  C     -9.852320    7.192510   -7.381610
  C     -9.842980    8.309100   -8.222920
  C     -8.653300    8.478150   -8.935870
  S     -7.521580    7.226810   -8.550160
  C     -8.641820    9.580800   -9.788880
  C     -9.834210   10.271500   -9.737140
  S    -10.978570    9.549830   -8.614390
  C    -10.193940   11.430430  -10.475880
  S    -11.740850   12.206060  -10.298810
  C    -11.373230   13.409490  -11.468140
  C    -10.120560   13.226170  -11.971470
  C     -9.448180   12.113560  -11.417370
  O     -8.179800   11.775150  -11.805780
  C     -7.557910   12.518570  -12.742930
  O     -6.448550   12.232940  -13.092790
  C     -8.290440   13.729690  -13.346170
  O     -7.768930   14.409320  -14.180620
  O     -9.539440   14.018850  -12.922390
  H    -14.213600    3.128460   -3.383690
  H    -17.152640    3.966090    0.587270
  H    -16.577750    2.306360   -4.641440
  H    -11.787580    5.436120    1.976510
  H    -10.743560    4.681070   -0.677750
  H     -6.140100    5.888110    0.308880
  H     -9.191360    4.564140   -1.815860
  H     -6.190890    5.092820   -1.808620
  H     -6.337750    4.583500   -4.136140
  H     -8.669490    2.376230   -2.187830
  H     -9.040400    1.443770   -3.646640
  H     -9.902950    2.939210   -3.315890
  H     -8.709300    2.691950   -5.899860
  H     -7.353600    1.681240   -5.398200
  H     -5.863540    3.219870   -6.254140
  H     -6.389310    5.097960   -7.440820
  H     -9.144320    4.911180   -6.100700
  H    -10.681420    6.905200   -6.762050
  H     -7.817890    9.865590  -10.415040
  H    -12.080310   14.171300  -11.719260

 Total Charge           Charge          ....    0
 Multiplicity           Mult            ....    1
 Number of Electrons    NEL             ....  460
 Basis Dimension        Dim             ....  936

ORBITAL ENERGIES
----------------

  NO   OCC          E(Eh)            E(eV)
   0   2.0000    -482.893512    -13140.2005
   1   2.0000     -88.994396     -2421.6606
   2   2.0000     -88.985767     -2421.4258
   3   2.0000     -88.974875     -2421.1294
   4   2.0000     -88.955966     -2420.6149
   5   2.0000     -88.948096     -2420.4007
   6   2.0000     -62.571244     -1702.6501
   7   2.0000     -56.405206     -1534.8637
   8   2.0000     -56.402469     -1534.7892
   9   2.0000     -56.402435     -1534.7883
  10   2.0000     -19.309267      -525.4319
  11   2.0000     -19.305257      -525.3227
  12   2.0000     -19.243470      -523.6414
  13   2.0000     -19.243452      -523.6409
  14   2.0000     -19.242658      -523.6194
  15   2.0000     -19.235191      -523.4162
  16   2.0000     -19.234101      -523.3865
  17   2.0000     -14.654844      -398.7786
  18   2.0000     -14.502533      -394.6340
  19   2.0000     -14.442572      -393.0024
  20   2.0000     -14.426078      -392.5535
  21   2.0000     -14.421711      -392.4347
  22   2.0000     -10.437596      -284.0214
  23   2.0000     -10.436584      -283.9939
  24   2.0000     -10.389351      -282.7086
  25   2.0000     -10.377537      -282.3871
  26   2.0000     -10.375167      -282.3227
  27   2.0000     -10.368145      -282.1316
  28   2.0000     -10.360727      -281.9297
  29   2.0000     -10.356422      -281.8126
  30   2.0000     -10.353657      -281.7373
  31   2.0000     -10.352210      -281.6980
  32   2.0000     -10.349603      -281.6270
  33   2.0000     -10.336170      -281.2615
  34   2.0000     -10.328315      -281.0477
  35   2.0000     -10.325600      -280.9739
  36   2.0000     -10.324735      -280.9503
  37   2.0000     -10.322320      -280.8846
  38   2.0000     -10.319800      -280.8160
  39   2.0000     -10.318613      -280.7837
  40   2.0000     -10.318166      -280.7716
  41   2.0000     -10.316353      -280.7222
  42   2.0000     -10.315542      -280.7002
  43   2.0000     -10.314854      -280.6814
  44   2.0000     -10.311589      -280.5926
  45   2.0000     -10.308610      -280.5115
  46   2.0000     -10.308172      -280.4996
  47   2.0000     -10.306637      -280.4578
  48   2.0000     -10.306610      -280.4571
  49   2.0000     -10.306387      -280.4510
  50   2.0000     -10.303254      -280.3658
  51   2.0000     -10.295317      -280.1498
  52   2.0000     -10.293707      -280.1060
  53   2.0000     -10.292122      -280.0629
  54   2.0000     -10.291257      -280.0393
  55   2.0000     -10.289321      -279.9867
  56   2.0000     -10.280681      -279.7515
  57   2.0000     -10.275447      -279.6091
  58   2.0000     -10.274768      -279.5907
  59   2.0000     -10.269366      -279.4437
  60   2.0000     -10.262175      -279.2480
  61   2.0000      -8.800692      -239.4790
  62   2.0000      -8.089601      -220.1292
  63   2.0000      -8.081639      -219.9126
  64   2.0000      -8.070326      -219.6047
  65   2.0000      -8.051382      -219.0892
  66   2.0000      -8.043566      -218.8766
  67   2.0000      -6.637065      -180.6037
  68   2.0000      -6.622387      -180.2043
  69   2.0000      -6.622189      -180.1989
  70   2.0000      -6.059251      -164.8806
  71   2.0000      -6.054880      -164.7617
  72   2.0000      -6.051304      -164.6643
  73   2.0000      -6.051078      -164.6582
  74   2.0000      -6.047026      -164.5479
  75   2.0000      -6.042941      -164.4368
  76   2.0000      -6.039826      -164.3520
  77   2.0000      -6.035662      -164.2387
  78   2.0000      -6.032006      -164.1392
  79   2.0000      -6.020949      -163.8384
  80   2.0000      -6.017006      -163.7311
  81   2.0000      -6.013103      -163.6248
  82   2.0000      -6.012799      -163.6166
  83   2.0000      -6.009270      -163.5206
  84   2.0000      -6.004931      -163.4025
  85   2.0000      -2.752876       -74.9096
  86   2.0000      -2.748835       -74.7996
  87   2.0000      -2.748660       -74.7948
  88   2.0000      -2.737004       -74.4777
  89   2.0000      -2.736985       -74.4772
  90   2.0000      -1.325022       -36.0557
  91   2.0000      -1.250350       -34.0238
  92   2.0000      -1.216182       -33.0940
  93   2.0000      -1.156871       -31.4801
  94   2.0000      -1.153522       -31.3889
  95   2.0000      -1.144278       -31.1374
  96   2.0000      -1.125972       -30.6393
  97   2.0000      -1.110127       -30.2081
  98   2.0000      -1.042503       -28.3680
  99   2.0000      -1.033695       -28.1283
 100   2.0000      -1.022872       -27.8338
 101   2.0000      -1.015435       -27.6314
 102   2.0000      -1.009118       -27.4595
 103   2.0000      -1.003411       -27.3042
 104   2.0000      -0.999767       -27.2051
 105   2.0000      -0.994441       -27.0601
 106   2.0000      -0.952208       -25.9109
 107   2.0000      -0.942075       -25.6352
 108   2.0000      -0.934773       -25.4365
 109   2.0000      -0.919396       -25.0180
 110   2.0000      -0.917580       -24.9686
 111   2.0000      -0.901040       -24.5185
 112   2.0000      -0.896813       -24.4035
 113   2.0000      -0.886305       -24.1176
 114   2.0000      -0.875074       -23.8120
 115   2.0000      -0.862833       -23.4789
 116   2.0000      -0.858935       -23.3728
 117   2.0000      -0.857951       -23.3460
 118   2.0000      -0.851852       -23.1801
 119   2.0000      -0.842283       -22.9197
 120   2.0000      -0.840394       -22.8683
 121   2.0000      -0.807266       -21.9668
 122   2.0000      -0.801970       -21.8227
 123   2.0000      -0.794090       -21.6083
 124   2.0000      -0.793294       -21.5866
 125   2.0000      -0.791530       -21.5386
 126   2.0000      -0.777107       -21.1462
 127   2.0000      -0.773332       -21.0434
 128   2.0000      -0.756669       -20.5900
 129   2.0000      -0.740076       -20.1385
 130   2.0000      -0.738626       -20.0990
 131   2.0000      -0.720860       -19.6156
 132   2.0000      -0.715650       -19.4738
 133   2.0000      -0.709653       -19.3107
 134   2.0000      -0.701011       -19.0755
 135   2.0000      -0.696729       -18.9590
 136   2.0000      -0.678749       -18.4697
 137   2.0000      -0.670954       -18.2576
 138   2.0000      -0.667363       -18.1599
 139   2.0000      -0.657935       -17.9033
 140   2.0000      -0.647545       -17.6206
 141   2.0000      -0.645019       -17.5519
 142   2.0000      -0.641637       -17.4598
 143   2.0000      -0.638586       -17.3768
 144   2.0000      -0.636259       -17.3135
 145   2.0000      -0.629358       -17.1257
 146   2.0000      -0.623755       -16.9732
 147   2.0000      -0.616966       -16.7885
 148   2.0000      -0.613349       -16.6901
 149   2.0000      -0.610374       -16.6091
 150   2.0000      -0.603069       -16.4103
 151   2.0000      -0.601396       -16.3648
 152   2.0000      -0.589904       -16.0521
 153   2.0000      -0.586358       -15.9556
 154   2.0000      -0.583820       -15.8866
 155   2.0000      -0.571967       -15.5640
 156   2.0000      -0.569804       -15.5051
 157   2.0000      -0.569545       -15.4981
 158   2.0000      -0.566410       -15.4128
 159   2.0000      -0.561136       -15.2693
 160   2.0000      -0.557692       -15.1756
 161   2.0000      -0.556661       -15.1475
 162   2.0000      -0.550046       -14.9675
 163   2.0000      -0.548452       -14.9241
 164   2.0000      -0.542980       -14.7752
 165   2.0000      -0.540635       -14.7114
 166   2.0000      -0.539625       -14.6839
 167   2.0000      -0.539379       -14.6772
 168   2.0000      -0.536375       -14.5955
 169   2.0000      -0.533821       -14.5260
 170   2.0000      -0.530524       -14.4363
 171   2.0000      -0.524572       -14.2743
 172   2.0000      -0.518447       -14.1077
 173   2.0000      -0.516810       -14.0631
 174   2.0000      -0.516181       -14.0460
 175   2.0000      -0.509707       -13.8698
 176   2.0000      -0.507467       -13.8089
 177   2.0000      -0.506863       -13.7924
 178   2.0000      -0.499276       -13.5860
 179   2.0000      -0.494930       -13.4677
 180   2.0000      -0.489530       -13.3208
 181   2.0000      -0.486695       -13.2436
 182   2.0000      -0.481971       -13.1151
 183   2.0000      -0.479652       -13.0520
 184   2.0000      -0.475926       -12.9506
 185   2.0000      -0.474458       -12.9107
 186   2.0000      -0.469597       -12.7784
 187   2.0000      -0.467790       -12.7292
 188   2.0000      -0.464371       -12.6362
 189   2.0000      -0.461647       -12.5621
 190   2.0000      -0.459388       -12.5006
 191   2.0000      -0.457564       -12.4510
 192   2.0000      -0.453166       -12.3313
 193   2.0000      -0.451600       -12.2887
 194   2.0000      -0.449830       -12.2405
 195   2.0000      -0.449212       -12.2237
 196   2.0000      -0.447569       -12.1790
 197   2.0000      -0.443561       -12.0699
 198   2.0000      -0.441312       -12.0087
 199   2.0000      -0.435875       -11.8608
 200   2.0000      -0.435756       -11.8575
 201   2.0000      -0.435589       -11.8530
 202   2.0000      -0.425453       -11.5772
 203   2.0000      -0.423734       -11.5304
 204   2.0000      -0.421867       -11.4796
 205   2.0000      -0.418682       -11.3929
 206   2.0000      -0.411616       -11.2006
 207   2.0000      -0.401964       -10.9380
 208   2.0000      -0.400288       -10.8924
 209   2.0000      -0.398897       -10.8545
 210   2.0000      -0.396512       -10.7896
 211   2.0000      -0.390122       -10.6158
 212   2.0000      -0.383020       -10.4225
 213   2.0000      -0.382834       -10.4175
 214   2.0000      -0.380632       -10.3575
 215   2.0000      -0.372291       -10.1306
 216   2.0000      -0.369304       -10.0493
 217   2.0000      -0.365880        -9.9561
 218   2.0000      -0.358136        -9.7454
 219   2.0000      -0.357777        -9.7356
 220   2.0000      -0.347548        -9.4573
 221   2.0000      -0.346239        -9.4216
 222   2.0000      -0.328415        -8.9366
 223   2.0000      -0.316698        -8.6178
 224   2.0000      -0.310819        -8.4578
 225   2.0000      -0.302927        -8.2431
 226   2.0000      -0.292358        -7.9555
 227   2.0000      -0.289242        -7.8707
 228   2.0000      -0.270832        -7.3697
 229   2.0000      -0.229379        -6.2417
 230   0.0000      -0.094644        -2.5754
 231   0.0000      -0.077908        -2.1200
 232   0.0000      -0.047640        -1.2964
 233   0.0000      -0.044114        -1.2004
 234   0.0000      -0.029547        -0.8040

MULLIKEN ATOMIC CHARGES
-----------------------
   0 C :    0.330090
   1 C :   -0.345285
   2 C :   -0.182056
   3 N :    0.151156
   4 C :   -0.197250
   5 N :    0.147784
   6 C :    0.008873
   7 C :   -0.005358
   8 C :   -0.069343
   9 C :    0.118035
  10 C :   -0.093690
  11 C :   -0.018253
  12 S :    0.195067
  13 C :   -0.124281
  14 C :    0.038214
  15 Br:    0.029964
  16 C :    0.171211
  17 O :   -0.230542
  18 C :   -0.134378
  19 C :    0.032468
  20 N :   -0.007846
  21 C :   -0.126822
  22 S :    0.180359
  23 C :    0.007389
  24 N :    0.273597
  25 O :   -0.245282
  26 O :   -0.254787
  27 C :    0.000089
  28 C :    0.138754
  29 C :   -0.049841
  30 C :    0.020055
  31 C :    0.025950
  32 C :   -0.220092
  33 C :    0.073640
  34 C :    0.183694
  35 N :   -0.154521
  36 C :    0.050995
  37 C :   -0.034301
  38 C :   -0.031227
  39 C :   -0.062264
  40 C :    0.003490
  41 C :   -0.023487
  42 S :    0.094106
  43 C :   -0.045930
  44 C :   -0.083212
  45 S :    0.116843
  46 C :   -0.118642
  47 S :    0.152427
  48 C :   -0.165614
  49 C :    0.221443
  50 C :    0.133791
  51 O :   -0.205603
  52 C :    0.148280
  53 O :   -0.105068
  54 C :    0.142086
  55 O :   -0.103852
  56 O :   -0.189672
  57 H :   -0.012874
  58 H :   -0.004114
  59 H :   -0.002694
  60 H :    0.045711
  61 H :    0.185602
  62 H :    0.013113
  63 H :   -0.013224
  64 H :   -0.011582
  65 H :   -0.022656
  66 H :    0.029522
  67 H :    0.008102
  68 H :    0.049546
  69 H :    0.025103
  70 H :    0.028807
  71 H :    0.127750
  72 H :    0.012374
  73 H :   -0.026076
  74 H :   -0.028786
  75 H :    0.001534
  76 H :    0.033489
Sum of atomic charges:    0.0000000

LOEWDIN ATOMIC CHARGES
----------------------
   0 C :    0.078480
   1 C :   -0.147089
   2 C :   -0.020011
   3 N :   -0.051854
   4 C :   -0.020869
   5 N :   -0.050943
   6 C :   -0.017622
   7 C :   -0.052399
   8 C :    0.023252
   9 C :   -0.033976
  10 C :   -0.143560
  11 C :   -0.006548
  12 S :    0.440330
  13 C :   -0.270786
  14 C :   -0.070315
  15 Br:    0.141328
  16 C :    0.099077
  17 O :   -0.184672
  18 C :   -0.148781
  19 C :    0.113792
  20 N :    0.081515
  21 C :   -0.119288
  22 S :    0.471938
  23 C :   -0.198517
  24 N :    0.272968
  25 O :   -0.211913
  26 O :   -0.220913
  27 C :    0.002663
  28 C :   -0.079118
  29 C :   -0.038804
  30 C :   -0.007880
  31 C :   -0.061182
  32 C :   -0.025628
  33 C :   -0.053089
  34 C :    0.036602
  35 N :   -0.004472
  36 C :    0.032700
  37 C :   -0.139034
  38 C :   -0.130722
  39 C :   -0.099416
  40 C :   -0.190989
  41 C :   -0.212304
  42 S :    0.394445
  43 C :   -0.051699
  44 C :   -0.197836
  45 S :    0.401886
  46 C :   -0.194078
  47 S :    0.459446
  48 C :   -0.209089
  49 C :   -0.012920
  50 C :   -0.026123
  51 O :   -0.020655
  52 C :    0.053049
  53 O :   -0.088829
  54 C :    0.053404
  55 O :   -0.085382
  56 O :   -0.024417
  57 H :    0.040245
  58 H :    0.042513
  59 H :    0.039002
  60 H :    0.037221
  61 H :    0.084288
  62 H :    0.045279
  63 H :    0.028681
  64 H :    0.027703
  65 H :    0.023610
  66 H :    0.035564
  67 H :    0.028096
  68 H :    0.040096
  69 H :    0.032300
  70 H :    0.036321
  71 H :    0.079335
  72 H :    0.021866
  73 H :    0.027506
  74 H :    0.027357
  75 H :    0.035117
  76 H :    0.034748

  Mayer bond orders larger than 0.100000
B(  0-C ,  1-C ) :   1.6299 B(  0-C ,  6-C ) :   1.0028 B(  0-C , 18-C ) :   1.0977
B(  1-C ,  2-C ) :   1.1415 B(  1-C ,  4-C ) :   1.1481 B(  2-C ,  3-N ) :   2.9682
B(  4-C ,  5-N ) :   2.9550 B(  6-C ,  7-C ) :   1.2731 B(  6-C , 11-C ) :   1.4244
B(  7-C ,  8-C ) :   1.4216 B(  7-C , 16-C ) :   0.9844 B(  8-C ,  9-C ) :   1.2414
B(  8-C , 57-H ) :   1.0180 B(  9-C , 10-C ) :   1.3080 B(  9-C , 14-C ) :   1.1650
B( 10-C , 11-C ) :   1.3199 B( 10-C , 12-S ) :   1.0929 B( 11-C , 58-H ) :   0.9801
B( 12-S , 13-C ) :   1.0889 B( 13-C , 14-C ) :   1.6170 B( 13-C , 15-Br) :   1.0216
B( 14-C , 59-H ) :   0.9996 B( 16-C , 17-O ) :   2.0012 B( 16-C , 18-C ) :   1.0143
B( 17-O , 61-H ) :   0.1423 B( 18-C , 19-C ) :   1.4412 B( 19-C , 20-N ) :   1.3527
B( 19-C , 60-H ) :   0.9309 B( 20-N , 21-C ) :   1.1860 B( 20-N , 61-H ) :   0.8230
B( 21-C , 22-S ) :   1.1313 B( 21-C , 28-C ) :   1.3839 B( 22-S , 23-C ) :   1.0863
B( 23-C , 24-N ) :   0.9609 B( 23-C , 27-C ) :   1.5038 B( 24-N , 25-O ) :   1.5370
B( 24-N , 26-O ) :   1.5189 B( 25-O , 26-O ) :   0.2633 B( 27-C , 28-C ) :   1.2164
B( 27-C , 62-H ) :   1.0006 B( 28-C , 29-C ) :   1.0688 B( 29-C , 30-C ) :   1.7721
B( 29-C , 63-H ) :   0.9653 B( 30-C , 31-C ) :   1.0834 B( 30-C , 64-H ) :   0.9584
B( 31-C , 32-C ) :   1.8532 B( 31-C , 65-H ) :   0.9333 B( 32-C , 33-C ) :   1.0871
B( 32-C , 34-C ) :   0.9954 B( 33-C , 66-H ) :   0.9445 B( 33-C , 67-H ) :   0.9482
B( 33-C , 68-H ) :   0.9352 B( 34-C , 35-N ) :   1.0573 B( 34-C , 69-H ) :   0.9257
B( 34-C , 70-H ) :   0.9308 B( 35-N , 36-C ) :   1.2017 B( 35-N , 71-H ) :   0.9390
B( 36-C , 37-C ) :   1.6530 B( 36-C , 72-H ) :   0.9622 B( 37-C , 38-C ) :   1.1662
B( 37-C , 73-H ) :   0.9654 B( 38-C , 39-C ) :   1.5166 B( 38-C , 42-S ) :   1.0920
B( 39-C , 40-C ) :   1.2227 B( 39-C , 74-H ) :   1.0074 B( 40-C , 41-C ) :   1.4438
B( 40-C , 45-S ) :   1.0736 B( 41-C , 42-S ) :   1.0461 B( 41-C , 43-C ) :   1.2456
B( 43-C , 44-C ) :   1.5387 B( 43-C , 75-H ) :   1.0006 B( 44-C , 45-S ) :   1.0759
B( 44-C , 46-C ) :   1.1431 B( 46-C , 47-S ) :   1.1458 B( 46-C , 48-C ) :   0.1119
B( 46-C , 50-C ) :   1.5255 B( 47-S , 48-C ) :   1.1253 B( 48-C , 49-C ) :   1.5554
B( 48-C , 76-H ) :   0.9784 B( 49-C , 50-C ) :   1.2150 B( 49-C , 56-O ) :   1.0418
B( 50-C , 51-O ) :   1.0471 B( 51-O , 52-C ) :   1.0827 B( 52-C , 53-O ) :   2.2456
B( 52-C , 54-C ) :   0.8322 B( 54-C , 55-O ) :   2.2450 B( 54-C , 56-O ) :   1.0926

-----------------------------------------------------------------------------
         ABSORPTION SPECTRUM VIA TRANSITION ELECTRIC DIPOLE MOMENTS
-----------------------------------------------------------------------------
State   Energy  Wavelength   fosc         T2         TX        TY        TZ
        (cm-1)    (nm)                  (au**2)     (au)      (au)      (au)
-----------------------------------------------------------------------------
   0   19132.9    522.7   0.007828532   0.13470  -0.35131  -0.06009   0.08760
   1   21801.0    458.7   0.793014740  11.97514  -3.36061  -0.77260   0.29079
   2   22181.8    450.8   0.001812660   0.02690   0.13841   0.03171  -0.08210
   3   24404.7    409.8   0.082118442   1.10775   0.77544   0.46135   0.54185
   4   24621.4    406.2   0.474933712   6.35033  -0.67665   1.93743  -1.46249
   5   27534.2    363.2   0.945259176  11.30196   1.05556  -2.61023   1.83697
   6   27904.9    358.4   0.006236736   0.07358  -0.15171   0.20981   0.08090
   7   29182.4    342.7   0.226941136   2.56016  -0.45212  -0.52724  -1.44145
   8   30011.7    333.2   0.363185774   3.98396   1.57783   0.54264   1.09542
   9   30495.2    327.9   0.092900023   1.00291  -0.99001  -0.01116  -0.15053
  10   31145.0    321.1   0.222482258   2.35170   0.60408   0.83083   1.13865
  11   31310.3    319.4   0.089252243   0.93844  -0.19951  -0.55454  -0.76885
  12   32993.6    303.1   0.004299237   0.04290  -0.16146  -0.06773  -0.11064
  13   33081.9    302.3   0.216848612   2.15795  -0.95490  -0.58480  -0.95085
  14   33703.2    296.7   0.005037500   0.04921   0.09681   0.09160   0.17732
  15   33876.9    295.2   0.000214101   0.00208  -0.00215   0.02260   0.03956
  16   34129.0    293.0   0.433102945   4.17776   0.24556   0.67457   1.91374
  17   34238.6    292.1   0.030013511   0.28859  -0.10900  -0.21266  -0.48113
  18   36018.1    277.6   0.000466561   0.00426  -0.03169  -0.02579  -0.05094
  19   36544.1    273.6   0.036640321   0.33008   0.50506  -0.27154   0.03540
  20   36671.2    272.7   0.000896421   0.00805  -0.08118  -0.00978  -0.03689
  21   36759.1    272.0   0.000234947   0.00210  -0.02940   0.01872   0.02982
  22   37483.4    266.8   0.005211667   0.04577  -0.03576   0.02168   0.20982
  23   37586.9    266.1   0.578821440   5.06972  -0.16165   0.68131   2.13996
  24   37768.0    264.8   0.115586727   1.00753  -0.13891   0.95556   0.27413
  25   38157.9    262.1   0.213370112   1.84088   1.34137   0.09761  -0.17911
  26   38393.3    260.5   0.002266588   0.01944   0.06942  -0.05487  -0.10773
  27   39777.1    251.4   0.171718322   1.42121  -1.06517   0.48880   0.21839
  28   39935.8    250.4   0.237256656   1.95583  -1.11607   0.23949   0.80800
  29   40041.3    249.7   0.183928064   1.51222  -0.73350  -0.67813   0.71717

FINAL SINGLE POINT ENERGY     -6859.842750187423

DIPOLE MOMENT
-------------
                                X             Y             Z
Electronic contribution:   -111.46896     -14.88165      -6.46819
Nuclear contribution   :    110.26447      11.43322       5.02432
                        -----------------------------------------
Total Dipole Moment    :     -1.20449      -3.44843      -1.44386
                        -----------------------------------------
Magnitude (a.u.)       :      3.92775
Magnitude (Debye)      :      9.98354

Rotational constants in cm-1:     0.000938     0.000435     0.000341
Rotational constants in MHz :    28.114932    13.041177    10.209288

                             ****ORCA TERMINATED NORMALLY****
TOTAL RUN TIME: 0 days 0 hours 5 minutes 44 seconds 336 msec
