                         Program Version 4.2.0 -  RELEASE  -
|  1> # ORCA input file
|  2> # SCF done       -205.442795830958          0.000690987943
|  3> ! CAM-B3LYP def2-SVP def2/J RIJCOSX Grid4 TightSCF
|  4> %maxcore 5000
|  5> %tddft
|  6>     Mode sTDDFT
|  7>     Ethresh 5.0
|  8>     maxcore 5000
|  9> end
| 10>
| 11> %pal
| 12>   nprocs 6
| 13>   end
| 14> * xyz 0 1
| 15>    C      -17.09258        -4.44182        -3.12648
| 16>    C      -17.47509        -4.27426        -4.42727
| 17>    F      -18.68164        -3.77011        -4.71506
| 18>    C      -16.60836        -4.62832        -5.48187
| 19>    F      -17.01074        -4.45260        -6.74704
| 20>    C      -15.37087        -5.14551        -5.22016
| 21>    C      -14.94731        -5.33126        -3.88956
| 22>    C      -15.82207        -4.97303        -2.82241
| 23>    C      -15.41975        -5.15120        -1.48041
| 24>    C      -14.17795        -5.66912        -1.21089
| 25>    C      -13.31114        -6.02030        -2.28236
| 26>    C      -13.67581        -5.86658        -3.58909
| 27>    C      -12.04875        -6.56850        -1.74370
| 28>    O      -11.18033        -7.11845        -2.37304
| 29>    C      -12.15652        -6.41581        -0.25785
| 30>    C      -13.50807        -5.95780         0.05254
| 31>    C      -14.06019        -5.80722         1.29451
| 32>    C      -13.42517        -6.09843         2.52191
| 33>    N      -12.98686        -6.31147         3.56119
| 34>    C      -15.37595        -5.34732         1.52592
| 35>    N      -16.43336        -4.98265         1.78133
| 36>    C      -11.18229        -6.70082         0.63356
| 37>    C       -9.80119        -6.98458         0.31836
| 38>    N       -9.19575        -6.43457        -0.75146
| 39>    C       -7.97100        -6.80576        -0.85309
| 40>    C       -7.06605        -7.14904        -1.81658
| 41>    C       -9.05391        -7.86128         1.08818
| 42>    S       -7.34448        -7.63855         0.74723
| 43>    N       -6.37720        -8.64571        -0.12761
| 44>    C       -6.19045        -8.16309        -1.36018
| 45>    C       -5.12860        -8.68147        -2.16576
| 46>    C       -4.35423        -9.72843        -1.77770
| 47>    C       -3.22133       -10.17694        -2.47922
| 48>    C       -2.43036       -11.21764        -2.06961
| 49>    C       -1.22974       -11.66961        -2.67549
| 50>    C       -0.64081       -12.71783        -2.04241
| 51>    C       -1.34748       -13.16386        -0.89928
| 52>    S       -2.78601       -12.19553        -0.65364
| 53>    C       -0.99424       -14.18641        -0.04664
| 54>    C        0.14503       -15.02478        -0.12424
| 55>    C        0.29831       -15.85542         0.93821
| 56>    C       -0.71985       -15.73059         1.92398
| 57>    S       -1.92896       -14.56094         1.39107
| 58>    C       -0.73880       -16.33305         3.14383
| 59>    N       -1.78511       -16.30118         4.01515
| 60>    C       -1.68439       -16.58933         5.34147
| 61>    S       -3.04979       -17.30183         6.15071
| 62>    C       -2.06469       -17.55807         7.55844
| 63>    N       -2.66914       -18.13918         8.68033
| 64>    O       -1.97854       -18.31860         9.66561
| 65>    O       -3.84914       -18.42642         8.57684
| 66>    C       -0.77594       -17.12716         7.40657
| 67>    C       -0.54017       -16.52410         6.15370
| 68>    C        0.69649       -15.82968         5.87965
| 69>    C        0.81692       -14.68064         5.17178
| 70>    C       -0.31235       -13.94297         4.73080
| 71>    C       -0.50109       -12.98756         3.77968
| 72>    C       -1.83894       -12.32961         3.76428
| 73>    O       -2.78374       -12.63406         4.45862
| 74>    C       -1.76238       -11.27616         2.74157
| 75>    C       -2.69218       -10.33418         2.40916
| 76>    C       -2.39264        -9.40562         1.38854
| 77>    C       -1.13493        -9.48632         0.72361
| 78>    C       -0.84966        -8.57526        -0.31257
| 79>    C       -1.76265        -7.61841        -0.65518
| 80>    C       -2.99302        -7.52202         0.02362
| 81>    C       -3.30881        -8.40192         1.01968
| 82>    F       -3.85415        -6.55441        -0.32343
| 83>    F       -1.49607        -6.76178        -1.65212
| 84>    C       -0.19100       -10.47131         1.09465
| 85>    C       -0.49882       -11.35850         2.09208
| 86>    C        0.26480       -12.46895         2.66638
| 87>    C        1.40223       -12.98565         2.10303
| 88>    C        2.12672       -14.11097         2.54202
| 89>    N        2.77420       -15.02409         2.79855
| 90>    C        1.94462       -12.52900         0.88266
| 91>    N        2.41139       -12.24002        -0.12575
| 92>    H      -17.76811        -4.16629        -2.33171
| 93>    H      -14.71966        -5.41198        -6.03783
| 94>    H      -16.10605        -4.87204        -0.69764
| 95>    H      -12.99903        -6.14715        -4.38169
| 96>    H      -11.40982        -6.71197         1.69121
| 97>    H       -7.09470        -6.79368        -2.82802
| 98>    H       -9.35442        -8.26317         2.03582
| 99>    H       -4.93439        -8.17112        -3.09853
|100>    H       -4.60687       -10.23191        -0.85317
|101>    H       -2.93331        -9.65447        -3.38209
|102>    H       -0.83997       -11.19483        -3.55829
|103>    H        0.28177       -13.17355        -2.35182
|104>    H        0.82854       -14.96954        -0.95139
|105>    H        1.11153       -16.54622         1.06483
|106>    H        0.12035       -16.90787         3.45888
|107>    H       -2.68555       -16.00141         3.65980
|108>    H       -0.04510       -17.19798         8.19206
|109>    H        1.57960       -16.26396         6.32700
|110>    H        1.80364       -14.28356         4.99392
|111>    H       -1.21846       -14.12258         5.30803
|112>    H       -3.64383       -10.29829         2.91611
|113>    H        0.08930        -8.63264        -0.84082
|114>    H       -4.26958        -8.33482         1.50467
|115>    H        0.75689       -10.48939         0.58173
|116> *
|117>
|118>                          ****END OF INPUT****

CARTESIAN COORDINATES (ANGSTROEM)
---------------------------------
  C    -17.092580   -4.441820   -3.126480
  C    -17.475090   -4.274260   -4.427270
  F    -18.681640   -3.770110   -4.715060
  C    -16.608360   -4.628320   -5.481870
  F    -17.010740   -4.452600   -6.747040
  C    -15.370870   -5.145510   -5.220160
  C    -14.947310   -5.331260   -3.889560
  C    -15.822070   -4.973030   -2.822410
  C    -15.419750   -5.151200   -1.480410
  C    -14.177950   -5.669120   -1.210890
  C    -13.311140   -6.020300   -2.282360
  C    -13.675810   -5.866580   -3.589090
  C    -12.048750   -6.568500   -1.743700
  O    -11.180330   -7.118450   -2.373040
  C    -12.156520   -6.415810   -0.257850
  C    -13.508070   -5.957800    0.052540
  C    -14.060190   -5.807220    1.294510
  C    -13.425170   -6.098430    2.521910
  N    -12.986860   -6.311470    3.561190
  C    -15.375950   -5.347320    1.525920
  N    -16.433360   -4.982650    1.781330
  C    -11.182290   -6.700820    0.633560
  C     -9.801190   -6.984580    0.318360
  N     -9.195750   -6.434570   -0.751460
  C     -7.971000   -6.805760   -0.853090
  C     -7.066050   -7.149040   -1.816580
  C     -9.053910   -7.861280    1.088180
  S     -7.344480   -7.638550    0.747230
  N     -6.377200   -8.645710   -0.127610
  C     -6.190450   -8.163090   -1.360180
  C     -5.128600   -8.681470   -2.165760
  C     -4.354230   -9.728430   -1.777700
  C     -3.221330  -10.176940   -2.479220
  C     -2.430360  -11.217640   -2.069610
  C     -1.229740  -11.669610   -2.675490
  C     -0.640810  -12.717830   -2.042410
  C     -1.347480  -13.163860   -0.899280
  S     -2.786010  -12.195530   -0.653640
  C     -0.994240  -14.186410   -0.046640
  C      0.145030  -15.024780   -0.124240
  C      0.298310  -15.855420    0.938210
  C     -0.719850  -15.730590    1.923980
  S     -1.928960  -14.560940    1.391070
  C     -0.738800  -16.333050    3.143830
  N     -1.785110  -16.301180    4.015150
  C     -1.684390  -16.589330    5.341470
  S     -3.049790  -17.301830    6.150710
  C     -2.064690  -17.558070    7.558440
  N     -2.669140  -18.139180    8.680330
  O     -1.978540  -18.318600    9.665610
  O     -3.849140  -18.426420    8.576840
  C     -0.775940  -17.127160    7.406570
  C     -0.540170  -16.524100    6.153700
  C      0.696490  -15.829680    5.879650
  C      0.816920  -14.680640    5.171780
  C     -0.312350  -13.942970    4.730800
  C     -0.501090  -12.987560    3.779680
  C     -1.838940  -12.329610    3.764280
  O     -2.783740  -12.634060    4.458620
  C     -1.762380  -11.276160    2.741570
  C     -2.692180  -10.334180    2.409160
  C     -2.392640   -9.405620    1.388540
  C     -1.134930   -9.486320    0.723610
  C     -0.849660   -8.575260   -0.312570
  C     -1.762650   -7.618410   -0.655180
  C     -2.993020   -7.522020    0.023620
  C     -3.308810   -8.401920    1.019680
  F     -3.854150   -6.554410   -0.323430
  F     -1.496070   -6.761780   -1.652120
  C     -0.191000  -10.471310    1.094650
  C     -0.498820  -11.358500    2.092080
  C      0.264800  -12.468950    2.666380
  C      1.402230  -12.985650    2.103030
  C      2.126720  -14.110970    2.542020
  N      2.774200  -15.024090    2.798550
  C      1.944620  -12.529000    0.882660
  N      2.411390  -12.240020   -0.125750
  H    -17.768110   -4.166290   -2.331710
  H    -14.719660   -5.411980   -6.037830
  H    -16.106050   -4.872040   -0.697640
  H    -12.999030   -6.147150   -4.381690
  H    -11.409820   -6.711970    1.691210
  H     -7.094700   -6.793680   -2.828020
  H     -9.354420   -8.263170    2.035820
  H     -4.934390   -8.171120   -3.098530
  H     -4.606870  -10.231910   -0.853170
  H     -2.933310   -9.654470   -3.382090
  H     -0.839970  -11.194830   -3.558290
  H      0.281770  -13.173550   -2.351820
  H      0.828540  -14.969540   -0.951390
  H      1.111530  -16.546220    1.064830
  H      0.120350  -16.907870    3.458880
  H     -2.685550  -16.001410    3.659800
  H     -0.045100  -17.197980    8.192060
  H      1.579600  -16.263960    6.327000
  H      1.803640  -14.283560    4.993920
  H     -1.218460  -14.122580    5.308030
  H     -3.643830  -10.298290    2.916110
  H      0.089300   -8.632640   -0.840820
  H     -4.269580   -8.334820    1.504670
  H      0.756890  -10.489390    0.581730

 Total Charge           Charge          ....    0
 Multiplicity           Mult            ....    1
 Number of Electrons    NEL             ....  554
 Basis Dimension        Dim             .... 1214

ORBITAL ENERGIES
----------------

  NO   OCC          E(Eh)            E(eV)
   0   2.0000     -89.024975     -2422.4927
   1   2.0000     -88.991678     -2421.5867
   2   2.0000     -88.968348     -2420.9518
   3   2.0000     -88.956752     -2420.6363
   4   2.0000     -24.801577      -674.8852
   5   2.0000     -24.800396      -674.8531
   6   2.0000     -24.799086      -674.8174
   7   2.0000     -24.798002      -674.7879
   8   2.0000     -19.243139      -523.6324
   9   2.0000     -19.242369      -523.6115
  10   2.0000     -19.218391      -522.9590
  11   2.0000     -19.217767      -522.9420
  12   2.0000     -14.654489      -398.7689
  13   2.0000     -14.493571      -394.3901
  14   2.0000     -14.426214      -392.5573
  15   2.0000     -14.425491      -392.5376
  16   2.0000     -14.424240      -392.5035
  17   2.0000     -14.424027      -392.4977
  18   2.0000     -14.401470      -391.8839
  19   2.0000     -14.397613      -391.7790
  20   2.0000     -10.385212      -282.5960
  21   2.0000     -10.384088      -282.5654
  22   2.0000     -10.380148      -282.4582
  23   2.0000     -10.379023      -282.4276
  24   2.0000     -10.377712      -282.3919
  25   2.0000     -10.369986      -282.1817
  26   2.0000     -10.368551      -282.1426
  27   2.0000     -10.354227      -281.7529
  28   2.0000     -10.351207      -281.6707
  29   2.0000     -10.350980      -281.6645
  30   2.0000     -10.350746      -281.6581
  31   2.0000     -10.350030      -281.6386
  32   2.0000     -10.347756      -281.5768
  33   2.0000     -10.345768      -281.5227
  34   2.0000     -10.341422      -281.4044
  35   2.0000     -10.330782      -281.1149
  36   2.0000     -10.329558      -281.0816
  37   2.0000     -10.329068      -281.0682
  38   2.0000     -10.328736      -281.0592
  39   2.0000     -10.328146      -281.0431
  40   2.0000     -10.326488      -280.9980
  41   2.0000     -10.323254      -280.9100
  42   2.0000     -10.322226      -280.8820
  43   2.0000     -10.322159      -280.8802
  44   2.0000     -10.321697      -280.8677
  45   2.0000     -10.318604      -280.7835
  46   2.0000     -10.316616      -280.7294
  47   2.0000     -10.314480      -280.6713
  48   2.0000     -10.314152      -280.6623
  49   2.0000     -10.313325      -280.6399
  50   2.0000     -10.313077      -280.6331
  51   2.0000     -10.312681      -280.6223
  52   2.0000     -10.312412      -280.6150
  53   2.0000     -10.309135      -280.5258
  54   2.0000     -10.308672      -280.5132
  55   2.0000     -10.307675      -280.4861
  56   2.0000     -10.307299      -280.4759
  57   2.0000     -10.304948      -280.4119
  58   2.0000     -10.304091      -280.3886
  59   2.0000     -10.303701      -280.3780
  60   2.0000     -10.303471      -280.3717
  61   2.0000     -10.302424      -280.3432
  62   2.0000     -10.300926      -280.3024
  63   2.0000     -10.300895      -280.3016
  64   2.0000     -10.300395      -280.2880
  65   2.0000     -10.298794      -280.2444
  66   2.0000     -10.297055      -280.1971
  67   2.0000     -10.296545      -280.1832
  68   2.0000     -10.296411      -280.1796
  69   2.0000     -10.296070      -280.1703
  70   2.0000     -10.295425      -280.1528
  71   2.0000     -10.293856      -280.1101
  72   2.0000     -10.292957      -280.0856
  73   2.0000     -10.289536      -279.9925
  74   2.0000     -10.284361      -279.8517
  75   2.0000     -10.276243      -279.6308
  76   2.0000     -10.268494      -279.4199
  77   2.0000      -8.115113      -220.8235
  78   2.0000      -8.087549      -220.0734
  79   2.0000      -8.063326      -219.4143
  80   2.0000      -8.052206      -219.1117
  81   2.0000      -6.083311      -165.5353
  82   2.0000      -6.082047      -165.5009
  83   2.0000      -6.077668      -165.3818
  84   2.0000      -6.057174      -164.8241
  85   2.0000      -6.052781      -164.7046
  86   2.0000      -6.048965      -164.6007
  87   2.0000      -6.033117      -164.1695
  88   2.0000      -6.029158      -164.0617
  89   2.0000      -6.024301      -163.9296
  90   2.0000      -6.021971      -163.8662
  91   2.0000      -6.018030      -163.7589
  92   2.0000      -6.013101      -163.6248
  93   2.0000      -1.324110       -36.0309
  94   2.0000      -1.324014       -36.0283
  95   2.0000      -1.320198       -35.9244
  96   2.0000      -1.309193       -35.6250
  97   2.0000      -1.305323       -35.5197
  98   2.0000      -1.143330       -31.1116
  99   2.0000      -1.134376       -30.8680
 100   2.0000      -1.133894       -30.8548
 101   2.0000      -1.100695       -29.9514
 102   2.0000      -1.082442       -29.4548
 103   2.0000      -1.034230       -28.1428
 104   2.0000      -1.028015       -27.9737
 105   2.0000      -1.027546       -27.9610
 106   2.0000      -1.015060       -27.6212
 107   2.0000      -1.009983       -27.4830
 108   2.0000      -1.007980       -27.4285
 109   2.0000      -1.005100       -27.3502
 110   2.0000      -1.003866       -27.3166
 111   2.0000      -1.003442       -27.3051
 112   2.0000      -0.986353       -26.8400
 113   2.0000      -0.986065       -26.8322
 114   2.0000      -0.980910       -26.6919
 115   2.0000      -0.941666       -25.6240
 116   2.0000      -0.937906       -25.5217
 117   2.0000      -0.929845       -25.3024
 118   2.0000      -0.922832       -25.1115
 119   2.0000      -0.915714       -24.9179
 120   2.0000      -0.910977       -24.7889
 121   2.0000      -0.903660       -24.5898
 122   2.0000      -0.898881       -24.4598
 123   2.0000      -0.896449       -24.3936
 124   2.0000      -0.891611       -24.2620
 125   2.0000      -0.887783       -24.1578
 126   2.0000      -0.880188       -23.9511
 127   2.0000      -0.872913       -23.7532
 128   2.0000      -0.858226       -23.3535
 129   2.0000      -0.852734       -23.2041
 130   2.0000      -0.844535       -22.9810
 131   2.0000      -0.844052       -22.9678
 132   2.0000      -0.842288       -22.9198
 133   2.0000      -0.839932       -22.8557
 134   2.0000      -0.835458       -22.7340
 135   2.0000      -0.827968       -22.5301
 136   2.0000      -0.805752       -21.9256
 137   2.0000      -0.799440       -21.7539
 138   2.0000      -0.785697       -21.3799
 139   2.0000      -0.775256       -21.0958
 140   2.0000      -0.772834       -21.0299
 141   2.0000      -0.769765       -20.9464
 142   2.0000      -0.753663       -20.5082
 143   2.0000      -0.743443       -20.2301
 144   2.0000      -0.738090       -20.0845
 145   2.0000      -0.725188       -19.7334
 146   2.0000      -0.723586       -19.6898
 147   2.0000      -0.718540       -19.5525
 148   2.0000      -0.716919       -19.5084
 149   2.0000      -0.704192       -19.1620
 150   2.0000      -0.696603       -18.9555
 151   2.0000      -0.696075       -18.9412
 152   2.0000      -0.687306       -18.7025
 153   2.0000      -0.686744       -18.6873
 154   2.0000      -0.680182       -18.5087
 155   2.0000      -0.674411       -18.3516
 156   2.0000      -0.671465       -18.2715
 157   2.0000      -0.662653       -18.0317
 158   2.0000      -0.656678       -17.8691
 159   2.0000      -0.652835       -17.7645
 160   2.0000      -0.646874       -17.6023
 161   2.0000      -0.646277       -17.5861
 162   2.0000      -0.645100       -17.5541
 163   2.0000      -0.640989       -17.4422
 164   2.0000      -0.636760       -17.3271
 165   2.0000      -0.635804       -17.3011
 166   2.0000      -0.634828       -17.2746
 167   2.0000      -0.632907       -17.2223
 168   2.0000      -0.624460       -16.9924
 169   2.0000      -0.622599       -16.9418
 170   2.0000      -0.620360       -16.8808
 171   2.0000      -0.614156       -16.7120
 172   2.0000      -0.610036       -16.5999
 173   2.0000      -0.602217       -16.3872
 174   2.0000      -0.597775       -16.2663
 175   2.0000      -0.596029       -16.2188
 176   2.0000      -0.593578       -16.1521
 177   2.0000      -0.588526       -16.0146
 178   2.0000      -0.586994       -15.9729
 179   2.0000      -0.585804       -15.9405
 180   2.0000      -0.585540       -15.9334
 181   2.0000      -0.581258       -15.8168
 182   2.0000      -0.580145       -15.7866
 183   2.0000      -0.570716       -15.5300
 184   2.0000      -0.565854       -15.3977
 185   2.0000      -0.565213       -15.3802
 186   2.0000      -0.557472       -15.1696
 187   2.0000      -0.556664       -15.1476
 188   2.0000      -0.552896       -15.0451
 189   2.0000      -0.550888       -14.9904
 190   2.0000      -0.550086       -14.9686
 191   2.0000      -0.549416       -14.9504
 192   2.0000      -0.547554       -14.8997
 193   2.0000      -0.545484       -14.8434
 194   2.0000      -0.542581       -14.7644
 195   2.0000      -0.539796       -14.6886
 196   2.0000      -0.536756       -14.6059
 197   2.0000      -0.535412       -14.5693
 198   2.0000      -0.533769       -14.5246
 199   2.0000      -0.529949       -14.4207
 200   2.0000      -0.528021       -14.3682
 201   2.0000      -0.523947       -14.2573
 202   2.0000      -0.520945       -14.1756
 203   2.0000      -0.519269       -14.1300
 204   2.0000      -0.517572       -14.0838
 205   2.0000      -0.516506       -14.0549
 206   2.0000      -0.514624       -14.0036
 207   2.0000      -0.512979       -13.9589
 208   2.0000      -0.510654       -13.8956
 209   2.0000      -0.507752       -13.8166
 210   2.0000      -0.505917       -13.7667
 211   2.0000      -0.504135       -13.7182
 212   2.0000      -0.503760       -13.7080
 213   2.0000      -0.500164       -13.6102
 214   2.0000      -0.498474       -13.5642
 215   2.0000      -0.495336       -13.4788
 216   2.0000      -0.491843       -13.3837
 217   2.0000      -0.487478       -13.2649
 218   2.0000      -0.482727       -13.1357
 219   2.0000      -0.478202       -13.0125
 220   2.0000      -0.476959       -12.9787
 221   2.0000      -0.474687       -12.9169
 222   2.0000      -0.473958       -12.8970
 223   2.0000      -0.469398       -12.7730
 224   2.0000      -0.466697       -12.6995
 225   2.0000      -0.465249       -12.6601
 226   2.0000      -0.464232       -12.6324
 227   2.0000      -0.461842       -12.5674
 228   2.0000      -0.459789       -12.5115
 229   2.0000      -0.457780       -12.4568
 230   2.0000      -0.456513       -12.4224
 231   2.0000      -0.454995       -12.3810
 232   2.0000      -0.453869       -12.3504
 233   2.0000      -0.451799       -12.2941
 234   2.0000      -0.450102       -12.2479
 235   2.0000      -0.449489       -12.2312
 236   2.0000      -0.447573       -12.1791
 237   2.0000      -0.445098       -12.1117
 238   2.0000      -0.440847       -11.9960
 239   2.0000      -0.437730       -11.9112
 240   2.0000      -0.436958       -11.8902
 241   2.0000      -0.434044       -11.8109
 242   2.0000      -0.433426       -11.7941
 243   2.0000      -0.431547       -11.7430
 244   2.0000      -0.430594       -11.7170
 245   2.0000      -0.428763       -11.6672
 246   2.0000      -0.420886       -11.4529
 247   2.0000      -0.416808       -11.3419
 248   2.0000      -0.413938       -11.2638
 249   2.0000      -0.409965       -11.1557
 250   2.0000      -0.406526       -11.0621
 251   2.0000      -0.401434       -10.9236
 252   2.0000      -0.392532       -10.6813
 253   2.0000      -0.390063       -10.6142
 254   2.0000      -0.389040       -10.5863
 255   2.0000      -0.385485       -10.4896
 256   2.0000      -0.382967       -10.4211
 257   2.0000      -0.379350       -10.3226
 258   2.0000      -0.371253       -10.1023
 259   2.0000      -0.369595       -10.0572
 260   2.0000      -0.363182        -9.8827
 261   2.0000      -0.352581        -9.5942
 262   2.0000      -0.349615        -9.5135
 263   2.0000      -0.343142        -9.3374
 264   2.0000      -0.342268        -9.3136
 265   2.0000      -0.337186        -9.1753
 266   2.0000      -0.333124        -9.0648
 267   2.0000      -0.325100        -8.8464
 268   2.0000      -0.318706        -8.6724
 269   2.0000      -0.315757        -8.5922
 270   2.0000      -0.311604        -8.4792
 271   2.0000      -0.304871        -8.2960
 272   2.0000      -0.301389        -8.2012
 273   2.0000      -0.299649        -8.1539
 274   2.0000      -0.283844        -7.7238
 275   2.0000      -0.264848        -7.2069
 276   2.0000      -0.226419        -6.1612
 277   0.0000      -0.103256        -2.8098
 278   0.0000      -0.101991        -2.7753
 279   0.0000      -0.088663        -2.4126
 280   0.0000      -0.062391        -1.6977
 281   0.0000      -0.060444        -1.6448

MULLIKEN ATOMIC CHARGES
-----------------------
   0 C :   -0.105870
   1 C :    0.242687
   2 F :   -0.169348
   3 C :    0.241068
   4 F :   -0.170741
   5 C :   -0.105154
   6 C :    0.116347
   7 C :    0.111408
   8 C :   -0.080262
   9 C :    0.052418
  10 C :   -0.007700
  11 C :   -0.076083
  12 C :    0.148129
  13 O :   -0.102883
  14 C :   -0.052540
  15 C :    0.315363
  16 C :   -0.346228
  17 C :   -0.182306
  18 N :    0.156503
  19 C :   -0.182483
  20 N :    0.158567
  21 C :   -0.015484
  22 C :    0.028934
  23 N :   -0.032649
  24 C :    0.001894
  25 C :   -0.037126
  26 C :   -0.123069
  27 S :    0.331323
  28 N :   -0.374782
  29 C :    0.082943
  30 C :   -0.023013
  31 C :    0.053154
  32 C :   -0.030233
  33 C :   -0.003204
  34 C :    0.032621
  35 C :    0.042694
  36 C :   -0.049199
  37 S :    0.078248
  38 C :   -0.066136
  39 C :    0.020051
  40 C :    0.073057
  41 C :   -0.085411
  42 S :    0.060024
  43 C :    0.059400
  44 N :   -0.038857
  45 C :   -0.130719
  46 S :    0.195189
  47 C :   -0.005299
  48 N :    0.277523
  49 O :   -0.246643
  50 O :   -0.259308
  51 C :    0.013261
  52 C :    0.064418
  53 C :   -0.001169
  54 C :    0.019560
  55 C :   -0.036068
  56 C :   -0.093535
  57 C :    0.137871
  58 O :   -0.153984
  59 C :    0.022936
  60 C :   -0.087687
  61 C :    0.116551
  62 C :    0.118714
  63 C :   -0.111700
  64 C :    0.248284
  65 C :    0.244992
  66 C :   -0.079982
  67 F :   -0.174669
  68 F :   -0.175713
  69 C :   -0.086097
  70 C :    0.031084
  71 C :    0.352771
  72 C :   -0.367437
  73 C :   -0.207403
  74 N :    0.161489
  75 C :   -0.187716
  76 N :    0.151920
  77 H :    0.008307
  78 H :    0.000808
  79 H :   -0.006631
  80 H :   -0.008622
  81 H :    0.029095
  82 H :    0.000371
  83 H :    0.035148
  84 H :   -0.017425
  85 H :    0.029996
  86 H :   -0.012362
  87 H :   -0.008291
  88 H :    0.000208
  89 H :    0.000418
  90 H :    0.005808
  91 H :    0.034241
  92 H :    0.152626
  93 H :    0.015502
  94 H :    0.016046
  95 H :    0.023035
  96 H :    0.039518
  97 H :   -0.011532
  98 H :   -0.002263
  99 H :   -0.011982
 100 H :   -0.009528
Sum of atomic charges:   -0.0000000

LOEWDIN ATOMIC CHARGES
----------------------
   0 C :   -0.028695
   1 C :    0.066770
   2 F :   -0.047680
   3 C :    0.069549
   4 F :   -0.047881
   5 C :   -0.033314
   6 C :   -0.006166
   7 C :   -0.006696
   8 C :    0.019462
   9 C :   -0.025706
  10 C :   -0.050707
  11 C :    0.030262
  12 C :    0.079235
  13 O :   -0.104239
  14 C :   -0.055853
  15 C :    0.075589
  16 C :   -0.127161
  17 C :   -0.020031
  18 N :   -0.042409
  19 C :   -0.016446
  20 N :   -0.044756
  21 C :    0.064648
  22 C :    0.006821
  23 N :   -0.127601
  24 C :   -0.018602
  25 C :   -0.135157
  26 C :   -0.266798
  27 S :    0.767283
  28 N :   -0.391750
  29 C :    0.021694
  30 C :   -0.057929
  31 C :    0.019341
  32 C :   -0.071205
  33 C :   -0.124202
  34 C :   -0.037986
  35 C :   -0.011344
  36 C :   -0.185265
  37 S :    0.386976
  38 C :   -0.166769
  39 C :   -0.043215
  40 C :   -0.011368
  41 C :   -0.191977
  42 S :    0.379982
  43 C :    0.016070
  44 N :    0.037184
  45 C :   -0.109213
  46 S :    0.464641
  47 C :   -0.204761
  48 N :    0.273701
  49 O :   -0.212138
  50 O :   -0.225383
  51 C :    0.007986
  52 C :   -0.109572
  53 C :    0.014582
  54 C :   -0.039811
  55 C :    0.058526
  56 C :   -0.097304
  57 C :    0.074863
  58 O :   -0.154723
  59 C :   -0.059118
  60 C :    0.032000
  61 C :   -0.011543
  62 C :   -0.008028
  63 C :   -0.032282
  64 C :    0.068043
  65 C :    0.068142
  66 C :   -0.021486
  67 F :   -0.045212
  68 F :   -0.052756
  69 C :    0.017820
  70 C :   -0.024785
  71 C :    0.076161
  72 C :   -0.140303
  73 C :   -0.013114
  74 N :   -0.063303
  75 C :   -0.011423
  76 N :   -0.063175
  77 H :    0.048098
  78 H :    0.045455
  79 H :    0.039865
  80 H :    0.041026
  81 H :    0.048996
  82 H :    0.042289
  83 H :    0.023868
  84 H :    0.029923
  85 H :    0.029885
  86 H :    0.033217
  87 H :    0.035927
  88 H :    0.037792
  89 H :    0.037269
  90 H :    0.039898
  91 H :    0.042754
  92 H :    0.092330
  93 H :    0.048301
  94 H :    0.040521
  95 H :    0.039567
  96 H :    0.042563
  97 H :    0.040957
  98 H :    0.044296
  99 H :    0.038471
 100 H :    0.037743

  Mayer bond orders larger than 0.100000
B(  0-C ,  1-C ) :   1.4450 B(  0-C ,  5-C ) :   0.1090 B(  0-C ,  7-C ) :   1.1826
B(  0-C , 77-H ) :   1.0066 B(  1-C ,  2-F ) :   1.1366 B(  1-C ,  3-C ) :   1.1879
B(  3-C ,  4-F ) :   1.1338 B(  3-C ,  5-C ) :   1.4443 B(  5-C ,  6-C ) :   1.1907
B(  5-C , 78-H ) :   1.0072 B(  6-C ,  7-C ) :   1.2533 B(  6-C , 11-C ) :   1.1942
B(  7-C ,  8-C ) :   1.2294 B(  8-C ,  9-C ) :   1.4332 B(  8-C , 79-H ) :   0.9883
B(  9-C , 10-C ) :   1.2227 B(  9-C , 15-C ) :   0.9969 B( 10-C , 11-C ) :   1.4733
B( 10-C , 12-C ) :   0.9281 B( 11-C , 80-H ) :   1.0150 B( 12-C , 13-O ) :   2.2888
B( 12-C , 14-C ) :   0.9018 B( 14-C , 15-C ) :   1.0414 B( 14-C , 21-C ) :   1.7465
B( 15-C , 16-C ) :   1.6532 B( 16-C , 17-C ) :   1.1397 B( 16-C , 19-C ) :   1.1426
B( 17-C , 18-N ) :   2.9641 B( 19-C , 20-N ) :   2.9653 B( 21-C , 22-C ) :   1.0533
B( 21-C , 81-H ) :   0.9287 B( 22-C , 23-N ) :   1.3858 B( 22-C , 26-C ) :   1.4555
B( 23-N , 24-C ) :   1.5889 B( 24-C , 25-C ) :   1.3998 B( 24-C , 27-S ) :   0.8092
B( 25-C , 29-C ) :   1.1992 B( 25-C , 82-H ) :   1.0031 B( 26-C , 27-S ) :   1.0054
B( 26-C , 83-H ) :   0.9627 B( 27-S , 28-N ) :   1.0617 B( 28-N , 29-C ) :   1.5024
B( 29-C , 30-C ) :   1.1190 B( 30-C , 31-C ) :   1.6342 B( 30-C , 84-H ) :   0.9843
B( 31-C , 32-C ) :   1.1483 B( 31-C , 85-H ) :   0.9573 B( 32-C , 33-C ) :   1.5576
B( 32-C , 86-H ) :   0.9839 B( 33-C , 34-C ) :   1.1297 B( 33-C , 37-S ) :   1.0451
B( 34-C , 35-C ) :   1.5915 B( 34-C , 87-H ) :   1.0025 B( 35-C , 36-C ) :   1.1819
B( 35-C , 88-H ) :   0.9932 B( 36-C , 37-S ) :   1.0374 B( 36-C , 38-C ) :   1.5282
B( 38-C , 39-C ) :   1.1592 B( 38-C , 42-S ) :   1.0449 B( 39-C , 40-C ) :   1.6173
B( 39-C , 89-H ) :   0.9963 B( 40-C , 41-C ) :   1.1210 B( 40-C , 90-H ) :   0.9995
B( 41-C , 42-S ) :   1.0126 B( 41-C , 43-C ) :   1.6194 B( 43-C , 44-N ) :   1.1487
B( 43-C , 91-H ) :   0.9559 B( 44-N , 45-C ) :   1.1864 B( 44-N , 92-H ) :   0.9029
B( 45-C , 46-S ) :   1.1422 B( 45-C , 52-C ) :   1.3691 B( 46-S , 47-C ) :   1.0843
B( 47-C , 48-N ) :   0.9649 B( 47-C , 51-C ) :   1.5055 B( 48-N , 49-O ) :   1.5389
B( 48-N , 50-O ) :   1.5141 B( 49-O , 50-O ) :   0.2624 B( 51-C , 52-C ) :   1.2181
B( 51-C , 93-H ) :   1.0048 B( 52-C , 53-C ) :   1.0603 B( 53-C , 54-C ) :   1.7382
B( 53-C , 94-H ) :   0.9629 B( 54-C , 55-C ) :   1.0802 B( 54-C , 95-H ) :   0.9634
B( 55-C , 56-C ) :   1.6881 B( 55-C , 96-H ) :   0.9092 B( 56-C , 57-C ) :   0.9385
B( 56-C , 71-C ) :   1.0224 B( 57-C , 58-O ) :   2.2349 B( 57-C , 59-C ) :   0.9264
B( 59-C , 60-C ) :   1.4604 B( 59-C , 70-C ) :   1.2184 B( 60-C , 61-C ) :   1.1828
B( 60-C , 97-H ) :   1.0208 B( 61-C , 62-C ) :   1.2520 B( 61-C , 66-C ) :   1.1934
B( 62-C , 63-C ) :   1.1852 B( 62-C , 69-C ) :   1.2200 B( 63-C , 64-C ) :   1.4383
B( 63-C , 66-C ) :   0.1086 B( 63-C , 98-H ) :   1.0092 B( 64-C , 65-C ) :   1.2100
B( 64-C , 68-F ) :   1.1336 B( 65-C , 66-C ) :   1.4316 B( 65-C , 67-F ) :   1.0978
B( 66-C , 99-H ) :   0.9988 B( 69-C , 70-C ) :   1.4340 B( 69-C ,100-H ) :   0.9953
B( 70-C , 71-C ) :   0.9882 B( 71-C , 72-C ) :   1.6404 B( 72-C , 73-C ) :   1.1784
B( 72-C , 75-C ) :   1.1378 B( 73-C , 74-N ) :   2.9460 B( 75-C , 76-N ) :   2.9571

-----------------------------------------------------------------------------
         ABSORPTION SPECTRUM VIA TRANSITION ELECTRIC DIPOLE MOMENTS
-----------------------------------------------------------------------------
State   Energy  Wavelength   fosc         T2         TX        TY        TZ
        (cm-1)    (nm)                  (au**2)     (au)      (au)      (au)
-----------------------------------------------------------------------------
   0    9447.2   1058.5   0.060172658   2.09687  -0.88805   0.43474  -1.05794
   1   14960.0    668.5   0.801894687  17.64665   2.25661  -2.93240   1.98882
   2   16419.1    609.0   0.162668555   3.26160   0.43977  -1.07999   1.37906
   3   18746.4    533.4   0.153180067   2.69005  -0.64717   1.47137  -0.32603
   4   18881.6    529.6   0.018118698   0.31591   0.48599   0.10845  -0.26070
   5   20466.5    488.6   0.142006456   2.28423  -0.67546   1.35154   0.03630
   6   21427.9    466.7   0.186477065   2.86498   0.39391   1.18092  -1.14684
   7   22423.8    446.0   0.179198804   2.63088  -1.11368   0.32701   1.13299
   8   23810.3    420.0   0.009315196   0.12880   0.18959  -0.07508   0.29532
   9   24227.1    412.8   0.147341677   2.00216   0.12458  -1.10098   0.88005
  10   24901.0    401.6   0.037552072   0.49647  -0.53769   0.37917  -0.25217
  11   25401.7    393.7   0.042659956   0.55288  -0.18400  -0.43821   0.57184
  12   25626.4    390.2   0.074982830   0.96327  -0.23731  -0.43881   0.84522
  13   26304.0    380.2   0.114092844   1.42795   0.93651  -0.67573  -0.30704
  14   26947.1    371.1   0.079345259   0.96936   0.59859  -0.12391  -0.77181
  15   27337.9    365.8   0.034137427   0.41109   0.47194  -0.41380  -0.13091
  16   27595.4    362.4   0.335048675   3.99711  -0.65074   0.74892  -1.73573
  17   27782.8    359.9   0.433387507   5.13543  -1.76301  -0.03164   1.42345
  18   28192.0    354.7   0.152189513   1.77720   1.15020  -0.66158  -0.12863
  19   28519.3    350.6   0.037091948   0.42817  -0.28485   0.49268   0.32295
  20   28851.0    346.6   0.106885851   1.21965   0.31159   0.01859  -1.05935
  21   28904.3    346.0   0.009742906   0.11097   0.02697  -0.21891  -0.24964
  22   29133.1    343.3   0.007495892   0.08471   0.12137   0.24188  -0.10710
  23   29420.4    339.9   0.186819562   2.09050   1.27433  -0.65617   0.18978
  24   29511.8    338.8   0.053041819   0.59170  -0.06536  -0.28640   0.71091
  25   29805.1    335.5   0.075288413   0.83160  -0.07887   0.80616  -0.41891
  26   30409.6    328.8   0.075050819   0.81249   0.23410  -0.60542   0.62543
  27   30989.6    322.7   0.128676750   1.36697   0.01155   0.73619  -0.90822
  28   31332.5    319.2   0.032106844   0.33735   0.41606  -0.28575   0.28738
  29   31617.1    316.3   0.118994721   1.23903  -0.80698   0.67021  -0.37235
  30   31774.1    314.7   0.156142638   1.61780   1.24081  -0.26922   0.07556
  31   32115.1    311.4   0.038539639   0.39507  -0.00940   0.58960  -0.21760
  32   32211.9    310.4   0.072191981   0.73782   0.50611   0.27008  -0.63932
  33   32444.5    308.2   0.128977415   1.30872   1.08184  -0.34801  -0.13124
  34   32871.6    304.2   0.165985697   1.66236   0.50044   0.29396  -1.15131
  35   33111.9    302.0   0.309060896   3.07281  -0.09801   1.40119  -1.04875
  36   33344.1    299.9   0.002692991   0.02659   0.10336  -0.06955   0.10521
  37   33666.7    297.0   0.007015702   0.06860  -0.21857  -0.11276  -0.09008
  38   33907.6    294.9   0.194481596   1.88824  -0.97874   0.96308  -0.05271
  39   34044.6    293.7   0.004228060   0.04089  -0.09400   0.13475   0.11787
  40   34296.6    291.6   0.071978131   0.69092   0.74914  -0.13466   0.33402
  41   34390.1    290.8   0.159631002   1.52813  -0.95172   0.74643  -0.25534
  42   34633.5    288.7   0.773065497   7.34844  -1.28418   0.62128  -2.30507
  43   34920.0    286.4   0.041868367   0.39472  -0.50965   0.23140   0.28535
  44   34965.8    286.0   0.187221212   1.76273   0.34897  -0.10460   1.27672
  45   35074.6    285.1   0.027141420   0.25475  -0.47429   0.12858  -0.11519
  46   35330.8    283.0   0.256227712   2.38752  -0.88785   1.06231  -0.68610
  47   35446.6    282.1   0.110574643   1.02697   0.39517  -0.47202  -0.80498
  48   35630.6    280.7   0.170997358   1.57995  -0.57281   1.07684  -0.30373
  49   35826.8    279.1   0.005807119   0.05336   0.11424   0.07546   0.18605
  50   36426.1    274.5   0.088865654   0.80315   0.80673  -0.37131   0.12028
  51   36788.8    271.8   0.023837109   0.21331   0.45801   0.02782  -0.05258
  52   36850.8    271.4   0.016392205   0.14644  -0.19597   0.27788  -0.17556
  53   37008.0    270.2   0.000982476   0.00874   0.06335   0.05167   0.04536
  54   37104.5    269.5   0.024746923   0.21957  -0.22866  -0.15728   0.37755
  55   37329.5    267.9   0.002520377   0.02223   0.04212  -0.00841  -0.14277
  56   37341.1    267.8   0.019976258   0.17612  -0.20897   0.35194  -0.09269
  57   37672.3    265.4   0.040968915   0.35802  -0.44997   0.21621  -0.32986
  58   37877.9    264.0   0.009736418   0.08462  -0.21693   0.06685   0.18192
  59   38012.6    263.1   0.052731991   0.45669  -0.41648   0.52481  -0.08839
  60   38299.1    261.1   0.004606193   0.03959  -0.04573   0.18070   0.06963
  61   38567.7    259.3   0.025478683   0.21748   0.22272   0.27856  -0.30047
  62   38702.9    258.4   0.011241634   0.09562   0.02834   0.30545  -0.03901
  63   38932.1    256.9   0.029909930   0.25292   0.40850   0.15364   0.24989
  64   39128.2    255.6   0.201616336   1.69633   0.78033   0.49190  -0.91948
  65   39169.1    255.3   0.058661234   0.49304  -0.48562   0.43482   0.26105
  66   39198.9    255.1   0.089419200   0.75099  -0.57547  -0.03623   0.64692
  67   39395.6    253.8   0.006777079   0.05663   0.01444   0.23140  -0.05366
  68   39643.6    252.2   0.002488222   0.02066  -0.00762   0.11819  -0.08146
  69   39852.8    250.9   0.054108841   0.44698   0.49853  -0.23516   0.37835
  70   39880.5    250.7   0.010212321   0.08430  -0.28162  -0.04190   0.05692
  71   39992.3    250.0   0.048804837   0.40176  -0.28958  -0.12726   0.54928
  72   40193.8    248.8   0.031922784   0.26147  -0.09943  -0.44282   0.23556

FINAL SINGLE POINT ENERGY     -4912.602827415119

DIPOLE MOMENT
-------------
                                X             Y             Z
Electronic contribution:    -41.70307      27.38213      -8.62669
Nuclear contribution   :     43.61466     -27.48304       6.18200
                        -----------------------------------------
Total Dipole Moment    :      1.91159      -0.10091      -2.44469
                        -----------------------------------------
Magnitude (a.u.)       :      3.10498
Magnitude (Debye)      :      7.89223

Rotational constants in cm-1:     0.001348     0.000263     0.000236
Rotational constants in MHz :    40.402264     7.872398     7.066490

                             ****ORCA TERMINATED NORMALLY****
TOTAL RUN TIME: 0 days 0 hours 12 minutes 43 seconds 336 msec
