                         Program Version 4.2.0 -  RELEASE  -
|  1> # ORCA input file
|  2> # SCF done       -211.405646015597          0.000996341622
|  3> ! CAM-B3LYP def2-SVP def2/J RIJCOSX Grid4 TightSCF
|  4> %maxcore 5000
|  5> %tddft
|  6>     Mode sTDDFT
|  7>     Ethresh 5.0
|  8>     maxcore 5000
|  9> end
| 10>
| 11> %pal
| 12>   nprocs 6
| 13>   end
| 14> * xyz 0 1
| 15>    C       -9.41312       -13.00177         1.04154
| 16>    C       -9.08394       -14.29811         0.75963
| 17>    F       -9.93214       -15.28906         1.06354
| 18>    C       -7.85301       -14.60841         0.14710
| 19>    F       -7.55715       -15.88737        -0.11892
| 20>    C       -6.96790       -13.61758        -0.17558
| 21>    C       -7.27912       -12.27238         0.10041
| 22>    C       -8.52283       -11.95736         0.72101
| 23>    C       -8.85654       -10.61408         1.00986
| 24>    C       -7.97336        -9.61758         0.68801
| 25>    C       -6.73563        -9.94173         0.06512
| 26>    C       -6.38573       -11.22782        -0.22747
| 27>    C       -5.97740        -8.70450        -0.18478
| 28>    O       -4.91960        -8.60100        -0.77730
| 29>    C       -6.81276        -7.60819         0.33806
| 30>    C       -8.03824        -8.17062         0.87029
| 31>    C       -9.05242        -7.49256         1.49630
| 32>    C      -10.21703        -8.10454         2.00542
| 33>    N      -11.19036        -8.53901         2.43096
| 34>    C       -9.07107        -6.10257         1.73086
| 35>    N       -9.13630        -4.97788         1.95589
| 36>    C       -6.56102        -6.27096         0.17510
| 37>    N       -5.39566        -5.67945        -0.15325
| 38>    C       -4.10481        -6.08179         0.04664
| 39>    S       -3.66147        -7.27432         1.21388
| 40>    C       -1.99743        -6.86086         0.98475
| 41>    N       -1.05069        -7.58162         1.72664
| 42>    O        0.12266        -7.30565         1.57407
| 43>    O       -1.48713        -8.43434         2.48005
| 44>    C       -1.79691        -5.86411         0.06859
| 45>    C       -3.00236        -5.40564        -0.49885
| 46>    C       -3.06082        -4.36914        -1.48633
| 47>    C       -4.02970        -4.22629        -2.42977
| 48>    C       -4.12696        -3.17757        -3.37391
| 49>    C       -3.50436        -1.95637        -3.35910
| 50>    C       -3.66336        -0.94830        -4.34947
| 51>    C       -3.00303         0.21055        -4.08987
| 52>    C       -2.28019         0.19700        -2.87342
| 53>    S       -2.45807        -1.35351        -2.08348
| 54>    C       -1.52901         1.21121        -2.31840
| 55>    C       -1.25932         2.49026        -2.86301
| 56>    C       -0.50882         3.29266        -2.06475
| 57>    C       -0.12505         2.68409        -0.83682
| 58>    S       -0.75331         1.04216        -0.75889
| 59>    C        0.64620         3.16020         0.18120
| 60>    N        1.07557         4.45589         0.32062
| 61>    C        0.40948         5.58125        -0.02801
| 62>    S       -1.32287         5.58896        -0.17530
| 63>    C       -1.28443         7.32238        -0.33850
| 64>    N       -2.50809         7.97583        -0.52543
| 65>    O       -2.49406         9.18713        -0.63661
| 66>    O       -3.50202         7.26956        -0.55960
| 67>    C       -0.02691         7.84999        -0.29134
| 68>    C        0.97680         6.86665        -0.14185
| 69>    C        2.36114         7.18367        -0.25438
| 70>    C        3.37504         6.30913        -0.49441
| 71>    C        4.69319         6.72180        -0.76814
| 72>    C        5.71097         5.94913        -1.25565
| 73>    C        7.10185         6.46747        -1.18517
| 74>    O        7.43760         7.59974        -0.92154
| 75>    C        7.96906         5.30196        -1.44649
| 76>    C        9.33028         5.22019        -1.40198
| 77>    C        9.95233         3.97612        -1.65192
| 78>    C        9.14382         2.83748        -1.93451
| 79>    C        9.76729         1.59578        -2.17023
| 80>    C       11.12950         1.49100        -2.13215
| 81>    C       11.92830         2.61894        -1.85662
| 82>    C       11.35317         3.83652        -1.62105
| 83>    F       13.26085         2.48690        -1.82587
| 84>    F       11.72006         0.31029        -2.35718
| 85>    C        7.73561         2.95616        -1.98163
| 86>    C        7.15418         4.17441        -1.75020
| 87>    C        5.75243         4.59816        -1.76461
| 88>    C        4.73600         3.87052        -2.33683
| 89>    C        3.42525         4.31257        -2.60228
| 90>    N        2.34203         4.58245        -2.87716
| 91>    C        4.88916         2.55513        -2.82521
| 92>    N        4.92257         1.47604        -3.21591
| 93>    H      -10.35885       -12.78158         1.51204
| 94>    H       -6.02955       -13.87205        -0.64328
| 95>    H       -9.80565       -10.40901         1.47800
| 96>    H       -5.43912       -11.44588        -0.69808
| 97>    H       -7.38079        -5.57140         0.28058
| 98>    H       -5.45946        -4.73021        -0.51346
| 99>    H       -0.82147        -5.49965        -0.19760
|100>    H       -2.20851        -3.70587        -1.49692
|101>    H       -4.76677        -5.01245        -2.54119
|102>    H       -4.80893        -3.34047        -4.19871
|103>    H       -4.26775        -1.11992        -5.22263
|104>    H       -3.02408         1.07534        -4.72770
|105>    H       -1.61763         2.77747        -3.83482
|106>    H       -0.15197         4.26348        -2.35444
|107>    H        0.98892         2.48034         0.94819
|108>    H        1.91907         4.59675         0.86358
|109>    H        0.16520         8.90289        -0.39294
|110>    H        2.58874         8.24161        -0.26554
|111>    H        3.17405         5.25223        -0.55463
|112>    H        4.96368         7.74588        -0.53411
|113>    H        9.92485         6.09283        -1.17862
|114>    H        9.17102         0.72302        -2.38630
|115>    H       11.97819         4.69022        -1.41077
|116>    H        7.15336         2.07338        -2.19088
|117> *
|118>
|119>                          ****END OF INPUT****

CARTESIAN COORDINATES (ANGSTROEM)
---------------------------------
  C     -9.413120  -13.001770    1.041540
  C     -9.083940  -14.298110    0.759630
  F     -9.932140  -15.289060    1.063540
  C     -7.853010  -14.608410    0.147100
  F     -7.557150  -15.887370   -0.118920
  C     -6.967900  -13.617580   -0.175580
  C     -7.279120  -12.272380    0.100410
  C     -8.522830  -11.957360    0.721010
  C     -8.856540  -10.614080    1.009860
  C     -7.973360   -9.617580    0.688010
  C     -6.735630   -9.941730    0.065120
  C     -6.385730  -11.227820   -0.227470
  C     -5.977400   -8.704500   -0.184780
  O     -4.919600   -8.601000   -0.777300
  C     -6.812760   -7.608190    0.338060
  C     -8.038240   -8.170620    0.870290
  C     -9.052420   -7.492560    1.496300
  C    -10.217030   -8.104540    2.005420
  N    -11.190360   -8.539010    2.430960
  C     -9.071070   -6.102570    1.730860
  N     -9.136300   -4.977880    1.955890
  C     -6.561020   -6.270960    0.175100
  N     -5.395660   -5.679450   -0.153250
  C     -4.104810   -6.081790    0.046640
  S     -3.661470   -7.274320    1.213880
  C     -1.997430   -6.860860    0.984750
  N     -1.050690   -7.581620    1.726640
  O      0.122660   -7.305650    1.574070
  O     -1.487130   -8.434340    2.480050
  C     -1.796910   -5.864110    0.068590
  C     -3.002360   -5.405640   -0.498850
  C     -3.060820   -4.369140   -1.486330
  C     -4.029700   -4.226290   -2.429770
  C     -4.126960   -3.177570   -3.373910
  C     -3.504360   -1.956370   -3.359100
  C     -3.663360   -0.948300   -4.349470
  C     -3.003030    0.210550   -4.089870
  C     -2.280190    0.197000   -2.873420
  S     -2.458070   -1.353510   -2.083480
  C     -1.529010    1.211210   -2.318400
  C     -1.259320    2.490260   -2.863010
  C     -0.508820    3.292660   -2.064750
  C     -0.125050    2.684090   -0.836820
  S     -0.753310    1.042160   -0.758890
  C      0.646200    3.160200    0.181200
  N      1.075570    4.455890    0.320620
  C      0.409480    5.581250   -0.028010
  S     -1.322870    5.588960   -0.175300
  C     -1.284430    7.322380   -0.338500
  N     -2.508090    7.975830   -0.525430
  O     -2.494060    9.187130   -0.636610
  O     -3.502020    7.269560   -0.559600
  C     -0.026910    7.849990   -0.291340
  C      0.976800    6.866650   -0.141850
  C      2.361140    7.183670   -0.254380
  C      3.375040    6.309130   -0.494410
  C      4.693190    6.721800   -0.768140
  C      5.710970    5.949130   -1.255650
  C      7.101850    6.467470   -1.185170
  O      7.437600    7.599740   -0.921540
  C      7.969060    5.301960   -1.446490
  C      9.330280    5.220190   -1.401980
  C      9.952330    3.976120   -1.651920
  C      9.143820    2.837480   -1.934510
  C      9.767290    1.595780   -2.170230
  C     11.129500    1.491000   -2.132150
  C     11.928300    2.618940   -1.856620
  C     11.353170    3.836520   -1.621050
  F     13.260850    2.486900   -1.825870
  F     11.720060    0.310290   -2.357180
  C      7.735610    2.956160   -1.981630
  C      7.154180    4.174410   -1.750200
  C      5.752430    4.598160   -1.764610
  C      4.736000    3.870520   -2.336830
  C      3.425250    4.312570   -2.602280
  N      2.342030    4.582450   -2.877160
  C      4.889160    2.555130   -2.825210
  N      4.922570    1.476040   -3.215910
  H    -10.358850  -12.781580    1.512040
  H     -6.029550  -13.872050   -0.643280
  H     -9.805650  -10.409010    1.478000
  H     -5.439120  -11.445880   -0.698080
  H     -7.380790   -5.571400    0.280580
  H     -5.459460   -4.730210   -0.513460
  H     -0.821470   -5.499650   -0.197600
  H     -2.208510   -3.705870   -1.496920
  H     -4.766770   -5.012450   -2.541190
  H     -4.808930   -3.340470   -4.198710
  H     -4.267750   -1.119920   -5.222630
  H     -3.024080    1.075340   -4.727700
  H     -1.617630    2.777470   -3.834820
  H     -0.151970    4.263480   -2.354440
  H      0.988920    2.480340    0.948190
  H      1.919070    4.596750    0.863580
  H      0.165200    8.902890   -0.392940
  H      2.588740    8.241610   -0.265540
  H      3.174050    5.252230   -0.554630
  H      4.963680    7.745880   -0.534110
  H      9.924850    6.092830   -1.178620
  H      9.171020    0.723020   -2.386300
  H     11.978190    4.690220   -1.410770
  H      7.153360    2.073380   -2.190880

 Total Charge           Charge          ....    0
 Multiplicity           Mult            ....    1
 Number of Electrons    NEL             ....  564
 Basis Dimension        Dim             .... 1228

ORBITAL ENERGIES
----------------

  NO   OCC          E(Eh)            E(eV)
   0   2.0000     -88.991343     -2421.5776
   1   2.0000     -88.985716     -2421.4244
   2   2.0000     -88.959105     -2420.7003
   3   2.0000     -88.957190     -2420.6482
   4   2.0000     -24.802280      -674.9043
   5   2.0000     -24.801345      -674.8789
   6   2.0000     -24.798352      -674.7975
   7   2.0000     -24.797605      -674.7771
   8   2.0000     -19.241667      -523.5924
   9   2.0000     -19.240878      -523.5709
  10   2.0000     -19.237694      -523.4843
  11   2.0000     -19.237412      -523.4766
  12   2.0000     -19.220219      -523.0087
  13   2.0000     -19.219988      -523.0025
  14   2.0000     -14.652984      -398.7280
  15   2.0000     -14.649199      -398.6250
  16   2.0000     -14.510333      -394.8462
  17   2.0000     -14.499428      -394.5495
  18   2.0000     -14.428695      -392.6248
  19   2.0000     -14.423688      -392.4885
  20   2.0000     -14.421722      -392.4350
  21   2.0000     -14.416770      -392.3002
  22   2.0000     -10.385674      -282.6085
  23   2.0000     -10.384999      -282.5902
  24   2.0000     -10.383345      -282.5452
  25   2.0000     -10.381873      -282.5051
  26   2.0000     -10.380884      -282.4782
  27   2.0000     -10.371937      -282.2348
  28   2.0000     -10.371788      -282.2307
  29   2.0000     -10.370831      -282.2047
  30   2.0000     -10.368963      -282.1538
  31   2.0000     -10.352600      -281.7086
  32   2.0000     -10.352057      -281.6938
  33   2.0000     -10.348117      -281.5866
  34   2.0000     -10.347701      -281.5753
  35   2.0000     -10.344264      -281.4817
  36   2.0000     -10.343304      -281.4556
  37   2.0000     -10.341730      -281.4128
  38   2.0000     -10.332955      -281.1740
  39   2.0000     -10.326783      -281.0061
  40   2.0000     -10.326513      -280.9987
  41   2.0000     -10.325472      -280.9704
  42   2.0000     -10.325428      -280.9692
  43   2.0000     -10.324752      -280.9508
  44   2.0000     -10.324549      -280.9453
  45   2.0000     -10.321720      -280.8683
  46   2.0000     -10.321105      -280.8515
  47   2.0000     -10.320072      -280.8234
  48   2.0000     -10.319131      -280.7978
  49   2.0000     -10.315161      -280.6898
  50   2.0000     -10.314857      -280.6815
  51   2.0000     -10.313648      -280.6486
  52   2.0000     -10.312643      -280.6213
  53   2.0000     -10.311051      -280.5780
  54   2.0000     -10.310695      -280.5683
  55   2.0000     -10.308716      -280.5144
  56   2.0000     -10.307672      -280.4860
  57   2.0000     -10.307195      -280.4730
  58   2.0000     -10.306788      -280.4619
  59   2.0000     -10.305291      -280.4212
  60   2.0000     -10.304690      -280.4049
  61   2.0000     -10.304622      -280.4030
  62   2.0000     -10.303950      -280.3847
  63   2.0000     -10.303543      -280.3737
  64   2.0000     -10.303085      -280.3612
  65   2.0000     -10.302183      -280.3367
  66   2.0000     -10.301790      -280.3260
  67   2.0000     -10.301383      -280.3149
  68   2.0000     -10.301178      -280.3093
  69   2.0000     -10.300826      -280.2997
  70   2.0000     -10.298809      -280.2448
  71   2.0000     -10.298270      -280.2302
  72   2.0000     -10.296921      -280.1935
  73   2.0000     -10.295659      -280.1591
  74   2.0000     -10.295277      -280.1487
  75   2.0000     -10.295242      -280.1478
  76   2.0000     -10.294666      -280.1321
  77   2.0000     -10.290336      -280.0143
  78   2.0000      -8.086343      -220.0406
  79   2.0000      -8.080648      -219.8856
  80   2.0000      -8.055048      -219.1890
  81   2.0000      -8.053830      -219.1559
  82   2.0000      -6.056076      -164.7942
  83   2.0000      -6.051545      -164.6709
  84   2.0000      -6.050179      -164.6337
  85   2.0000      -6.047754      -164.5677
  86   2.0000      -6.045736      -164.5128
  87   2.0000      -6.042385      -164.4216
  88   2.0000      -6.024789      -163.9428
  89   2.0000      -6.023750      -163.9146
  90   2.0000      -6.020666      -163.8307
  91   2.0000      -6.019703      -163.8045
  92   2.0000      -6.016061      -163.7053
  93   2.0000      -6.014286      -163.6570
  94   2.0000      -1.324820       -36.0502
  95   2.0000      -1.322406       -35.9845
  96   2.0000      -1.321022       -35.9468
  97   2.0000      -1.319421       -35.9033
  98   2.0000      -1.309940       -35.6453
  99   2.0000      -1.306162       -35.5425
 100   2.0000      -1.141775       -31.0693
 101   2.0000      -1.138679       -30.9850
 102   2.0000      -1.137839       -30.9622
 103   2.0000      -1.135217       -30.8908
 104   2.0000      -1.106351       -30.1053
 105   2.0000      -1.102421       -29.9984
 106   2.0000      -1.028926       -27.9985
 107   2.0000      -1.023460       -27.8498
 108   2.0000      -1.012932       -27.5633
 109   2.0000      -1.011603       -27.5271
 110   2.0000      -1.008608       -27.4456
 111   2.0000      -1.006457       -27.3871
 112   2.0000      -1.006050       -27.3760
 113   2.0000      -1.004064       -27.3220
 114   2.0000      -0.997798       -27.1515
 115   2.0000      -0.987410       -26.8688
 116   2.0000      -0.984529       -26.7904
 117   2.0000      -0.982708       -26.7408
 118   2.0000      -0.947654       -25.7870
 119   2.0000      -0.935013       -25.4430
 120   2.0000      -0.933546       -25.4031
 121   2.0000      -0.929169       -25.2840
 122   2.0000      -0.912803       -24.8386
 123   2.0000      -0.907779       -24.7019
 124   2.0000      -0.900665       -24.5083
 125   2.0000      -0.898138       -24.4396
 126   2.0000      -0.895827       -24.3767
 127   2.0000      -0.892613       -24.2892
 128   2.0000      -0.885988       -24.1090
 129   2.0000      -0.879932       -23.9442
 130   2.0000      -0.870616       -23.6907
 131   2.0000      -0.865395       -23.5486
 132   2.0000      -0.859293       -23.3826
 133   2.0000      -0.847626       -23.0651
 134   2.0000      -0.845586       -23.0096
 135   2.0000      -0.841661       -22.9028
 136   2.0000      -0.839194       -22.8356
 137   2.0000      -0.833579       -22.6828
 138   2.0000      -0.817674       -22.2500
 139   2.0000      -0.810291       -22.0491
 140   2.0000      -0.801847       -21.8194
 141   2.0000      -0.780205       -21.2305
 142   2.0000      -0.774545       -21.0765
 143   2.0000      -0.770717       -20.9723
 144   2.0000      -0.768314       -20.9069
 145   2.0000      -0.754344       -20.5267
 146   2.0000      -0.742092       -20.1934
 147   2.0000      -0.733632       -19.9631
 148   2.0000      -0.728982       -19.8366
 149   2.0000      -0.723715       -19.6933
 150   2.0000      -0.722163       -19.6510
 151   2.0000      -0.715886       -19.4803
 152   2.0000      -0.711177       -19.3521
 153   2.0000      -0.701634       -19.0924
 154   2.0000      -0.698018       -18.9940
 155   2.0000      -0.693727       -18.8773
 156   2.0000      -0.689745       -18.7689
 157   2.0000      -0.687383       -18.7046
 158   2.0000      -0.683688       -18.6041
 159   2.0000      -0.667626       -18.1670
 160   2.0000      -0.661365       -17.9966
 161   2.0000      -0.659620       -17.9492
 162   2.0000      -0.656741       -17.8708
 163   2.0000      -0.648737       -17.6530
 164   2.0000      -0.646238       -17.5850
 165   2.0000      -0.643929       -17.5222
 166   2.0000      -0.643326       -17.5058
 167   2.0000      -0.639023       -17.3887
 168   2.0000      -0.636728       -17.3262
 169   2.0000      -0.635451       -17.2915
 170   2.0000      -0.634410       -17.2632
 171   2.0000      -0.632714       -17.2170
 172   2.0000      -0.631252       -17.1772
 173   2.0000      -0.630553       -17.1582
 174   2.0000      -0.628615       -17.1055
 175   2.0000      -0.619358       -16.8536
 176   2.0000      -0.611729       -16.6460
 177   2.0000      -0.606318       -16.4987
 178   2.0000      -0.601613       -16.3707
 179   2.0000      -0.601076       -16.3561
 180   2.0000      -0.595419       -16.2022
 181   2.0000      -0.589363       -16.0374
 182   2.0000      -0.588730       -16.0202
 183   2.0000      -0.588103       -16.0031
 184   2.0000      -0.585519       -15.9328
 185   2.0000      -0.585176       -15.9234
 186   2.0000      -0.584378       -15.9017
 187   2.0000      -0.580340       -15.7919
 188   2.0000      -0.574951       -15.6452
 189   2.0000      -0.570121       -15.5138
 190   2.0000      -0.565223       -15.3805
 191   2.0000      -0.560392       -15.2490
 192   2.0000      -0.559060       -15.2128
 193   2.0000      -0.555606       -15.1188
 194   2.0000      -0.553569       -15.0634
 195   2.0000      -0.550865       -14.9898
 196   2.0000      -0.549601       -14.9554
 197   2.0000      -0.547753       -14.9051
 198   2.0000      -0.547134       -14.8883
 199   2.0000      -0.544146       -14.8070
 200   2.0000      -0.539629       -14.6841
 201   2.0000      -0.538068       -14.6416
 202   2.0000      -0.536675       -14.6037
 203   2.0000      -0.533446       -14.5158
 204   2.0000      -0.532894       -14.5008
 205   2.0000      -0.531778       -14.4704
 206   2.0000      -0.530709       -14.4413
 207   2.0000      -0.521174       -14.1819
 208   2.0000      -0.520407       -14.1610
 209   2.0000      -0.519854       -14.1459
 210   2.0000      -0.517524       -14.0825
 211   2.0000      -0.515628       -14.0310
 212   2.0000      -0.511994       -13.9321
 213   2.0000      -0.510438       -13.8897
 214   2.0000      -0.507295       -13.8042
 215   2.0000      -0.506738       -13.7890
 216   2.0000      -0.505502       -13.7554
 217   2.0000      -0.503260       -13.6944
 218   2.0000      -0.502370       -13.6702
 219   2.0000      -0.499665       -13.5966
 220   2.0000      -0.496675       -13.5152
 221   2.0000      -0.495229       -13.4759
 222   2.0000      -0.491328       -13.3697
 223   2.0000      -0.489905       -13.3310
 224   2.0000      -0.485463       -13.2101
 225   2.0000      -0.477691       -12.9986
 226   2.0000      -0.474877       -12.9221
 227   2.0000      -0.471693       -12.8354
 228   2.0000      -0.469462       -12.7747
 229   2.0000      -0.468609       -12.7515
 230   2.0000      -0.467671       -12.7260
 231   2.0000      -0.464607       -12.6426
 232   2.0000      -0.463447       -12.6110
 233   2.0000      -0.461580       -12.5602
 234   2.0000      -0.460248       -12.5240
 235   2.0000      -0.457570       -12.4511
 236   2.0000      -0.454035       -12.3549
 237   2.0000      -0.451547       -12.2872
 238   2.0000      -0.449159       -12.2222
 239   2.0000      -0.448879       -12.2146
 240   2.0000      -0.447112       -12.1665
 241   2.0000      -0.446349       -12.1458
 242   2.0000      -0.442694       -12.0463
 243   2.0000      -0.440916       -11.9979
 244   2.0000      -0.438368       -11.9286
 245   2.0000      -0.436262       -11.8713
 246   2.0000      -0.433546       -11.7974
 247   2.0000      -0.432406       -11.7664
 248   2.0000      -0.430385       -11.7114
 249   2.0000      -0.428386       -11.6570
 250   2.0000      -0.427222       -11.6253
 251   2.0000      -0.419173       -11.4063
 252   2.0000      -0.414676       -11.2839
 253   2.0000      -0.413122       -11.2416
 254   2.0000      -0.409774       -11.1505
 255   2.0000      -0.398419       -10.8415
 256   2.0000      -0.395574       -10.7641
 257   2.0000      -0.389656       -10.6031
 258   2.0000      -0.387957       -10.5568
 259   2.0000      -0.386348       -10.5131
 260   2.0000      -0.384317       -10.4578
 261   2.0000      -0.382201       -10.4002
 262   2.0000      -0.380987       -10.3672
 263   2.0000      -0.377171       -10.2634
 264   2.0000      -0.370098       -10.0709
 265   2.0000      -0.366162        -9.9638
 266   2.0000      -0.362492        -9.8639
 267   2.0000      -0.356441        -9.6992
 268   2.0000      -0.350984        -9.5508
 269   2.0000      -0.348493        -9.4830
 270   2.0000      -0.343147        -9.3375
 271   2.0000      -0.337218        -9.1762
 272   2.0000      -0.331500        -9.0206
 273   2.0000      -0.326791        -8.8924
 274   2.0000      -0.322793        -8.7836
 275   2.0000      -0.316716        -8.6183
 276   2.0000      -0.311879        -8.4866
 277   2.0000      -0.306470        -8.3395
 278   2.0000      -0.301442        -8.2027
 279   2.0000      -0.289212        -7.8698
 280   2.0000      -0.273615        -7.4454
 281   2.0000      -0.225977        -6.1492
 282   0.0000      -0.108932        -2.9642
 283   0.0000      -0.093943        -2.5563
 284   0.0000      -0.082931        -2.2567
 285   0.0000      -0.064846        -1.7646
 286   0.0000      -0.062084        -1.6894

MULLIKEN ATOMIC CHARGES
-----------------------
   0 C :   -0.106385
   1 C :    0.242002
   2 F :   -0.170314
   3 C :    0.237545
   4 F :   -0.171485
   5 C :   -0.104823
   6 C :    0.117181
   7 C :    0.112465
   8 C :   -0.083736
   9 C :    0.046467
  10 C :    0.006079
  11 C :   -0.080987
  12 C :    0.140341
  13 O :   -0.157018
  14 C :   -0.154395
  15 C :    0.316324
  16 C :   -0.345968
  17 C :   -0.181066
  18 N :    0.148732
  19 C :   -0.214121
  20 N :    0.151185
  21 C :    0.021504
  22 N :    0.006704
  23 C :   -0.070924
  24 S :    0.211973
  25 C :   -0.008190
  26 N :    0.276933
  27 O :   -0.246306
  28 O :   -0.263099
  29 C :    0.010848
  30 C :    0.101164
  31 C :   -0.041753
  32 C :   -0.034443
  33 C :   -0.017626
  34 C :   -0.021289
  35 C :    0.038932
  36 C :    0.034359
  37 C :   -0.046793
  38 S :    0.069854
  39 C :   -0.045811
  40 C :    0.020022
  41 C :    0.065239
  42 C :   -0.100407
  43 S :    0.092806
  44 C :    0.042258
  45 N :   -0.034472
  46 C :   -0.102234
  47 S :    0.194766
  48 C :   -0.014378
  49 N :    0.276177
  50 O :   -0.249605
  51 O :   -0.262577
  52 C :    0.015124
  53 C :    0.106226
  54 C :    0.014951
  55 C :   -0.024101
  56 C :    0.023034
  57 C :   -0.123530
  58 C :    0.140032
  59 O :   -0.142219
  60 C :    0.004647
  61 C :   -0.080261
  62 C :    0.113345
  63 C :    0.111050
  64 C :   -0.106541
  65 C :    0.241558
  66 C :    0.238707
  67 C :   -0.103072
  68 F :   -0.170996
  69 F :   -0.170008
  70 C :   -0.081238
  71 C :    0.033523
  72 C :    0.313203
  73 C :   -0.363944
  74 C :   -0.201521
  75 N :    0.162751
  76 C :   -0.180627
  77 N :    0.148200
  78 H :    0.006134
  79 H :    0.000838
  80 H :   -0.005960
  81 H :   -0.009445
  82 H :    0.048789
  83 H :    0.160705
  84 H :    0.010078
  85 H :    0.014328
  86 H :    0.004957
  87 H :   -0.009588
  88 H :   -0.007150
  89 H :   -0.005790
  90 H :   -0.004520
  91 H :    0.023115
  92 H :    0.013397
  93 H :    0.160001
  94 H :    0.014161
  95 H :    0.007037
  96 H :   -0.002720
  97 H :    0.017283
  98 H :   -0.008643
  99 H :    0.007771
 100 H :   -0.000207
 101 H :   -0.004522
Sum of atomic charges:   -0.0000000

LOEWDIN ATOMIC CHARGES
----------------------
   0 C :   -0.028632
   1 C :    0.066155
   2 F :   -0.048686
   3 C :    0.068134
   4 F :   -0.048729
   5 C :   -0.032943
   6 C :   -0.008118
   7 C :   -0.007681
   8 C :    0.019547
   9 C :   -0.024375
  10 C :   -0.050542
  11 C :    0.029795
  12 C :    0.063628
  13 O :   -0.163310
  14 C :   -0.150893
  15 C :    0.081294
  16 C :   -0.149281
  17 C :   -0.018792
  18 N :   -0.054484
  19 C :   -0.024435
  20 N :   -0.057039
  21 C :    0.097405
  22 N :    0.085363
  23 C :   -0.108369
  24 S :    0.514612
  25 C :   -0.202708
  26 N :    0.273770
  27 O :   -0.212063
  28 O :   -0.228832
  29 C :   -0.005340
  30 C :   -0.083843
  31 C :   -0.036484
  32 C :   -0.048668
  33 C :   -0.070877
  34 C :   -0.134258
  35 C :   -0.030046
  36 C :   -0.027698
  37 C :   -0.180111
  38 S :    0.385688
  39 C :   -0.168892
  40 C :   -0.014225
  41 C :   -0.038170
  42 C :   -0.174028
  43 S :    0.371706
  44 C :   -0.033512
  45 N :    0.052642
  46 C :   -0.085870
  47 S :    0.487547
  48 C :   -0.210901
  49 N :    0.273006
  50 O :   -0.215373
  51 O :   -0.229285
  52 C :    0.007020
  53 C :   -0.112862
  54 C :    0.042642
  55 C :   -0.063849
  56 C :    0.072788
  57 C :   -0.104912
  58 C :    0.080465
  59 O :   -0.145159
  60 C :   -0.053742
  61 C :    0.030192
  62 C :   -0.008942
  63 C :   -0.006569
  64 C :   -0.029830
  65 C :    0.067066
  66 C :    0.067993
  67 C :   -0.032763
  68 F :   -0.048424
  69 F :   -0.048027
  70 C :    0.014153
  71 C :   -0.021688
  72 C :    0.073127
  73 C :   -0.149694
  74 C :   -0.013114
  75 N :   -0.060272
  76 C :   -0.020141
  77 N :   -0.053557
  78 H :    0.047525
  79 H :    0.045274
  80 H :    0.040151
  81 H :    0.040805
  82 H :    0.046179
  83 H :    0.106563
  84 H :    0.046368
  85 H :    0.019969
  86 H :    0.029875
  87 H :    0.035596
  88 H :    0.035603
  89 H :    0.034792
  90 H :    0.037066
  91 H :    0.031120
  92 H :    0.029960
  93 H :    0.099781
  94 H :    0.047223
  95 H :    0.041454
  96 H :    0.021410
  97 H :    0.045430
  98 H :    0.040920
  99 H :    0.047682
 100 H :    0.045087
 101 H :    0.039465

  Mayer bond orders larger than 0.100000
B(  0-C ,  1-C ) :   1.4378 B(  0-C ,  5-C ) :   0.1086 B(  0-C ,  7-C ) :   1.1918
B(  0-C , 78-H ) :   1.0064 B(  1-C ,  2-F ) :   1.1359 B(  1-C ,  3-C ) :   1.1939
B(  3-C ,  4-F ) :   1.1330 B(  3-C ,  5-C ) :   1.4423 B(  5-C ,  6-C ) :   1.1921
B(  5-C , 79-H ) :   1.0063 B(  6-C ,  7-C ) :   1.2577 B(  6-C , 11-C ) :   1.1857
B(  7-C ,  8-C ) :   1.2129 B(  8-C ,  9-C ) :   1.4549 B(  8-C , 80-H ) :   0.9885
B(  9-C , 10-C ) :   1.2216 B(  9-C , 15-C ) :   0.9928 B( 10-C , 11-C ) :   1.4750
B( 10-C , 12-C ) :   0.9425 B( 11-C , 81-H ) :   1.0171 B( 12-C , 13-O ) :   2.2044
B( 12-C , 14-C ) :   0.9558 B( 14-C , 15-C ) :   1.1103 B( 14-C , 21-C ) :   1.4973
B( 15-C , 16-C ) :   1.6273 B( 16-C , 17-C ) :   1.1475 B( 16-C , 19-C ) :   1.1406
B( 17-C , 18-N ) :   2.9630 B( 19-C , 20-N ) :   2.9817 B( 21-C , 22-N ) :   1.3181
B( 21-C , 82-H ) :   0.9335 B( 22-N , 23-C ) :   1.1368 B( 22-N , 83-H ) :   0.8907
B( 23-C , 24-S ) :   1.1502 B( 23-C , 30-C ) :   1.3963 B( 24-S , 25-C ) :   1.1230
B( 25-C , 26-N ) :   0.9626 B( 25-C , 29-C ) :   1.4779 B( 26-N , 27-O ) :   1.5411
B( 26-N , 28-O ) :   1.5150 B( 27-O , 28-O ) :   0.2609 B( 29-C , 30-C ) :   1.2265
B( 29-C , 84-H ) :   1.0074 B( 30-C , 31-C ) :   1.1180 B( 31-C , 32-C ) :   1.6225
B( 31-C , 85-H ) :   0.9432 B( 32-C , 33-C ) :   1.1878 B( 32-C , 86-H ) :   0.9673
B( 33-C , 34-C ) :   1.5939 B( 33-C , 87-H ) :   0.9612 B( 34-C , 35-C ) :   1.1386
B( 34-C , 38-S ) :   1.0408 B( 35-C , 36-C ) :   1.6029 B( 35-C , 88-H ) :   0.9980
B( 36-C , 37-C ) :   1.1804 B( 36-C , 89-H ) :   0.9927 B( 37-C , 38-S ) :   1.0347
B( 37-C , 39-C ) :   1.5233 B( 39-C , 40-C ) :   1.1756 B( 39-C , 43-S ) :   1.0511
B( 40-C , 41-C ) :   1.6312 B( 40-C , 90-H ) :   0.9951 B( 41-C , 42-C ) :   1.1235
B( 41-C , 91-H ) :   0.9709 B( 42-C , 43-S ) :   1.0240 B( 42-C , 44-C ) :   1.6429
B( 44-C , 45-N ) :   1.1119 B( 44-C , 92-H ) :   0.9505 B( 45-N , 46-C ) :   1.2352
B( 45-N , 93-H ) :   0.9102 B( 46-C , 47-S ) :   1.1506 B( 46-C , 53-C ) :   1.3091
B( 47-S , 48-C ) :   1.0629 B( 48-C , 49-N ) :   0.9694 B( 48-C , 52-C ) :   1.5145
B( 49-N , 50-O ) :   1.5357 B( 49-N , 51-O ) :   1.5122 B( 50-O , 51-O ) :   0.2591
B( 52-C , 53-C ) :   1.1945 B( 52-C , 94-H ) :   1.0047 B( 53-C , 54-C ) :   1.1412
B( 54-C , 55-C ) :   1.5925 B( 54-C , 95-H ) :   0.9783 B( 55-C , 56-C ) :   1.1751
B( 55-C , 96-H ) :   0.9457 B( 56-C , 57-C ) :   1.5688 B( 56-C , 97-H ) :   0.9594
B( 57-C , 58-C ) :   0.9472 B( 57-C , 72-C ) :   1.0539 B( 58-C , 59-O ) :   2.2684
B( 58-C , 60-C ) :   0.9195 B( 60-C , 61-C ) :   1.4811 B( 60-C , 71-C ) :   1.2196
B( 61-C , 62-C ) :   1.1889 B( 61-C , 98-H ) :   1.0158 B( 62-C , 63-C ) :   1.2573
B( 62-C , 67-C ) :   1.1954 B( 63-C , 64-C ) :   1.1895 B( 63-C , 70-C ) :   1.2177
B( 64-C , 65-C ) :   1.4418 B( 64-C , 67-C ) :   0.1084 B( 64-C , 99-H ) :   1.0063
B( 65-C , 66-C ) :   1.1922 B( 65-C , 69-F ) :   1.1362 B( 66-C , 67-C ) :   1.4414
B( 66-C , 68-F ) :   1.1343 B( 67-C ,100-H ) :   1.0068 B( 70-C , 71-C ) :   1.4532
B( 70-C ,101-H ) :   0.9897 B( 71-C , 72-C ) :   1.0004 B( 72-C , 73-C ) :   1.6018
B( 73-C , 74-C ) :   1.1714 B( 73-C , 76-C ) :   1.1351 B( 74-C , 75-N ) :   2.9749
B( 76-C , 77-N ) :   2.9739

-----------------------------------------------------------------------------
         ABSORPTION SPECTRUM VIA TRANSITION ELECTRIC DIPOLE MOMENTS
-----------------------------------------------------------------------------
State   Energy  Wavelength   fosc         T2         TX        TY        TZ
        (cm-1)    (nm)                  (au**2)     (au)      (au)      (au)
-----------------------------------------------------------------------------
   0   11784.8    848.6   0.847119984  23.66457  -3.50880  -3.36940   0.00514
   1   15904.7    628.7   0.678740059  14.04927  -1.32775  -3.50519   0.00452
   2   18256.9    547.7   0.192665617   3.47419  -0.51075   1.59942   0.80943
   3   21111.7    473.7   0.374360015   5.83771   1.39315  -1.93580  -0.38667
   4   23014.2    434.5   0.068105367   0.97423   0.52955   0.83230  -0.03301
   5   23349.8    428.3   0.069053334   0.97359   0.97916   0.07659  -0.09474
   6   23646.1    422.9   0.001962908   0.02733  -0.07168  -0.03766  -0.14413
   7   24133.2    414.4   0.520671355   7.10270  -2.31514   0.03807   1.31962
   8   25921.0    385.8   0.067341488   0.85528  -0.80967   0.09971  -0.43563
   9   26342.2    379.6   0.073027371   0.91266  -0.30958  -0.45924  -0.77841
  10   26836.8    372.6   0.066152674   0.81151  -0.82456   0.00018  -0.36277
  11   27745.7    360.4   0.048500672   0.57548  -0.48638   0.58004   0.04964
  12   28532.7    350.5   0.003146781   0.03631   0.13610   0.02605   0.13078
  13   28908.2    345.9   0.099431470   1.13234   0.71892  -0.49313  -0.61019
  14   28919.3    345.8   0.075401304   0.85835   0.53831   0.75113  -0.06615
  15   29274.5    341.6   0.072283317   0.81287   0.11994   0.79693   0.40422
  16   29516.8    338.8   0.036969612   0.41234  -0.05749   0.63668  -0.06055
  17   29599.1    337.8   0.040425110   0.44962   0.36600  -0.32562   0.45786
  18   30007.5    333.2   0.037764809   0.41432  -0.49917   0.03162  -0.40515
  19   30735.9    325.4   0.033262340   0.35627  -0.51588   0.11609  -0.27688
  20   31090.8    321.6   0.272028331   2.88044   1.27242  -0.95126   0.59708
  21   31503.1    317.4   0.449439868   4.69672  -2.14601  -0.23435   0.19085
  22   31665.7    315.8   0.168924685   1.75622  -0.08897  -1.27315  -0.35694
  23   32320.4    309.4   0.222775260   2.26917  -1.23906  -0.08797  -0.85215
  24   32657.2    306.2   0.142217651   1.43367  -0.54534   0.89437   0.57997
  25   32720.2    305.6   0.127792108   1.28577  -1.02266   0.00160  -0.48984
  26   32979.7    303.2   0.105995640   1.05808   0.97949  -0.20973  -0.23387
  27   33439.6    299.0   0.062119035   0.61156   0.38755  -0.67498  -0.07596
  28   33653.1    297.1   0.030120344   0.29465   0.43588   0.20019  -0.25414
  29   34282.4    291.7   0.167915442   1.61248  -0.27283   1.02033   0.70497
  30   34365.2    291.0   0.659482007   6.31770  -2.43283   0.19404  -0.60115
  31   34534.9    289.6   0.049057235   0.46765   0.27346   0.45584  -0.43021
  32   34575.1    289.2   0.076297062   0.72647  -0.21890   0.55341  -0.61016
  33   34695.8    288.2   0.505401072   4.79551   1.30654  -1.75573  -0.07673
  34   35518.9    281.5   0.197974343   1.83495   0.29856  -1.21688  -0.51479
  35   35692.5    280.2   0.029263489   0.26991   0.40734  -0.23389   0.22200
  36   36020.9    277.6   0.133891635   1.22370   0.74002  -0.48866   0.66128
  37   36394.7    274.8   0.012399398   0.11216  -0.26118   0.18299  -0.10227
  38   36686.8    272.6   0.001509671   0.01355   0.04883   0.03484   0.09974
  39   37374.7    267.6   0.020660264   0.18198   0.19293   0.28408  -0.25310
  40   37634.0    265.7   0.046633110   0.40793  -0.47584   0.40518  -0.13168
  41   37907.4    263.8   0.068114059   0.59155   0.72100   0.26362   0.04694
  42   38157.6    262.1   0.025271157   0.21803   0.08839  -0.39149   0.23866
  43   38227.8    261.6   0.070972143   0.61120   0.72972  -0.12127  -0.25299
  44   38461.1    260.0   0.083788409   0.71720   0.45521   0.60983   0.37159
  45   38884.6    257.2   0.226254844   1.91556  -0.76015   0.31476  -1.11295
  46   38942.0    256.8   0.089283181   0.75479   0.81015  -0.28383   0.13373
  47   39257.7    254.7   0.105499782   0.88471   0.70357  -0.61952   0.07679
  48   39446.3    253.5   0.029222628   0.24389   0.02212   0.26863  -0.41381
  49   39598.2    252.5   0.040049978   0.33297  -0.44541   0.25532   0.26342
  50   39731.5    251.7   0.047884436   0.39677  -0.37794  -0.37311   0.33870
  51   39956.0    250.3   0.066351806   0.54670  -0.29798  -0.65361  -0.17520
  52   40137.6    249.1   0.065161446   0.53446  -0.23891   0.68841  -0.05894
  53   40162.3    249.0   0.015168496   0.12434   0.21502  -0.27439  -0.05302

FINAL SINGLE POINT ENERGY     -5024.859475565784

DIPOLE MOMENT
-------------
                                X             Y             Z
Electronic contribution:      6.47560     -38.31814      11.30022
Nuclear contribution   :     -4.50450      39.76247     -12.62700
                        -----------------------------------------
Total Dipole Moment    :      1.97110       1.44433      -1.32678
                        -----------------------------------------
Magnitude (a.u.)       :      2.78059
Magnitude (Debye)      :      7.06770

Rotational constants in cm-1:     0.001036     0.000198     0.000172
Rotational constants in MHz :    31.072000     5.929820     5.162064

                             ****ORCA TERMINATED NORMALLY****
TOTAL RUN TIME: 0 days 0 hours 11 minutes 4 seconds 33 msec
