                         Program Version 4.2.0 -  RELEASE  -
|  1> # ORCA input file
|  2> # SCF done       -193.700393506857          0.000640230400
|  3> ! CAM-B3LYP def2-SVP def2/J RIJCOSX Grid4 TightSCF
|  4> %maxcore 5000
|  5> %tddft
|  6>     Mode sTDDFT
|  7>     Ethresh 5.0
|  8>     maxcore 5000
|  9> end
| 10>
| 11> %pal
| 12>   nprocs 6
| 13>   end
| 14> * xyz 0 1
| 15>    C       12.02446        -8.62786        -4.19637
| 16>    C       12.01797        -9.99492        -4.18104
| 17>    F       12.82766       -10.66980        -5.01777
| 18>    C       11.19479       -10.73279        -3.32000
| 19>    C       10.36772       -10.06341        -2.46120
| 20>    C       10.33539        -8.65430        -2.43321
| 21>    C       11.17733        -7.92234        -3.32023
| 22>    C       11.15234        -6.50775        -3.32065
| 23>    C       10.31862        -5.85243        -2.45695
| 24>    C        9.49333        -6.58857        -1.55827
| 25>    C        9.48939        -7.95294        -1.54411
| 26>    C        8.72755        -5.64546        -0.71831
| 27>    O        7.90002        -5.90344         0.12709
| 28>    C        9.23553        -4.29846        -1.08440
| 29>    C       10.04426        -4.42977        -2.27000
| 30>    C       10.27644        -3.45276        -3.20779
| 31>    C        9.68512        -2.17578        -3.14515
| 32>    N        9.17747        -1.14547        -3.14726
| 33>    C       11.05849        -3.63765        -4.36230
| 34>    N       11.72574        -3.71829        -5.29407
| 35>    C        8.96983        -3.23916        -0.25766
| 36>    C        9.64670        -2.02077        -0.11372
| 37>    S       11.25535        -1.74547        -0.71172
| 38>    C       11.33813        -0.14430        -0.07201
| 39>    C       10.14892         0.17393         0.61258
| 40>    C        9.20149        -0.89132         0.60388
| 41>    C        7.95886        -0.73035         1.23971
| 42>    C        7.68906         0.45372         1.86738
| 43>    F        6.51575         0.62722         2.48896
| 44>    C        8.62712         1.51004         1.87545
| 45>    F        8.31281         2.65289         2.50233
| 46>    C        9.83988         1.38364         1.25944
| 47>    C       12.46804         0.67773        -0.27504
| 48>    C       13.55837         0.30406        -0.99181
| 49>    C       14.67407         1.15419        -1.23049
| 50>    C       15.76710         0.81080        -1.94212
| 51>    C       15.94257        -0.53041        -2.58510
| 52>    C       16.84157         1.82915        -2.22257
| 53>    N       16.65487         2.37658        -3.55200
| 54>    C       15.85623         3.44311        -3.78409
| 55>    C       15.32070         3.75994        -4.98448
| 56>    C       14.57212         4.93973        -5.23154
| 57>    C       13.97041         5.29671        -6.42273
| 58>    C       13.31569         6.52986        -6.36032
| 59>    C       13.40145         7.13234        -5.10344
| 60>    S       14.31572         6.15233        -4.00219
| 61>    C       12.73245         8.34218        -4.86381
| 62>    C       12.11107         8.97580        -5.95031
| 63>    C       12.26731         8.42596        -7.33669
| 64>    O       12.62631         7.04775        -7.39405
| 65>    C       11.45695        10.12367        -5.57252
| 66>    C       11.56081        10.41357        -4.20238
| 67>    S       12.50265         9.18264        -3.37841
| 68>    C       10.97508        11.54816        -3.64422
| 69>    C       10.98193        12.01198        -2.34593
| 70>    C       10.34686        13.22170        -1.87676
| 71>    C        9.60139        14.11624        -2.60737
| 72>    C        9.01359        15.27942        -2.07138
| 73>    N        8.51046        16.24295        -1.69979
| 74>    C        9.30794        14.01810        -3.98184
| 75>    N        9.02174        14.01719        -5.09528
| 76>    C       10.63522        13.34317        -0.44883
| 77>    C       11.41666        12.23197        -0.04838
| 78>    C       11.65274        11.36632        -1.22019
| 79>    O       12.28806        10.32383        -1.22673
| 80>    C       11.85518        12.05801         1.24061
| 81>    C       11.50812        13.03185         2.18416
| 82>    C       10.72848        14.13825         1.77603
| 83>    C       10.28245        14.31179         0.47070
| 84>    S       10.41723        15.22380         3.09723
| 85>    C       11.32875        14.19010         4.16484
| 86>    C       11.83897        13.08824         3.56615
| 87>   Br       11.52282        14.66424         5.96971
| 88>    H       12.66814        -8.09241        -4.87673
| 89>    H       11.23134       -11.81008        -3.35344
| 90>    H        9.72432       -10.61007        -1.78830
| 91>    H       11.80059        -5.97691        -4.00008
| 92>    H        8.84735        -8.49295        -0.86452
| 93>    H        8.16697        -3.41768         0.45115
| 94>    H        7.22010        -1.51461         1.24028
| 95>    H       10.53331         2.20796         1.27592
| 96>    H       12.43099         1.66784         0.15725
| 97>    H       13.57831        -0.68960        -1.41759
| 98>    H       14.61927         2.14688        -0.80275
| 99>    H       15.14721        -0.72964        -3.30279
|100>    H       15.91192        -1.31888        -1.83459
|101>    H       16.89753        -0.59313        -3.10112
|102>    H       17.83359         1.36952        -2.17423
|103>    H       16.79888         2.65251        -1.50737
|104>    H       16.73155         1.70918        -4.30787
|105>    H       15.70327         4.09848        -2.93705
|106>    H       15.45760         3.09951        -5.82957
|107>    H       13.99890         4.68951        -7.30787
|108>    H       13.04337         9.00138        -7.86995
|109>    H       11.33372         8.51188        -7.90072
|110>    H       10.91596        10.76442        -6.24648
|111>    H       10.44022        12.14859        -4.36956
|112>    H       12.44911        11.20006         1.51399
|113>    H        9.69070        15.17354         0.21202
|114>    H       12.42507        12.34538         4.07573
|115> *
|116>
|117>                          ****END OF INPUT****

CARTESIAN COORDINATES (ANGSTROEM)
---------------------------------
  C     12.024460   -8.627860   -4.196370
  C     12.017970   -9.994920   -4.181040
  F     12.827660  -10.669800   -5.017770
  C     11.194790  -10.732790   -3.320000
  C     10.367720  -10.063410   -2.461200
  C     10.335390   -8.654300   -2.433210
  C     11.177330   -7.922340   -3.320230
  C     11.152340   -6.507750   -3.320650
  C     10.318620   -5.852430   -2.456950
  C      9.493330   -6.588570   -1.558270
  C      9.489390   -7.952940   -1.544110
  C      8.727550   -5.645460   -0.718310
  O      7.900020   -5.903440    0.127090
  C      9.235530   -4.298460   -1.084400
  C     10.044260   -4.429770   -2.270000
  C     10.276440   -3.452760   -3.207790
  C      9.685120   -2.175780   -3.145150
  N      9.177470   -1.145470   -3.147260
  C     11.058490   -3.637650   -4.362300
  N     11.725740   -3.718290   -5.294070
  C      8.969830   -3.239160   -0.257660
  C      9.646700   -2.020770   -0.113720
  S     11.255350   -1.745470   -0.711720
  C     11.338130   -0.144300   -0.072010
  C     10.148920    0.173930    0.612580
  C      9.201490   -0.891320    0.603880
  C      7.958860   -0.730350    1.239710
  C      7.689060    0.453720    1.867380
  F      6.515750    0.627220    2.488960
  C      8.627120    1.510040    1.875450
  F      8.312810    2.652890    2.502330
  C      9.839880    1.383640    1.259440
  C     12.468040    0.677730   -0.275040
  C     13.558370    0.304060   -0.991810
  C     14.674070    1.154190   -1.230490
  C     15.767100    0.810800   -1.942120
  C     15.942570   -0.530410   -2.585100
  C     16.841570    1.829150   -2.222570
  N     16.654870    2.376580   -3.552000
  C     15.856230    3.443110   -3.784090
  C     15.320700    3.759940   -4.984480
  C     14.572120    4.939730   -5.231540
  C     13.970410    5.296710   -6.422730
  C     13.315690    6.529860   -6.360320
  C     13.401450    7.132340   -5.103440
  S     14.315720    6.152330   -4.002190
  C     12.732450    8.342180   -4.863810
  C     12.111070    8.975800   -5.950310
  C     12.267310    8.425960   -7.336690
  O     12.626310    7.047750   -7.394050
  C     11.456950   10.123670   -5.572520
  C     11.560810   10.413570   -4.202380
  S     12.502650    9.182640   -3.378410
  C     10.975080   11.548160   -3.644220
  C     10.981930   12.011980   -2.345930
  C     10.346860   13.221700   -1.876760
  C      9.601390   14.116240   -2.607370
  C      9.013590   15.279420   -2.071380
  N      8.510460   16.242950   -1.699790
  C      9.307940   14.018100   -3.981840
  N      9.021740   14.017190   -5.095280
  C     10.635220   13.343170   -0.448830
  C     11.416660   12.231970   -0.048380
  C     11.652740   11.366320   -1.220190
  O     12.288060   10.323830   -1.226730
  C     11.855180   12.058010    1.240610
  C     11.508120   13.031850    2.184160
  C     10.728480   14.138250    1.776030
  C     10.282450   14.311790    0.470700
  S     10.417230   15.223800    3.097230
  C     11.328750   14.190100    4.164840
  C     11.838970   13.088240    3.566150
  Br    11.522820   14.664240    5.969710
  H     12.668140   -8.092410   -4.876730
  H     11.231340  -11.810080   -3.353440
  H      9.724320  -10.610070   -1.788300
  H     11.800590   -5.976910   -4.000080
  H      8.847350   -8.492950   -0.864520
  H      8.166970   -3.417680    0.451150
  H      7.220100   -1.514610    1.240280
  H     10.533310    2.207960    1.275920
  H     12.430990    1.667840    0.157250
  H     13.578310   -0.689600   -1.417590
  H     14.619270    2.146880   -0.802750
  H     15.147210   -0.729640   -3.302790
  H     15.911920   -1.318880   -1.834590
  H     16.897530   -0.593130   -3.101120
  H     17.833590    1.369520   -2.174230
  H     16.798880    2.652510   -1.507370
  H     16.731550    1.709180   -4.307870
  H     15.703270    4.098480   -2.937050
  H     15.457600    3.099510   -5.829570
  H     13.998900    4.689510   -7.307870
  H     13.043370    9.001380   -7.869950
  H     11.333720    8.511880   -7.900720
  H     10.915960   10.764420   -6.246480
  H     10.440220   12.148590   -4.369560
  H     12.449110   11.200060    1.513990
  H      9.690700   15.173540    0.212020
  H     12.425070   12.345380    4.075730

 Total Charge           Charge          ....    0
 Multiplicity           Mult            ....    1
 Number of Electrons    NEL             ....  554
 Basis Dimension        Dim             .... 1191

ORBITAL ENERGIES
----------------

  NO   OCC          E(Eh)            E(eV)
   0   2.0000    -482.878675    -13139.7967
   1   2.0000     -88.987355     -2421.4690
   2   2.0000     -88.966680     -2420.9064
   3   2.0000     -88.958071     -2420.6722
   4   2.0000     -88.957724     -2420.6627
   5   2.0000     -62.556410     -1702.2465
   6   2.0000     -56.390346     -1534.4593
   7   2.0000     -56.387656     -1534.3861
   8   2.0000     -56.387614     -1534.3850
   9   2.0000     -24.800370      -674.8524
  10   2.0000     -24.797300      -674.7688
  11   2.0000     -24.786099      -674.4641
  12   2.0000     -19.258531      -524.0513
  13   2.0000     -19.210013      -522.7310
  14   2.0000     -19.206308      -522.6302
  15   2.0000     -14.453119      -393.2894
  16   2.0000     -14.415633      -392.2693
  17   2.0000     -14.412412      -392.1817
  18   2.0000     -14.402833      -391.9210
  19   2.0000     -14.399394      -391.8274
  20   2.0000     -10.385478      -282.6032
  21   2.0000     -10.380916      -282.4791
  22   2.0000     -10.369440      -282.1668
  23   2.0000     -10.362107      -281.9673
  24   2.0000     -10.354519      -281.7608
  25   2.0000     -10.350261      -281.6449
  26   2.0000     -10.345781      -281.5230
  27   2.0000     -10.340613      -281.3824
  28   2.0000     -10.340341      -281.3750
  29   2.0000     -10.339976      -281.3650
  30   2.0000     -10.339149      -281.3425
  31   2.0000     -10.332557      -281.1632
  32   2.0000     -10.331481      -281.1339
  33   2.0000     -10.326564      -281.0001
  34   2.0000     -10.323457      -280.9155
  35   2.0000     -10.323209      -280.9088
  36   2.0000     -10.321899      -280.8731
  37   2.0000     -10.319061      -280.7959
  38   2.0000     -10.317458      -280.7523
  39   2.0000     -10.316030      -280.7135
  40   2.0000     -10.314839      -280.6811
  41   2.0000     -10.314828      -280.6807
  42   2.0000     -10.314653      -280.6760
  43   2.0000     -10.311371      -280.5867
  44   2.0000     -10.307914      -280.4926
  45   2.0000     -10.307873      -280.4915
  46   2.0000     -10.307212      -280.4735
  47   2.0000     -10.307175      -280.4725
  48   2.0000     -10.306908      -280.4652
  49   2.0000     -10.306863      -280.4640
  50   2.0000     -10.305592      -280.4294
  51   2.0000     -10.304890      -280.4103
  52   2.0000     -10.303742      -280.3791
  53   2.0000     -10.302975      -280.3582
  54   2.0000     -10.302120      -280.3349
  55   2.0000     -10.300346      -280.2867
  56   2.0000     -10.298606      -280.2393
  57   2.0000     -10.297510      -280.2095
  58   2.0000     -10.297318      -280.2043
  59   2.0000     -10.297149      -280.1997
  60   2.0000     -10.296072      -280.1704
  61   2.0000     -10.295657      -280.1591
  62   2.0000     -10.294196      -280.1193
  63   2.0000     -10.293749      -280.1072
  64   2.0000     -10.292701      -280.0786
  65   2.0000     -10.292219      -280.0655
  66   2.0000     -10.291976      -280.0589
  67   2.0000     -10.290597      -280.0214
  68   2.0000     -10.290115      -280.0083
  69   2.0000     -10.289157      -279.9822
  70   2.0000     -10.288661      -279.9687
  71   2.0000     -10.288531      -279.9652
  72   2.0000     -10.282378      -279.7977
  73   2.0000     -10.280468      -279.7458
  74   2.0000     -10.276699      -279.6432
  75   2.0000     -10.273878      -279.5664
  76   2.0000     -10.271147      -279.4921
  77   2.0000      -8.785851      -239.0752
  78   2.0000      -8.081895      -219.9196
  79   2.0000      -8.062600      -219.3945
  80   2.0000      -8.053159      -219.1376
  81   2.0000      -8.051370      -219.0889
  82   2.0000      -6.622107      -180.1967
  83   2.0000      -6.607582      -179.8014
  84   2.0000      -6.607441      -179.7976
  85   2.0000      -6.050900      -164.6534
  86   2.0000      -6.046833      -164.5427
  87   2.0000      -6.044604      -164.4820
  88   2.0000      -6.032294      -164.1471
  89   2.0000      -6.028026      -164.0309
  90   2.0000      -6.023846      -163.9172
  91   2.0000      -6.022640      -163.8844
  92   2.0000      -6.020966      -163.8388
  93   2.0000      -6.018769      -163.7790
  94   2.0000      -6.016333      -163.7127
  95   2.0000      -6.014670      -163.6675
  96   2.0000      -6.013335      -163.6312
  97   2.0000      -2.737981       -74.5043
  98   2.0000      -2.733922       -74.3938
  99   2.0000      -2.733779       -74.3899
 100   2.0000      -2.722253       -74.0763
 101   2.0000      -2.722234       -74.0758
 102   2.0000      -1.322039       -35.9745
 103   2.0000      -1.306570       -35.5536
 104   2.0000      -1.300888       -35.3990
 105   2.0000      -1.165504       -31.7150
 106   2.0000      -1.125326       -30.6217
 107   2.0000      -1.121055       -30.5055
 108   2.0000      -1.055580       -28.7238
 109   2.0000      -1.026265       -27.9261
 110   2.0000      -1.015815       -27.6417
 111   2.0000      -1.011603       -27.5271
 112   2.0000      -1.001116       -27.2418
 113   2.0000      -0.999438       -27.1961
 114   2.0000      -0.995394       -27.0860
 115   2.0000      -0.992637       -27.0110
 116   2.0000      -0.980547       -26.6820
 117   2.0000      -0.980122       -26.6705
 118   2.0000      -0.976309       -26.5667
 119   2.0000      -0.975606       -26.5476
 120   2.0000      -0.962120       -26.1806
 121   2.0000      -0.945218       -25.7207
 122   2.0000      -0.931859       -25.3572
 123   2.0000      -0.929498       -25.2929
 124   2.0000      -0.919049       -25.0086
 125   2.0000      -0.902230       -24.5509
 126   2.0000      -0.898019       -24.4363
 127   2.0000      -0.896466       -24.3941
 128   2.0000      -0.890462       -24.2307
 129   2.0000      -0.885081       -24.0843
 130   2.0000      -0.878480       -23.9047
 131   2.0000      -0.875216       -23.8158
 132   2.0000      -0.870047       -23.6752
 133   2.0000      -0.867061       -23.5939
 134   2.0000      -0.854000       -23.2385
 135   2.0000      -0.850565       -23.1451
 136   2.0000      -0.841355       -22.8944
 137   2.0000      -0.835030       -22.7223
 138   2.0000      -0.831507       -22.6264
 139   2.0000      -0.824555       -22.4373
 140   2.0000      -0.819171       -22.2908
 141   2.0000      -0.808110       -21.9898
 142   2.0000      -0.807271       -21.9670
 143   2.0000      -0.791475       -21.5371
 144   2.0000      -0.773990       -21.0613
 145   2.0000      -0.771396       -20.9908
 146   2.0000      -0.759194       -20.6587
 147   2.0000      -0.752105       -20.4658
 148   2.0000      -0.748171       -20.3588
 149   2.0000      -0.740407       -20.1475
 150   2.0000      -0.730776       -19.8854
 151   2.0000      -0.721791       -19.6409
 152   2.0000      -0.715370       -19.4662
 153   2.0000      -0.709313       -19.3014
 154   2.0000      -0.706188       -19.2164
 155   2.0000      -0.694300       -18.8929
 156   2.0000      -0.686421       -18.6785
 157   2.0000      -0.681196       -18.5363
 158   2.0000      -0.679411       -18.4877
 159   2.0000      -0.678672       -18.4676
 160   2.0000      -0.670999       -18.2588
 161   2.0000      -0.665563       -18.1109
 162   2.0000      -0.656983       -17.8774
 163   2.0000      -0.652510       -17.7557
 164   2.0000      -0.646355       -17.5882
 165   2.0000      -0.645466       -17.5640
 166   2.0000      -0.635311       -17.2877
 167   2.0000      -0.632296       -17.2056
 168   2.0000      -0.628624       -17.1057
 169   2.0000      -0.625065       -17.0089
 170   2.0000      -0.624924       -17.0050
 171   2.0000      -0.621965       -16.9245
 172   2.0000      -0.613502       -16.6942
 173   2.0000      -0.610202       -16.6044
 174   2.0000      -0.609908       -16.5964
 175   2.0000      -0.599178       -16.3045
 176   2.0000      -0.592610       -16.1257
 177   2.0000      -0.589146       -16.0315
 178   2.0000      -0.586697       -15.9648
 179   2.0000      -0.584452       -15.9037
 180   2.0000      -0.582684       -15.8556
 181   2.0000      -0.580193       -15.7879
 182   2.0000      -0.576139       -15.6775
 183   2.0000      -0.567477       -15.4418
 184   2.0000      -0.565088       -15.3768
 185   2.0000      -0.560825       -15.2608
 186   2.0000      -0.558665       -15.2021
 187   2.0000      -0.557747       -15.1771
 188   2.0000      -0.557056       -15.1583
 189   2.0000      -0.551587       -15.0094
 190   2.0000      -0.548606       -14.9283
 191   2.0000      -0.547955       -14.9106
 192   2.0000      -0.545280       -14.8378
 193   2.0000      -0.542836       -14.7713
 194   2.0000      -0.539686       -14.6856
 195   2.0000      -0.534978       -14.5575
 196   2.0000      -0.532147       -14.4805
 197   2.0000      -0.530331       -14.4310
 198   2.0000      -0.529099       -14.3975
 199   2.0000      -0.527037       -14.3414
 200   2.0000      -0.523566       -14.2470
 201   2.0000      -0.523297       -14.2396
 202   2.0000      -0.520209       -14.1556
 203   2.0000      -0.517416       -14.0796
 204   2.0000      -0.516899       -14.0655
 205   2.0000      -0.513308       -13.9678
 206   2.0000      -0.510513       -13.8918
 207   2.0000      -0.508958       -13.8495
 208   2.0000      -0.503502       -13.7010
 209   2.0000      -0.500049       -13.6070
 210   2.0000      -0.499559       -13.5937
 211   2.0000      -0.496041       -13.4980
 212   2.0000      -0.494791       -13.4639
 213   2.0000      -0.491097       -13.3634
 214   2.0000      -0.489823       -13.3288
 215   2.0000      -0.488380       -13.2895
 216   2.0000      -0.485057       -13.1991
 217   2.0000      -0.484658       -13.1882
 218   2.0000      -0.482641       -13.1333
 219   2.0000      -0.481509       -13.1025
 220   2.0000      -0.481299       -13.0968
 221   2.0000      -0.480818       -13.0837
 222   2.0000      -0.477860       -13.0032
 223   2.0000      -0.474897       -12.9226
 224   2.0000      -0.474546       -12.9130
 225   2.0000      -0.462779       -12.5928
 226   2.0000      -0.462233       -12.5780
 227   2.0000      -0.458917       -12.4878
 228   2.0000      -0.458143       -12.4667
 229   2.0000      -0.456513       -12.4224
 230   2.0000      -0.453013       -12.3271
 231   2.0000      -0.450868       -12.2687
 232   2.0000      -0.449483       -12.2310
 233   2.0000      -0.445611       -12.1257
 234   2.0000      -0.442417       -12.0388
 235   2.0000      -0.441072       -12.0022
 236   2.0000      -0.438904       -11.9432
 237   2.0000      -0.437836       -11.9141
 238   2.0000      -0.436878       -11.8881
 239   2.0000      -0.436341       -11.8734
 240   2.0000      -0.434109       -11.8127
 241   2.0000      -0.431355       -11.7378
 242   2.0000      -0.430484       -11.7141
 243   2.0000      -0.428443       -11.6585
 244   2.0000      -0.426224       -11.5981
 245   2.0000      -0.424088       -11.5400
 246   2.0000      -0.421367       -11.4660
 247   2.0000      -0.416879       -11.3439
 248   2.0000      -0.415302       -11.3009
 249   2.0000      -0.413349       -11.2478
 250   2.0000      -0.407544       -11.0898
 251   2.0000      -0.405998       -11.0478
 252   2.0000      -0.403469       -10.9790
 253   2.0000      -0.396508       -10.7895
 254   2.0000      -0.395083       -10.7508
 255   2.0000      -0.390900       -10.6369
 256   2.0000      -0.386576       -10.5193
 257   2.0000      -0.383964       -10.4482
 258   2.0000      -0.377179       -10.2636
 259   2.0000      -0.376616       -10.2482
 260   2.0000      -0.368248       -10.0205
 261   2.0000      -0.356247        -9.6940
 262   2.0000      -0.346517        -9.4292
 263   2.0000      -0.333568        -9.0768
 264   2.0000      -0.330732        -8.9997
 265   2.0000      -0.327450        -8.9104
 266   2.0000      -0.326009        -8.8711
 267   2.0000      -0.323049        -8.7906
 268   2.0000      -0.322470        -8.7749
 269   2.0000      -0.311779        -8.4839
 270   2.0000      -0.305691        -8.3183
 271   2.0000      -0.302471        -8.2306
 272   2.0000      -0.298048        -8.1103
 273   2.0000      -0.286224        -7.7885
 274   2.0000      -0.279626        -7.6090
 275   2.0000      -0.254887        -6.9358
 276   2.0000      -0.227000        -6.1770
 277   0.0000      -0.110946        -3.0190
 278   0.0000      -0.080782        -2.1982
 279   0.0000      -0.062612        -1.7038
 280   0.0000      -0.050228        -1.3668
 281   0.0000      -0.045861        -1.2479

MULLIKEN ATOMIC CHARGES
-----------------------
   0 C :   -0.096465
   1 C :    0.298859
   2 F :   -0.191630
   3 C :   -0.032153
   4 C :   -0.008923
   5 C :    0.098840
   6 C :    0.101166
   7 C :   -0.088269
   8 C :    0.043281
   9 C :    0.007532
  10 C :   -0.079562
  11 C :    0.139560
  12 O :   -0.151800
  13 C :   -0.145709
  14 C :    0.256301
  15 C :   -0.339820
  16 C :   -0.221818
  17 N :    0.171637
  18 C :   -0.165404
  19 N :    0.137790
  20 C :    0.015515
  21 C :   -0.120864
  22 S :    0.165846
  23 C :   -0.056862
  24 C :    0.121493
  25 C :    0.175071
  26 C :   -0.115076
  27 C :    0.239734
  28 F :   -0.167316
  29 C :    0.226976
  30 F :   -0.173143
  31 C :   -0.110564
  32 C :   -0.003287
  33 C :    0.017805
  34 C :    0.018321
  35 C :   -0.196098
  36 C :    0.075356
  37 C :    0.197375
  38 N :   -0.149947
  39 C :    0.061241
  40 C :   -0.016005
  41 C :   -0.010115
  42 C :   -0.071993
  43 C :    0.231928
  44 C :   -0.200504
  45 S :    0.111568
  46 C :   -0.010412
  47 C :   -0.118216
  48 C :    0.354072
  49 O :   -0.293397
  50 C :   -0.027532
  51 C :   -0.053522
  52 S :    0.198193
  53 C :   -0.019314
  54 C :   -0.113790
  55 C :    0.336399
  56 C :   -0.369874
  57 C :   -0.187022
  58 N :    0.138915
  59 C :   -0.187694
  60 N :    0.131680
  61 C :    0.007617
  62 C :   -0.006478
  63 C :    0.160018
  64 O :   -0.194592
  65 C :   -0.080501
  66 C :    0.118294
  67 C :   -0.092011
  68 C :   -0.023663
  69 S :    0.181794
  70 C :   -0.124207
  71 C :    0.036964
  72 Br:    0.015389
  73 H :   -0.004881
  74 H :    0.004290
  75 H :   -0.008841
  76 H :   -0.007979
  77 H :   -0.011973
  78 H :    0.020605
  79 H :    0.004022
  80 H :   -0.004775
  81 H :   -0.007989
  82 H :    0.002064
  83 H :   -0.024426
  84 H :    0.053764
  85 H :    0.046095
  86 H :    0.011250
  87 H :    0.020514
  88 H :    0.020402
  89 H :    0.119296
  90 H :    0.009683
  91 H :   -0.023340
  92 H :   -0.021959
  93 H :    0.031590
  94 H :    0.028759
  95 H :   -0.001075
  96 H :    0.000573
  97 H :   -0.016853
  98 H :   -0.008973
  99 H :   -0.006822
Sum of atomic charges:   -0.0000000

LOEWDIN ATOMIC CHARGES
----------------------
   0 C :   -0.043898
   1 C :    0.092146
   2 F :   -0.066214
   3 C :   -0.038709
   4 C :    0.004591
   5 C :   -0.019491
   6 C :    0.002692
   7 C :    0.006199
   8 C :   -0.015651
   9 C :   -0.057763
  10 C :    0.032381
  11 C :    0.080300
  12 O :   -0.152854
  13 C :   -0.112036
  14 C :    0.060526
  15 C :   -0.157094
  16 C :   -0.039917
  17 N :   -0.053787
  18 C :   -0.019779
  19 N :   -0.064016
  20 C :    0.046462
  21 C :   -0.193381
  22 S :    0.519789
  23 C :   -0.128083
  24 C :   -0.049027
  25 C :   -0.009312
  26 C :   -0.038252
  27 C :    0.077527
  28 F :   -0.045489
  29 C :    0.060913
  30 F :   -0.051883
  31 C :   -0.029731
  32 C :   -0.044886
  33 C :    0.004757
  34 C :   -0.050032
  35 C :   -0.022125
  36 C :   -0.055655
  37 C :    0.045969
  38 N :   -0.000078
  39 C :    0.046865
  40 C :   -0.132130
  41 C :   -0.117832
  42 C :   -0.097469
  43 C :    0.055018
  44 C :   -0.267358
  45 S :    0.408067
  46 C :   -0.155188
  47 C :   -0.098298
  48 C :    0.106559
  49 O :   -0.087365
  50 C :   -0.005809
  51 C :   -0.192199
  52 S :    0.497868
  53 C :    0.050752
  54 C :   -0.131614
  55 C :    0.078526
  56 C :   -0.157963
  57 C :   -0.018729
  58 N :   -0.067261
  59 C :   -0.020193
  60 N :   -0.067498
  61 C :   -0.018410
  62 C :   -0.048191
  63 C :    0.082387
  64 O :   -0.180934
  65 C :    0.016728
  66 C :   -0.036026
  67 C :   -0.146024
  68 C :   -0.011784
  69 S :    0.429244
  70 C :   -0.274779
  71 C :   -0.071654
  72 Br:    0.130237
  73 H :    0.041915
  74 H :    0.041798
  75 H :    0.035638
  76 H :    0.037688
  77 H :    0.039389
  78 H :    0.048275
  79 H :    0.045630
  80 H :    0.042300
  81 H :    0.035686
  82 H :    0.022891
  83 H :    0.027112
  84 H :    0.044946
  85 H :    0.045284
  86 H :    0.028100
  87 H :    0.028758
  88 H :    0.032720
  89 H :    0.078654
  90 H :    0.022385
  91 H :    0.029765
  92 H :    0.033961
  93 H :    0.026309
  94 H :    0.034953
  95 H :    0.038271
  96 H :    0.049091
  97 H :    0.038297
  98 H :    0.040408
  99 H :    0.037124

  Mayer bond orders larger than 0.100000
B(  0-C ,  1-C ) :   1.4425 B(  0-C ,  6-C ) :   1.2035 B(  0-C , 73-H ) :   1.0058
B(  1-C ,  2-F ) :   1.0881 B(  1-C ,  3-C ) :   1.2571 B(  3-C ,  4-C ) :   1.4606
B(  3-C , 74-H ) :   0.9917 B(  4-C ,  5-C ) :   1.2373 B(  4-C , 75-H ) :   0.9964
B(  5-C ,  6-C ) :   1.2595 B(  5-C , 10-C ) :   1.1879 B(  6-C ,  7-C ) :   1.2008
B(  7-C ,  8-C ) :   1.4683 B(  7-C , 76-H ) :   0.9940 B(  8-C ,  9-C ) :   1.2177
B(  8-C , 14-C ) :   1.0002 B(  9-C , 10-C ) :   1.4828 B(  9-C , 11-C ) :   0.9209
B( 10-C , 77-H ) :   1.0141 B( 11-C , 12-O ) :   2.2524 B( 11-C , 13-C ) :   0.9542
B( 13-C , 14-C ) :   1.0655 B( 13-C , 20-C ) :   1.5639 B( 14-C , 15-C ) :   1.6173
B( 15-C , 16-C ) :   1.1601 B( 15-C , 18-C ) :   1.1375 B( 16-C , 17-N ) :   3.0252
B( 18-C , 19-N ) :   2.9785 B( 20-C , 21-C ) :   1.2350 B( 20-C , 78-H ) :   0.9363
B( 21-C , 22-S ) :   1.1067 B( 21-C , 25-C ) :   1.2751 B( 22-S , 23-C ) :   1.1924
B( 23-C , 24-C ) :   1.2928 B( 23-C , 32-C ) :   1.1714 B( 24-C , 25-C ) :   1.2305
B( 24-C , 31-C ) :   1.1703 B( 25-C , 26-C ) :   1.1917 B( 26-C , 27-C ) :   1.4800
B( 26-C , 31-C ) :   0.1112 B( 26-C , 79-H ) :   0.9974 B( 27-C , 28-F ) :   1.1388
B( 27-C , 29-C ) :   1.1642 B( 29-C , 30-F ) :   1.1332 B( 29-C , 31-C ) :   1.4993
B( 31-C , 80-H ) :   0.9970 B( 32-C , 33-C ) :   1.6389 B( 32-C , 81-H ) :   0.9766
B( 33-C , 34-C ) :   1.1348 B( 33-C , 82-H ) :   0.9657 B( 34-C , 35-C ) :   1.7393
B( 34-C , 83-H ) :   0.9804 B( 35-C , 36-C ) :   1.0689 B( 35-C , 37-C ) :   1.0448
B( 36-C , 84-H ) :   0.9481 B( 36-C , 85-H ) :   0.9428 B( 36-C , 86-H ) :   0.9534
B( 37-C , 38-N ) :   1.0211 B( 37-C , 87-H ) :   0.9337 B( 37-C , 88-H ) :   0.9409
B( 38-N , 39-C ) :   1.2239 B( 38-N , 89-H ) :   0.9400 B( 39-C , 40-C ) :   1.6061
B( 39-C , 90-H ) :   0.9617 B( 40-C , 41-C ) :   1.1948 B( 40-C , 91-H ) :   0.9670
B( 41-C , 42-C ) :   1.4294 B( 41-C , 45-S ) :   1.1133 B( 42-C , 43-C ) :   1.2620
B( 42-C , 92-H ) :   1.0170 B( 43-C , 44-C ) :   1.4076 B( 43-C , 49-O ) :   1.1757
B( 44-C , 45-S ) :   1.0373 B( 44-C , 46-C ) :   1.2352 B( 46-C , 47-C ) :   1.3838
B( 46-C , 52-S ) :   1.1202 B( 47-C , 48-C ) :   1.0189 B( 47-C , 50-C ) :   1.3968
B( 48-C , 49-O ) :   0.9418 B( 48-C , 93-H ) :   0.9364 B( 48-C , 94-H ) :   0.9385
B( 50-C , 51-C ) :   1.2937 B( 50-C , 95-H ) :   1.0141 B( 51-C , 52-S ) :   1.0570
B( 51-C , 53-C ) :   1.3377 B( 53-C , 54-C ) :   1.4117 B( 53-C , 96-H ) :   0.9380
B( 54-C , 55-C ) :   1.1138 B( 54-C , 63-C ) :   0.9970 B( 55-C , 56-C ) :   1.5890
B( 55-C , 61-C ) :   0.9885 B( 56-C , 57-C ) :   1.1493 B( 56-C , 59-C ) :   1.1521
B( 57-C , 58-N ) :   2.9632 B( 59-C , 60-N ) :   2.9522 B( 61-C , 62-C ) :   1.2797
B( 61-C , 68-C ) :   1.4226 B( 62-C , 63-C ) :   0.9535 B( 62-C , 65-C ) :   1.4271
B( 63-C , 64-O ) :   2.1161 B( 65-C , 66-C ) :   1.2376 B( 65-C , 97-H ) :   1.0166
B( 66-C , 67-C ) :   1.3187 B( 66-C , 71-C ) :   1.1598 B( 67-C , 68-C ) :   1.3186
B( 67-C , 69-S ) :   1.0833 B( 68-C , 98-H ) :   0.9789 B( 69-S , 70-C ) :   1.0873
B( 70-C , 71-C ) :   1.6197 B( 70-C , 72-Br) :   1.0143 B( 71-C , 99-H ) :   1.0000

-----------------------------------------------------------------------------
         ABSORPTION SPECTRUM VIA TRANSITION ELECTRIC DIPOLE MOMENTS
-----------------------------------------------------------------------------
State   Energy  Wavelength   fosc         T2         TX        TY        TZ
        (cm-1)    (nm)                  (au**2)     (au)      (au)      (au)
-----------------------------------------------------------------------------
   0   13824.6    723.4   0.529275694  12.60394   0.72977   3.40632   0.68436
   1   15508.9    644.8   0.203805623   4.32624  -1.10645  -1.47024  -0.96973
   2   16766.0    596.4   1.139790810  22.38051   2.07741  -3.87785  -1.73987
   3   22748.5    439.6   0.040321093   0.58352   0.03025  -0.57504  -0.50192
   4   24024.0    416.3   0.061677571   0.84520   0.72435  -0.14484  -0.54730
   5   25286.2    395.5   0.233893183   3.04516  -0.90761  -0.63938   1.34633
   6   25914.8    385.9   0.026701191   0.33920   0.04232   0.43329   0.38687
   7   26695.4    374.6   0.034567353   0.42629   0.07357   0.62757  -0.16441
   8   26891.3    371.9   0.170262414   2.08441   0.83992   1.02935  -0.56515
   9   28197.2    354.6   0.004998367   0.05836   0.03876  -0.19161   0.14192
  10   28398.9    352.1   0.043391321   0.50301   0.26520   0.60507   0.25801
  11   28599.6    349.7   0.080728685   0.92927  -0.19399   0.70093  -0.63273
  12   28930.9    345.7   0.214241557   2.43791  -0.06792  -0.54879  -1.46018
  13   29543.7    338.5   0.062289611   0.69411  -0.40593   0.58595   0.43126
  14   29763.0    336.0   0.197734964   2.18717   0.47566   0.27379  -1.37330
  15   29941.7    334.0   0.339017895   3.72753  -1.09493   0.81022   1.36829
  16   30129.3    331.9   0.079660499   0.87042  -0.61322   0.67345   0.20211
  17   30467.9    328.2   0.200932145   2.17111   1.11196  -0.61833   0.74320
  18   30704.8    325.7   0.168955674   1.81151   0.33676  -0.11454   1.29807
  19   30874.9    323.9   0.057945111   0.61786  -0.28047   0.03703  -0.73336
  20   31571.1    316.7   0.066903479   0.69764   0.46112  -0.53656   0.44398
  21   31672.4    315.7   0.012091661   0.12568  -0.04088   0.23234   0.26463
  22   32046.6    312.0   0.035982066   0.36964   0.34316  -0.48840   0.11553
  23   32346.5    309.2   0.004095840   0.04169   0.07583   0.02116   0.18838
  24   32427.7    308.4   0.107206403   1.08838   0.15045  -1.01553   0.18556
  25   33556.7    298.0   0.315009470   3.09044   0.51136  -1.00093   1.35170
  26   33604.0    297.6   0.366027171   3.58590  -0.35781   1.62050   0.91206
  27   33780.8    296.0   0.300089975   2.92454   0.75260  -1.28457  -0.84144
  28   34087.9    293.4   0.247501000   2.39030  -1.39347   0.66684  -0.06212
  29   34884.1    286.7   0.122201299   1.15325  -0.52891   0.21647   0.90920
  30   35250.3    283.7   0.191593453   1.78934  -0.72025  -0.21201   1.10708
  31   35349.5    282.9   0.005466660   0.05091   0.20582  -0.09180  -0.01103
  32   35533.3    281.4   0.276577185   2.56246   1.11935  -0.23290   1.12039
  33   36259.8    275.8   0.218995325   1.98831  -0.68594   1.21996   0.17173
  34   36616.7    273.1   0.071462246   0.64250   0.46521  -0.57359  -0.31158
  35   36947.3    270.7   0.133000497   1.18508   0.33495   0.53573  -0.88650
  36   37047.2    269.9   0.040061708   0.35600   0.06996   0.04384   0.59092
  37   37294.6    268.1   0.000540346   0.00477  -0.00841   0.05312   0.04333
  38   37573.3    266.1   0.006526920   0.05719   0.02743  -0.16143  -0.17428
  39   37915.9    263.7   0.011206051   0.09730  -0.08503  -0.25048   0.16531
  40   38322.1    260.9   0.015412239   0.13240   0.20065   0.16982  -0.25160
  41   38707.1    258.4   0.281789702   2.39668   0.63055   1.12047  -0.86234
  42   38871.8    257.3   0.124632684   1.05554  -0.51104   0.84905   0.27109
  43   39019.3    256.3   0.010272045   0.08667   0.16828  -0.03077  -0.23959
  44   39972.5    250.2   0.035760580   0.29452  -0.18700   0.36065   0.35984
  45   40223.7    248.6   0.182223032   1.49141   0.64288  -0.84442  -0.60421
  46   40294.9    248.2   0.095957245   0.78398   0.31298  -0.68890  -0.45982

FINAL SINGLE POINT ENERGY     -7149.690340419020

DIPOLE MOMENT
-------------
                                X             Y             Z
Electronic contribution:    -36.81311     134.45363     101.71571
Nuclear contribution   :     41.02573    -139.05663    -100.38692
                        -----------------------------------------
Total Dipole Moment    :      4.21262      -4.60300       1.32878
                        -----------------------------------------
Magnitude (a.u.)       :      6.37961
Magnitude (Debye)      :     16.21569

Rotational constants in cm-1:     0.001057     0.000219     0.000198
Rotational constants in MHz :    31.692252     6.560367     5.928917

                             ****ORCA TERMINATED NORMALLY****
TOTAL RUN TIME: 0 days 0 hours 9 minutes 38 seconds 723 msec
