                         Program Version 4.2.0 -  RELEASE  -
|  1> # ORCA input file
|  2> # SCF done       -162.148480317957          0.000710001861
|  3> ! CAM-B3LYP def2-SVP def2/J RIJCOSX Grid4 TightSCF
|  4> %maxcore 5000
|  5> %tddft
|  6>     Mode sTDDFT
|  7>     Ethresh 5.0
|  8>     maxcore 5000
|  9> end
| 10>
| 11> %pal
| 12>   nprocs 6
| 13>   end
| 14> * xyz 0 1
| 15>    C       -2.06824         0.48158         2.77969
| 16>    C       -0.88671         0.97570         3.27029
| 17>    C        0.33361         0.27130         3.24818
| 18>    N        1.35475        -0.25389         3.24871
| 19>    C       -0.75272         2.22997         3.90129
| 20>    N       -0.58028         3.22350         4.45121
| 21>    C       -2.27885        -0.85036         2.22669
| 22>    C       -3.66454        -1.02606         1.99304
| 23>    C       -4.18177        -2.17337         1.44359
| 24>    C       -3.28851        -3.19643         1.10630
| 25>    C       -1.90713        -3.01561         1.35486
| 26>    C       -1.38341        -1.85539         1.91284
| 27>    S       -0.98273        -4.40105         0.85714
| 28>    C       -2.44534        -5.18600         0.32162
| 29>    C       -3.56903        -4.45482         0.50621
| 30>   Br       -2.35127        -6.89725        -0.43506
| 31>    C       -4.39145         0.20231         2.37817
| 32>    O       -5.58470         0.39396         2.26551
| 33>    C       -3.34747         1.15978         2.80360
| 34>    C       -3.52410         2.51585         2.90858
| 35>    C       -4.74875         3.19887         3.03309
| 36>    S       -4.89031         4.78615         2.31879
| 37>    C       -6.53963         4.86371         2.76817
| 38>    C       -6.97763         3.77322         3.45905
| 39>    C       -8.36966         3.66630         3.98396
| 40>    C       -5.94597         2.80634         3.64392
| 41>    C       -6.00345         1.66239         4.50552
| 42>    C       -7.08325         0.89826         4.77702
| 43>    C       -7.05172        -0.17858         5.71065
| 44>    C       -8.03392        -1.09928         5.80405
| 45>    C       -8.05822        -2.19538         6.73292
| 46>    C       -7.41357        -2.19646         7.98463
| 47>    N       -7.36009        -3.26208         8.74532
| 48>    C       -7.94922        -4.38990         8.31049
| 49>    C       -8.76632        -4.31893         7.16009
| 50>    N       -8.80922        -3.25702         6.39947
| 51>    C       -7.76429        -5.58089         9.07617
| 52>    C       -7.78167        -6.85011         8.57555
| 53>    C       -7.61243        -8.05838         9.30973
| 54>    C       -7.52368        -9.17719         8.54223
| 55>    C       -7.59231        -8.92700         7.15203
| 56>    S       -7.86120        -7.22006         6.85657
| 57>    C       -7.41466        -9.78869         6.09147
| 58>    C       -7.22180       -11.19255         6.09628
| 59>    C       -7.01056       -11.71334         4.86107
| 60>    C       -6.99682       -10.75531         3.80246
| 61>    S       -7.30305        -9.16065         4.46421
| 62>    C       -6.84167       -11.06157         2.48282
| 63>    C       -6.75829       -10.18374         1.35497
| 64>    C       -7.10138       -10.66835         0.08348
| 65>    O       -7.55445       -11.94866         0.08328
| 66>    C       -7.58758       -12.74456        -1.08220
| 67>    C       -7.04215        -9.82749        -1.07514
| 68>    O       -7.46733       -10.38122        -2.24723
| 69>    C       -7.43366        -9.59878        -3.41700
| 70>    C       -6.60124        -8.52805        -0.98799
| 71>    C       -6.20412        -8.02886         0.25765
| 72>    C       -6.28089        -8.84952         1.43398
| 73>    N       -5.80564        -8.22255         2.50243
| 74>    S       -5.34630        -6.73917         2.08851
| 75>    N       -5.70825        -6.81972         0.51510
| 76>    H       -5.24146        -2.27868         1.27277
| 77>    H       -0.32209        -1.75732         2.07055
| 78>    H       -4.55068        -4.79380         0.22823
| 79>    H       -2.64997         3.14907         2.80422
| 80>    H       -7.11277         5.73071         2.50063
| 81>    H       -8.85201         4.64080         3.96728
| 82>    H       -8.36323         3.28773         5.00428
| 83>    H       -8.95599         2.98538         3.36816
| 84>    H       -5.05645         1.38771         4.95879
| 85>    H       -8.00530         1.04543         4.23711
| 86>    H       -6.17860        -0.25470         6.34650
| 87>    H       -8.85845        -1.07808         5.10400
| 88>    H       -6.95257        -1.30244         8.38319
| 89>    H       -9.42851        -5.12848         6.88665
| 90>    H       -7.52222        -5.44521        10.12085
| 91>    H       -7.55226        -8.04889        10.38376
| 92>    H       -7.37741       -10.16952         8.93081
| 93>    H       -7.24993       -11.76802         7.00462
| 94>    H       -6.84753       -12.75796         4.66073
| 95>    H       -6.81428       -12.11562         2.23782
| 96>    H       -6.65294       -12.68352        -1.64255
| 97>    H       -8.42033       -12.47422        -1.73367
| 98>    H       -7.72805       -13.76375        -0.72029
| 99>    H       -8.07825        -8.71913        -3.32970
|100>    H       -7.81036       -10.24587        -4.20763
|101>    H       -6.41436        -9.28390        -3.65938
|102>    H       -6.54476        -7.87888        -1.84362
|103> *
|104>
|105>                          ****END OF INPUT****

CARTESIAN COORDINATES (ANGSTROEM)
---------------------------------
  C     -2.068240    0.481580    2.779690
  C     -0.886710    0.975700    3.270290
  C      0.333610    0.271300    3.248180
  N      1.354750   -0.253890    3.248710
  C     -0.752720    2.229970    3.901290
  N     -0.580280    3.223500    4.451210
  C     -2.278850   -0.850360    2.226690
  C     -3.664540   -1.026060    1.993040
  C     -4.181770   -2.173370    1.443590
  C     -3.288510   -3.196430    1.106300
  C     -1.907130   -3.015610    1.354860
  C     -1.383410   -1.855390    1.912840
  S     -0.982730   -4.401050    0.857140
  C     -2.445340   -5.186000    0.321620
  C     -3.569030   -4.454820    0.506210
  Br    -2.351270   -6.897250   -0.435060
  C     -4.391450    0.202310    2.378170
  O     -5.584700    0.393960    2.265510
  C     -3.347470    1.159780    2.803600
  C     -3.524100    2.515850    2.908580
  C     -4.748750    3.198870    3.033090
  S     -4.890310    4.786150    2.318790
  C     -6.539630    4.863710    2.768170
  C     -6.977630    3.773220    3.459050
  C     -8.369660    3.666300    3.983960
  C     -5.945970    2.806340    3.643920
  C     -6.003450    1.662390    4.505520
  C     -7.083250    0.898260    4.777020
  C     -7.051720   -0.178580    5.710650
  C     -8.033920   -1.099280    5.804050
  C     -8.058220   -2.195380    6.732920
  C     -7.413570   -2.196460    7.984630
  N     -7.360090   -3.262080    8.745320
  C     -7.949220   -4.389900    8.310490
  C     -8.766320   -4.318930    7.160090
  N     -8.809220   -3.257020    6.399470
  C     -7.764290   -5.580890    9.076170
  C     -7.781670   -6.850110    8.575550
  C     -7.612430   -8.058380    9.309730
  C     -7.523680   -9.177190    8.542230
  C     -7.592310   -8.927000    7.152030
  S     -7.861200   -7.220060    6.856570
  C     -7.414660   -9.788690    6.091470
  C     -7.221800  -11.192550    6.096280
  C     -7.010560  -11.713340    4.861070
  C     -6.996820  -10.755310    3.802460
  S     -7.303050   -9.160650    4.464210
  C     -6.841670  -11.061570    2.482820
  C     -6.758290  -10.183740    1.354970
  C     -7.101380  -10.668350    0.083480
  O     -7.554450  -11.948660    0.083280
  C     -7.587580  -12.744560   -1.082200
  C     -7.042150   -9.827490   -1.075140
  O     -7.467330  -10.381220   -2.247230
  C     -7.433660   -9.598780   -3.417000
  C     -6.601240   -8.528050   -0.987990
  C     -6.204120   -8.028860    0.257650
  C     -6.280890   -8.849520    1.433980
  N     -5.805640   -8.222550    2.502430
  S     -5.346300   -6.739170    2.088510
  N     -5.708250   -6.819720    0.515100
  H     -5.241460   -2.278680    1.272770
  H     -0.322090   -1.757320    2.070550
  H     -4.550680   -4.793800    0.228230
  H     -2.649970    3.149070    2.804220
  H     -7.112770    5.730710    2.500630
  H     -8.852010    4.640800    3.967280
  H     -8.363230    3.287730    5.004280
  H     -8.955990    2.985380    3.368160
  H     -5.056450    1.387710    4.958790
  H     -8.005300    1.045430    4.237110
  H     -6.178600   -0.254700    6.346500
  H     -8.858450   -1.078080    5.104000
  H     -6.952570   -1.302440    8.383190
  H     -9.428510   -5.128480    6.886650
  H     -7.522220   -5.445210   10.120850
  H     -7.552260   -8.048890   10.383760
  H     -7.377410  -10.169520    8.930810
  H     -7.249930  -11.768020    7.004620
  H     -6.847530  -12.757960    4.660730
  H     -6.814280  -12.115620    2.237820
  H     -6.652940  -12.683520   -1.642550
  H     -8.420330  -12.474220   -1.733670
  H     -7.728050  -13.763750   -0.720290
  H     -8.078250   -8.719130   -3.329700
  H     -7.810360  -10.245870   -4.207630
  H     -6.414360   -9.283900   -3.659380
  H     -6.544760   -7.878880   -1.843620

 Total Charge           Charge          ....    0
 Multiplicity           Mult            ....    1
 Number of Electrons    NEL             ....  484
 Basis Dimension        Dim             .... 1027

ORBITAL ENERGIES
----------------

  NO   OCC          E(Eh)            E(eV)
   0   2.0000    -482.877306    -13139.7595
   1   2.0000     -89.010345     -2422.0946
   2   2.0000     -88.967373     -2420.9253
   3   2.0000     -88.959447     -2420.7096
   4   2.0000     -88.934597     -2420.0334
   5   2.0000     -88.929316     -2419.8897
   6   2.0000     -62.554868     -1702.2045
   7   2.0000     -56.388821     -1534.4178
   8   2.0000     -56.386110     -1534.3441
   9   2.0000     -56.386066     -1534.3429
  10   2.0000     -19.264472      -524.2129
  11   2.0000     -19.253442      -523.9128
  12   2.0000     -19.207428      -522.6607
  13   2.0000     -14.428119      -392.6091
  14   2.0000     -14.425388      -392.5348
  15   2.0000     -14.408822      -392.0840
  16   2.0000     -14.407636      -392.0517
  17   2.0000     -14.403871      -391.9492
  18   2.0000     -14.403741      -391.9457
  19   2.0000     -10.357315      -281.8369
  20   2.0000     -10.355799      -281.7956
  21   2.0000     -10.350317      -281.6464
  22   2.0000     -10.349842      -281.6335
  23   2.0000     -10.337139      -281.2878
  24   2.0000     -10.334916      -281.2274
  25   2.0000     -10.333575      -281.1909
  26   2.0000     -10.320912      -280.8463
  27   2.0000     -10.317309      -280.7483
  28   2.0000     -10.315818      -280.7077
  29   2.0000     -10.314843      -280.6811
  30   2.0000     -10.314102      -280.6610
  31   2.0000     -10.311717      -280.5961
  32   2.0000     -10.310760      -280.5700
  33   2.0000     -10.304990      -280.4130
  34   2.0000     -10.304531      -280.4005
  35   2.0000     -10.303490      -280.3722
  36   2.0000     -10.302572      -280.3472
  37   2.0000     -10.301486      -280.3177
  38   2.0000     -10.299948      -280.2758
  39   2.0000     -10.299936      -280.2755
  40   2.0000     -10.299341      -280.2593
  41   2.0000     -10.298941      -280.2484
  42   2.0000     -10.298910      -280.2476
  43   2.0000     -10.298854      -280.2461
  44   2.0000     -10.298434      -280.2346
  45   2.0000     -10.295830      -280.1638
  46   2.0000     -10.293016      -280.0872
  47   2.0000     -10.292200      -280.0650
  48   2.0000     -10.291841      -280.0552
  49   2.0000     -10.287531      -279.9380
  50   2.0000     -10.285191      -279.8743
  51   2.0000     -10.284432      -279.8536
  52   2.0000     -10.283912      -279.8395
  53   2.0000     -10.283788      -279.8361
  54   2.0000     -10.280299      -279.7412
  55   2.0000     -10.280084      -279.7353
  56   2.0000     -10.278783      -279.6999
  57   2.0000     -10.276807      -279.6461
  58   2.0000     -10.275482      -279.6101
  59   2.0000     -10.273092      -279.5451
  60   2.0000     -10.273074      -279.5445
  61   2.0000     -10.272677      -279.5337
  62   2.0000     -10.269296      -279.4418
  63   2.0000     -10.268909      -279.4312
  64   2.0000     -10.266088      -279.3544
  65   2.0000      -8.784278      -239.0323
  66   2.0000      -8.101849      -220.4625
  67   2.0000      -8.063381      -219.4157
  68   2.0000      -8.055660      -219.2057
  69   2.0000      -8.030861      -218.5308
  70   2.0000      -8.025210      -218.3771
  71   2.0000      -6.620553      -180.1544
  72   2.0000      -6.606165      -179.7629
  73   2.0000      -6.605698      -179.7502
  74   2.0000      -6.073154      -165.2589
  75   2.0000      -6.065475      -165.0500
  76   2.0000      -6.064019      -165.0103
  77   2.0000      -6.033050      -164.1676
  78   2.0000      -6.028825      -164.0527
  79   2.0000      -6.024900      -163.9459
  80   2.0000      -6.024602      -163.9378
  81   2.0000      -6.020715      -163.8320
  82   2.0000      -6.017819      -163.7532
  83   2.0000      -6.000650      -163.2860
  84   2.0000      -5.996573      -163.1750
  85   2.0000      -5.995050      -163.1336
  86   2.0000      -5.991639      -163.0408
  87   2.0000      -5.990812      -163.0183
  88   2.0000      -5.985942      -162.8858
  89   2.0000      -2.736405       -74.4614
  90   2.0000      -2.732467       -74.3542
  91   2.0000      -2.732140       -74.3453
  92   2.0000      -2.720678       -74.0334
  93   2.0000      -2.720657       -74.0329
  94   2.0000      -1.174089       -31.9486
  95   2.0000      -1.149341       -31.2752
  96   2.0000      -1.122178       -30.5360
  97   2.0000      -1.112702       -30.2782
  98   2.0000      -1.061216       -28.8771
  99   2.0000      -1.015110       -27.6225
 100   2.0000      -1.005565       -27.3628
 101   2.0000      -0.992680       -27.0122
 102   2.0000      -0.986811       -26.8525
 103   2.0000      -0.986716       -26.8499
 104   2.0000      -0.982103       -26.7244
 105   2.0000      -0.981273       -26.7018
 106   2.0000      -0.970980       -26.4217
 107   2.0000      -0.961458       -26.1626
 108   2.0000      -0.951381       -25.8884
 109   2.0000      -0.935282       -25.4503
 110   2.0000      -0.911954       -24.8155
 111   2.0000      -0.900730       -24.5101
 112   2.0000      -0.898896       -24.4602
 113   2.0000      -0.893401       -24.3107
 114   2.0000      -0.882507       -24.0142
 115   2.0000      -0.877476       -23.8773
 116   2.0000      -0.871027       -23.7018
 117   2.0000      -0.865853       -23.5610
 118   2.0000      -0.861784       -23.4503
 119   2.0000      -0.851603       -23.1733
 120   2.0000      -0.839152       -22.8345
 121   2.0000      -0.833430       -22.6788
 122   2.0000      -0.824410       -22.4333
 123   2.0000      -0.820338       -22.3225
 124   2.0000      -0.810987       -22.0681
 125   2.0000      -0.808824       -22.0092
 126   2.0000      -0.800096       -21.7717
 127   2.0000      -0.786536       -21.4027
 128   2.0000      -0.781009       -21.2523
 129   2.0000      -0.767492       -20.8845
 130   2.0000      -0.753027       -20.4909
 131   2.0000      -0.745900       -20.2970
 132   2.0000      -0.742744       -20.2111
 133   2.0000      -0.727403       -19.7936
 134   2.0000      -0.717876       -19.5344
 135   2.0000      -0.702977       -19.1290
 136   2.0000      -0.700308       -19.0563
 137   2.0000      -0.691482       -18.8162
 138   2.0000      -0.686293       -18.6750
 139   2.0000      -0.683630       -18.6025
 140   2.0000      -0.674013       -18.3408
 141   2.0000      -0.669766       -18.2253
 142   2.0000      -0.662213       -18.0197
 143   2.0000      -0.654218       -17.8022
 144   2.0000      -0.650328       -17.6963
 145   2.0000      -0.636095       -17.3090
 146   2.0000      -0.632675       -17.2159
 147   2.0000      -0.625880       -17.0311
 148   2.0000      -0.620418       -16.8824
 149   2.0000      -0.619053       -16.8453
 150   2.0000      -0.612993       -16.6804
 151   2.0000      -0.610836       -16.6217
 152   2.0000      -0.610471       -16.6118
 153   2.0000      -0.607540       -16.5320
 154   2.0000      -0.598537       -16.2870
 155   2.0000      -0.589673       -16.0458
 156   2.0000      -0.587252       -15.9800
 157   2.0000      -0.583148       -15.8683
 158   2.0000      -0.576571       -15.6893
 159   2.0000      -0.572298       -15.5730
 160   2.0000      -0.569009       -15.4835
 161   2.0000      -0.556470       -15.1423
 162   2.0000      -0.550264       -14.9735
 163   2.0000      -0.548827       -14.9343
 164   2.0000      -0.546094       -14.8600
 165   2.0000      -0.536525       -14.5996
 166   2.0000      -0.535172       -14.5628
 167   2.0000      -0.534529       -14.5453
 168   2.0000      -0.533771       -14.5247
 169   2.0000      -0.531459       -14.4617
 170   2.0000      -0.529779       -14.4160
 171   2.0000      -0.526717       -14.3327
 172   2.0000      -0.520373       -14.1601
 173   2.0000      -0.517875       -14.0921
 174   2.0000      -0.516358       -14.0508
 175   2.0000      -0.513182       -13.9644
 176   2.0000      -0.509687       -13.8693
 177   2.0000      -0.505338       -13.7510
 178   2.0000      -0.504571       -13.7301
 179   2.0000      -0.502463       -13.6727
 180   2.0000      -0.500728       -13.6255
 181   2.0000      -0.495705       -13.4888
 182   2.0000      -0.493484       -13.4284
 183   2.0000      -0.489936       -13.3318
 184   2.0000      -0.487473       -13.2648
 185   2.0000      -0.486288       -13.2326
 186   2.0000      -0.485303       -13.2058
 187   2.0000      -0.480997       -13.0886
 188   2.0000      -0.478304       -13.0153
 189   2.0000      -0.476767       -12.9735
 190   2.0000      -0.466967       -12.7068
 191   2.0000      -0.465879       -12.6772
 192   2.0000      -0.462620       -12.5885
 193   2.0000      -0.458507       -12.4766
 194   2.0000      -0.455379       -12.3915
 195   2.0000      -0.453870       -12.3504
 196   2.0000      -0.452292       -12.3075
 197   2.0000      -0.452126       -12.3030
 198   2.0000      -0.451096       -12.2750
 199   2.0000      -0.447210       -12.1692
 200   2.0000      -0.441898       -12.0247
 201   2.0000      -0.440241       -11.9796
 202   2.0000      -0.439761       -11.9665
 203   2.0000      -0.436761       -11.8849
 204   2.0000      -0.431305       -11.7364
 205   2.0000      -0.430993       -11.7279
 206   2.0000      -0.427126       -11.6227
 207   2.0000      -0.423437       -11.5223
 208   2.0000      -0.422661       -11.5012
 209   2.0000      -0.420121       -11.4321
 210   2.0000      -0.419540       -11.4163
 211   2.0000      -0.417560       -11.3624
 212   2.0000      -0.412540       -11.2258
 213   2.0000      -0.407774       -11.0961
 214   2.0000      -0.403369       -10.9762
 215   2.0000      -0.401662       -10.9298
 216   2.0000      -0.397213       -10.8087
 217   2.0000      -0.394876       -10.7451
 218   2.0000      -0.387102       -10.5336
 219   2.0000      -0.384769       -10.4701
 220   2.0000      -0.384305       -10.4575
 221   2.0000      -0.380148       -10.3444
 222   2.0000      -0.374769       -10.1980
 223   2.0000      -0.369661       -10.0590
 224   2.0000      -0.365002        -9.9322
 225   2.0000      -0.363805        -9.8996
 226   2.0000      -0.356170        -9.6919
 227   2.0000      -0.354470        -9.6456
 228   2.0000      -0.340543        -9.2667
 229   2.0000      -0.338618        -9.2143
 230   2.0000      -0.327037        -8.8991
 231   2.0000      -0.324229        -8.8227
 232   2.0000      -0.313862        -8.5406
 233   2.0000      -0.307798        -8.3756
 234   2.0000      -0.305815        -8.3216
 235   2.0000      -0.298685        -8.1276
 236   2.0000      -0.294015        -8.0005
 237   2.0000      -0.288846        -7.8599
 238   2.0000      -0.283180        -7.7057
 239   2.0000      -0.276926        -7.5355
 240   2.0000      -0.255749        -6.9593
 241   2.0000      -0.207537        -5.6474
 242   0.0000      -0.086584        -2.3561
 243   0.0000      -0.072889        -1.9834
 244   0.0000      -0.053316        -1.4508
 245   0.0000      -0.042309        -1.1513
 246   0.0000      -0.019320        -0.5257

MULLIKEN ATOMIC CHARGES
-----------------------
   0 C :    0.286807
   1 C :   -0.339039
   2 C :   -0.182749
   3 N :    0.145273
   4 C :   -0.213221
   5 N :    0.163526
   6 C :    0.019624
   7 C :   -0.008090
   8 C :   -0.078980
   9 C :    0.127978
  10 C :   -0.086741
  11 C :   -0.030474
  12 S :    0.180046
  13 C :   -0.129877
  14 C :    0.011512
  15 Br:    0.020204
  16 C :    0.141111
  17 O :   -0.143235
  18 C :   -0.121446
  19 C :    0.025433
  20 C :   -0.172574
  21 S :    0.141006
  22 C :   -0.101890
  23 C :   -0.098536
  24 C :    0.110054
  25 C :    0.187344
  26 C :   -0.036653
  27 C :    0.029842
  28 C :    0.012335
  29 C :    0.033608
  30 C :   -0.020073
  31 C :    0.001795
  32 N :   -0.050743
  33 C :   -0.037294
  34 C :   -0.003940
  35 N :   -0.045089
  36 C :    0.008275
  37 C :   -0.019337
  38 C :    0.026337
  39 C :    0.045091
  40 C :   -0.064915
  41 S :    0.064188
  42 C :   -0.045769
  43 C :    0.033342
  44 C :    0.032708
  45 C :    0.007787
  46 S :    0.114099
  47 C :   -0.063733
  48 C :    0.003725
  49 C :    0.125559
  50 O :   -0.310783
  51 C :    0.207518
  52 C :    0.225952
  53 O :   -0.328546
  54 C :    0.180268
  55 C :   -0.205854
  56 C :    0.097744
  57 C :    0.000351
  58 N :   -0.281188
  59 S :    0.483480
  60 N :   -0.277569
  61 H :   -0.010519
  62 H :   -0.007142
  63 H :    0.004990
  64 H :    0.030347
  65 H :    0.023304
  66 H :    0.007838
  67 H :    0.034994
  68 H :    0.043423
  69 H :    0.005163
  70 H :   -0.009092
  71 H :   -0.004679
  72 H :   -0.002197
  73 H :   -0.001426
  74 H :    0.013815
  75 H :   -0.003504
  76 H :   -0.010644
  77 H :   -0.014278
  78 H :   -0.016568
  79 H :   -0.013539
  80 H :   -0.006377
  81 H :    0.015986
  82 H :    0.029503
  83 H :    0.028188
  84 H :    0.032396
  85 H :    0.039617
  86 H :    0.030013
  87 H :   -0.035197
Sum of atomic charges:   -0.0000000

LOEWDIN ATOMIC CHARGES
----------------------
   0 C :    0.075415
   1 C :   -0.143651
   2 C :   -0.018367
   3 N :   -0.056043
   4 C :   -0.026811
   5 N :   -0.053475
   6 C :   -0.023682
   7 C :   -0.047709
   8 C :    0.019971
   9 C :   -0.032986
  10 C :   -0.145616
  11 C :   -0.010881
  12 S :    0.426844
  13 C :   -0.273272
  14 C :   -0.081984
  15 Br:    0.134464
  16 C :    0.077270
  17 O :   -0.131826
  18 C :   -0.101726
  19 C :    0.048035
  20 C :   -0.182372
  21 S :    0.448305
  22 C :   -0.165922
  23 C :   -0.053633
  24 C :   -0.044026
  25 C :   -0.009863
  26 C :   -0.013210
  27 C :   -0.005511
  28 C :   -0.016915
  29 C :   -0.019855
  30 C :   -0.024064
  31 C :    0.004703
  32 N :   -0.051220
  33 C :   -0.020596
  34 C :   -0.010677
  35 N :   -0.046634
  36 C :   -0.071051
  37 C :   -0.129402
  38 C :   -0.040538
  39 C :   -0.023229
  40 C :   -0.188664
  41 S :    0.374748
  42 C :   -0.175496
  43 C :   -0.036930
  44 C :   -0.024900
  45 C :   -0.138327
  46 S :    0.409035
  47 C :   -0.047631
  48 C :   -0.063586
  49 C :    0.055009
  50 O :   -0.091932
  51 C :    0.078616
  52 C :    0.042635
  53 O :   -0.094850
  54 C :    0.079681
  55 C :   -0.085859
  56 C :   -0.050705
  57 C :   -0.054451
  58 N :   -0.290217
  59 S :    0.630741
  60 N :   -0.294480
  61 H :    0.040829
  62 H :    0.040382
  63 H :    0.028957
  64 H :    0.044380
  65 H :    0.025640
  66 H :    0.032515
  67 H :    0.038058
  68 H :    0.038125
  69 H :    0.032021
  70 H :    0.030188
  71 H :    0.028337
  72 H :    0.034280
  73 H :    0.021308
  74 H :    0.015956
  75 H :    0.037712
  76 H :    0.033186
  77 H :    0.031991
  78 H :    0.030128
  79 H :    0.031977
  80 H :    0.034294
  81 H :    0.014511
  82 H :    0.016153
  83 H :    0.022331
  84 H :    0.020133
  85 H :    0.030199
  86 H :    0.018914
  87 H :    0.036802

  Mayer bond orders larger than 0.100000
B(  0-C ,  1-C ) :   1.6418 B(  0-C ,  6-C ) :   1.0100 B(  0-C , 18-C ) :   1.0630
B(  1-C ,  2-C ) :   1.1383 B(  1-C ,  4-C ) :   1.1417 B(  2-C ,  3-N ) :   2.9734
B(  4-C ,  5-N ) :   3.0056 B(  6-C ,  7-C ) :   1.2711 B(  6-C , 11-C ) :   1.4068
B(  7-C ,  8-C ) :   1.4248 B(  7-C , 16-C ) :   0.9360 B(  8-C ,  9-C ) :   1.2434
B(  8-C , 61-H ) :   1.0188 B(  9-C , 10-C ) :   1.3064 B(  9-C , 14-C ) :   1.1465
B( 10-C , 11-C ) :   1.3272 B( 10-C , 12-S ) :   1.0830 B( 11-C , 62-H ) :   0.9833
B( 12-S , 13-C ) :   1.0840 B( 13-C , 14-C ) :   1.6197 B( 13-C , 15-Br) :   1.0276
B( 14-C , 63-H ) :   0.9817 B( 16-C , 17-O ) :   2.1996 B( 16-C , 18-C ) :   0.9643
B( 18-C , 19-C ) :   1.5718 B( 19-C , 20-C ) :   1.2186 B( 19-C , 64-H ) :   0.9374
B( 20-C , 21-S ) :   1.1080 B( 20-C , 25-C ) :   1.3819 B( 21-S , 22-C ) :   1.1721
B( 22-C , 23-C ) :   1.5607 B( 22-C , 65-H ) :   0.9663 B( 23-C , 24-C ) :   1.0928
B( 23-C , 25-C ) :   1.2667 B( 24-C , 66-H ) :   0.9457 B( 24-C , 67-H ) :   0.9416
B( 24-C , 68-H ) :   0.9444 B( 25-C , 26-C ) :   1.0948 B( 26-C , 27-C ) :   1.6772
B( 26-C , 69-H ) :   0.9618 B( 27-C , 28-C ) :   1.1215 B( 27-C , 70-H ) :   0.9830
B( 28-C , 29-C ) :   1.6812 B( 28-C , 71-H ) :   0.9804 B( 29-C , 30-C ) :   1.0483
B( 29-C , 72-H ) :   0.9734 B( 30-C , 31-C ) :   1.2972 B( 30-C , 35-N ) :   1.4777
B( 31-C , 32-N ) :   1.6059 B( 31-C , 73-H ) :   0.9768 B( 32-N , 33-C ) :   1.4715
B( 33-C , 34-C ) :   1.2809 B( 33-C , 36-C ) :   1.0692 B( 34-C , 35-N ) :   1.6084
B( 34-C , 74-H ) :   0.9676 B( 36-C , 37-C ) :   1.6213 B( 36-C , 75-H ) :   0.9672
B( 37-C , 38-C ) :   1.1267 B( 37-C , 41-S ) :   1.0333 B( 38-C , 39-C ) :   1.6078
B( 38-C , 76-H ) :   0.9982 B( 39-C , 40-C ) :   1.1779 B( 39-C , 77-H ) :   0.9935
B( 40-C , 41-S ) :   1.0334 B( 40-C , 42-C ) :   1.5251 B( 42-C , 43-C ) :   1.1575
B( 42-C , 46-S ) :   1.0648 B( 43-C , 44-C ) :   1.6197 B( 43-C , 78-H ) :   0.9947
B( 44-C , 45-C ) :   1.1173 B( 44-C , 79-H ) :   0.9988 B( 45-C , 46-S ) :   1.0394
B( 45-C , 47-C ) :   1.6231 B( 47-C , 48-C ) :   1.1155 B( 47-C , 80-H ) :   0.9489
B( 48-C , 49-C ) :   1.4520 B( 48-C , 55-C ) :   0.1106 B( 48-C , 57-C ) :   1.1676
B( 49-C , 50-O ) :   1.2175 B( 49-C , 52-C ) :   1.1547 B( 50-O , 51-C ) :   0.9302
B( 51-C , 81-H ) :   0.9749 B( 51-C , 82-H ) :   0.9748 B( 51-C , 83-H ) :   0.9766
B( 52-C , 53-O ) :   1.1349 B( 52-C , 55-C ) :   1.3785 B( 53-O , 54-C ) :   0.9559
B( 54-C , 84-H ) :   0.9685 B( 54-C , 85-H ) :   0.9773 B( 54-C , 86-H ) :   0.9689
B( 55-C , 56-C ) :   1.1424 B( 55-C , 87-H ) :   1.0388 B( 56-C , 57-C ) :   1.1530
B( 56-C , 60-N ) :   1.5254 B( 57-C , 58-N ) :   1.5294 B( 58-N , 59-S ) :   1.2546
B( 58-N , 60-N ) :   0.1428 B( 59-S , 60-N ) :   1.2245

-----------------------------------------------------------------------------
         ABSORPTION SPECTRUM VIA TRANSITION ELECTRIC DIPOLE MOMENTS
-----------------------------------------------------------------------------
State   Energy  Wavelength   fosc         T2         TX        TY        TZ
        (cm-1)    (nm)                  (au**2)     (au)      (au)      (au)
-----------------------------------------------------------------------------
   0   14082.4    710.1   0.564016586  13.18529   0.28791   2.91138   2.15088
   1   16190.0    617.7   0.247849287   5.03983  -0.97503  -0.10395   2.01949
   2   19679.6    508.1   0.285025495   4.76807   0.13097  -2.10947  -0.54867
   3   21204.9    471.6   0.423476023   6.57457  -2.01540   0.37901   1.53918
   4   22487.9    444.7   0.105839450   1.54944   0.18112  -0.21008  -1.21346
   5   24973.1    400.4   0.309006192   4.07352   1.23475  -1.57214   0.27797
   6   25695.5    389.2   0.088513143   1.13403  -0.36949  -0.88221   0.46821
   7   26933.3    371.3   0.048662978   0.59482  -0.24458  -0.60670  -0.40855
   8   27476.0    364.0   0.780681019   9.35395  -0.30542  -2.01008   2.28479
   9   27776.5    360.0   0.299764640   3.55286  -0.17451   1.52195   1.09821
  10   28713.5    348.3   0.145252174   1.66537   1.17152  -0.50275  -0.20038
  11   29237.7    342.0   0.072731762   0.81895  -0.34259   0.83720   0.02625
  12   29385.8    340.3   0.079341856   0.88887   0.04217  -0.56434   0.75407
  13   29855.0    335.0   0.022603378   0.24925   0.20226   0.19118  -0.41447
  14   29901.9    334.4   0.062745933   0.69082   0.46712   0.15077   0.67073
  15   30725.0    325.5   0.119081346   1.27593   0.17457  -1.04434  -0.39346
  16   30819.0    324.5   0.163724937   1.74893  -0.12334  -1.31171   0.11456
  17   31334.4    319.1   0.199925742   2.10050  -0.27060  -1.38820  -0.31651
  18   31627.3    316.2   0.089354446   0.93010  -0.54645  -0.64019  -0.47080
  19   32070.2    311.8   0.063122020   0.64797  -0.31263  -0.74043  -0.04463
  20   32514.0    307.6   0.106505724   1.07839   0.20898   0.90928  -0.45600
  21   33010.6    302.9   0.347693142   3.46752  -0.84888  -1.50540  -0.69332
  22   33803.5    295.8   0.026525590   0.25833   0.16628   0.22303   0.42537
  23   33818.2    295.7   0.116287354   1.13203   0.39316   0.98592   0.07368
  24   34015.7    294.0   0.009087567   0.08795  -0.09332   0.23299   0.15798
  25   34334.2    291.3   0.104978334   1.00658   0.04938   0.49160  -0.87320
  26   34981.4    285.9   0.018057401   0.16994   0.30341   0.17214   0.21965
  27   35179.2    284.3   0.015529354   0.14533   0.13532  -0.04576   0.35344
  28   35414.3    282.4   0.015916797   0.14796   0.22051  -0.30685   0.07198
  29   35526.3    281.5   0.188433275   1.74616   0.27512   1.24768  -0.33730
  30   35882.5    278.7   0.123907639   1.13682  -0.18427   1.03432   0.18177
  31   36779.7    271.9   0.096674586   0.86533   0.61561   0.32111  -0.61907
  32   37074.7    269.7   0.013310140   0.11819   0.27051  -0.14622  -0.15374
  33   37494.3    266.7   0.045215844   0.39701  -0.48599   0.05993  -0.39652
  34   37710.1    265.2   0.002723812   0.02378   0.05796  -0.09338  -0.10816
  35   38073.6    262.6   0.058644390   0.50708  -0.68841  -0.15333   0.09829
  36   38268.6    261.3   0.283308548   2.43721   0.75878   1.30434   0.40019
  37   38500.7    259.7   0.051818033   0.44309  -0.38150   0.49870  -0.22100
  38   38905.3    257.0   0.023124184   0.19567  -0.31192  -0.31350   0.00988
  39   38987.8    256.5   0.014242159   0.12026  -0.00400   0.34648   0.01398
  40   39187.5    255.2   0.106270399   0.89277  -0.00224   0.61185   0.72000
  41   39509.8    253.1   0.011791323   0.09825   0.26796   0.03351   0.15913
  42   39622.0    252.4   0.003032755   0.02520  -0.12833   0.05330   0.07673
  43   40006.0    250.0   0.035531124   0.29239  -0.09156   0.13182  -0.51636
  44   40264.7    248.4   0.010696964   0.08746   0.14161  -0.20566   0.15847

FINAL SINGLE POINT ENERGY     -6884.554708022144

DIPOLE MOMENT
-------------
                                X             Y             Z
Electronic contribution:     64.83568     -15.10858     -35.58376
Nuclear contribution   :    -67.34946      12.59104      33.24894
                        -----------------------------------------
Total Dipole Moment    :     -2.51379      -2.51753      -2.33482
                        -----------------------------------------
Magnitude (a.u.)       :      4.25541
Magnitude (Debye)      :     10.81639

Rotational constants in cm-1:     0.001222     0.000614     0.000481
Rotational constants in MHz :    36.644419    18.394180    14.430059

                             ****ORCA TERMINATED NORMALLY****
TOTAL RUN TIME: 0 days 0 hours 7 minutes 37 seconds 903 msec
