                         Program Version 4.2.0 -  RELEASE  -
|  1> # ORCA input file
|  2> # SCF done       -176.076701215209          0.000999539040
|  3> ! CAM-B3LYP def2-SVP def2/J RIJCOSX Grid4 TightSCF
|  4> %maxcore 5000
|  5> %tddft
|  6>     Mode sTDDFT
|  7>     Ethresh 5.0
|  8>     maxcore 5000
|  9> end
| 10>
| 11> %pal
| 12>   nprocs 6
| 13>   end
| 14> * xyz 0 1
| 15>    C       -5.82677         0.57725         3.16293
| 16>    C       -5.43271         1.62228         2.37300
| 17>    C       -4.10355         2.09291         2.30479
| 18>    N       -3.04426         2.52250         2.19932
| 19>    C       -6.25108         2.33647         1.47139
| 20>    N       -6.83848         2.96937         0.71383
| 21>    C       -4.94046        -0.21161         4.00459
| 22>    C       -5.61381        -1.39846         4.38397
| 23>    C       -5.01282        -2.36415         5.15478
| 24>    C       -3.70577        -2.13102         5.60018
| 25>    C       -3.06198        -0.92039         5.24587
| 26>    C       -3.65621         0.04273         4.44252
| 27>    S       -1.47922        -0.80250         5.94010
| 28>    C       -1.68421        -2.36464         6.66875
| 29>    C       -2.88088        -2.94889         6.42098
| 30>   Br       -0.30607        -3.05523         7.72010
| 31>    C       -6.98909        -1.36709         3.83966
| 32>    O       -7.79761        -2.27305         3.85765
| 33>    C       -7.15462        -0.01828         3.25614
| 34>    C       -8.28544         0.65534         2.89662
| 35>    C       -9.67430         0.38580         2.95592
| 36>    S      -10.58545         1.31962         1.77796
| 37>    C      -12.03557         0.52040         2.19841
| 38>    C      -11.87604        -0.38239         3.20295
| 39>    C      -13.00270        -1.18334         3.76708
| 40>    C      -10.52900        -0.45059         3.67927
| 41>    C      -10.21390        -1.26816         4.81092
| 42>    C       -9.20562        -1.10224         5.69094
| 43>    C       -8.90508        -2.10740         6.65850
| 44>    C       -7.75109        -2.16975         7.35053
| 45>    C       -7.28631        -3.30092         8.11328
| 46>    C       -7.55372        -4.59494         7.87809
| 47>    C       -8.39497        -5.11208         6.75137
| 48>    C       -6.88986        -5.67448         8.70044
| 49>    N       -5.78615        -6.24078         7.95308
| 50>    C       -4.49203        -6.15696         8.30970
| 51>    C       -3.45591        -6.36432         7.45883
| 52>    C       -2.09794        -6.42020         7.86379
| 53>    S       -1.69846        -6.56844         9.54327
| 54>    C       -0.01524        -6.61744         9.17421
| 55>    C        0.25339        -6.50394         7.85419
| 56>    C        1.65606        -6.54487         7.34750
| 57>    C       -0.94306        -6.36966         7.06209
| 58>    C       -1.03937        -6.12931         5.66818
| 59>    C       -0.05055        -5.80172         4.78673
| 60>    C       -0.30879        -5.51887         3.43448
| 61>    C        0.68811        -5.23128         2.53704
| 62>    C        0.54435        -5.00336         1.16326
| 63>    C       -0.54727        -4.68475         0.38409
| 64>    C       -1.82889        -4.09146         0.63298
| 65>    C       -2.19981        -3.28176         1.68669
| 66>    C       -3.41199        -2.57322         1.73662
| 67>    N       -4.38086        -1.96127         1.83546
| 68>    C       -1.38065        -2.97082         2.78154
| 69>    N       -0.76078        -2.67967         3.70476
| 70>    C       -2.64203        -4.26912        -0.57190
| 71>    C       -1.81857        -4.77652        -1.60489
| 72>    C       -0.45745        -4.98343        -1.06669
| 73>    O        0.52505        -5.35175        -1.67350
| 74>    C       -2.28874        -5.03016        -2.86889
| 75>    C       -3.64354        -4.78336        -3.12171
| 76>    C       -4.46212        -4.29562        -2.07778
| 77>    C       -3.98260        -4.03132        -0.79958
| 78>    S       -6.10546        -4.07930        -2.60043
| 79>    C       -5.67397        -4.63634        -4.19535
| 80>    C       -4.36879        -4.96822        -4.33125
| 81>   Br       -6.99014        -4.73273        -5.52828
| 82>    H       -5.53916        -3.26728         5.42370
| 83>    H       -3.12369         0.94481         4.19152
| 84>    H       -3.16897        -3.91245         6.80294
| 85>    H       -8.09839         1.61292         2.41933
| 86>    H      -12.94267         0.76113         1.67846
| 87>    H      -13.92998        -0.93544         3.25731
| 88>    H      -13.12302        -0.97880         4.83011
| 89>    H      -12.81348        -2.24902         3.64245
| 90>    H      -10.87309        -2.11394         4.95702
| 91>    H       -8.55098        -0.24369         5.62719
| 92>    H       -9.63413        -2.89614         6.75659
| 93>    H       -7.07143        -1.32594         7.31339
| 94>    H       -6.58861        -3.06417         8.90847
| 95>    H       -8.08551        -6.11780         6.46883
| 96>    H       -8.32936        -4.46086         5.88105
| 97>    H       -9.44091        -5.17484         7.05273
| 98>    H       -7.61432        -6.46896         8.92177
| 99>    H       -6.50557        -5.28027         9.64215
|100>    H       -5.97510        -6.42196         6.97681
|101>    H       -4.30533        -5.94367         9.35352
|102>    H       -3.67525        -6.52490         6.41166
|103>    H        0.68466        -6.72393         9.97880
|104>    H        2.32247        -6.86061         8.14683
|105>    H        1.96845        -5.55351         7.02198
|106>    H        1.74944        -7.24317         6.51823
|107>    H       -2.04183        -6.16279         5.25838
|108>    H        0.97089        -5.70379         5.11053
|109>    H       -1.33177        -5.59427         3.08595
|110>    H        1.70666        -5.27723         2.90174
|111>    H        1.43697        -5.18353         0.56866
|112>    H       -1.63560        -5.40797        -3.63963
|113>    H       -4.64972        -3.66819        -0.03545
|114>    H       -3.93282        -5.32934        -5.24474
|115> *
|116>
|117>                          ****END OF INPUT****

CARTESIAN COORDINATES (ANGSTROEM)
---------------------------------
  C     -5.826770    0.577250    3.162930
  C     -5.432710    1.622280    2.373000
  C     -4.103550    2.092910    2.304790
  N     -3.044260    2.522500    2.199320
  C     -6.251080    2.336470    1.471390
  N     -6.838480    2.969370    0.713830
  C     -4.940460   -0.211610    4.004590
  C     -5.613810   -1.398460    4.383970
  C     -5.012820   -2.364150    5.154780
  C     -3.705770   -2.131020    5.600180
  C     -3.061980   -0.920390    5.245870
  C     -3.656210    0.042730    4.442520
  S     -1.479220   -0.802500    5.940100
  C     -1.684210   -2.364640    6.668750
  C     -2.880880   -2.948890    6.420980
  Br    -0.306070   -3.055230    7.720100
  C     -6.989090   -1.367090    3.839660
  O     -7.797610   -2.273050    3.857650
  C     -7.154620   -0.018280    3.256140
  C     -8.285440    0.655340    2.896620
  C     -9.674300    0.385800    2.955920
  S    -10.585450    1.319620    1.777960
  C    -12.035570    0.520400    2.198410
  C    -11.876040   -0.382390    3.202950
  C    -13.002700   -1.183340    3.767080
  C    -10.529000   -0.450590    3.679270
  C    -10.213900   -1.268160    4.810920
  C     -9.205620   -1.102240    5.690940
  C     -8.905080   -2.107400    6.658500
  C     -7.751090   -2.169750    7.350530
  C     -7.286310   -3.300920    8.113280
  C     -7.553720   -4.594940    7.878090
  C     -8.394970   -5.112080    6.751370
  C     -6.889860   -5.674480    8.700440
  N     -5.786150   -6.240780    7.953080
  C     -4.492030   -6.156960    8.309700
  C     -3.455910   -6.364320    7.458830
  C     -2.097940   -6.420200    7.863790
  S     -1.698460   -6.568440    9.543270
  C     -0.015240   -6.617440    9.174210
  C      0.253390   -6.503940    7.854190
  C      1.656060   -6.544870    7.347500
  C     -0.943060   -6.369660    7.062090
  C     -1.039370   -6.129310    5.668180
  C     -0.050550   -5.801720    4.786730
  C     -0.308790   -5.518870    3.434480
  C      0.688110   -5.231280    2.537040
  C      0.544350   -5.003360    1.163260
  C     -0.547270   -4.684750    0.384090
  C     -1.828890   -4.091460    0.632980
  C     -2.199810   -3.281760    1.686690
  C     -3.411990   -2.573220    1.736620
  N     -4.380860   -1.961270    1.835460
  C     -1.380650   -2.970820    2.781540
  N     -0.760780   -2.679670    3.704760
  C     -2.642030   -4.269120   -0.571900
  C     -1.818570   -4.776520   -1.604890
  C     -0.457450   -4.983430   -1.066690
  O      0.525050   -5.351750   -1.673500
  C     -2.288740   -5.030160   -2.868890
  C     -3.643540   -4.783360   -3.121710
  C     -4.462120   -4.295620   -2.077780
  C     -3.982600   -4.031320   -0.799580
  S     -6.105460   -4.079300   -2.600430
  C     -5.673970   -4.636340   -4.195350
  C     -4.368790   -4.968220   -4.331250
  Br    -6.990140   -4.732730   -5.528280
  H     -5.539160   -3.267280    5.423700
  H     -3.123690    0.944810    4.191520
  H     -3.168970   -3.912450    6.802940
  H     -8.098390    1.612920    2.419330
  H    -12.942670    0.761130    1.678460
  H    -13.929980   -0.935440    3.257310
  H    -13.123020   -0.978800    4.830110
  H    -12.813480   -2.249020    3.642450
  H    -10.873090   -2.113940    4.957020
  H     -8.550980   -0.243690    5.627190
  H     -9.634130   -2.896140    6.756590
  H     -7.071430   -1.325940    7.313390
  H     -6.588610   -3.064170    8.908470
  H     -8.085510   -6.117800    6.468830
  H     -8.329360   -4.460860    5.881050
  H     -9.440910   -5.174840    7.052730
  H     -7.614320   -6.468960    8.921770
  H     -6.505570   -5.280270    9.642150
  H     -5.975100   -6.421960    6.976810
  H     -4.305330   -5.943670    9.353520
  H     -3.675250   -6.524900    6.411660
  H      0.684660   -6.723930    9.978800
  H      2.322470   -6.860610    8.146830
  H      1.968450   -5.553510    7.021980
  H      1.749440   -7.243170    6.518230
  H     -2.041830   -6.162790    5.258380
  H      0.970890   -5.703790    5.110530
  H     -1.331770   -5.594270    3.085950
  H      1.706660   -5.277230    2.901740
  H      1.436970   -5.183530    0.568660
  H     -1.635600   -5.407970   -3.639630
  H     -4.649720   -3.668190   -0.035450
  H     -3.932820   -5.329340   -5.244740

 Total Charge           Charge          ....    0
 Multiplicity           Mult            ....    1
 Number of Electrons    NEL             ....  542
 Basis Dimension        Dim             .... 1155

ORBITAL ENERGIES
----------------

  NO   OCC          E(Eh)            E(eV)
   0   2.0000    -482.878776    -13139.7995
   1   2.0000    -482.869894    -13139.5578
   2   2.0000     -88.967118     -2420.9184
   3   2.0000     -88.954695     -2420.5803
   4   2.0000     -88.954490     -2420.5747
   5   2.0000     -88.951062     -2420.4814
   6   2.0000     -62.556463     -1702.2479
   7   2.0000     -62.547195     -1701.9957
   8   2.0000     -56.390402     -1534.4608
   9   2.0000     -56.387710     -1534.3876
  10   2.0000     -56.387671     -1534.3865
  11   2.0000     -56.381136     -1534.2087
  12   2.0000     -56.378476     -1534.1363
  13   2.0000     -56.378445     -1534.1355
  14   2.0000     -19.205226      -522.6008
  15   2.0000     -19.199975      -522.4579
  16   2.0000     -14.449241      -393.1838
  17   2.0000     -14.408186      -392.0667
  18   2.0000     -14.405052      -391.9814
  19   2.0000     -14.402557      -391.9135
  20   2.0000     -14.399286      -391.8245
  21   2.0000     -10.352668      -281.7104
  22   2.0000     -10.350772      -281.6588
  23   2.0000     -10.350393      -281.6485
  24   2.0000     -10.339589      -281.3545
  25   2.0000     -10.331758      -281.1414
  26   2.0000     -10.331338      -281.1300
  27   2.0000     -10.327029      -281.0128
  28   2.0000     -10.326207      -280.9904
  29   2.0000     -10.325455      -280.9699
  30   2.0000     -10.322440      -280.8879
  31   2.0000     -10.315992      -280.7124
  32   2.0000     -10.313193      -280.6363
  33   2.0000     -10.312178      -280.6086
  34   2.0000     -10.310567      -280.5648
  35   2.0000     -10.307348      -280.4772
  36   2.0000     -10.307332      -280.4768
  37   2.0000     -10.306246      -280.4472
  38   2.0000     -10.305773      -280.4343
  39   2.0000     -10.302800      -280.3534
  40   2.0000     -10.300925      -280.3024
  41   2.0000     -10.297542      -280.2104
  42   2.0000     -10.297402      -280.2065
  43   2.0000     -10.297258      -280.2026
  44   2.0000     -10.296731      -280.1883
  45   2.0000     -10.295854      -280.1644
  46   2.0000     -10.293123      -280.0901
  47   2.0000     -10.290917      -280.0301
  48   2.0000     -10.290576      -280.0208
  49   2.0000     -10.290229      -280.0114
  50   2.0000     -10.288754      -279.9712
  51   2.0000     -10.288642      -279.9682
  52   2.0000     -10.288569      -279.9662
  53   2.0000     -10.287019      -279.9240
  54   2.0000     -10.286894      -279.9206
  55   2.0000     -10.284587      -279.8578
  56   2.0000     -10.282895      -279.8118
  57   2.0000     -10.282146      -279.7914
  58   2.0000     -10.280777      -279.7542
  59   2.0000     -10.278721      -279.6982
  60   2.0000     -10.278464      -279.6912
  61   2.0000     -10.277416      -279.6627
  62   2.0000     -10.276340      -279.6334
  63   2.0000     -10.275977      -279.6236
  64   2.0000     -10.275798      -279.6187
  65   2.0000     -10.275713      -279.6164
  66   2.0000     -10.275697      -279.6159
  67   2.0000     -10.274002      -279.5698
  68   2.0000     -10.273345      -279.5519
  69   2.0000     -10.273134      -279.5462
  70   2.0000     -10.272647      -279.5329
  71   2.0000     -10.272552      -279.5303
  72   2.0000     -10.270801      -279.4827
  73   2.0000     -10.270519      -279.4750
  74   2.0000     -10.267889      -279.4035
  75   2.0000      -8.785879      -239.0759
  76   2.0000      -8.776503      -238.8208
  77   2.0000      -8.063096      -219.4080
  78   2.0000      -8.050796      -219.0733
  79   2.0000      -8.050324      -219.0605
  80   2.0000      -8.047501      -218.9836
  81   2.0000      -6.622101      -180.1965
  82   2.0000      -6.612638      -179.9390
  83   2.0000      -6.607635      -179.8029
  84   2.0000      -6.607469      -179.7984
  85   2.0000      -6.598440      -179.5527
  86   2.0000      -6.598028      -179.5415
  87   2.0000      -6.032776      -164.1602
  88   2.0000      -6.028535      -164.0448
  89   2.0000      -6.024329      -163.9303
  90   2.0000      -6.020045      -163.8138
  91   2.0000      -6.019969      -163.8117
  92   2.0000      -6.016798      -163.7254
  93   2.0000      -6.015764      -163.6973
  94   2.0000      -6.015716      -163.6959
  95   2.0000      -6.013055      -163.6235
  96   2.0000      -6.012597      -163.6111
  97   2.0000      -6.011547      -163.5825
  98   2.0000      -6.009550      -163.5282
  99   2.0000      -2.738035       -74.5057
 100   2.0000      -2.733899       -74.3932
 101   2.0000      -2.733779       -74.3899
 102   2.0000      -2.728557       -74.2478
 103   2.0000      -2.724613       -74.1405
 104   2.0000      -2.724343       -74.1332
 105   2.0000      -2.722270       -74.0767
 106   2.0000      -2.722268       -74.0767
 107   2.0000      -2.713029       -73.8253
 108   2.0000      -2.713005       -73.8246
 109   2.0000      -1.118210       -30.4280
 110   2.0000      -1.114709       -30.3328
 111   2.0000      -1.051195       -28.6045
 112   2.0000      -1.013551       -27.5801
 113   2.0000      -1.007812       -27.4240
 114   2.0000      -1.004005       -27.3204
 115   2.0000      -0.997539       -27.1444
 116   2.0000      -0.988826       -26.9073
 117   2.0000      -0.986618       -26.8472
 118   2.0000      -0.983812       -26.7709
 119   2.0000      -0.979710       -26.6593
 120   2.0000      -0.978720       -26.6323
 121   2.0000      -0.972947       -26.4752
 122   2.0000      -0.934075       -25.4175
 123   2.0000      -0.928986       -25.2790
 124   2.0000      -0.927243       -25.2316
 125   2.0000      -0.919925       -25.0324
 126   2.0000      -0.905365       -24.6362
 127   2.0000      -0.898822       -24.4582
 128   2.0000      -0.893078       -24.3019
 129   2.0000      -0.892758       -24.2932
 130   2.0000      -0.890389       -24.2287
 131   2.0000      -0.885758       -24.1027
 132   2.0000      -0.876274       -23.8446
 133   2.0000      -0.868398       -23.6303
 134   2.0000      -0.868202       -23.6250
 135   2.0000      -0.866823       -23.5875
 136   2.0000      -0.858247       -23.3541
 137   2.0000      -0.843606       -22.9557
 138   2.0000      -0.835674       -22.7399
 139   2.0000      -0.827919       -22.5288
 140   2.0000      -0.819727       -22.3059
 141   2.0000      -0.812570       -22.1112
 142   2.0000      -0.808900       -22.0113
 143   2.0000      -0.798290       -21.7226
 144   2.0000      -0.788187       -21.4476
 145   2.0000      -0.780257       -21.2319
 146   2.0000      -0.766425       -20.8555
 147   2.0000      -0.759618       -20.6703
 148   2.0000      -0.746120       -20.3030
 149   2.0000      -0.744702       -20.2644
 150   2.0000      -0.743389       -20.2286
 151   2.0000      -0.738535       -20.0966
 152   2.0000      -0.717483       -19.5237
 153   2.0000      -0.709820       -19.3152
 154   2.0000      -0.704079       -19.1590
 155   2.0000      -0.689497       -18.7622
 156   2.0000      -0.687813       -18.7164
 157   2.0000      -0.677621       -18.4390
 158   2.0000      -0.677157       -18.4264
 159   2.0000      -0.667815       -18.1722
 160   2.0000      -0.666588       -18.1388
 161   2.0000      -0.658364       -17.9150
 162   2.0000      -0.653077       -17.7711
 163   2.0000      -0.645598       -17.5676
 164   2.0000      -0.642776       -17.4908
 165   2.0000      -0.637790       -17.3552
 166   2.0000      -0.637012       -17.3340
 167   2.0000      -0.622110       -16.9285
 168   2.0000      -0.616427       -16.7738
 169   2.0000      -0.613116       -16.6837
 170   2.0000      -0.612569       -16.6688
 171   2.0000      -0.602605       -16.3977
 172   2.0000      -0.602277       -16.3888
 173   2.0000      -0.588901       -16.0248
 174   2.0000      -0.585246       -15.9254
 175   2.0000      -0.583601       -15.8806
 176   2.0000      -0.577795       -15.7226
 177   2.0000      -0.573627       -15.6092
 178   2.0000      -0.570877       -15.5344
 179   2.0000      -0.567376       -15.4391
 180   2.0000      -0.564377       -15.3575
 181   2.0000      -0.556753       -15.1500
 182   2.0000      -0.544729       -14.8228
 183   2.0000      -0.543341       -14.7851
 184   2.0000      -0.537614       -14.6292
 185   2.0000      -0.536048       -14.5866
 186   2.0000      -0.532872       -14.5002
 187   2.0000      -0.529453       -14.4071
 188   2.0000      -0.527759       -14.3610
 189   2.0000      -0.527324       -14.3492
 190   2.0000      -0.526863       -14.3367
 191   2.0000      -0.523147       -14.2356
 192   2.0000      -0.520263       -14.1571
 193   2.0000      -0.515207       -14.0195
 194   2.0000      -0.513596       -13.9757
 195   2.0000      -0.511743       -13.9252
 196   2.0000      -0.510091       -13.8803
 197   2.0000      -0.504485       -13.7277
 198   2.0000      -0.503911       -13.7121
 199   2.0000      -0.501753       -13.6534
 200   2.0000      -0.499919       -13.6035
 201   2.0000      -0.498883       -13.5753
 202   2.0000      -0.498319       -13.5599
 203   2.0000      -0.496212       -13.5026
 204   2.0000      -0.494962       -13.4686
 205   2.0000      -0.489175       -13.3111
 206   2.0000      -0.485755       -13.2181
 207   2.0000      -0.485436       -13.2094
 208   2.0000      -0.481693       -13.1075
 209   2.0000      -0.481193       -13.0939
 210   2.0000      -0.478608       -13.0236
 211   2.0000      -0.477224       -12.9859
 212   2.0000      -0.475008       -12.9256
 213   2.0000      -0.471168       -12.8211
 214   2.0000      -0.468479       -12.7480
 215   2.0000      -0.466433       -12.6923
 216   2.0000      -0.462483       -12.5848
 217   2.0000      -0.459008       -12.4902
 218   2.0000      -0.457812       -12.4577
 219   2.0000      -0.454786       -12.3754
 220   2.0000      -0.450459       -12.2576
 221   2.0000      -0.447926       -12.1887
 222   2.0000      -0.445238       -12.1156
 223   2.0000      -0.443707       -12.0739
 224   2.0000      -0.442306       -12.0357
 225   2.0000      -0.441486       -12.0135
 226   2.0000      -0.440475       -11.9859
 227   2.0000      -0.438919       -11.9436
 228   2.0000      -0.436832       -11.8868
 229   2.0000      -0.435994       -11.8640
 230   2.0000      -0.434911       -11.8345
 231   2.0000      -0.432990       -11.7823
 232   2.0000      -0.431269       -11.7354
 233   2.0000      -0.429253       -11.6806
 234   2.0000      -0.425830       -11.5874
 235   2.0000      -0.421566       -11.4714
 236   2.0000      -0.421094       -11.4586
 237   2.0000      -0.417382       -11.3575
 238   2.0000      -0.416356       -11.3296
 239   2.0000      -0.415695       -11.3116
 240   2.0000      -0.412351       -11.2206
 241   2.0000      -0.411455       -11.1962
 242   2.0000      -0.409215       -11.1353
 243   2.0000      -0.408881       -11.1262
 244   2.0000      -0.401807       -10.9337
 245   2.0000      -0.401235       -10.9182
 246   2.0000      -0.394933       -10.7467
 247   2.0000      -0.393981       -10.7208
 248   2.0000      -0.391692       -10.6585
 249   2.0000      -0.380698       -10.3593
 250   2.0000      -0.374574       -10.1927
 251   2.0000      -0.370435       -10.0801
 252   2.0000      -0.368245       -10.0205
 253   2.0000      -0.363960        -9.9038
 254   2.0000      -0.358095        -9.7443
 255   2.0000      -0.357605        -9.7309
 256   2.0000      -0.346795        -9.4368
 257   2.0000      -0.339079        -9.2268
 258   2.0000      -0.333707        -9.0806
 259   2.0000      -0.324227        -8.8227
 260   2.0000      -0.324049        -8.8178
 261   2.0000      -0.318044        -8.6544
 262   2.0000      -0.312249        -8.4967
 263   2.0000      -0.305952        -8.3254
 264   2.0000      -0.294680        -8.0186
 265   2.0000      -0.285989        -7.7822
 266   2.0000      -0.283509        -7.7147
 267   2.0000      -0.275179        -7.4880
 268   2.0000      -0.270830        -7.3696
 269   2.0000      -0.254339        -6.9209
 270   2.0000      -0.232913        -6.3379
 271   0.0000      -0.085678        -2.3314
 272   0.0000      -0.077810        -2.1173
 273   0.0000      -0.051890        -1.4120
 274   0.0000      -0.044763        -1.2181
 275   0.0000      -0.020198        -0.5496

MULLIKEN ATOMIC CHARGES
-----------------------
   0 C :    0.308119
   1 C :   -0.349443
   2 C :   -0.189371
   3 N :    0.149291
   4 C :   -0.195807
   5 N :    0.151492
   6 C :    0.025870
   7 C :    0.024400
   8 C :   -0.099066
   9 C :    0.129653
  10 C :   -0.094971
  11 C :   -0.024133
  12 S :    0.197047
  13 C :   -0.098146
  14 C :    0.050887
  15 Br:    0.016846
  16 C :    0.125454
  17 O :   -0.145465
  18 C :   -0.066386
  19 C :    0.009552
  20 C :   -0.188941
  21 S :    0.138343
  22 C :   -0.101986
  23 C :   -0.106293
  24 C :    0.117949
  25 C :    0.189400
  26 C :   -0.054795
  27 C :    0.061857
  28 C :    0.005845
  29 C :   -0.007086
  30 C :    0.011920
  31 C :   -0.213288
  32 C :    0.060976
  33 C :    0.219429
  34 N :   -0.150109
  35 C :    0.049591
  36 C :   -0.039238
  37 C :   -0.116622
  38 S :    0.089657
  39 C :   -0.126909
  40 C :   -0.092537
  41 C :    0.126427
  42 C :    0.141636
  43 C :   -0.005301
  44 C :   -0.014821
  45 C :    0.062209
  46 C :   -0.005603
  47 C :    0.049089
  48 C :   -0.146707
  49 C :    0.297684
  50 C :   -0.364168
  51 C :   -0.160936
  52 N :    0.128316
  53 C :   -0.196346
  54 N :    0.160516
  55 C :   -0.010895
  56 C :    0.014205
  57 C :    0.129007
  58 O :   -0.154738
  59 C :   -0.075736
  60 C :    0.110657
  61 C :   -0.092649
  62 C :   -0.021844
  63 S :    0.179949
  64 C :   -0.125291
  65 C :    0.042019
  66 Br:    0.016494
  67 H :   -0.034887
  68 H :   -0.010068
  69 H :   -0.051716
  70 H :    0.017511
  71 H :    0.022475
  72 H :    0.008859
  73 H :    0.031652
  74 H :    0.034986
  75 H :   -0.021215
  76 H :   -0.002801
  77 H :   -0.015796
  78 H :    0.002786
  79 H :   -0.016443
  80 H :   -0.004676
  81 H :    0.064635
  82 H :    0.040536
  83 H :    0.014728
  84 H :    0.014939
  85 H :    0.122105
  86 H :    0.016654
  87 H :   -0.017912
  88 H :    0.009695
  89 H :    0.003617
  90 H :    0.037368
  91 H :    0.030357
  92 H :   -0.029307
  93 H :   -0.024341
  94 H :    0.005936
  95 H :   -0.007019
  96 H :    0.026129
  97 H :   -0.012736
  98 H :   -0.006996
  99 H :   -0.005212
Sum of atomic charges:   -0.0000000

LOEWDIN ATOMIC CHARGES
----------------------
   0 C :    0.087859
   1 C :   -0.142664
   2 C :   -0.016530
   3 N :   -0.058766
   4 C :   -0.024032
   5 N :   -0.057087
   6 C :   -0.018497
   7 C :   -0.046664
   8 C :    0.008585
   9 C :   -0.034710
  10 C :   -0.145065
  11 C :   -0.010248
  12 S :    0.453307
  13 C :   -0.264855
  14 C :   -0.081638
  15 Br:    0.150090
  16 C :    0.083051
  17 O :   -0.135749
  18 C :   -0.087260
  19 C :    0.031407
  20 C :   -0.172848
  21 S :    0.458418
  22 C :   -0.175880
  23 C :   -0.059020
  24 C :   -0.044983
  25 C :   -0.027130
  26 C :   -0.022633
  27 C :    0.006532
  28 C :   -0.013726
  29 C :   -0.032278
  30 C :   -0.043550
  31 C :   -0.041261
  32 C :   -0.055794
  33 C :    0.049584
  34 N :    0.007879
  35 C :    0.051973
  36 C :   -0.154417
  37 C :   -0.126436
  38 S :    0.417862
  39 C :   -0.203671
  40 C :   -0.048707
  41 C :   -0.045103
  42 C :   -0.097786
  43 C :    0.032609
  44 C :   -0.050703
  45 C :    0.060971
  46 C :   -0.066595
  47 C :    0.070663
  48 C :   -0.116632
  49 C :    0.069998
  50 C :   -0.163627
  51 C :   -0.006764
  52 N :   -0.073018
  53 C :   -0.013193
  54 N :   -0.059599
  55 C :   -0.018584
  56 C :   -0.050509
  57 C :    0.081575
  58 O :   -0.153120
  59 C :    0.020109
  60 C :   -0.035808
  61 C :   -0.145132
  62 C :   -0.015532
  63 S :    0.427794
  64 C :   -0.274298
  65 C :   -0.070282
  66 Br:    0.131291
  67 H :    0.032004
  68 H :    0.039396
  69 H :    0.032233
  70 H :    0.042282
  71 H :    0.025053
  72 H :    0.033520
  73 H :    0.036953
  74 H :    0.036214
  75 H :    0.027040
  76 H :    0.028351
  77 H :    0.026562
  78 H :    0.028955
  79 H :    0.026531
  80 H :    0.019829
  81 H :    0.043968
  82 H :    0.039310
  83 H :    0.023704
  84 H :    0.030535
  85 H :    0.077165
  86 H :    0.023824
  87 H :    0.023055
  88 H :    0.019640
  89 H :    0.032970
  90 H :    0.033166
  91 H :    0.034667
  92 H :    0.027922
  93 H :    0.028756
  94 H :    0.031412
  95 H :    0.032286
  96 H :    0.046367
  97 H :    0.040127
  98 H :    0.039058
  99 H :    0.037973

  Mayer bond orders larger than 0.100000
B(  0-C ,  1-C ) :   1.6391 B(  0-C ,  6-C ) :   0.9968 B(  0-C , 18-C ) :   1.0556
B(  1-C ,  2-C ) :   1.1418 B(  1-C ,  4-C ) :   1.1387 B(  2-C ,  3-N ) :   2.9838
B(  4-C ,  5-N ) :   2.9883 B(  6-C ,  7-C ) :   1.2668 B(  6-C , 11-C ) :   1.4040
B(  7-C ,  8-C ) :   1.4201 B(  7-C , 16-C ) :   0.9194 B(  8-C ,  9-C ) :   1.2463
B(  8-C , 67-H ) :   1.0143 B(  9-C , 10-C ) :   1.2922 B(  9-C , 14-C ) :   1.1646
B( 10-C , 11-C ) :   1.3261 B( 10-C , 12-S ) :   1.1002 B( 11-C , 68-H ) :   0.9833
B( 12-S , 13-C ) :   1.0984 B( 13-C , 14-C ) :   1.6077 B( 13-C , 15-Br) :   1.0181
B( 14-C , 69-H ) :   1.0006 B( 16-C , 17-O ) :   2.1997 B( 16-C , 18-C ) :   0.9573
B( 18-C , 19-C ) :   1.6372 B( 19-C , 20-C ) :   1.1937 B( 19-C , 70-H ) :   0.9006
B( 20-C , 21-S ) :   1.1320 B( 20-C , 25-C ) :   1.3898 B( 21-S , 22-C ) :   1.1668
B( 22-C , 23-C ) :   1.5695 B( 22-C , 71-H ) :   0.9663 B( 23-C , 24-C ) :   1.0973
B( 23-C , 25-C ) :   1.2385 B( 24-C , 72-H ) :   0.9497 B( 24-C , 73-H ) :   0.9421
B( 24-C , 74-H ) :   0.9419 B( 25-C , 26-C ) :   1.1155 B( 26-C , 27-C ) :   1.6970
B( 26-C , 75-H ) :   0.9487 B( 27-C , 28-C ) :   1.1169 B( 27-C , 76-H ) :   0.9681
B( 28-C , 29-C ) :   1.7182 B( 28-C , 77-H ) :   0.9827 B( 29-C , 30-C ) :   1.0894
B( 29-C , 78-H ) :   0.9563 B( 30-C , 31-C ) :   1.8373 B( 30-C , 79-H ) :   0.9544
B( 31-C , 32-C ) :   1.0722 B( 31-C , 33-C ) :   1.0411 B( 32-C , 80-H ) :   0.9463
B( 32-C , 81-H ) :   0.9441 B( 32-C , 82-H ) :   0.9385 B( 33-C , 34-N ) :   0.9899
B( 33-C , 83-H ) :   0.9318 B( 33-C , 84-H ) :   0.9406 B( 34-N , 35-C ) :   1.2732
B( 34-N , 85-H ) :   0.9348 B( 35-C , 36-C ) :   1.5646 B( 35-C , 86-H ) :   0.9627
B( 36-C , 37-C ) :   1.2041 B( 36-C , 87-H ) :   0.9557 B( 37-C , 38-S ) :   1.1626
B( 37-C , 42-C ) :   1.3697 B( 38-S , 39-C ) :   1.0869 B( 39-C , 40-C ) :   1.6603
B( 39-C , 88-H ) :   0.9643 B( 40-C , 41-C ) :   1.1029 B( 40-C , 42-C ) :   1.1680
B( 41-C , 89-H ) :   0.9408 B( 41-C , 90-H ) :   0.9341 B( 41-C , 91-H ) :   0.9431
B( 42-C , 43-C ) :   1.1595 B( 43-C , 44-C ) :   1.5593 B( 43-C , 92-H ) :   0.9627
B( 44-C , 45-C ) :   1.2139 B( 44-C , 93-H ) :   0.9864 B( 45-C , 46-C ) :   1.4948
B( 45-C , 94-H ) :   0.9767 B( 46-C , 47-C ) :   1.2514 B( 46-C , 95-H ) :   0.9643
B( 47-C , 48-C ) :   1.5218 B( 47-C , 96-H ) :   0.9298 B( 48-C , 49-C ) :   1.1063
B( 48-C , 57-C ) :   0.9653 B( 49-C , 50-C ) :   1.5690 B( 49-C , 55-C ) :   0.9898
B( 50-C , 51-C ) :   1.1562 B( 50-C , 53-C ) :   1.1913 B( 51-C , 52-N ) :   2.9181
B( 53-C , 54-N ) :   2.9419 B( 55-C , 56-C ) :   1.2813 B( 55-C , 62-C ) :   1.4210
B( 56-C , 57-C ) :   0.9157 B( 56-C , 59-C ) :   1.4321 B( 57-C , 58-O ) :   2.2466
B( 59-C , 60-C ) :   1.2446 B( 59-C , 97-H ) :   1.0154 B( 60-C , 61-C ) :   1.3191
B( 60-C , 65-C ) :   1.1612 B( 61-C , 62-C ) :   1.3239 B( 61-C , 63-S ) :   1.0812
B( 62-C , 98-H ) :   0.9813 B( 63-S , 64-C ) :   1.0867 B( 64-C , 65-C ) :   1.6209
B( 64-C , 66-Br) :   1.0154 B( 65-C , 99-H ) :   0.9995

-----------------------------------------------------------------------------
         ABSORPTION SPECTRUM VIA TRANSITION ELECTRIC DIPOLE MOMENTS
-----------------------------------------------------------------------------
State   Energy  Wavelength   fosc         T2         TX        TY        TZ
        (cm-1)    (nm)                  (au**2)     (au)      (au)      (au)
-----------------------------------------------------------------------------
   0   15637.2    639.5   0.519439367  10.93583   0.29711   0.96603  -3.14870
   1   19834.7    504.2   0.201511268   3.34463   0.93162   0.89262  -1.29613
   2   21750.9    459.8   0.074474706   1.12722  -0.83264  -0.10426   0.65044
   3   23509.8    425.4   0.191081118   2.67575   1.54330  -0.48133  -0.24962
   4   24318.6    411.2   0.166922956   2.25971   0.37891   0.22370  -1.43739
   5   24989.0    400.2   0.038651266   0.50920  -0.50750   0.18879   0.46477
   6   25207.5    396.7   0.092690620   1.21055  -0.49651   0.65483  -0.73158
   7   25685.4    389.3   0.109833188   1.40774  -0.99662   0.22522  -0.60314
   8   26421.2    378.5   0.080536801   1.00350   0.19605   0.75043  -0.63397
   9   26931.0    371.3   0.188613959   2.30567   1.44734  -0.30377  -0.34439
  10   27551.3    363.0   0.211922338   2.53227  -1.53012   0.42404  -0.10579
  11   27750.1    360.4   0.370195522   4.39179   0.99915   0.40564   1.79693
  12   28884.1    346.2   0.022528740   0.25678   0.12003   0.41751  -0.26088
  13   29443.6    339.6   0.015263861   0.17067   0.39944  -0.08494   0.06243
  14   29593.2    337.9   0.032064802   0.35671  -0.32961   0.24574  -0.43321
  15   29672.0    337.0   0.054058033   0.59978   0.65307  -0.20031   0.36490
  16   29732.1    336.3   0.003162949   0.03502  -0.12774  -0.00740   0.13656
  17   30368.0    329.3   0.001591510   0.01725   0.07739   0.08517   0.06333
  18   31321.0    319.3   0.142772831   1.50067  -1.01572   0.48486  -0.48363
  19   31372.8    318.7   0.127565157   1.33861   1.04125  -0.01171   0.50425
  20   31932.2    313.2   0.137819490   1.42088  -0.63938   0.16515   0.99237
  21   32084.6    311.7   0.093092988   0.95520   0.19431  -0.79328  -0.53680
  22   32301.9    309.6   0.313111360   3.19114   0.70610  -1.29829   1.00350
  23   32517.5    307.5   0.013870765   0.14043   0.30102   0.06278  -0.21419
  24   32991.0    303.1   0.086473538   0.86291  -0.33841   0.16513  -0.84919
  25   33069.1    302.4   0.132102619   1.31512   0.28969  -0.30710   1.06625
  26   33290.9    300.4   0.310090687   3.06647   0.32731  -0.58714  -1.61697
  27   33976.3    294.3   0.204339573   1.97994  -1.17614   0.10617  -0.76508
  28   34199.8    292.4   0.479132986   4.61220   2.02908   0.11523   0.69408
  29   34633.5    288.7   0.005121662   0.04868  -0.09849   0.02470  -0.19589
  30   34779.8    287.5   0.126848669   1.20070  -0.37480   0.58057  -0.85039
  31   35267.6    283.5   0.926621688   8.64973   1.34464  -1.56278   2.09747
  32   35467.6    281.9   0.022309350   0.20708   0.33922  -0.01803   0.30279
  33   35909.1    278.5   0.371270464   3.40378  -0.85756   1.17102  -1.13889
  34   36430.2    274.5   0.014934150   0.13496   0.25045  -0.20528  -0.17346
  35   36824.5    271.6   0.187341768   1.67484   1.07670   0.71023  -0.10547
  36   37561.8    266.2   0.008890898   0.07792   0.26156  -0.02147  -0.09512
  37   37732.8    265.0   0.087025566   0.75928   0.76729  -0.26314  -0.31828
  38   37848.1    264.2   0.002759219   0.02400   0.10029  -0.11146  -0.03897
  39   37907.7    263.8   0.015816429   0.13736  -0.31310   0.19704  -0.02243
  40   38313.0    261.0   0.000780797   0.00671  -0.04888  -0.02766  -0.05962
  41   38684.6    258.5   0.023432793   0.19942   0.07625   0.06375  -0.43536
  42   38940.4    256.8   0.053897981   0.45567   0.62042  -0.22512  -0.14164
  43   39058.4    256.0   0.025055734   0.21119  -0.03604   0.00046  -0.45814
  44   39152.0    255.4   0.018435268   0.15501   0.13467  -0.25960  -0.26361
  45   39322.8    254.3   0.074396689   0.62285  -0.76430  -0.00464  -0.19667
  46   39432.8    253.6   0.007268521   0.06068  -0.10871   0.19039   0.11232
  47   39661.8    252.1   0.017937333   0.14889   0.27198   0.26892   0.05093
  48   39757.1    251.5   0.008548339   0.07079   0.15649  -0.20906  -0.05090
  49   40090.9    249.4   0.190742531   1.56631  -1.20502  -0.20997  -0.26487

FINAL SINGLE POINT ENERGY     -9238.641313924394

DIPOLE MOMENT
-------------
                                X             Y             Z
Electronic contribution:     36.38077      11.14807     -93.55026
Nuclear contribution   :    -38.70460     -14.61245      96.30660
                        -----------------------------------------
Total Dipole Moment    :     -2.32383      -3.46438       2.75635
                        -----------------------------------------
Magnitude (a.u.)       :      4.99996
Magnitude (Debye)      :     12.70888

Rotational constants in cm-1:     0.000905     0.000644     0.000472
Rotational constants in MHz :    27.144841    19.295884    14.144800

                             ****ORCA TERMINATED NORMALLY****
TOTAL RUN TIME: 0 days 0 hours 10 minutes 26 seconds 445 msec
