                         Program Version 4.2.0 -  RELEASE  -
|  1> # ORCA input file
|  2> # SCF done       -132.023927790069          0.000312277936
|  3> ! CAM-B3LYP def2-SVP def2/J RIJCOSX Grid4 TightSCF
|  4> %maxcore 5000
|  5> %tddft
|  6>     Mode sTDDFT
|  7>     Ethresh 5.0
|  8>     maxcore 5000
|  9> end
| 10>
| 11> %pal
| 12>   nprocs 6
| 13>   end
| 14> * xyz 0 1
| 15>    C       -1.51480         7.28425         2.18573
| 16>    N       -1.87414         6.29389         1.41442
| 17>    N       -1.47891         5.06309         1.60768
| 18>    C       -0.71654         4.69538         2.62660
| 19>    C       -0.28337         5.69905         3.54739
| 20>    C       -0.68432         7.05188         3.30073
| 21>    N       -0.19780         7.89455         4.21076
| 22>    S        0.67380         7.05554         5.27172
| 23>    N        0.47788         5.58903         4.62851
| 24>    C       -0.36880         3.32148         2.81952
| 25>    S        0.45931         2.90418         4.29381
| 26>    C        0.31491         1.23212         3.94081
| 27>    C       -0.33403         0.98102         2.77514
| 28>    C       -0.57746        -0.39391         2.24537
| 29>    C       -0.71552         2.17945         2.09027
| 30>    C       -1.34675         2.10252         0.80770
| 31>    C       -1.19553         2.98139        -0.21464
| 32>    C       -1.80642         2.89480        -1.48943
| 33>    C       -2.60663         1.88319        -1.94771
| 34>    C       -3.23084         1.82142        -3.20582
| 35>    C       -3.50668         2.86531        -4.06282
| 36>    C       -3.49509         4.26275        -3.84703
| 37>    C       -3.84238         5.00063        -4.94030
| 38>    C       -4.14609         4.23293        -6.08474
| 39>    S       -4.02905         2.53088        -5.71134
| 40>    C       -4.47534         4.69649        -7.34700
| 41>    C       -4.55098         6.03806        -7.77614
| 42>    C       -4.84928         6.17547        -9.09808
| 43>    C       -5.02613         4.95138        -9.78861
| 44>    S       -4.81990         3.61155        -8.67842
| 45>    C       -5.28150         4.84122       -11.13577
| 46>    C       -5.46649         3.67868       -11.89210
| 47>    S       -5.48234         2.10048       -11.15411
| 48>    C       -5.71841         1.35642       -12.68436
| 49>    C       -5.75904         2.23222       -13.72376
| 50>    C       -6.00455         1.77104       -15.12297
| 51>    C       -5.61222         3.58793       -13.29537
| 52>    C       -5.60980         4.74866       -14.12249
| 53>    C       -5.32866         4.82936       -15.44851
| 54>    C       -5.33543         6.06241       -16.14713
| 55>    C       -4.98231         6.18966       -17.44943
| 56>    C       -4.96799         7.44463       -18.13559
| 57>    N       -5.33129         8.55210       -17.50506
| 58>    N       -5.33398         9.72805       -18.07808
| 59>    C       -4.97511         9.91234       -19.32016
| 60>    C       -4.55990         8.82435       -20.11627
| 61>    C       -4.55719         7.53058       -19.50026
| 62>    N       -4.15004         6.57613       -20.32975
| 63>    S       -3.80404         7.25230       -21.75247
| 64>    N       -4.15288         8.77955       -21.38418
| 65>    H       -1.88013         8.26707         1.93262
| 66>    H        0.72526         0.51424         4.62430
| 67>    H       -0.13948        -1.13407         2.90985
| 68>    H       -0.13657        -0.50581         1.25591
| 69>    H       -1.64657        -0.58986         2.16721
| 70>    H       -1.92941         1.20539         0.64700
| 71>    H       -0.55206         3.83322        -0.06158
| 72>    H       -1.57004         3.69972        -2.17004
| 73>    H       -2.72643         1.00193        -1.33100
| 74>    H       -3.53097         0.83824        -3.54663
| 75>    H       -3.28641         4.68837        -2.88276
| 76>    H       -3.89228         6.07463        -4.94768
| 77>    H       -4.37758         6.86175        -7.10756
| 78>    H       -4.94335         7.12001        -9.60440
| 79>    H       -5.32918         5.78127       -11.66893
| 80>    H       -5.82291         0.28993       -12.73129
| 81>    H       -6.40084         0.75807       -15.11180
| 82>    H       -5.07790         1.76192       -15.69629
| 83>    H       -6.71782         2.42379       -15.62173
| 84>    H       -5.82373         5.68408       -13.62078
| 85>    H       -5.03695         3.95706       -16.01098
| 86>    H       -5.62698         6.95778       -15.61496
| 87>    H       -4.67926         5.33163       -18.03375
| 88>    H       -5.01089        10.92162       -19.69995
| 89> *
| 90>
| 91>                          ****END OF INPUT****

CARTESIAN COORDINATES (ANGSTROEM)
---------------------------------
  C     -1.514800    7.284250    2.185730
  N     -1.874140    6.293890    1.414420
  N     -1.478910    5.063090    1.607680
  C     -0.716540    4.695380    2.626600
  C     -0.283370    5.699050    3.547390
  C     -0.684320    7.051880    3.300730
  N     -0.197800    7.894550    4.210760
  S      0.673800    7.055540    5.271720
  N      0.477880    5.589030    4.628510
  C     -0.368800    3.321480    2.819520
  S      0.459310    2.904180    4.293810
  C      0.314910    1.232120    3.940810
  C     -0.334030    0.981020    2.775140
  C     -0.577460   -0.393910    2.245370
  C     -0.715520    2.179450    2.090270
  C     -1.346750    2.102520    0.807700
  C     -1.195530    2.981390   -0.214640
  C     -1.806420    2.894800   -1.489430
  C     -2.606630    1.883190   -1.947710
  C     -3.230840    1.821420   -3.205820
  C     -3.506680    2.865310   -4.062820
  C     -3.495090    4.262750   -3.847030
  C     -3.842380    5.000630   -4.940300
  C     -4.146090    4.232930   -6.084740
  S     -4.029050    2.530880   -5.711340
  C     -4.475340    4.696490   -7.347000
  C     -4.550980    6.038060   -7.776140
  C     -4.849280    6.175470   -9.098080
  C     -5.026130    4.951380   -9.788610
  S     -4.819900    3.611550   -8.678420
  C     -5.281500    4.841220  -11.135770
  C     -5.466490    3.678680  -11.892100
  S     -5.482340    2.100480  -11.154110
  C     -5.718410    1.356420  -12.684360
  C     -5.759040    2.232220  -13.723760
  C     -6.004550    1.771040  -15.122970
  C     -5.612220    3.587930  -13.295370
  C     -5.609800    4.748660  -14.122490
  C     -5.328660    4.829360  -15.448510
  C     -5.335430    6.062410  -16.147130
  C     -4.982310    6.189660  -17.449430
  C     -4.967990    7.444630  -18.135590
  N     -5.331290    8.552100  -17.505060
  N     -5.333980    9.728050  -18.078080
  C     -4.975110    9.912340  -19.320160
  C     -4.559900    8.824350  -20.116270
  C     -4.557190    7.530580  -19.500260
  N     -4.150040    6.576130  -20.329750
  S     -3.804040    7.252300  -21.752470
  N     -4.152880    8.779550  -21.384180
  H     -1.880130    8.267070    1.932620
  H      0.725260    0.514240    4.624300
  H     -0.139480   -1.134070    2.909850
  H     -0.136570   -0.505810    1.255910
  H     -1.646570   -0.589860    2.167210
  H     -1.929410    1.205390    0.647000
  H     -0.552060    3.833220   -0.061580
  H     -1.570040    3.699720   -2.170040
  H     -2.726430    1.001930   -1.331000
  H     -3.530970    0.838240   -3.546630
  H     -3.286410    4.688370   -2.882760
  H     -3.892280    6.074630   -4.947680
  H     -4.377580    6.861750   -7.107560
  H     -4.943350    7.120010   -9.604400
  H     -5.329180    5.781270  -11.668930
  H     -5.822910    0.289930  -12.731290
  H     -6.400840    0.758070  -15.111800
  H     -5.077900    1.761920  -15.696290
  H     -6.717820    2.423790  -15.621730
  H     -5.823730    5.684080  -13.620780
  H     -5.036950    3.957060  -16.010980
  H     -5.626980    6.957780  -15.614960
  H     -4.679260    5.331630  -18.033750
  H     -5.010890   10.921620  -19.699950

 Total Charge           Charge          ....    0
 Multiplicity           Mult            ....    1
 Number of Electrons    NEL             ....  392
 Basis Dimension        Dim             ....  844

ORBITAL ENERGIES
----------------

  NO   OCC          E(Eh)            E(eV)
   0   2.0000     -89.037067     -2422.8218
   1   2.0000     -89.031252     -2422.6635
   2   2.0000     -88.947500     -2420.3845
   3   2.0000     -88.943957     -2420.2881
   4   2.0000     -88.942893     -2420.2592
   5   2.0000     -88.938983     -2420.1528
   6   2.0000     -14.452894      -393.2832
   7   2.0000     -14.450672      -393.2228
   8   2.0000     -14.447414      -393.1341
   9   2.0000     -14.444752      -393.0617
  10   2.0000     -14.434731      -392.7890
  11   2.0000     -14.427988      -392.6055
  12   2.0000     -14.424391      -392.5076
  13   2.0000     -14.420208      -392.3938
  14   2.0000     -10.333834      -281.1979
  15   2.0000     -10.333206      -281.1808
  16   2.0000     -10.331840      -281.1437
  17   2.0000     -10.325868      -280.9812
  18   2.0000     -10.325428      -280.9692
  19   2.0000     -10.319907      -280.8190
  20   2.0000     -10.312026      -280.6045
  21   2.0000     -10.307289      -280.4756
  22   2.0000     -10.306480      -280.4536
  23   2.0000     -10.305091      -280.4158
  24   2.0000     -10.304444      -280.3982
  25   2.0000     -10.303062      -280.3606
  26   2.0000     -10.299602      -280.2664
  27   2.0000     -10.293840      -280.1096
  28   2.0000     -10.283914      -279.8395
  29   2.0000     -10.283043      -279.8158
  30   2.0000     -10.281791      -279.7818
  31   2.0000     -10.281081      -279.7624
  32   2.0000     -10.280250      -279.7398
  33   2.0000     -10.280048      -279.7343
  34   2.0000     -10.279472      -279.7187
  35   2.0000     -10.279268      -279.7131
  36   2.0000     -10.278597      -279.6948
  37   2.0000     -10.274624      -279.5867
  38   2.0000     -10.274392      -279.5804
  39   2.0000     -10.274085      -279.5721
  40   2.0000     -10.273947      -279.5683
  41   2.0000     -10.271011      -279.4884
  42   2.0000     -10.270958      -279.4870
  43   2.0000     -10.267248      -279.3860
  44   2.0000     -10.264425      -279.3092
  45   2.0000     -10.264325      -279.3065
  46   2.0000     -10.264078      -279.2998
  47   2.0000     -10.263470      -279.2832
  48   2.0000     -10.262219      -279.2492
  49   2.0000     -10.260815      -279.2110
  50   2.0000      -8.128730      -221.1940
  51   2.0000      -8.123059      -221.0397
  52   2.0000      -8.043321      -218.8699
  53   2.0000      -8.039152      -218.7564
  54   2.0000      -8.038845      -218.7481
  55   2.0000      -8.035552      -218.6585
  56   2.0000      -6.099876      -165.9861
  57   2.0000      -6.094128      -165.8297
  58   2.0000      -6.092110      -165.7747
  59   2.0000      -6.091266      -165.7518
  60   2.0000      -6.086443      -165.6205
  61   2.0000      -6.085673      -165.5996
  62   2.0000      -6.012587      -163.6108
  63   2.0000      -6.008625      -163.5030
  64   2.0000      -6.008568      -163.5014
  65   2.0000      -6.008303      -163.4942
  66   2.0000      -6.005561      -163.4196
  67   2.0000      -6.005245      -163.4110
  68   2.0000      -6.004463      -163.3897
  69   2.0000      -6.003999      -163.3771
  70   2.0000      -6.001353      -163.3051
  71   2.0000      -6.001269      -163.3028
  72   2.0000      -5.999796      -163.2627
  73   2.0000      -5.996449      -163.1717
  74   2.0000      -1.139043       -30.9949
  75   2.0000      -1.132200       -30.8087
  76   2.0000      -1.106607       -30.1123
  77   2.0000      -1.099373       -29.9155
  78   2.0000      -0.995832       -27.0980
  79   2.0000      -0.991837       -26.9892
  80   2.0000      -0.984444       -26.7881
  81   2.0000      -0.979266       -26.6472
  82   2.0000      -0.974908       -26.5286
  83   2.0000      -0.966097       -26.2888
  84   2.0000      -0.927945       -25.2507
  85   2.0000      -0.921824       -25.0841
  86   2.0000      -0.909569       -24.7506
  87   2.0000      -0.905826       -24.6488
  88   2.0000      -0.900383       -24.5007
  89   2.0000      -0.897204       -24.4142
  90   2.0000      -0.888592       -24.1798
  91   2.0000      -0.873809       -23.7775
  92   2.0000      -0.856288       -23.3008
  93   2.0000      -0.853383       -23.2217
  94   2.0000      -0.845617       -23.0104
  95   2.0000      -0.837635       -22.7932
  96   2.0000      -0.829733       -22.5782
  97   2.0000      -0.817535       -22.2463
  98   2.0000      -0.809255       -22.0209
  99   2.0000      -0.795665       -21.6512
 100   2.0000      -0.785955       -21.3869
 101   2.0000      -0.768160       -20.9027
 102   2.0000      -0.760566       -20.6961
 103   2.0000      -0.759799       -20.6752
 104   2.0000      -0.745731       -20.2924
 105   2.0000      -0.734960       -19.9993
 106   2.0000      -0.729605       -19.8536
 107   2.0000      -0.726574       -19.7711
 108   2.0000      -0.709721       -19.3125
 109   2.0000      -0.705968       -19.2104
 110   2.0000      -0.691439       -18.8150
 111   2.0000      -0.679687       -18.4952
 112   2.0000      -0.671065       -18.2606
 113   2.0000      -0.658520       -17.9192
 114   2.0000      -0.650649       -17.7051
 115   2.0000      -0.644491       -17.5375
 116   2.0000      -0.641391       -17.4531
 117   2.0000      -0.628848       -17.1118
 118   2.0000      -0.622047       -16.9268
 119   2.0000      -0.619576       -16.8595
 120   2.0000      -0.616655       -16.7800
 121   2.0000      -0.610298       -16.6070
 122   2.0000      -0.606572       -16.5057
 123   2.0000      -0.596807       -16.2400
 124   2.0000      -0.587153       -15.9772
 125   2.0000      -0.585564       -15.9340
 126   2.0000      -0.571829       -15.5603
 127   2.0000      -0.567502       -15.4425
 128   2.0000      -0.564665       -15.3653
 129   2.0000      -0.560807       -15.2603
 130   2.0000      -0.556627       -15.1466
 131   2.0000      -0.553467       -15.0606
 132   2.0000      -0.552539       -15.0354
 133   2.0000      -0.550778       -14.9874
 134   2.0000      -0.542782       -14.7698
 135   2.0000      -0.529995       -14.4219
 136   2.0000      -0.518175       -14.1003
 137   2.0000      -0.513361       -13.9693
 138   2.0000      -0.512290       -13.9401
 139   2.0000      -0.507200       -13.8016
 140   2.0000      -0.503801       -13.7091
 141   2.0000      -0.503191       -13.6925
 142   2.0000      -0.498566       -13.5667
 143   2.0000      -0.496358       -13.5066
 144   2.0000      -0.493037       -13.4162
 145   2.0000      -0.491688       -13.3795
 146   2.0000      -0.489893       -13.3307
 147   2.0000      -0.488058       -13.2807
 148   2.0000      -0.486665       -13.2428
 149   2.0000      -0.483940       -13.1687
 150   2.0000      -0.480210       -13.0672
 151   2.0000      -0.476139       -12.9564
 152   2.0000      -0.469896       -12.7865
 153   2.0000      -0.466583       -12.6964
 154   2.0000      -0.464930       -12.6514
 155   2.0000      -0.458654       -12.4806
 156   2.0000      -0.455247       -12.3879
 157   2.0000      -0.447836       -12.1862
 158   2.0000      -0.447648       -12.1811
 159   2.0000      -0.447100       -12.1662
 160   2.0000      -0.439269       -11.9531
 161   2.0000      -0.437753       -11.9119
 162   2.0000      -0.435670       -11.8552
 163   2.0000      -0.431353       -11.7377
 164   2.0000      -0.425602       -11.5812
 165   2.0000      -0.423368       -11.5204
 166   2.0000      -0.421941       -11.4816
 167   2.0000      -0.420870       -11.4525
 168   2.0000      -0.415202       -11.2982
 169   2.0000      -0.412782       -11.2324
 170   2.0000      -0.410712       -11.1760
 171   2.0000      -0.406829       -11.0704
 172   2.0000      -0.403167       -10.9707
 173   2.0000      -0.402460       -10.9515
 174   2.0000      -0.387012       -10.5311
 175   2.0000      -0.384156       -10.4534
 176   2.0000      -0.376767       -10.2524
 177   2.0000      -0.374665       -10.1951
 178   2.0000      -0.371830       -10.1180
 179   2.0000      -0.365577        -9.9479
 180   2.0000      -0.364175        -9.9097
 181   2.0000      -0.360714        -9.8155
 182   2.0000      -0.356854        -9.7105
 183   2.0000      -0.354847        -9.6559
 184   2.0000      -0.348808        -9.4916
 185   2.0000      -0.333573        -9.0770
 186   2.0000      -0.322940        -8.7876
 187   2.0000      -0.321725        -8.7546
 188   2.0000      -0.310065        -8.4373
 189   2.0000      -0.296490        -8.0679
 190   2.0000      -0.286843        -7.8054
 191   2.0000      -0.286487        -7.7957
 192   2.0000      -0.281738        -7.6665
 193   2.0000      -0.264761        -7.2045
 194   2.0000      -0.244699        -6.6586
 195   2.0000      -0.197473        -5.3735
 196   0.0000      -0.090674        -2.4674
 197   0.0000      -0.076638        -2.0854
 198   0.0000      -0.066368        -1.8060
 199   0.0000      -0.027992        -0.7617
 200   0.0000      -0.008102        -0.2205

MULLIKEN ATOMIC CHARGES
-----------------------
   0 C :   -0.037976
   1 N :   -0.038283
   2 N :   -0.090466
   3 C :    0.063498
   4 C :   -0.021979
   5 C :    0.063757
   6 N :   -0.257453
   7 S :    0.525768
   8 N :   -0.284840
   9 C :   -0.208151
  10 S :    0.141581
  11 C :   -0.099832
  12 C :   -0.092675
  13 C :    0.118679
  14 C :    0.133166
  15 C :   -0.062225
  16 C :    0.106394
  17 C :   -0.023916
  18 C :    0.025746
  19 C :    0.040022
  20 C :   -0.066271
  21 C :    0.029882
  22 C :    0.007990
  23 C :   -0.048666
  24 S :    0.091240
  25 C :   -0.035299
  26 C :    0.030442
  27 C :    0.024631
  28 C :   -0.040648
  29 S :    0.076447
  30 C :   -0.013664
  31 C :   -0.107109
  32 S :    0.102601
  33 C :   -0.110099
  34 C :   -0.091536
  35 C :    0.116639
  36 C :    0.137550
  37 C :   -0.035527
  38 C :    0.008640
  39 C :    0.066903
  40 C :   -0.066135
  41 C :   -0.007623
  42 N :   -0.084073
  43 N :   -0.037289
  44 C :   -0.041144
  45 C :    0.063520
  46 C :    0.020812
  47 N :   -0.258502
  48 S :    0.512590
  49 N :   -0.258456
  50 H :   -0.002601
  51 H :    0.012308
  52 H :    0.005057
  53 H :    0.029659
  54 H :    0.030750
  55 H :   -0.023544
  56 H :   -0.013599
  57 H :   -0.008707
  58 H :   -0.012334
  59 H :   -0.010654
  60 H :    0.006462
  61 H :   -0.010671
  62 H :   -0.014359
  63 H :   -0.011156
  64 H :   -0.018464
  65 H :    0.013269
  66 H :    0.005852
  67 H :    0.038396
  68 H :    0.031004
  69 H :   -0.007543
  70 H :   -0.023513
  71 H :    0.010887
  72 H :   -0.012321
  73 H :   -0.002841
Sum of atomic charges:   -0.0000000

LOEWDIN ATOMIC CHARGES
----------------------
   0 C :   -0.011816
   1 N :   -0.039026
   2 N :   -0.060792
   3 C :   -0.011756
   4 C :   -0.068429
   5 C :   -0.069206
   6 N :   -0.273307
   7 S :    0.659306
   8 N :   -0.284154
   9 C :   -0.197704
  10 S :    0.462954
  11 C :   -0.184185
  12 C :   -0.062753
  13 C :   -0.045636
  14 C :   -0.022247
  15 C :   -0.031801
  16 C :    0.011668
  17 C :   -0.028026
  18 C :   -0.017123
  19 C :   -0.059081
  20 C :   -0.138505
  21 C :   -0.035836
  22 C :   -0.028368
  23 C :   -0.176414
  24 S :    0.375386
  25 C :   -0.181066
  26 C :   -0.035740
  27 C :   -0.034385
  28 C :   -0.150588
  29 S :    0.372451
  30 C :   -0.076080
  31 C :   -0.158678
  32 S :    0.431804
  33 C :   -0.195462
  34 C :   -0.050973
  35 C :   -0.044750
  36 C :   -0.068462
  37 C :    0.004110
  38 C :   -0.037882
  39 C :    0.034588
  40 C :   -0.058425
  41 C :   -0.000776
  42 N :   -0.071530
  43 N :   -0.036911
  44 C :   -0.011090
  45 C :   -0.070655
  46 C :   -0.064290
  47 N :   -0.274378
  48 S :    0.654236
  49 N :   -0.276827
  50 H :    0.031296
  51 H :    0.021120
  52 H :    0.031821
  53 H :    0.035744
  54 H :    0.034371
  55 H :    0.022442
  56 H :    0.028309
  57 H :    0.028182
  58 H :    0.027612
  59 H :    0.029125
  60 H :    0.037986
  61 H :    0.032619
  62 H :    0.031759
  63 H :    0.033446
  64 H :    0.036915
  65 H :    0.021007
  66 H :    0.032298
  67 H :    0.034683
  68 H :    0.035805
  69 H :    0.029727
  70 H :    0.026214
  71 H :    0.035057
  72 H :    0.029997
  73 H :    0.031074

  Mayer bond orders larger than 0.100000
B(  0-C ,  1-N ) :   1.7306 B(  0-C ,  5-C ) :   1.1223 B(  0-C , 50-H ) :   1.0149
B(  1-N ,  2-N ) :   1.1959 B(  2-N ,  3-C ) :   1.6697 B(  3-C ,  4-C ) :   1.0742
B(  3-C ,  9-C ) :   1.1878 B(  4-C ,  5-C ) :   1.2090 B(  4-C ,  8-N ) :   1.5231
B(  5-C ,  6-N ) :   1.5102 B(  6-N ,  7-S ) :   1.2847 B(  6-N ,  8-N ) :   0.1469
B(  7-S ,  8-N ) :   1.2599 B(  9-C , 10-S ) :   1.1433 B(  9-C , 14-C ) :   1.3933
B( 10-S , 11-C ) :   1.1368 B( 11-C , 12-C ) :   1.5830 B( 11-C , 51-H ) :   0.9670
B( 12-C , 13-C ) :   1.0955 B( 12-C , 14-C ) :   1.2343 B( 13-C , 52-H ) :   0.9497
B( 13-C , 53-H ) :   0.9440 B( 13-C , 54-H ) :   0.9412 B( 14-C , 15-C ) :   1.1315
B( 15-C , 16-C ) :   1.6881 B( 15-C , 55-H ) :   0.9348 B( 16-C , 17-C ) :   1.1890
B( 16-C , 56-H ) :   0.9577 B( 17-C , 18-C ) :   1.6166 B( 17-C , 57-H ) :   0.9687
B( 18-C , 19-C ) :   1.2384 B( 18-C , 58-H ) :   0.9536 B( 19-C , 20-C ) :   1.5468
B( 19-C , 59-H ) :   0.9455 B( 20-C , 21-C ) :   1.1677 B( 20-C , 24-S ) :   1.0422
B( 21-C , 22-C ) :   1.5808 B( 21-C , 60-H ) :   0.9893 B( 22-C , 23-C ) :   1.1993
B( 22-C , 61-H ) :   0.9952 B( 23-C , 24-S ) :   1.0569 B( 23-C , 25-C ) :   1.4844
B( 25-C , 26-C ) :   1.1982 B( 25-C , 29-S ) :   1.0401 B( 26-C , 27-C ) :   1.5769
B( 26-C , 62-H ) :   0.9930 B( 27-C , 28-C ) :   1.1533 B( 27-C , 63-H ) :   1.0001
B( 28-C , 29-S ) :   1.0389 B( 28-C , 30-C ) :   1.5576 B( 30-C , 31-C ) :   1.2214
B( 30-C , 64-H ) :   0.9573 B( 31-C , 32-S ) :   1.1253 B( 31-C , 36-C ) :   1.3520
B( 32-S , 33-C ) :   1.1251 B( 33-C , 34-C ) :   1.5992 B( 33-C , 65-H ) :   0.9658
B( 34-C , 35-C ) :   1.0942 B( 34-C , 36-C ) :   1.2398 B( 35-C , 66-H ) :   0.9451
B( 35-C , 67-H ) :   0.9385 B( 35-C , 68-H ) :   0.9456 B( 36-C , 37-C ) :   1.1099
B( 37-C , 38-C ) :   1.6337 B( 37-C , 69-H ) :   0.9635 B( 38-C , 39-C ) :   1.1168
B( 38-C , 70-H ) :   0.9861 B( 39-C , 40-C ) :   1.6068 B( 39-C , 71-H ) :   0.9850
B( 40-C , 41-C ) :   1.1408 B( 40-C , 72-H ) :   0.9830 B( 41-C , 42-N ) :   1.6752
B( 41-C , 44-C ) :   0.1037 B( 41-C , 46-C ) :   1.0753 B( 42-N , 43-N ) :   1.1979
B( 43-N , 44-C ) :   1.7307 B( 44-C , 45-C ) :   1.1221 B( 44-C , 73-H ) :   1.0161
B( 45-C , 46-C ) :   1.2051 B( 45-C , 49-N ) :   1.5071 B( 46-C , 47-N ) :   1.5673
B( 47-N , 48-S ) :   1.2683 B( 47-N , 49-N ) :   0.1494 B( 48-S , 49-N ) :   1.2827

-----------------------------------------------------------------------------
         ABSORPTION SPECTRUM VIA TRANSITION ELECTRIC DIPOLE MOMENTS
-----------------------------------------------------------------------------
State   Energy  Wavelength   fosc         T2         TX        TY        TZ
        (cm-1)    (nm)                  (au**2)     (au)      (au)      (au)
-----------------------------------------------------------------------------
   0   10730.0    932.0   1.660493676  50.94641   1.78852  -0.39388   6.89873
   1   14660.9    682.1   0.469930664  10.55235  -0.16915   1.70843  -2.75772
   2   17638.8    566.9   0.081153432   1.51465  -0.83143  -0.12624  -0.89858
   3   18527.4    539.7   0.012540903   0.22284  -0.35911  -0.29124  -0.09519
   4   19909.0    502.3   0.000033127   0.00055  -0.02328   0.00043  -0.00236
   5   20739.3    482.2   0.078372906   1.24408  -0.29690  -0.87964   0.61818
   6   23554.6    424.5   0.050029388   0.69924  -0.15436   0.54772   0.61271
   7   24258.9    412.2   0.165502938   2.24600   0.57176   0.60850  -1.24452
   8   25456.4    392.8   0.205916675   2.66300  -0.29784   1.55325  -0.40214
   9   25929.1    385.7   0.243805082   3.09550  -0.35858   1.64478  -0.51148
  10   26699.2    374.5   0.004238137   0.05226  -0.13134  -0.06968   0.17364
  11   28385.4    352.3   0.063533565   0.73686  -0.04582   0.62541  -0.58619
  12   29033.7    344.4   0.056371606   0.63920  -0.09971  -0.16548  -0.77580
  13   30171.2    331.4   0.039978269   0.43622   0.06060  -0.29967   0.58544
  14   31195.9    320.6   0.009816955   0.10360  -0.13453  -0.29234  -0.00615
  15   31415.5    318.3   0.017635501   0.18481  -0.03476  -0.31457  -0.29094
  16   31475.1    317.7   0.059284365   0.62008   0.18931   0.74082  -0.18823
  17   31694.7    315.5   0.003753226   0.03898   0.02929  -0.17178  -0.09283
  18   32063.7    311.9   0.049468938   0.50792   0.00104   0.71245   0.01831
  19   32451.4    308.2   0.059790266   0.60656   0.21630  -0.33493   0.66902
  20   33029.3    302.8   0.000823663   0.00821  -0.08465  -0.00514  -0.03191
  21   33807.9    295.8   0.025524849   0.24855  -0.07682  -0.48199  -0.10166
  22   34617.8    288.9   0.068204408   0.64862  -0.02789  -0.26740  -0.75917
  23   34913.6    286.4   0.061734055   0.58211   0.12022  -0.62000  -0.42809
  24   35324.5    283.1   0.065196856   0.60761  -0.23081   0.24694  -0.70239
  25   36090.7    277.1   0.005620936   0.05127   0.13674   0.16096   0.08165
  26   36312.8    275.4   0.075609334   0.68547  -0.12042  -0.29478   0.76425
  27   36798.9    271.7   0.061804006   0.55291  -0.19749  -0.56609  -0.43984
  28   37191.6    268.9   0.141735206   1.25461  -0.06907  -1.06561   0.33809
  29   37993.7    263.2   0.027397331   0.23740  -0.10209   0.41473  -0.23446
  30   38001.8    263.1   0.034894106   0.30229  -0.00487  -0.49901   0.23076
  31   38227.4    261.6   0.047560527   0.40959   0.10659   0.44831  -0.44412
  32   38703.9    258.4   0.041842817   0.35591   0.15916   0.55432  -0.15268
  33   38934.3    256.8   0.011144146   0.09423  -0.02232   0.24713  -0.18071
  34   39742.1    251.6   0.022004734   0.18228  -0.00984  -0.41419  -0.10310
  35   40193.5    248.8   0.144900603   1.18683  -0.02796  -1.01109   0.40467

FINAL SINGLE POINT ENERGY     -4210.160567730007

DIPOLE MOMENT
-------------
                                X             Y             Z
Electronic contribution:      9.57326      24.24176       5.11403
Nuclear contribution   :     -8.61064     -25.37246      -4.03654
                        -----------------------------------------
Total Dipole Moment    :      0.96262      -1.13070       1.07749
                        -----------------------------------------
Magnitude (a.u.)       :      1.83469
Magnitude (Debye)      :      4.66342

Rotational constants in cm-1:     0.003450     0.000267     0.000253
Rotational constants in MHz :   103.419322     7.989754     7.572081

                             ****ORCA TERMINATED NORMALLY****
TOTAL RUN TIME: 0 days 0 hours 5 minutes 11 seconds 180 msec
