                         Program Version 4.2.0 -  RELEASE  -
|  1> # ORCA input file
|  2> # SCF done       -171.263514420247          0.000323808613
|  3> ! CAM-B3LYP def2-SVP def2/J RIJCOSX Grid4 TightSCF
|  4> %maxcore 5000
|  5> %tddft
|  6>     Mode sTDDFT
|  7>     Ethresh 5.0
|  8>     maxcore 5000
|  9> end
| 10>
| 11> %pal
| 12>   nprocs 6
| 13>   end
| 14> * xyz 0 1
| 15>    C       10.73123       -12.73312        -0.80365
| 16>    C        9.54316       -12.66182        -0.19152
| 17>    C        8.40548       -11.87089        -0.56837
| 18>    C        7.33756       -12.00517         0.24546
| 19>    C        7.53100       -12.91116         1.32525
| 20>    S        9.15091       -13.58712         1.26597
| 21>    C        6.62834       -13.26248         2.29181
| 22>    C        6.81193       -14.19245         3.34640
| 23>    C        5.72440       -14.34703         4.13780
| 24>    C        4.60312       -13.53894         3.78550
| 25>    S        5.00591       -12.56726         2.37397
| 26>    C        3.40213       -13.60549         4.43667
| 27>    C        2.17099       -12.94390         4.23358
| 28>    S        0.77607       -13.74359         4.94312
| 29>    C       -0.30147       -12.62282         4.21932
| 30>    C        0.35325       -11.68899         3.48961
| 31>    C        1.76739       -11.82086         3.51794
| 32>    C        2.57967       -10.79310         2.91568
| 33>    C        3.65940       -10.18758         3.44638
| 34>    C        4.15179       -10.41306         4.86116
| 35>    C        3.00990       -10.20962         5.80449
| 36>    S        2.12476        -8.71742         5.76869
| 37>    C        1.03381        -9.27740         6.99844
| 38>    C       -0.05305        -8.39192         7.50362
| 39>    C        0.50052        -7.30296         8.42494
| 40>    C        1.36112       -10.53287         7.39796
| 41>    C        2.48077       -11.06426         6.71630
| 42>    C        4.27522        -9.08265         2.72936
| 43>    O        3.49437        -8.11838         2.17877
| 44>    C        4.27338        -7.15782         1.72163
| 45>    C        5.60298        -7.45903         1.94832
| 46>    N        6.63389        -6.51999         1.78853
| 47>    O        7.69981        -6.73219         2.34181
| 48>    O        6.38009        -5.51369         1.14811
| 49>    C        5.61646        -8.74920         2.57934
| 50>    N        6.64371        -9.57556         2.92437
| 51>    C        7.91697        -9.66531         2.42212
| 52>    S        8.44042        -8.88476         0.96424
| 53>    C       10.00821        -9.56820         1.12586
| 54>    C       10.11953       -10.33533         2.23685
| 55>    C        8.91952       -10.42268         2.98563
| 56>    C        8.79448       -11.25079         4.18582
| 57>    C        9.57704       -11.09736         5.25940
| 58>    C        9.57501       -12.10225         6.39022
| 59>    C        8.18290       -12.42043         6.83028
| 60>    S        7.68369       -14.06186         7.09110
| 61>    C        6.09008       -13.55626         7.56671
| 62>    C        5.08218       -14.55435         8.02553
| 63>    C        5.36913       -15.00961         9.45783
| 64>    C        5.98153       -12.20353         7.51519
| 65>    C        7.16670       -11.55866         7.09389
| 66>    C       10.41205        -9.90436         5.38925
| 67>    C        9.85592        -8.67377         5.37451
| 68>    C       10.47849        -7.38700         5.32590
| 69>    C        9.61492        -6.34966         5.23223
| 70>    C        8.24318        -6.72648         5.24316
| 71>    S        8.10270        -8.46023         5.41280
| 72>    C        7.12439        -5.95403         5.10101
| 73>    C        7.02511        -4.56455         4.80995
| 74>    C        5.76396        -4.12520         4.61179
| 75>    C        4.74861        -5.13254         4.74985
| 76>    S        5.51776        -6.66742         5.18227
| 77>    C        3.42679        -5.00838         4.57961
| 78>    H       10.92698       -12.15412        -1.68868
| 79>    H       11.52091       -13.36286        -0.43709
| 80>    H        8.44463       -11.23419        -1.43398
| 81>    H        6.39702       -11.49482         0.12505
| 82>    H        7.74452       -14.71590         3.46597
| 83>    H        5.67519       -15.02032         4.97418
| 84>    H        3.36438       -14.36603         5.20952
| 85>    H       -1.35622       -12.72359         4.38138
| 86>    H       -0.14090       -10.88639         2.97087
| 87>    H        2.21214       -10.42076         1.96732
| 88>    H        4.93549        -9.68557         5.09143
| 89>    H        4.55131       -11.41833         5.01264
| 90>    H       -0.77805        -9.00070         8.04825
| 91>    H       -0.56511        -7.92147         6.66074
| 92>    H        0.99228        -7.75084         9.28546
| 93>    H       -0.30303        -6.66100         8.77737
| 94>    H        1.22660        -6.69366         7.89142
| 95>    H        0.81488       -11.07474         8.14998
| 96>    H        2.86902       -12.05124         6.89526
| 97>    H        3.83324        -6.28626         1.28002
| 98>    H        6.39359       -10.32766         3.55308
| 99>    H       10.75425        -9.33965         0.39222
|100>    H       11.01943       -10.85130         2.51930
|101>    H        8.08922       -12.07299         4.14608
|102>    H       10.14267       -11.69789         7.23414
|103>    H       10.07012       -13.02237         6.06653
|104>    H        5.09150       -15.42838         7.36908
|105>    H        4.08950       -14.10018         7.97976
|106>    H        6.35229       -15.47141         9.51439
|107>    H        4.62474       -15.73305         9.78127
|108>    H        5.34741       -14.15873        10.13476
|109>    H        5.08508       -11.66967         7.77555
|110>    H        7.25776       -10.49238         6.99129
|111>    H       11.47980       -10.01472         5.51830
|112>    H       11.55053        -7.29400         5.31794
|113>    H        9.91014        -5.31866         5.14970
|114>    H        7.90480        -3.95170         4.72564
|115>    H        5.49800        -3.11591         4.35259
|116>    H        2.99495        -4.05857         4.31811
|117>    H        2.76249        -5.84470         4.70309
|118> *
|119>
|120>                          ****END OF INPUT****

CARTESIAN COORDINATES (ANGSTROEM)
---------------------------------
  C     10.731230  -12.733120   -0.803650
  C      9.543160  -12.661820   -0.191520
  C      8.405480  -11.870890   -0.568370
  C      7.337560  -12.005170    0.245460
  C      7.531000  -12.911160    1.325250
  S      9.150910  -13.587120    1.265970
  C      6.628340  -13.262480    2.291810
  C      6.811930  -14.192450    3.346400
  C      5.724400  -14.347030    4.137800
  C      4.603120  -13.538940    3.785500
  S      5.005910  -12.567260    2.373970
  C      3.402130  -13.605490    4.436670
  C      2.170990  -12.943900    4.233580
  S      0.776070  -13.743590    4.943120
  C     -0.301470  -12.622820    4.219320
  C      0.353250  -11.688990    3.489610
  C      1.767390  -11.820860    3.517940
  C      2.579670  -10.793100    2.915680
  C      3.659400  -10.187580    3.446380
  C      4.151790  -10.413060    4.861160
  C      3.009900  -10.209620    5.804490
  S      2.124760   -8.717420    5.768690
  C      1.033810   -9.277400    6.998440
  C     -0.053050   -8.391920    7.503620
  C      0.500520   -7.302960    8.424940
  C      1.361120  -10.532870    7.397960
  C      2.480770  -11.064260    6.716300
  C      4.275220   -9.082650    2.729360
  O      3.494370   -8.118380    2.178770
  C      4.273380   -7.157820    1.721630
  C      5.602980   -7.459030    1.948320
  N      6.633890   -6.519990    1.788530
  O      7.699810   -6.732190    2.341810
  O      6.380090   -5.513690    1.148110
  C      5.616460   -8.749200    2.579340
  N      6.643710   -9.575560    2.924370
  C      7.916970   -9.665310    2.422120
  S      8.440420   -8.884760    0.964240
  C     10.008210   -9.568200    1.125860
  C     10.119530  -10.335330    2.236850
  C      8.919520  -10.422680    2.985630
  C      8.794480  -11.250790    4.185820
  C      9.577040  -11.097360    5.259400
  C      9.575010  -12.102250    6.390220
  C      8.182900  -12.420430    6.830280
  S      7.683690  -14.061860    7.091100
  C      6.090080  -13.556260    7.566710
  C      5.082180  -14.554350    8.025530
  C      5.369130  -15.009610    9.457830
  C      5.981530  -12.203530    7.515190
  C      7.166700  -11.558660    7.093890
  C     10.412050   -9.904360    5.389250
  C      9.855920   -8.673770    5.374510
  C     10.478490   -7.387000    5.325900
  C      9.614920   -6.349660    5.232230
  C      8.243180   -6.726480    5.243160
  S      8.102700   -8.460230    5.412800
  C      7.124390   -5.954030    5.101010
  C      7.025110   -4.564550    4.809950
  C      5.763960   -4.125200    4.611790
  C      4.748610   -5.132540    4.749850
  S      5.517760   -6.667420    5.182270
  C      3.426790   -5.008380    4.579610
  H     10.926980  -12.154120   -1.688680
  H     11.520910  -13.362860   -0.437090
  H      8.444630  -11.234190   -1.433980
  H      6.397020  -11.494820    0.125050
  H      7.744520  -14.715900    3.465970
  H      5.675190  -15.020320    4.974180
  H      3.364380  -14.366030    5.209520
  H     -1.356220  -12.723590    4.381380
  H     -0.140900  -10.886390    2.970870
  H      2.212140  -10.420760    1.967320
  H      4.935490   -9.685570    5.091430
  H      4.551310  -11.418330    5.012640
  H     -0.778050   -9.000700    8.048250
  H     -0.565110   -7.921470    6.660740
  H      0.992280   -7.750840    9.285460
  H     -0.303030   -6.661000    8.777370
  H      1.226600   -6.693660    7.891420
  H      0.814880  -11.074740    8.149980
  H      2.869020  -12.051240    6.895260
  H      3.833240   -6.286260    1.280020
  H      6.393590  -10.327660    3.553080
  H     10.754250   -9.339650    0.392220
  H     11.019430  -10.851300    2.519300
  H      8.089220  -12.072990    4.146080
  H     10.142670  -11.697890    7.234140
  H     10.070120  -13.022370    6.066530
  H      5.091500  -15.428380    7.369080
  H      4.089500  -14.100180    7.979760
  H      6.352290  -15.471410    9.514390
  H      4.624740  -15.733050    9.781270
  H      5.347410  -14.158730   10.134760
  H      5.085080  -11.669670    7.775550
  H      7.257760  -10.492380    6.991290
  H     11.479800  -10.014720    5.518300
  H     11.550530   -7.294000    5.317940
  H      9.910140   -5.318660    5.149700
  H      7.904800   -3.951700    4.725640
  H      5.498000   -3.115910    4.352590
  H      2.994950   -4.058570    4.318110
  H      2.762490   -5.844700    4.703090

 Total Charge           Charge          ....    0
 Multiplicity           Mult            ....    1
 Number of Electrons    NEL             ....  506
 Basis Dimension        Dim             .... 1114

ORBITAL ENERGIES
----------------

  NO   OCC          E(Eh)            E(eV)
   0   2.0000     -88.941105     -2420.2105
   1   2.0000     -88.941011     -2420.2079
   2   2.0000     -88.936922     -2420.0967
   3   2.0000     -88.934066     -2420.0190
   4   2.0000     -88.931649     -2419.9532
   5   2.0000     -88.930825     -2419.9308
   6   2.0000     -88.927522     -2419.8409
   7   2.0000     -88.924511     -2419.7590
   8   2.0000     -19.302146      -525.2381
   9   2.0000     -19.227870      -523.2169
  10   2.0000     -19.220247      -523.0095
  11   2.0000     -14.632183      -398.1620
  12   2.0000     -14.440153      -392.9365
  13   2.0000     -10.340337      -281.3749
  14   2.0000     -10.321820      -280.8710
  15   2.0000     -10.316197      -280.7180
  16   2.0000     -10.315266      -280.6927
  17   2.0000     -10.312227      -280.6100
  18   2.0000     -10.304776      -280.4072
  19   2.0000     -10.303288      -280.3667
  20   2.0000     -10.299802      -280.2719
  21   2.0000     -10.296862      -280.1918
  22   2.0000     -10.295530      -280.1556
  23   2.0000     -10.293591      -280.1028
  24   2.0000     -10.293303      -280.0950
  25   2.0000     -10.292807      -280.0815
  26   2.0000     -10.291595      -280.0485
  27   2.0000     -10.283035      -279.8156
  28   2.0000     -10.281120      -279.7635
  29   2.0000     -10.279713      -279.7252
  30   2.0000     -10.279698      -279.7248
  31   2.0000     -10.278910      -279.7034
  32   2.0000     -10.278584      -279.6945
  33   2.0000     -10.277837      -279.6742
  34   2.0000     -10.277727      -279.6712
  35   2.0000     -10.276297      -279.6322
  36   2.0000     -10.276094      -279.6267
  37   2.0000     -10.275621      -279.6139
  38   2.0000     -10.275576      -279.6126
  39   2.0000     -10.275476      -279.6099
  40   2.0000     -10.273127      -279.5460
  41   2.0000     -10.272398      -279.5262
  42   2.0000     -10.271357      -279.4978
  43   2.0000     -10.270909      -279.4856
  44   2.0000     -10.270319      -279.4696
  45   2.0000     -10.270158      -279.4652
  46   2.0000     -10.270095      -279.4635
  47   2.0000     -10.264982      -279.3244
  48   2.0000     -10.264787      -279.3191
  49   2.0000     -10.264572      -279.3132
  50   2.0000     -10.264438      -279.3096
  51   2.0000     -10.262578      -279.2589
  52   2.0000     -10.261761      -279.2367
  53   2.0000     -10.257909      -279.1319
  54   2.0000     -10.256884      -279.1040
  55   2.0000     -10.253397      -279.0091
  56   2.0000     -10.251264      -278.9511
  57   2.0000     -10.249728      -278.9093
  58   2.0000     -10.249353      -278.8991
  59   2.0000     -10.249187      -278.8946
  60   2.0000     -10.248347      -278.8717
  61   2.0000     -10.248165      -278.8667
  62   2.0000     -10.247574      -278.8507
  63   2.0000      -8.036995      -218.6978
  64   2.0000      -8.035238      -218.6499
  65   2.0000      -8.032565      -218.5772
  66   2.0000      -8.029422      -218.4917
  67   2.0000      -8.027774      -218.4468
  68   2.0000      -8.026559      -218.4138
  69   2.0000      -8.022934      -218.3151
  70   2.0000      -8.019612      -218.2247
  71   2.0000      -6.006366      -163.4415
  72   2.0000      -6.005092      -163.4069
  73   2.0000      -6.002173      -163.3274
  74   2.0000      -6.001682      -163.3141
  75   2.0000      -6.000892      -163.2926
  76   2.0000      -5.999023      -163.2417
  77   2.0000      -5.999000      -163.2411
  78   2.0000      -5.997757      -163.2073
  79   2.0000      -5.997700      -163.2057
  80   2.0000      -5.996325      -163.1683
  81   2.0000      -5.995784      -163.1536
  82   2.0000      -5.994946      -163.1308
  83   2.0000      -5.994591      -163.1211
  84   2.0000      -5.993816      -163.1000
  85   2.0000      -5.992841      -163.0735
  86   2.0000      -5.991750      -163.0438
  87   2.0000      -5.991220      -163.0294
  88   2.0000      -5.989506      -162.9828
  89   2.0000      -5.988904      -162.9664
  90   2.0000      -5.988783      -162.9631
  91   2.0000      -5.988193      -162.9470
  92   2.0000      -5.985552      -162.8752
  93   2.0000      -5.983574      -162.8213
  94   2.0000      -5.980279      -162.7317
  95   2.0000      -1.303003       -35.4565
  96   2.0000      -1.222480       -33.2654
  97   2.0000      -1.120984       -30.5035
  98   2.0000      -1.047645       -28.5079
  99   2.0000      -0.984790       -26.7975
 100   2.0000      -0.977818       -26.6078
 101   2.0000      -0.973940       -26.5022
 102   2.0000      -0.965877       -26.2828
 103   2.0000      -0.961703       -26.1693
 104   2.0000      -0.959971       -26.1221
 105   2.0000      -0.956655       -26.0319
 106   2.0000      -0.951171       -25.8827
 107   2.0000      -0.924676       -25.1617
 108   2.0000      -0.913543       -24.8588
 109   2.0000      -0.910766       -24.7832
 110   2.0000      -0.883249       -24.0344
 111   2.0000      -0.872037       -23.7293
 112   2.0000      -0.865493       -23.5513
 113   2.0000      -0.861409       -23.4401
 114   2.0000      -0.855084       -23.2680
 115   2.0000      -0.851935       -23.1823
 116   2.0000      -0.834776       -22.7154
 117   2.0000      -0.832576       -22.6556
 118   2.0000      -0.831087       -22.6150
 119   2.0000      -0.829496       -22.5717
 120   2.0000      -0.827521       -22.5180
 121   2.0000      -0.823355       -22.4046
 122   2.0000      -0.810549       -22.0562
 123   2.0000      -0.806143       -21.9363
 124   2.0000      -0.802512       -21.8375
 125   2.0000      -0.802318       -21.8322
 126   2.0000      -0.799889       -21.7661
 127   2.0000      -0.787116       -21.4185
 128   2.0000      -0.780099       -21.2276
 129   2.0000      -0.779281       -21.2053
 130   2.0000      -0.759766       -20.6743
 131   2.0000      -0.758037       -20.6272
 132   2.0000      -0.747173       -20.3316
 133   2.0000      -0.744411       -20.2565
 134   2.0000      -0.719768       -19.5859
 135   2.0000      -0.710730       -19.3399
 136   2.0000      -0.702447       -19.1146
 137   2.0000      -0.694899       -18.9092
 138   2.0000      -0.693299       -18.8656
 139   2.0000      -0.683469       -18.5981
 140   2.0000      -0.672777       -18.3072
 141   2.0000      -0.669266       -18.2117
 142   2.0000      -0.659146       -17.9363
 143   2.0000      -0.645300       -17.5595
 144   2.0000      -0.641908       -17.4672
 145   2.0000      -0.639430       -17.3998
 146   2.0000      -0.632860       -17.2210
 147   2.0000      -0.621690       -16.9170
 148   2.0000      -0.619887       -16.8680
 149   2.0000      -0.614189       -16.7129
 150   2.0000      -0.612916       -16.6783
 151   2.0000      -0.610750       -16.6193
 152   2.0000      -0.607491       -16.5307
 153   2.0000      -0.606442       -16.5021
 154   2.0000      -0.605636       -16.4802
 155   2.0000      -0.603605       -16.4249
 156   2.0000      -0.602483       -16.3944
 157   2.0000      -0.597734       -16.2652
 158   2.0000      -0.596187       -16.2231
 159   2.0000      -0.591945       -16.1076
 160   2.0000      -0.589680       -16.0460
 161   2.0000      -0.584372       -15.9016
 162   2.0000      -0.572217       -15.5708
 163   2.0000      -0.570274       -15.5179
 164   2.0000      -0.566956       -15.4277
 165   2.0000      -0.565092       -15.3769
 166   2.0000      -0.559530       -15.2256
 167   2.0000      -0.556751       -15.1500
 168   2.0000      -0.553829       -15.0704
 169   2.0000      -0.538209       -14.6454
 170   2.0000      -0.537504       -14.6262
 171   2.0000      -0.535915       -14.5830
 172   2.0000      -0.532248       -14.4832
 173   2.0000      -0.524897       -14.2832
 174   2.0000      -0.522155       -14.2086
 175   2.0000      -0.518784       -14.1168
 176   2.0000      -0.515396       -14.0246
 177   2.0000      -0.511960       -13.9312
 178   2.0000      -0.508032       -13.8243
 179   2.0000      -0.504885       -13.7386
 180   2.0000      -0.502897       -13.6845
 181   2.0000      -0.501142       -13.6368
 182   2.0000      -0.499668       -13.5967
 183   2.0000      -0.497194       -13.5293
 184   2.0000      -0.492692       -13.4068
 185   2.0000      -0.491900       -13.3853
 186   2.0000      -0.488883       -13.3032
 187   2.0000      -0.484254       -13.1772
 188   2.0000      -0.482572       -13.1314
 189   2.0000      -0.480071       -13.0634
 190   2.0000      -0.475043       -12.9266
 191   2.0000      -0.473073       -12.8730
 192   2.0000      -0.472274       -12.8512
 193   2.0000      -0.468775       -12.7560
 194   2.0000      -0.467876       -12.7316
 195   2.0000      -0.466683       -12.6991
 196   2.0000      -0.462302       -12.5799
 197   2.0000      -0.459285       -12.4978
 198   2.0000      -0.456669       -12.4266
 199   2.0000      -0.454101       -12.3567
 200   2.0000      -0.453610       -12.3434
 201   2.0000      -0.449798       -12.2396
 202   2.0000      -0.447731       -12.1834
 203   2.0000      -0.445948       -12.1349
 204   2.0000      -0.443340       -12.0639
 205   2.0000      -0.442245       -12.0341
 206   2.0000      -0.440675       -11.9914
 207   2.0000      -0.439771       -11.9668
 208   2.0000      -0.436368       -11.8742
 209   2.0000      -0.430782       -11.7222
 210   2.0000      -0.429700       -11.6927
 211   2.0000      -0.422750       -11.5036
 212   2.0000      -0.419903       -11.4261
 213   2.0000      -0.417503       -11.3608
 214   2.0000      -0.416061       -11.3216
 215   2.0000      -0.412656       -11.2290
 216   2.0000      -0.411980       -11.2105
 217   2.0000      -0.411081       -11.1861
 218   2.0000      -0.409213       -11.1352
 219   2.0000      -0.409115       -11.1326
 220   2.0000      -0.404192       -10.9986
 221   2.0000      -0.402206       -10.9446
 222   2.0000      -0.401353       -10.9214
 223   2.0000      -0.398349       -10.8396
 224   2.0000      -0.396384       -10.7862
 225   2.0000      -0.395796       -10.7701
 226   2.0000      -0.390084       -10.6147
 227   2.0000      -0.382114       -10.3978
 228   2.0000      -0.380075       -10.3424
 229   2.0000      -0.375685       -10.2229
 230   2.0000      -0.373242       -10.1564
 231   2.0000      -0.360672        -9.8144
 232   2.0000      -0.355077        -9.6621
 233   2.0000      -0.352787        -9.5998
 234   2.0000      -0.345589        -9.4040
 235   2.0000      -0.339235        -9.2311
 236   2.0000      -0.335680        -9.1343
 237   2.0000      -0.324607        -8.8330
 238   2.0000      -0.322965        -8.7883
 239   2.0000      -0.320535        -8.7222
 240   2.0000      -0.313897        -8.5416
 241   2.0000      -0.309090        -8.4108
 242   2.0000      -0.301777        -8.2118
 243   2.0000      -0.298918        -8.1340
 244   2.0000      -0.291539        -7.9332
 245   2.0000      -0.289787        -7.8855
 246   2.0000      -0.276755        -7.5309
 247   2.0000      -0.271504        -7.3880
 248   2.0000      -0.267455        -7.2778
 249   2.0000      -0.266864        -7.2617
 250   2.0000      -0.225576        -6.1382
 251   2.0000      -0.213821        -5.8184
 252   2.0000      -0.211675        -5.7600
 253   0.0000      -0.059019        -1.6060
 254   0.0000      -0.044141        -1.2012
 255   0.0000      -0.025709        -0.6996
 256   0.0000       0.002172         0.0591
 257   0.0000       0.016848         0.4585

MULLIKEN ATOMIC CHARGES
-----------------------
   0 C :   -0.033149
   1 C :   -0.052464
   2 C :    0.079335
   3 C :    0.054483
   4 C :   -0.076235
   5 S :    0.062628
   6 C :   -0.083001
   7 C :    0.048395
   8 C :    0.054883
   9 C :   -0.028114
  10 S :    0.061370
  11 C :   -0.012540
  12 C :   -0.173850
  13 S :    0.089065
  14 C :   -0.049150
  15 C :    0.009502
  16 C :    0.123643
  17 C :   -0.032353
  18 C :   -0.176209
  19 C :    0.267330
  20 C :   -0.230853
  21 S :    0.094608
  22 C :   -0.176238
  23 C :    0.100787
  24 C :    0.011231
  25 C :    0.000795
  26 C :    0.079379
  27 C :    0.026823
  28 O :   -0.153652
  29 C :    0.108937
  30 C :    0.041502
  31 N :    0.271933
  32 O :   -0.229317
  33 O :   -0.266776
  34 C :    0.051165
  35 N :    0.004737
  36 C :   -0.106013
  37 S :    0.091782
  38 C :   -0.093540
  39 C :    0.073840
  40 C :    0.095782
  41 C :   -0.068154
  42 C :   -0.140058
  43 C :    0.315399
  44 C :   -0.239539
  45 S :    0.086252
  46 C :   -0.216188
  47 C :    0.087223
  48 C :    0.020281
  49 C :    0.039708
  50 C :    0.005785
  51 C :   -0.051228
  52 C :    0.011932
  53 C :    0.047645
  54 C :    0.042694
  55 C :   -0.010629
  56 S :    0.046653
  57 C :   -0.076160
  58 C :    0.044014
  59 C :    0.049743
  60 C :   -0.060736
  61 S :    0.038755
  62 C :   -0.040342
  63 H :    0.015283
  64 H :    0.015848
  65 H :   -0.013816
  66 H :   -0.002365
  67 H :   -0.006495
  68 H :   -0.029381
  69 H :   -0.021363
  70 H :    0.024967
  71 H :   -0.017842
  72 H :   -0.007197
  73 H :    0.024616
  74 H :    0.033557
  75 H :    0.004242
  76 H :    0.008137
  77 H :    0.015077
  78 H :    0.011407
  79 H :    0.016251
  80 H :   -0.036053
  81 H :   -0.046554
  82 H :    0.017638
  83 H :    0.149374
  84 H :    0.009988
  85 H :   -0.032841
  86 H :    0.010015
  87 H :    0.015591
  88 H :    0.003544
  89 H :    0.007361
  90 H :    0.013131
  91 H :    0.011734
  92 H :    0.013531
  93 H :    0.018665
  94 H :   -0.027154
  95 H :   -0.024264
  96 H :   -0.007751
  97 H :   -0.017910
  98 H :   -0.017580
  99 H :   -0.012391
 100 H :   -0.015942
 101 H :    0.014059
 102 H :    0.019352
Sum of atomic charges:   -0.0000000

LOEWDIN ATOMIC CHARGES
----------------------
   0 C :   -0.081547
   1 C :   -0.131178
   2 C :   -0.017414
   3 C :   -0.030326
   4 C :   -0.159749
   5 S :    0.352599
   6 C :   -0.197015
   7 C :   -0.045323
   8 C :   -0.025713
   9 C :   -0.149658
  10 S :    0.408887
  11 C :   -0.093678
  12 C :   -0.163349
  13 S :    0.417057
  14 C :   -0.180276
  15 C :   -0.051026
  16 C :   -0.065386
  17 C :   -0.029382
  18 C :   -0.066760
  19 C :   -0.040674
  20 C :   -0.162793
  21 S :    0.410048
  22 C :   -0.169214
  23 C :   -0.043754
  24 C :   -0.052574
  25 C :   -0.078980
  26 C :   -0.071320
  27 C :   -0.019780
  28 O :    0.055308
  29 C :    0.075987
  30 C :   -0.116278
  31 N :    0.284009
  32 O :   -0.200348
  33 O :   -0.228931
  34 C :   -0.018101
  35 N :    0.025254
  36 C :   -0.125926
  37 S :    0.434713
  38 C :   -0.207153
  39 C :   -0.045536
  40 C :   -0.113093
  41 C :   -0.031796
  42 C :   -0.033875
  43 C :   -0.028840
  44 C :   -0.175780
  45 S :    0.404369
  46 C :   -0.178301
  47 C :   -0.046318
  48 C :   -0.050952
  49 C :   -0.072242
  50 C :   -0.073624
  51 C :   -0.059724
  52 C :   -0.122400
  53 C :   -0.032776
  54 C :   -0.019324
  55 C :   -0.173268
  56 S :    0.392649
  57 C :   -0.183399
  58 C :   -0.018921
  59 C :   -0.038188
  60 C :   -0.138304
  61 S :    0.355697
  62 C :   -0.092407
  63 H :    0.026973
  64 H :    0.024031
  65 H :    0.031296
  66 H :    0.029427
  67 H :    0.027897
  68 H :    0.026840
  69 H :    0.030395
  70 H :    0.022934
  71 H :    0.029367
  72 H :    0.030587
  73 H :    0.030419
  74 H :    0.040122
  75 H :    0.031336
  76 H :    0.027159
  77 H :    0.024959
  78 H :    0.021470
  79 H :    0.021469
  80 H :    0.022964
  81 H :    0.019083
  82 H :    0.033463
  83 H :    0.080407
  84 H :    0.017128
  85 H :    0.024723
  86 H :    0.025418
  87 H :    0.038158
  88 H :    0.034559
  89 H :    0.022332
  90 H :    0.031008
  91 H :    0.020911
  92 H :    0.022268
  93 H :    0.026566
  94 H :    0.026668
  95 H :    0.014091
  96 H :    0.027488
  97 H :    0.031674
  98 H :    0.031195
  99 H :    0.033459
 100 H :    0.032170
 101 H :    0.026016
 102 H :    0.017666

  Mayer bond orders larger than 0.100000
B(  0-C ,  1-C ) :   1.8731 B(  0-C , 63-H ) :   0.9492 B(  0-C , 64-H ) :   0.9395
B(  1-C ,  2-C ) :   1.0660 B(  1-C ,  5-S ) :   1.0046 B(  2-C ,  3-C ) :   1.6668
B(  2-C , 65-H ) :   0.9956 B(  3-C ,  4-C ) :   1.1163 B(  3-C , 66-H ) :   0.9898
B(  4-C ,  5-S ) :   1.0470 B(  4-C ,  6-C ) :   1.6292 B(  6-C ,  7-C ) :   1.1146
B(  6-C , 10-S ) :   1.0063 B(  7-C ,  8-C ) :   1.6164 B(  7-C , 67-H ) :   0.9893
B(  8-C ,  9-C ) :   1.1108 B(  8-C , 68-H ) :   0.9984 B(  9-C , 10-S ) :   1.0430
B(  9-C , 11-C ) :   1.6163 B( 11-C , 12-C ) :   1.1643 B( 11-C , 69-H ) :   0.9325
B( 12-C , 13-S ) :   1.1167 B( 12-C , 16-C ) :   1.4344 B( 13-S , 14-C ) :   1.1365
B( 14-C , 15-C ) :   1.5856 B( 14-C , 70-H ) :   0.9720 B( 15-C , 16-C ) :   1.2292
B( 15-C , 71-H ) :   0.9979 B( 16-C , 17-C ) :   1.0654 B( 17-C , 18-C ) :   1.7477
B( 17-C , 72-H ) :   0.9581 B( 18-C , 19-C ) :   1.0374 B( 18-C , 27-C ) :   1.0601
B( 19-C , 20-C ) :   1.0404 B( 19-C , 73-H ) :   0.8928 B( 19-C , 74-H ) :   0.8836
B( 20-C , 21-S ) :   1.1306 B( 20-C , 26-C ) :   1.6328 B( 21-S , 22-C ) :   1.1250
B( 22-C , 23-C ) :   1.0460 B( 22-C , 25-C ) :   1.6276 B( 23-C , 24-C ) :   1.0937
B( 23-C , 75-H ) :   0.9351 B( 23-C , 76-H ) :   0.9289 B( 24-C , 77-H ) :   0.9716
B( 24-C , 78-H ) :   0.9681 B( 24-C , 79-H ) :   0.9727 B( 25-C , 26-C ) :   1.2011
B( 25-C , 80-H ) :   1.0000 B( 26-C , 81-H ) :   0.9787 B( 27-C , 28-O ) :   1.1185
B( 27-C , 29-C ) :   0.1068 B( 27-C , 34-C ) :   1.4555 B( 28-O , 29-C ) :   1.2244
B( 29-C , 30-C ) :   1.4389 B( 29-C , 82-H ) :   1.0067 B( 30-C , 31-N ) :   0.9497
B( 30-C , 34-C ) :   1.2158 B( 31-N , 32-O ) :   1.5077 B( 31-N , 33-O ) :   1.5100
B( 32-O , 33-O ) :   0.2531 B( 34-C , 35-N ) :   1.1903 B( 35-N , 36-C ) :   1.1496
B( 35-N , 83-H ) :   0.8685 B( 36-C , 37-S ) :   1.1318 B( 36-C , 40-C ) :   1.4750
B( 37-S , 38-C ) :   1.1292 B( 38-C , 39-C ) :   1.5633 B( 38-C , 84-H ) :   0.9742
B( 39-C , 40-C ) :   1.2691 B( 39-C , 85-H ) :   0.9964 B( 40-C , 41-C ) :   0.9799
B( 41-C , 42-C ) :   1.8837 B( 41-C , 86-H ) :   0.9526 B( 42-C , 43-C ) :   0.9998
B( 42-C , 51-C ) :   1.0036 B( 43-C , 44-C ) :   1.0449 B( 43-C , 87-H ) :   0.9064
B( 43-C , 88-H ) :   0.8983 B( 44-C , 45-S ) :   1.1194 B( 44-C , 50-C ) :   1.6174
B( 45-S , 46-C ) :   1.1218 B( 46-C , 47-C ) :   1.0458 B( 46-C , 49-C ) :   1.6149
B( 47-C , 48-C ) :   1.0992 B( 47-C , 89-H ) :   0.9250 B( 47-C , 90-H ) :   0.9339
B( 48-C , 91-H ) :   0.9707 B( 48-C , 92-H ) :   0.9677 B( 48-C , 93-H ) :   0.9705
B( 49-C , 50-C ) :   1.2119 B( 49-C , 94-H ) :   0.9931 B( 50-C , 95-H ) :   0.9936
B( 51-C , 52-C ) :   1.7406 B( 51-C , 96-H ) :   0.9577 B( 52-C , 53-C ) :   1.0973
B( 52-C , 56-S ) :   1.0321 B( 53-C , 54-C ) :   1.6465 B( 53-C , 97-H ) :   0.9957
B( 54-C , 55-C ) :   1.1534 B( 54-C , 98-H ) :   0.9904 B( 55-C , 56-S ) :   1.0393
B( 55-C , 57-C ) :   1.5746 B( 57-C , 58-C ) :   1.1469 B( 57-C , 61-S ) :   1.0310
B( 58-C , 59-C ) :   1.6673 B( 58-C , 99-H ) :   0.9901 B( 59-C , 60-C ) :   1.0769
B( 59-C ,100-H ) :   0.9922 B( 60-C , 61-S ) :   1.0110 B( 60-C , 62-C ) :   1.8624
B( 62-C ,101-H ) :   0.9484 B( 62-C ,102-H ) :   0.9360

-----------------------------------------------------------------------------
         ABSORPTION SPECTRUM VIA TRANSITION ELECTRIC DIPOLE MOMENTS
-----------------------------------------------------------------------------
State   Energy  Wavelength   fosc         T2         TX        TY        TZ
        (cm-1)    (nm)                  (au**2)     (au)      (au)      (au)
-----------------------------------------------------------------------------
   0   17967.1    556.6   0.089756426   1.64461   0.16974  -1.17067  -0.49531
   1   19167.9    521.7   0.504315697   8.66169   2.37097   0.13718  -1.73821
   2   19615.8    509.8   0.243260716   4.08264   1.72317   0.34252  -0.99800
   3   20117.3    497.1   0.079021203   1.29315  -1.06598   0.37715  -0.12083
   4   21263.9    470.3   0.054585546   0.84510  -0.29849   0.82239   0.28227
   5   21983.5    454.9   0.181332788   2.71553  -1.40395   0.76095   0.40671
   6   22893.7    436.8   0.369236659   5.30964   1.79752  -1.42167  -0.23960
   7   23704.2    421.9   0.400218950   5.55837   1.78606  -1.53547   0.10349
   8   26265.8    380.7   0.000667310   0.00836  -0.08571  -0.02720   0.01666
   9   27424.0    364.6   0.045764611   0.54938  -0.40521  -0.20806   0.58472
  10   28789.5    347.3   0.037002149   0.42313   0.48967   0.29436  -0.31097
  11   28943.3    345.5   0.006214563   0.07069   0.13768  -0.12540   0.18976
  12   29731.7    336.3   0.024614785   0.27255   0.37866   0.33045  -0.14133
  13   30528.1    327.6   0.392503242   4.23271   1.47558   1.00828  -1.01919
  14   30600.0    326.8   0.075049661   0.80743   0.68970  -0.52802   0.23006
  15   30924.3    323.4   0.020099415   0.21397   0.10596  -0.27437   0.35702
  16   31566.8    316.8   0.068500400   0.71439  -0.77704   0.30437   0.13404
  17   31896.1    313.5   0.050445150   0.52066   0.54300  -0.35246   0.31872
  18   32232.0    310.3   0.145318892   1.48426  -1.04564  -0.48554   0.39389
  19   32563.2    307.1   0.085355706   0.86294   0.80940  -0.25400   0.37855
  20   33180.8    301.4   0.097724744   0.96960   0.80406   0.24588   0.51247
  21   33454.5    298.9   0.036114507   0.35539   0.54035  -0.24709  -0.04859
  22   33867.0    295.3   0.013422369   0.13048  -0.23958  -0.10060   0.25091
  23   34139.5    292.9   0.005875622   0.05666  -0.09558   0.02292   0.21679
  24   34357.6    291.1   0.029634005   0.28395  -0.52475   0.06611   0.06494
  25   34546.4    289.5   0.008952065   0.08531   0.28947  -0.01436  -0.03621
  26   34741.2    287.8   0.005572635   0.05281  -0.17168   0.11251   0.10331
  27   34888.4    286.6   0.017300388   0.16325   0.34911  -0.16912  -0.11300
  28   35077.1    285.1   0.026345626   0.24726  -0.48902   0.08454  -0.03116
  29   35160.8    284.4   0.127516494   1.19394  -1.08833  -0.09036  -0.03638
  30   35208.8    284.0   0.008499223   0.07947   0.23120   0.14346   0.07373
  31   35937.8    278.3   0.028206871   0.25839  -0.49172  -0.07707   0.10324
  32   36073.5    277.2   0.024316212   0.22191   0.14520  -0.32249   0.31117
  33   36282.8    275.6   0.003252355   0.02951   0.02325   0.16919   0.01856
  34   36951.6    270.6   0.042657744   0.38005  -0.29760   0.46366  -0.27659
  35   37104.1    269.5   0.006202263   0.05503  -0.02224  -0.21316  -0.09538
  36   37456.2    267.0   0.009307280   0.08180  -0.05811   0.24820   0.12971
  37   37723.6    265.1   0.055652852   0.48568   0.52334   0.31904  -0.33169
  38   37924.4    263.7   0.018499870   0.16059  -0.32366   0.22723   0.06483
  39   37989.1    263.2   0.003717953   0.03222  -0.10958   0.13577   0.04217
  40   38118.2    262.3   0.034462554   0.29764   0.49103   0.18001   0.15533
  41   38158.2    262.1   0.044161606   0.38101  -0.56731  -0.21187  -0.11947
  42   38312.1    261.0   0.000400776   0.00344   0.01313  -0.04575  -0.03433
  43   39138.1    255.5   0.005674390   0.04773  -0.06685  -0.19519  -0.07184
  44   39664.0    252.1   0.021227253   0.17619  -0.14289   0.39038  -0.05807
  45   39760.8    251.5   0.012074335   0.09997  -0.23318  -0.19796   0.08008
  46   39989.5    250.1   0.018888999   0.15550   0.08618  -0.37431   0.08926
  47   40110.1    249.3   0.013340195   0.10949  -0.23123   0.18934  -0.14205
  48   40316.8    248.0   0.050914025   0.41575  -0.12273   0.42353  -0.47043

FINAL SINGLE POINT ENERGY     -5445.950517158745

DIPOLE MOMENT
-------------
                                X             Y             Z
Electronic contribution:     14.48136       7.59178     -35.36501
Nuclear contribution   :    -14.62540      -7.93595      35.70265
                        -----------------------------------------
Total Dipole Moment    :     -0.14404      -0.34417       0.33764
                        -----------------------------------------
Magnitude (a.u.)       :      0.50319
Magnitude (Debye)      :      1.27900

Rotational constants in cm-1:     0.001388     0.001193     0.000942
Rotational constants in MHz :    41.606477    35.777398    28.228834

                             ****ORCA TERMINATED NORMALLY****
TOTAL RUN TIME: 0 days 0 hours 13 minutes 25 seconds 734 msec
