                         Program Version 4.2.0 -  RELEASE  -
|  1> # ORCA input file
|  2> # SCF done       -153.780208587682          0.000367015189
|  3> ! CAM-B3LYP def2-SVP def2/J RIJCOSX Grid4 TightSCF
|  4> %maxcore 5000
|  5> %tddft
|  6>     Mode sTDDFT
|  7>     Ethresh 5.0
|  8>     maxcore 5000
|  9> end
| 10>
| 11> %pal
| 12>   nprocs 6
| 13>   end
| 14> * xyz 0 1
| 15>    C        4.39477        -2.57087         0.20354
| 16>    C        5.10579        -3.51837         0.82977
| 17>    C        6.13690        -3.33831         1.81105
| 18>    C        6.68297        -4.48780         2.26662
| 19>    C        6.13731        -5.66791         1.69153
| 20>    S        4.88477        -5.25190         0.53484
| 21>    C        6.48678        -6.97217         1.94644
| 22>    C        7.46908        -7.45758         2.84705
| 23>    C        7.57647        -8.81199         2.86337
| 24>    C        6.68855        -9.47784         1.97897
| 25>    S        5.70327        -8.30729         1.12560
| 26>    C        6.59389       -10.82616         1.75496
| 27>    C        5.68925       -11.41062         0.85498
| 28>    O        4.74266       -10.66880         0.22195
| 29>    C        4.07110       -11.48084        -0.62314
| 30>    C        4.57474       -12.77172        -0.54469
| 31>    C        5.59697       -12.73570         0.40537
| 32>    O        6.38715       -13.74036         0.84036
| 33>    C        3.03025       -10.95298        -1.42128
| 34>    S        2.37267       -11.85294        -2.76477
| 35>    C        1.27877       -10.54836        -3.19545
| 36>    C        1.43242        -9.49923        -2.30794
| 37>    C        2.41110        -9.72298        -1.32028
| 38>    S        2.63148        -8.49961        -0.09609
| 39>    C        1.74678        -7.21773        -1.04536
| 40>    S        0.59076        -7.96967        -2.24123
| 41>    C        0.45584       -10.68370        -4.33490
| 42>    C       -0.51398        -9.81120        -4.71258
| 43>    C       -1.24935        -9.92588        -5.91555
| 44>    S       -0.82232       -11.11082        -7.11306
| 45>    C       -2.02819       -10.51096        -8.18197
| 46>    C       -2.71914        -9.45283        -7.68665
| 47>    C       -3.84199        -8.82163        -8.44160
| 48>    C       -2.28997        -9.09996        -6.36432
| 49>    C       -2.88402        -8.11256        -5.52255
| 50>    C       -3.53679        -6.99075        -5.93030
| 51>    C       -4.23024        -6.09779        -5.07716
| 52>    C       -4.62175        -6.35224        -3.79225
| 53>    C       -5.39783        -5.43174        -3.06874
| 54>    C       -5.93388        -5.65402        -1.82339
| 55>    C       -6.79103        -4.75677        -1.08178
| 56>    C       -7.13108        -3.46703        -1.41235
| 57>    C       -7.97592        -2.64740        -0.63755
| 58>    N       -8.65725        -1.92929        -0.05482
| 59>    C       -6.68634        -2.76465        -2.55026
| 60>    N       -6.37219        -2.11514        -3.44483
| 61>    C       -7.24074        -5.46055         0.11679
| 62>    C       -6.63845        -6.74127         0.14434
| 63>    C       -5.78231        -6.90455        -1.05041
| 64>    O       -5.10921        -7.88011        -1.31817
| 65>    C       -6.87239        -7.64947         1.14709
| 66>    C       -7.74919        -7.27874         2.17247
| 67>    C       -8.34763        -5.99806         2.13616
| 68>    C       -8.10691        -5.07733         1.12347
| 69>    S       -9.40280        -5.74665         3.49481
| 70>    C       -9.03068        -7.34534         4.08303
| 71>    C       -8.16101        -8.03260         3.30601
| 72>   Br       -9.82657        -7.95633         5.66846
| 73>    H        4.56525        -1.52970         0.41281
| 74>    H        3.63973        -2.81407        -0.52114
| 75>    H        6.42205        -2.35166         2.13051
| 76>    H        7.46678        -4.53744         3.00169
| 77>    H        8.06337        -6.79577         3.45141
| 78>    H        8.26515        -9.36350         3.47908
| 79>    H        7.26256       -11.50153         2.26590
| 80>    H        4.22626       -13.61552        -1.10632
| 81>    H        6.14927       -14.55622         0.38440
| 82>    H        1.18303        -6.59342        -0.35626
| 83>    H        2.47599        -6.61548        -1.58834
| 84>    H        0.64452       -11.55808        -4.94436
| 85>    H       -0.73750        -8.96309        -4.08171
| 86>    H       -2.16547       -10.99164        -9.13083
| 87>    H       -4.17593        -9.48911        -9.23276
| 88>    H       -3.52210        -7.88799        -8.90383
| 89>    H       -4.67846        -8.61188        -7.77815
| 90>    H       -2.78269        -8.28407        -4.45948
| 91>    H       -3.51171        -6.71728        -6.97435
| 92>    H       -4.52644        -5.15067        -5.51391
| 93>    H       -4.38464        -7.29335        -3.32118
| 94>    H       -5.61709        -4.49264        -3.56124
| 95>    H       -6.39775        -8.61821         1.13881
| 96>    H       -8.59098        -4.11542         1.14125
| 97>    H       -7.82351        -9.03031         3.51998
| 98> *
| 99>
|100>                          ****END OF INPUT****

CARTESIAN COORDINATES (ANGSTROEM)
---------------------------------
  C      4.394770   -2.570870    0.203540
  C      5.105790   -3.518370    0.829770
  C      6.136900   -3.338310    1.811050
  C      6.682970   -4.487800    2.266620
  C      6.137310   -5.667910    1.691530
  S      4.884770   -5.251900    0.534840
  C      6.486780   -6.972170    1.946440
  C      7.469080   -7.457580    2.847050
  C      7.576470   -8.811990    2.863370
  C      6.688550   -9.477840    1.978970
  S      5.703270   -8.307290    1.125600
  C      6.593890  -10.826160    1.754960
  C      5.689250  -11.410620    0.854980
  O      4.742660  -10.668800    0.221950
  C      4.071100  -11.480840   -0.623140
  C      4.574740  -12.771720   -0.544690
  C      5.596970  -12.735700    0.405370
  O      6.387150  -13.740360    0.840360
  C      3.030250  -10.952980   -1.421280
  S      2.372670  -11.852940   -2.764770
  C      1.278770  -10.548360   -3.195450
  C      1.432420   -9.499230   -2.307940
  C      2.411100   -9.722980   -1.320280
  S      2.631480   -8.499610   -0.096090
  C      1.746780   -7.217730   -1.045360
  S      0.590760   -7.969670   -2.241230
  C      0.455840  -10.683700   -4.334900
  C     -0.513980   -9.811200   -4.712580
  C     -1.249350   -9.925880   -5.915550
  S     -0.822320  -11.110820   -7.113060
  C     -2.028190  -10.510960   -8.181970
  C     -2.719140   -9.452830   -7.686650
  C     -3.841990   -8.821630   -8.441600
  C     -2.289970   -9.099960   -6.364320
  C     -2.884020   -8.112560   -5.522550
  C     -3.536790   -6.990750   -5.930300
  C     -4.230240   -6.097790   -5.077160
  C     -4.621750   -6.352240   -3.792250
  C     -5.397830   -5.431740   -3.068740
  C     -5.933880   -5.654020   -1.823390
  C     -6.791030   -4.756770   -1.081780
  C     -7.131080   -3.467030   -1.412350
  C     -7.975920   -2.647400   -0.637550
  N     -8.657250   -1.929290   -0.054820
  C     -6.686340   -2.764650   -2.550260
  N     -6.372190   -2.115140   -3.444830
  C     -7.240740   -5.460550    0.116790
  C     -6.638450   -6.741270    0.144340
  C     -5.782310   -6.904550   -1.050410
  O     -5.109210   -7.880110   -1.318170
  C     -6.872390   -7.649470    1.147090
  C     -7.749190   -7.278740    2.172470
  C     -8.347630   -5.998060    2.136160
  C     -8.106910   -5.077330    1.123470
  S     -9.402800   -5.746650    3.494810
  C     -9.030680   -7.345340    4.083030
  C     -8.161010   -8.032600    3.306010
  Br    -9.826570   -7.956330    5.668460
  H      4.565250   -1.529700    0.412810
  H      3.639730   -2.814070   -0.521140
  H      6.422050   -2.351660    2.130510
  H      7.466780   -4.537440    3.001690
  H      8.063370   -6.795770    3.451410
  H      8.265150   -9.363500    3.479080
  H      7.262560  -11.501530    2.265900
  H      4.226260  -13.615520   -1.106320
  H      6.149270  -14.556220    0.384400
  H      1.183030   -6.593420   -0.356260
  H      2.475990   -6.615480   -1.588340
  H      0.644520  -11.558080   -4.944360
  H     -0.737500   -8.963090   -4.081710
  H     -2.165470  -10.991640   -9.130830
  H     -4.175930   -9.489110   -9.232760
  H     -3.522100   -7.887990   -8.903830
  H     -4.678460   -8.611880   -7.778150
  H     -2.782690   -8.284070   -4.459480
  H     -3.511710   -6.717280   -6.974350
  H     -4.526440   -5.150670   -5.513910
  H     -4.384640   -7.293350   -3.321180
  H     -5.617090   -4.492640   -3.561240
  H     -6.397750   -8.618210    1.138810
  H     -8.590980   -4.115420    1.141250
  H     -7.823510   -9.030310    3.519980

 Total Charge           Charge          ....    0
 Multiplicity           Mult            ....    1
 Number of Electrons    NEL             ....  480
 Basis Dimension        Dim             ....  983

ORBITAL ENERGIES
----------------

  NO   OCC          E(Eh)            E(eV)
   0   2.0000    -482.880975    -13139.8593
   1   2.0000     -88.969634     -2420.9868
   2   2.0000     -88.957701     -2420.6621
   3   2.0000     -88.954851     -2420.5846
   4   2.0000     -88.943737     -2420.2821
   5   2.0000     -88.935735     -2420.0644
   6   2.0000     -88.930640     -2419.9258
   7   2.0000     -88.927709     -2419.8460
   8   2.0000     -62.558679     -1702.3082
   9   2.0000     -56.392624     -1534.5213
  10   2.0000     -56.389918     -1534.4477
  11   2.0000     -56.389883     -1534.4467
  12   2.0000     -19.293246      -524.9959
  13   2.0000     -19.258374      -524.0470
  14   2.0000     -19.207369      -522.6591
  15   2.0000     -14.407765      -392.0552
  16   2.0000     -14.405892      -392.0042
  17   2.0000     -10.357882      -281.8523
  18   2.0000     -10.353290      -281.7273
  19   2.0000     -10.342747      -281.4404
  20   2.0000     -10.336537      -281.2715
  21   2.0000     -10.332251      -281.1549
  22   2.0000     -10.331081      -281.1230
  23   2.0000     -10.324918      -280.9553
  24   2.0000     -10.322742      -280.8961
  25   2.0000     -10.318763      -280.7878
  26   2.0000     -10.311404      -280.5876
  27   2.0000     -10.311136      -280.5803
  28   2.0000     -10.309507      -280.5359
  29   2.0000     -10.308868      -280.5186
  30   2.0000     -10.307884      -280.4918
  31   2.0000     -10.307641      -280.4852
  32   2.0000     -10.307497      -280.4812
  33   2.0000     -10.305038      -280.4143
  34   2.0000     -10.300947      -280.3030
  35   2.0000     -10.300191      -280.2825
  36   2.0000     -10.298290      -280.2307
  37   2.0000     -10.298002      -280.2229
  38   2.0000     -10.297671      -280.2139
  39   2.0000     -10.297446      -280.2078
  40   2.0000     -10.295401      -280.1521
  41   2.0000     -10.294313      -280.1225
  42   2.0000     -10.294212      -280.1198
  43   2.0000     -10.293591      -280.1028
  44   2.0000     -10.291206      -280.0380
  45   2.0000     -10.290514      -280.0191
  46   2.0000     -10.289692      -279.9968
  47   2.0000     -10.284903      -279.8665
  48   2.0000     -10.284480      -279.8549
  49   2.0000     -10.284056      -279.8434
  50   2.0000     -10.283272      -279.8220
  51   2.0000     -10.282489      -279.8007
  52   2.0000     -10.280676      -279.7514
  53   2.0000     -10.279716      -279.7253
  54   2.0000     -10.276970      -279.6506
  55   2.0000     -10.276467      -279.6369
  56   2.0000     -10.275729      -279.6168
  57   2.0000     -10.275002      -279.5970
  58   2.0000     -10.274136      -279.5734
  59   2.0000     -10.273607      -279.5591
  60   2.0000     -10.270068      -279.4627
  61   2.0000     -10.260361      -279.1986
  62   2.0000      -8.788100      -239.1364
  63   2.0000      -8.065585      -219.4757
  64   2.0000      -8.053144      -219.1372
  65   2.0000      -8.050986      -219.0785
  66   2.0000      -8.038793      -218.7467
  67   2.0000      -8.031055      -218.5361
  68   2.0000      -8.027094      -218.4283
  69   2.0000      -8.023517      -218.3310
  70   2.0000      -6.624366      -180.2582
  71   2.0000      -6.609842      -179.8629
  72   2.0000      -6.609666      -179.8582
  73   2.0000      -6.035277      -164.2282
  74   2.0000      -6.031015      -164.1123
  75   2.0000      -6.026812      -163.9979
  76   2.0000      -6.022862      -163.8904
  77   2.0000      -6.020196      -163.8179
  78   2.0000      -6.018741      -163.7783
  79   2.0000      -6.016017      -163.7041
  80   2.0000      -6.014373      -163.6594
  81   2.0000      -6.013228      -163.6283
  82   2.0000      -6.009352      -163.5228
  83   2.0000      -6.005150      -163.4084
  84   2.0000      -6.001699      -163.3145
  85   2.0000      -5.998400      -163.2248
  86   2.0000      -5.997483      -163.1998
  87   2.0000      -5.996914      -163.1843
  88   2.0000      -5.993353      -163.0874
  89   2.0000      -5.993068      -163.0797
  90   2.0000      -5.990244      -163.0028
  91   2.0000      -5.989113      -162.9720
  92   2.0000      -5.987662      -162.9326
  93   2.0000      -5.984297      -162.8410
  94   2.0000      -2.740257       -74.5662
  95   2.0000      -2.736165       -74.4548
  96   2.0000      -2.736023       -74.4510
  97   2.0000      -2.724487       -74.1371
  98   2.0000      -2.724463       -74.1364
  99   2.0000      -1.212350       -32.9897
 100   2.0000      -1.150478       -31.3061
 101   2.0000      -1.121004       -30.5041
 102   2.0000      -1.015394       -27.6303
 103   2.0000      -1.005667       -27.3656
 104   2.0000      -1.004699       -27.3392
 105   2.0000      -0.987783       -26.8789
 106   2.0000      -0.985612       -26.8199
 107   2.0000      -0.981223       -26.7004
 108   2.0000      -0.981154       -26.6986
 109   2.0000      -0.959048       -26.0970
 110   2.0000      -0.937665       -25.5152
 111   2.0000      -0.936189       -25.4750
 112   2.0000      -0.924320       -25.1520
 113   2.0000      -0.915766       -24.9193
 114   2.0000      -0.901111       -24.5205
 115   2.0000      -0.895126       -24.3576
 116   2.0000      -0.894296       -24.3350
 117   2.0000      -0.892823       -24.2950
 118   2.0000      -0.878789       -23.9131
 119   2.0000      -0.873413       -23.7668
 120   2.0000      -0.869524       -23.6609
 121   2.0000      -0.858017       -23.3478
 122   2.0000      -0.845996       -23.0207
 123   2.0000      -0.836181       -22.7537
 124   2.0000      -0.834719       -22.7139
 125   2.0000      -0.828060       -22.5327
 126   2.0000      -0.822573       -22.3834
 127   2.0000      -0.821762       -22.3613
 128   2.0000      -0.808447       -21.9990
 129   2.0000      -0.801695       -21.8152
 130   2.0000      -0.790828       -21.5195
 131   2.0000      -0.772494       -21.0206
 132   2.0000      -0.758445       -20.6383
 133   2.0000      -0.749714       -20.4008
 134   2.0000      -0.749202       -20.3868
 135   2.0000      -0.728304       -19.8182
 136   2.0000      -0.718600       -19.5541
 137   2.0000      -0.716342       -19.4927
 138   2.0000      -0.706306       -19.2196
 139   2.0000      -0.699250       -19.0276
 140   2.0000      -0.689097       -18.7513
 141   2.0000      -0.683086       -18.5877
 142   2.0000      -0.678823       -18.4717
 143   2.0000      -0.663069       -18.0430
 144   2.0000      -0.662509       -18.0278
 145   2.0000      -0.655716       -17.8429
 146   2.0000      -0.650309       -17.6958
 147   2.0000      -0.648780       -17.6542
 148   2.0000      -0.634653       -17.2698
 149   2.0000      -0.631614       -17.1871
 150   2.0000      -0.625937       -17.0326
 151   2.0000      -0.616805       -16.7841
 152   2.0000      -0.611401       -16.6371
 153   2.0000      -0.607725       -16.5370
 154   2.0000      -0.600513       -16.3408
 155   2.0000      -0.598698       -16.2914
 156   2.0000      -0.589264       -16.0347
 157   2.0000      -0.588856       -16.0236
 158   2.0000      -0.584048       -15.8927
 159   2.0000      -0.578319       -15.7369
 160   2.0000      -0.566195       -15.4069
 161   2.0000      -0.563977       -15.3466
 162   2.0000      -0.561564       -15.2809
 163   2.0000      -0.552477       -15.0337
 164   2.0000      -0.546681       -14.8759
 165   2.0000      -0.542008       -14.7488
 166   2.0000      -0.540835       -14.7169
 167   2.0000      -0.532576       -14.4921
 168   2.0000      -0.531520       -14.4634
 169   2.0000      -0.527975       -14.3669
 170   2.0000      -0.526405       -14.3242
 171   2.0000      -0.520743       -14.1701
 172   2.0000      -0.516312       -14.0496
 173   2.0000      -0.515097       -14.0165
 174   2.0000      -0.511741       -13.9252
 175   2.0000      -0.504558       -13.7297
 176   2.0000      -0.502063       -13.6618
 177   2.0000      -0.501649       -13.6506
 178   2.0000      -0.500234       -13.6121
 179   2.0000      -0.499930       -13.6038
 180   2.0000      -0.498201       -13.5567
 181   2.0000      -0.496238       -13.5033
 182   2.0000      -0.491391       -13.3714
 183   2.0000      -0.487942       -13.2776
 184   2.0000      -0.485589       -13.2135
 185   2.0000      -0.485106       -13.2004
 186   2.0000      -0.483951       -13.1690
 187   2.0000      -0.483447       -13.1553
 188   2.0000      -0.477994       -13.0069
 189   2.0000      -0.477173       -12.9845
 190   2.0000      -0.473938       -12.8965
 191   2.0000      -0.470730       -12.8092
 192   2.0000      -0.469595       -12.7783
 193   2.0000      -0.465532       -12.6678
 194   2.0000      -0.462311       -12.5801
 195   2.0000      -0.454631       -12.3711
 196   2.0000      -0.451380       -12.2827
 197   2.0000      -0.450875       -12.2689
 198   2.0000      -0.447934       -12.1889
 199   2.0000      -0.443386       -12.0652
 200   2.0000      -0.442964       -12.0537
 201   2.0000      -0.441556       -12.0153
 202   2.0000      -0.440993       -12.0000
 203   2.0000      -0.435905       -11.8616
 204   2.0000      -0.432517       -11.7694
 205   2.0000      -0.430241       -11.7075
 206   2.0000      -0.429948       -11.6995
 207   2.0000      -0.425094       -11.5674
 208   2.0000      -0.419321       -11.4103
 209   2.0000      -0.418675       -11.3927
 210   2.0000      -0.415217       -11.2986
 211   2.0000      -0.413800       -11.2601
 212   2.0000      -0.412116       -11.2143
 213   2.0000      -0.409812       -11.1515
 214   2.0000      -0.406041       -11.0489
 215   2.0000      -0.404429       -11.0051
 216   2.0000      -0.399201       -10.8628
 217   2.0000      -0.396469       -10.7885
 218   2.0000      -0.387584       -10.5467
 219   2.0000      -0.383518       -10.4361
 220   2.0000      -0.380505       -10.3541
 221   2.0000      -0.375864       -10.2278
 222   2.0000      -0.374672       -10.1953
 223   2.0000      -0.370386       -10.0787
 224   2.0000      -0.355180        -9.6649
 225   2.0000      -0.349674        -9.5151
 226   2.0000      -0.338684        -9.2160
 227   2.0000      -0.337438        -9.1822
 228   2.0000      -0.327107        -8.9010
 229   2.0000      -0.326958        -8.8970
 230   2.0000      -0.317507        -8.6398
 231   2.0000      -0.314514        -8.5584
 232   2.0000      -0.308847        -8.4041
 233   2.0000      -0.304522        -8.2865
 234   2.0000      -0.288143        -7.8408
 235   2.0000      -0.282979        -7.7003
 236   2.0000      -0.268355        -7.3023
 237   2.0000      -0.260209        -7.0806
 238   2.0000      -0.240172        -6.5354
 239   2.0000      -0.198884        -5.4119
 240   0.0000      -0.093082        -2.5329
 241   0.0000      -0.064738        -1.7616
 242   0.0000      -0.054452        -1.4817
 243   0.0000      -0.037653        -1.0246
 244   0.0000      -0.010345        -0.2815

MULLIKEN ATOMIC CHARGES
-----------------------
   0 C :   -0.041339
   1 C :   -0.055474
   2 C :    0.045733
   3 C :    0.028831
   4 C :   -0.069575
   5 S :    0.053830
   6 C :   -0.041337
   7 C :    0.022783
   8 C :    0.034980
   9 C :   -0.021083
  10 S :    0.094365
  11 C :   -0.051342
  12 C :    0.096600
  13 O :   -0.226313
  14 C :    0.178359
  15 C :   -0.145290
  16 C :    0.147310
  17 O :   -0.185641
  18 C :   -0.167896
  19 S :    0.127919
  20 C :   -0.140000
  21 C :   -0.006523
  22 C :    0.011279
  23 S :    0.087276
  24 C :   -0.097698
  25 S :    0.021311
  26 C :    0.040692
  27 C :   -0.014009
  28 C :   -0.106955
  29 S :    0.108888
  30 C :   -0.114402
  31 C :   -0.076216
  32 C :    0.106513
  33 C :    0.108765
  34 C :   -0.024018
  35 C :   -0.010627
  36 C :    0.052318
  37 C :   -0.008767
  38 C :   -0.029785
  39 C :   -0.084756
  40 C :    0.332279
  41 C :   -0.358783
  42 C :   -0.183819
  43 N :    0.142829
  44 C :   -0.193051
  45 N :    0.139586
  46 C :    0.011344
  47 C :   -0.010551
  48 C :    0.144294
  49 O :   -0.157961
  50 C :   -0.073431
  51 C :    0.116807
  52 C :   -0.093883
  53 C :   -0.020671
  54 S :    0.183119
  55 C :   -0.123287
  56 C :    0.039291
  57 Br:    0.019184
  58 H :    0.017883
  59 H :    0.014416
  60 H :   -0.015850
  61 H :   -0.012716
  62 H :   -0.020045
  63 H :   -0.016472
  64 H :   -0.004375
  65 H :   -0.024250
  66 H :    0.190839
  67 H :    0.092321
  68 H :    0.104531
  69 H :   -0.011612
  70 H :    0.000528
  71 H :    0.014610
  72 H :    0.010098
  73 H :    0.036951
  74 H :    0.033718
  75 H :    0.023950
  76 H :   -0.011084
  77 H :    0.007889
  78 H :    0.026494
  79 H :    0.006850
  80 H :   -0.013414
  81 H :   -0.008505
  82 H :   -0.004756
Sum of atomic charges:   -0.0000000

LOEWDIN ATOMIC CHARGES
----------------------
   0 C :   -0.089008
   1 C :   -0.137687
   2 C :   -0.040023
   3 C :   -0.025621
   4 C :   -0.185395
   5 S :    0.335937
   6 C :   -0.180969
   7 C :   -0.040184
   8 C :   -0.032666
   9 C :   -0.154538
  10 S :    0.387356
  11 C :   -0.069530
  12 C :   -0.010859
  13 O :    0.005934
  14 C :    0.022747
  15 C :   -0.108812
  16 C :    0.015712
  17 O :   -0.048108
  18 C :   -0.208301
  19 S :    0.418229
  20 C :   -0.190775
  21 C :   -0.196060
  22 C :   -0.202867
  23 S :    0.331473
  24 C :   -0.230288
  25 S :    0.311812
  26 C :   -0.037827
  27 C :   -0.052078
  28 C :   -0.147465
  29 S :    0.435572
  30 C :   -0.190238
  31 C :   -0.050058
  32 C :   -0.044856
  33 C :   -0.070878
  34 C :    0.033321
  35 C :   -0.052583
  36 C :    0.035720
  37 C :   -0.038738
  38 C :    0.070220
  39 C :   -0.106735
  40 C :    0.076785
  41 C :   -0.148836
  42 C :   -0.018036
  43 N :   -0.061415
  44 C :   -0.020546
  45 N :   -0.060164
  46 C :   -0.020187
  47 C :   -0.049133
  48 C :    0.083742
  49 O :   -0.152304
  50 C :    0.019647
  51 C :   -0.033808
  52 C :   -0.144779
  53 C :   -0.011143
  54 S :    0.429489
  55 C :   -0.272751
  56 C :   -0.070648
  57 Br:    0.133146
  58 H :    0.027383
  59 H :    0.022681
  60 H :    0.031479
  61 H :    0.031775
  62 H :    0.028368
  63 H :    0.031356
  64 H :    0.043776
  65 H :    0.027186
  66 H :    0.102317
  67 H :    0.029627
  68 H :    0.019735
  69 H :    0.022707
  70 H :    0.020296
  71 H :    0.021926
  72 H :    0.033308
  73 H :    0.034833
  74 H :    0.036246
  75 H :    0.036840
  76 H :    0.031292
  77 H :    0.036321
  78 H :    0.030854
  79 H :    0.041064
  80 H :    0.039918
  81 H :    0.040534
  82 H :    0.038231

  Mayer bond orders larger than 0.100000
B(  0-C ,  1-C ) :   1.8574 B(  0-C , 58-H ) :   0.9510 B(  0-C , 59-H ) :   0.9432
B(  1-C ,  2-C ) :   1.0839 B(  1-C ,  5-S ) :   1.0053 B(  2-C ,  3-C ) :   1.6530
B(  2-C , 60-H ) :   0.9932 B(  3-C ,  4-C ) :   1.1598 B(  3-C , 61-H ) :   0.9922
B(  4-C ,  5-S ) :   1.0322 B(  4-C ,  6-C ) :   1.5514 B(  6-C ,  7-C ) :   1.1703
B(  6-C , 10-S ) :   1.0319 B(  7-C ,  8-C ) :   1.6080 B(  7-C , 62-H ) :   0.9929
B(  8-C ,  9-C ) :   1.1400 B(  8-C , 63-H ) :   0.9983 B(  9-C , 10-S ) :   1.0403
B(  9-C , 11-C ) :   1.5465 B( 11-C , 12-C ) :   1.1936 B( 11-C , 64-H ) :   0.9695
B( 12-C , 13-O ) :   1.0822 B( 12-C , 14-C ) :   0.1042 B( 12-C , 16-C ) :   1.3647
B( 13-O , 14-C ) :   1.1732 B( 14-C , 15-C ) :   1.4042 B( 14-C , 18-C ) :   1.1360
B( 15-C , 16-C ) :   1.2343 B( 15-C , 65-H ) :   1.0099 B( 16-C , 17-O ) :   1.2357
B( 17-O , 66-H ) :   0.9617 B( 18-C , 19-S ) :   1.1046 B( 18-C , 20-C ) :   0.1044
B( 18-C , 22-C ) :   1.5580 B( 19-S , 20-C ) :   1.0742 B( 20-C , 21-C ) :   1.5604
B( 20-C , 26-C ) :   1.1679 B( 21-C , 22-C ) :   1.2597 B( 21-C , 25-S ) :   1.0215
B( 22-C , 23-S ) :   1.0143 B( 23-S , 24-C ) :   0.9836 B( 24-C , 25-S ) :   0.9714
B( 24-C , 67-H ) :   0.9584 B( 24-C , 68-H ) :   0.9459 B( 26-C , 27-C ) :   1.6343
B( 26-C , 69-H ) :   0.9539 B( 27-C , 28-C ) :   1.1974 B( 27-C , 70-H ) :   0.9553
B( 28-C , 29-S ) :   1.1470 B( 28-C , 33-C ) :   1.3830 B( 29-S , 30-C ) :   1.1206
B( 30-C , 31-C ) :   1.6229 B( 30-C , 71-H ) :   0.9659 B( 31-C , 32-C ) :   1.0917
B( 31-C , 33-C ) :   1.2118 B( 32-C , 72-H ) :   0.9470 B( 32-C , 73-H ) :   0.9420
B( 32-C , 74-H ) :   0.9458 B( 33-C , 34-C ) :   1.1403 B( 34-C , 35-C ) :   1.6448
B( 34-C , 75-H ) :   0.9531 B( 35-C , 36-C ) :   1.1518 B( 35-C , 76-H ) :   0.9731
B( 36-C , 37-C ) :   1.5566 B( 36-C , 77-H ) :   0.9767 B( 37-C , 38-C ) :   1.2038
B( 37-C , 78-H ) :   0.9672 B( 38-C , 39-C ) :   1.4996 B( 38-C , 79-H ) :   0.9602
B( 39-C , 40-C ) :   1.0792 B( 39-C , 48-C ) :   0.9559 B( 40-C , 41-C ) :   1.6111
B( 40-C , 46-C ) :   0.9977 B( 41-C , 42-C ) :   1.1436 B( 41-C , 44-C ) :   1.1504
B( 42-C , 43-N ) :   2.9653 B( 44-C , 45-N ) :   2.9622 B( 46-C , 47-C ) :   1.2772
B( 46-C , 53-C ) :   1.4127 B( 47-C , 48-C ) :   0.9408 B( 47-C , 50-C ) :   1.4273
B( 48-C , 49-O ) :   2.1915 B( 50-C , 51-C ) :   1.2435 B( 50-C , 80-H ) :   1.0157
B( 51-C , 52-C ) :   1.3115 B( 51-C , 56-C ) :   1.1612 B( 52-C , 53-C ) :   1.3287
B( 52-C , 54-S ) :   1.0834 B( 53-C , 81-H ) :   0.9784 B( 54-S , 55-C ) :   1.0857
B( 55-C , 56-C ) :   1.6203 B( 55-C , 57-Br) :   1.0164 B( 56-C , 82-H ) :   0.9996

-----------------------------------------------------------------------------
         ABSORPTION SPECTRUM VIA TRANSITION ELECTRIC DIPOLE MOMENTS
-----------------------------------------------------------------------------
State   Energy  Wavelength   fosc         T2         TX        TY        TZ
        (cm-1)    (nm)                  (au**2)     (au)      (au)      (au)
-----------------------------------------------------------------------------
   0   12112.9    825.6   0.404883086  11.00414   3.13789   0.33568   1.02231
   1   16367.6    611.0   0.583045851  11.72717  -0.82610  -3.02683  -1.37224
   2   18094.4    552.7   0.667093217  12.13720   2.37115  -2.21995  -1.25963
   3   21021.6    475.7   0.190568172   2.98443  -0.55251   1.58601  -0.40465
   4   22726.1    440.0   0.143952434   2.08530  -0.62363   1.01632   0.81454
   5   23393.9    427.5   0.332981024   4.68590   0.90620  -1.58110  -1.16826
   6   23928.2    417.9   0.324490621   4.46444  -0.53906   0.23982   2.02888
   7   25235.1    396.3   0.817841140  10.66940   1.81501  -1.50287   2.26197
   8   26404.7    378.7   0.045825908   0.57135   0.56975  -0.31806   0.38154
   9   27267.1    366.7   0.099621787   1.20280   0.36345   0.98049  -0.33066
  10   27835.4    359.3   0.403842798   4.77629   0.48781   0.26818  -2.11339
  11   28001.6    357.1   0.012805763   0.15056   0.09565  -0.12804  -0.35357
  12   28928.8    345.7   0.202326912   2.30250  -0.43666   1.13068  -0.91290
  13   29545.4    338.5   0.105450631   1.17499   0.73268  -0.72839   0.32805
  14   29814.6    335.4   0.002521917   0.02785  -0.00473   0.16603   0.01609
  15   30492.4    328.0   0.092585205   0.99960  -0.44238   0.58392   0.68039
  16   31024.0    322.3   0.126468308   1.34202   0.47707  -0.51053   0.92401
  17   31557.4    316.9   0.023712590   0.24737   0.34972  -0.12484   0.33089
  18   32089.6    311.6   0.001120628   0.01150  -0.07385  -0.07193   0.02949
  19   32342.6    309.2   0.030403341   0.30947  -0.10789   0.40519   0.36559
  20   32650.0    306.3   0.039269038   0.39595   0.49879   0.28733   0.25417
  21   32713.0    305.7   0.051096968   0.51422  -0.55535  -0.03326   0.45244
  22   33281.6    300.5   0.541067395   5.35209   0.31005   1.51787  -1.71814
  23   33708.7    296.7   0.003141071   0.03068  -0.07826   0.12976  -0.08783
  24   33958.1    294.5   0.098580039   0.95570  -0.20534   0.82613  -0.48067
  25   34031.8    293.8   0.013230161   0.12798  -0.11868   0.30668   0.14088
  26   34401.3    290.7   0.110787556   1.06021  -0.33802  -0.62142   0.74819
  27   34691.5    288.3   0.043473239   0.41255   0.09442  -0.63468   0.02858
  28   35024.0    285.5   0.001004489   0.00944  -0.01716  -0.06124   0.07347
  29   35271.8    283.5   0.043484031   0.40586   0.10915  -0.27969   0.56189
  30   35910.5    278.5   0.000350853   0.00322   0.04739  -0.02837  -0.01288
  31   36893.8    271.0   0.081745563   0.72943   0.14419  -0.84038   0.04903
  32   37067.6    269.8   0.056765024   0.50415  -0.34781   0.24861  -0.56689
  33   37961.3    263.4   0.050186663   0.43523  -0.17793  -0.39188  -0.50000
  34   38288.4    261.2   0.077633771   0.66751   0.54816  -0.51885  -0.31278
  35   38720.9    258.3   0.040947667   0.34814  -0.14987   0.57060   0.01013
  36   38858.4    257.3   0.265627575   2.25042   0.47100  -1.39444  -0.29005
  37   39327.2    254.3   0.047633781   0.39875  -0.23405   0.58592  -0.02588
  38   39439.0    253.6   0.054616680   0.45591  -0.10046   0.66768   0.00364
  39   39906.9    250.6   0.139717347   1.15260   0.51004  -0.47746  -0.81516
  40   40070.1    249.6   0.100069352   0.82216  -0.26856  -0.35645  -0.78929

FINAL SINGLE POINT ENERGY     -7422.716277432566

DIPOLE MOMENT
-------------
                                X             Y             Z
Electronic contribution:   -108.45230      -7.73490      91.67996
Nuclear contribution   :    110.42392       4.75342     -92.01154
                        -----------------------------------------
Total Dipole Moment    :      1.97162      -2.98148      -0.33157
                        -----------------------------------------
Magnitude (a.u.)       :      3.58977
Magnitude (Debye)      :      9.12446

Rotational constants in cm-1:     0.000952     0.000429     0.000370
Rotational constants in MHz :    28.525712    12.872002    11.104460

                             ****ORCA TERMINATED NORMALLY****
TOTAL RUN TIME: 0 days 0 hours 8 minutes 3 seconds 200 msec
