                         Program Version 4.2.0 -  RELEASE  -
|  1> # ORCA input file
|  2> # SCF done       -158.930086858829          0.000453643712
|  3> ! CAM-B3LYP def2-SVP def2/J RIJCOSX Grid4 TightSCF
|  4> %maxcore 5000
|  5> %tddft
|  6>     Mode sTDDFT
|  7>     Ethresh 5.0
|  8>     maxcore 5000
|  9> end
| 10>
| 11> %pal
| 12>   nprocs 6
| 13>   end
| 14> * xyz 0 1
| 15>    C       12.24452        -3.47250         4.75876
| 16>    C       10.96699        -3.17117         4.49581
| 17>    C       10.16889        -2.12712         5.07466
| 18>    C        8.90254        -2.06780         4.61303
| 19>    C        8.58012        -3.05976         3.64232
| 20>    S        9.98517        -4.06046         3.32200
| 21>    C        7.37831        -3.26192         3.02188
| 22>    C        6.19146        -2.48843         3.14409
| 23>    C        5.15778        -2.94607         2.40443
| 24>    C        5.42051        -4.15874         1.68641
| 25>    S        7.11302        -4.59373         1.90991
| 26>    C        4.48995        -4.81685         0.95518
| 27>    C        4.45643        -6.14172         0.35262
| 28>    C        3.92042        -6.24180        -0.93230
| 29>    C        3.74103        -7.47812        -1.54232
| 30>    S        3.16666        -7.38988        -3.19681
| 31>    C        2.78895        -5.60560        -3.00552
| 32>    C        3.61254        -5.07927        -1.83375
| 33>    C        4.00561        -8.63520        -0.83456
| 34>    C        4.50434        -8.55844         0.46942
| 35>    C        4.53111        -9.90246         1.13897
| 36>    C        4.61155       -10.95548         0.04365
| 37>    S        3.75890       -10.26193        -1.42057
| 38>    C        4.79192        -7.33525         1.05217
| 39>    C        5.48088        -7.21563         2.35532
| 40>    C        4.86269        -6.55125         3.40736
| 41>    C        5.57189        -6.23233         4.56184
| 42>    S        4.61752        -5.43073         5.79240
| 43>    C        3.21237        -5.23082         4.63275
| 44>    C        3.39705        -6.24092         3.50709
| 45>    C        6.91583        -6.53968         4.65071
| 46>    C        7.52820        -7.27288         3.63825
| 47>    C        9.00667        -7.44080         3.83940
| 48>    C        9.30580        -7.19083         5.31219
| 49>    S        7.98477        -6.10236         5.96771
| 50>    C        6.81408        -7.66102         2.51141
| 51>    C        7.40635        -8.62552         1.55898
| 52>    C        7.61455        -8.32241         0.22342
| 53>    C        8.02607        -9.30503        -0.68224
| 54>    S        8.18382        -8.75087        -2.33088
| 55>    C        7.40487        -7.15036        -1.90352
| 56>    C        7.58667        -6.95882        -0.40509
| 57>    C        8.28349       -10.58859        -0.23968
| 58>    C        8.18356       -10.88259         1.11536
| 59>    C        8.47329       -12.32205         1.43701
| 60>    C        9.20821       -12.92545         0.24368
| 61>    S        8.75745       -11.94806        -1.24085
| 62>    C        7.73465        -9.92807         2.03024
| 63>    C        7.78560       -10.28893         3.43926
| 64>    C        6.93578       -10.09859         4.47640
| 65>    C        7.29391       -10.32161         5.84643
| 66>    C        6.33722        -9.99860         6.74376
| 67>    C        5.12047        -9.55304         6.15814
| 68>    S        5.25325        -9.58013         4.40807
| 69>    C        3.98191        -9.14803         6.79844
| 70>    C        3.77341        -9.02032         8.20247
| 71>    C        2.55083        -8.56642         8.54790
| 72>    C        1.67651        -8.30398         7.43941
| 73>    S        2.52633        -8.68742         5.93469
| 74>    C        0.41999        -7.84401         7.47389
| 75>    H       12.80590        -2.90265         5.47772
| 76>    H       12.74883        -4.28215         4.26382
| 77>    H       10.58558        -1.47031         5.81758
| 78>    H        8.16893        -1.35445         4.94429
| 79>    H        6.14890        -1.61790         3.77389
| 80>    H        4.18407        -2.48767         2.36943
| 81>    H        3.56604        -4.26181         0.81341
| 82>    H        1.71878        -5.52838        -2.80907
| 83>    H        3.01651        -5.10778        -3.94504
| 84>    H        3.06463        -4.29139        -1.31409
| 85>    H        4.55490        -4.64705        -2.18616
| 86>    H        3.59863       -10.01189         1.70329
| 87>    H        5.35454       -10.01328         1.83857
| 88>    H        4.12553       -11.89057         0.31122
| 89>    H        5.64275       -11.15204        -0.25125
| 90>    H        3.25159        -4.20444         4.26466
| 91>    H        2.29142        -5.38103         5.19157
| 92>    H        2.98250        -5.85840         2.57600
| 93>    H        2.87789        -7.17405         3.74691
| 94>    H        9.51100        -6.69387         3.21862
| 95>    H        9.36460        -8.42322         3.53655
| 96>    H       10.26067        -6.69604         5.47420
| 97>    H        9.27044        -8.11344         5.89352
| 98>    H        6.35153        -7.22582        -2.17507
| 99>    H        7.87777        -6.37068        -2.49567
|100>    H        6.80450        -6.32123        -0.00362
|101>    H        8.54791        -6.47649        -0.19737
|102>    H        7.52574       -12.84234         1.61130
|103>    H        9.07625       -12.42764         2.34040
|104>    H        8.94404       -13.96401         0.05992
|105>    H       10.28998       -12.84559         0.35829
|106>    H        8.71205       -10.78583         3.71613
|107>    H        8.27633       -10.67826         6.10553
|108>    H        6.45777       -10.06543         7.81019
|109>    H        4.55248        -9.25848         8.90467
|110>    H        2.21892        -8.39601         9.55684
|111>    H       -0.05923        -7.62741         8.41215
|112>    H       -0.14888        -7.68113         6.57670
|113> *
|114>
|115>                          ****END OF INPUT****

CARTESIAN COORDINATES (ANGSTROEM)
---------------------------------
  C     12.244520   -3.472500    4.758760
  C     10.966990   -3.171170    4.495810
  C     10.168890   -2.127120    5.074660
  C      8.902540   -2.067800    4.613030
  C      8.580120   -3.059760    3.642320
  S      9.985170   -4.060460    3.322000
  C      7.378310   -3.261920    3.021880
  C      6.191460   -2.488430    3.144090
  C      5.157780   -2.946070    2.404430
  C      5.420510   -4.158740    1.686410
  S      7.113020   -4.593730    1.909910
  C      4.489950   -4.816850    0.955180
  C      4.456430   -6.141720    0.352620
  C      3.920420   -6.241800   -0.932300
  C      3.741030   -7.478120   -1.542320
  S      3.166660   -7.389880   -3.196810
  C      2.788950   -5.605600   -3.005520
  C      3.612540   -5.079270   -1.833750
  C      4.005610   -8.635200   -0.834560
  C      4.504340   -8.558440    0.469420
  C      4.531110   -9.902460    1.138970
  C      4.611550  -10.955480    0.043650
  S      3.758900  -10.261930   -1.420570
  C      4.791920   -7.335250    1.052170
  C      5.480880   -7.215630    2.355320
  C      4.862690   -6.551250    3.407360
  C      5.571890   -6.232330    4.561840
  S      4.617520   -5.430730    5.792400
  C      3.212370   -5.230820    4.632750
  C      3.397050   -6.240920    3.507090
  C      6.915830   -6.539680    4.650710
  C      7.528200   -7.272880    3.638250
  C      9.006670   -7.440800    3.839400
  C      9.305800   -7.190830    5.312190
  S      7.984770   -6.102360    5.967710
  C      6.814080   -7.661020    2.511410
  C      7.406350   -8.625520    1.558980
  C      7.614550   -8.322410    0.223420
  C      8.026070   -9.305030   -0.682240
  S      8.183820   -8.750870   -2.330880
  C      7.404870   -7.150360   -1.903520
  C      7.586670   -6.958820   -0.405090
  C      8.283490  -10.588590   -0.239680
  C      8.183560  -10.882590    1.115360
  C      8.473290  -12.322050    1.437010
  C      9.208210  -12.925450    0.243680
  S      8.757450  -11.948060   -1.240850
  C      7.734650   -9.928070    2.030240
  C      7.785600  -10.288930    3.439260
  C      6.935780  -10.098590    4.476400
  C      7.293910  -10.321610    5.846430
  C      6.337220   -9.998600    6.743760
  C      5.120470   -9.553040    6.158140
  S      5.253250   -9.580130    4.408070
  C      3.981910   -9.148030    6.798440
  C      3.773410   -9.020320    8.202470
  C      2.550830   -8.566420    8.547900
  C      1.676510   -8.303980    7.439410
  S      2.526330   -8.687420    5.934690
  C      0.419990   -7.844010    7.473890
  H     12.805900   -2.902650    5.477720
  H     12.748830   -4.282150    4.263820
  H     10.585580   -1.470310    5.817580
  H      8.168930   -1.354450    4.944290
  H      6.148900   -1.617900    3.773890
  H      4.184070   -2.487670    2.369430
  H      3.566040   -4.261810    0.813410
  H      1.718780   -5.528380   -2.809070
  H      3.016510   -5.107780   -3.945040
  H      3.064630   -4.291390   -1.314090
  H      4.554900   -4.647050   -2.186160
  H      3.598630  -10.011890    1.703290
  H      5.354540  -10.013280    1.838570
  H      4.125530  -11.890570    0.311220
  H      5.642750  -11.152040   -0.251250
  H      3.251590   -4.204440    4.264660
  H      2.291420   -5.381030    5.191570
  H      2.982500   -5.858400    2.576000
  H      2.877890   -7.174050    3.746910
  H      9.511000   -6.693870    3.218620
  H      9.364600   -8.423220    3.536550
  H     10.260670   -6.696040    5.474200
  H      9.270440   -8.113440    5.893520
  H      6.351530   -7.225820   -2.175070
  H      7.877770   -6.370680   -2.495670
  H      6.804500   -6.321230   -0.003620
  H      8.547910   -6.476490   -0.197370
  H      7.525740  -12.842340    1.611300
  H      9.076250  -12.427640    2.340400
  H      8.944040  -13.964010    0.059920
  H     10.289980  -12.845590    0.358290
  H      8.712050  -10.785830    3.716130
  H      8.276330  -10.678260    6.105530
  H      6.457770  -10.065430    7.810190
  H      4.552480   -9.258480    8.904670
  H      2.218920   -8.396010    9.556840
  H     -0.059230   -7.627410    8.412150
  H     -0.148880   -7.681130    6.576700

 Total Charge           Charge          ....    0
 Multiplicity           Mult            ....    1
 Number of Electrons    NEL             ....  498
 Basis Dimension        Dim             .... 1070

ORBITAL ENERGIES
----------------

  NO   OCC          E(Eh)            E(eV)
   0   2.0000     -88.930721     -2419.9280
   1   2.0000     -88.930692     -2419.9272
   2   2.0000     -88.930615     -2419.9251
   3   2.0000     -88.930550     -2419.9233
   4   2.0000     -88.912212     -2419.4243
   5   2.0000     -88.912117     -2419.4217
   6   2.0000     -88.906603     -2419.2717
   7   2.0000     -88.906437     -2419.2672
   8   2.0000     -88.904128     -2419.2043
   9   2.0000     -88.903936     -2419.1991
  10   2.0000     -10.299250      -280.2568
  11   2.0000     -10.299195      -280.2553
  12   2.0000     -10.298464      -280.2355
  13   2.0000     -10.298408      -280.2339
  14   2.0000     -10.298394      -280.2336
  15   2.0000     -10.298389      -280.2334
  16   2.0000     -10.297424      -280.2071
  17   2.0000     -10.297414      -280.2069
  18   2.0000     -10.289862      -280.0014
  19   2.0000     -10.289790      -279.9994
  20   2.0000     -10.283136      -279.8184
  21   2.0000     -10.283004      -279.8148
  22   2.0000     -10.281893      -279.7845
  23   2.0000     -10.281735      -279.7802
  24   2.0000     -10.280810      -279.7551
  25   2.0000     -10.280739      -279.7531
  26   2.0000     -10.280033      -279.7339
  27   2.0000     -10.279768      -279.7267
  28   2.0000     -10.278464      -279.6912
  29   2.0000     -10.278428      -279.6903
  30   2.0000     -10.278393      -279.6893
  31   2.0000     -10.278208      -279.6843
  32   2.0000     -10.275955      -279.6230
  33   2.0000     -10.275898      -279.6214
  34   2.0000     -10.275890      -279.6212
  35   2.0000     -10.275421      -279.6084
  36   2.0000     -10.274873      -279.5935
  37   2.0000     -10.274777      -279.5909
  38   2.0000     -10.274448      -279.5820
  39   2.0000     -10.274419      -279.5812
  40   2.0000     -10.271447      -279.5003
  41   2.0000     -10.271396      -279.4989
  42   2.0000     -10.270790      -279.4824
  43   2.0000     -10.270715      -279.4804
  44   2.0000     -10.268383      -279.4169
  45   2.0000     -10.268302      -279.4147
  46   2.0000     -10.267755      -279.3998
  47   2.0000     -10.267689      -279.3980
  48   2.0000     -10.264943      -279.3233
  49   2.0000     -10.264825      -279.3201
  50   2.0000     -10.261370      -279.2261
  51   2.0000     -10.261355      -279.2257
  52   2.0000     -10.260685      -279.2074
  53   2.0000     -10.260296      -279.1969
  54   2.0000     -10.259362      -279.1714
  55   2.0000     -10.259077      -279.1637
  56   2.0000     -10.257610      -279.1238
  57   2.0000     -10.257438      -279.1191
  58   2.0000     -10.257405      -279.1182
  59   2.0000     -10.257238      -279.1136
  60   2.0000      -8.026919      -218.4236
  61   2.0000      -8.026838      -218.4214
  62   2.0000      -8.025224      -218.3774
  63   2.0000      -8.025101      -218.3741
  64   2.0000      -8.008191      -217.9139
  65   2.0000      -8.008081      -217.9110
  66   2.0000      -8.002754      -217.7660
  67   2.0000      -8.002654      -217.7633
  68   2.0000      -7.999982      -217.6906
  69   2.0000      -7.999848      -217.6869
  70   2.0000      -5.996796      -163.1811
  71   2.0000      -5.996719      -163.1790
  72   2.0000      -5.995207      -163.1379
  73   2.0000      -5.995086      -163.1346
  74   2.0000      -5.992836      -163.0734
  75   2.0000      -5.992760      -163.0713
  76   2.0000      -5.991138      -163.0272
  77   2.0000      -5.991002      -163.0235
  78   2.0000      -5.987466      -162.9272
  79   2.0000      -5.987383      -162.9250
  80   2.0000      -5.985906      -162.8848
  81   2.0000      -5.985778      -162.8813
  82   2.0000      -5.978639      -162.6870
  83   2.0000      -5.978526      -162.6840
  84   2.0000      -5.974541      -162.5755
  85   2.0000      -5.974444      -162.5729
  86   2.0000      -5.973106      -162.5365
  87   2.0000      -5.972994      -162.5334
  88   2.0000      -5.970413      -162.4632
  89   2.0000      -5.970289      -162.4598
  90   2.0000      -5.969040      -162.4258
  91   2.0000      -5.968933      -162.4229
  92   2.0000      -5.967764      -162.3911
  93   2.0000      -5.967652      -162.3881
  94   2.0000      -5.966332      -162.3521
  95   2.0000      -5.966213      -162.3489
  96   2.0000      -5.962484      -162.2474
  97   2.0000      -5.962381      -162.2446
  98   2.0000      -5.959608      -162.1692
  99   2.0000      -5.959484      -162.1658
 100   2.0000      -0.987281       -26.8653
 101   2.0000      -0.981918       -26.7193
 102   2.0000      -0.978991       -26.6397
 103   2.0000      -0.974399       -26.5147
 104   2.0000      -0.966615       -26.3029
 105   2.0000      -0.958675       -26.0869
 106   2.0000      -0.957382       -26.0517
 107   2.0000      -0.932325       -25.3698
 108   2.0000      -0.930547       -25.3215
 109   2.0000      -0.925259       -25.1776
 110   2.0000      -0.913188       -24.8491
 111   2.0000      -0.901967       -24.5438
 112   2.0000      -0.880887       -23.9702
 113   2.0000      -0.871723       -23.7208
 114   2.0000      -0.867635       -23.6096
 115   2.0000      -0.850048       -23.1310
 116   2.0000      -0.849184       -23.1075
 117   2.0000      -0.841717       -22.9043
 118   2.0000      -0.837334       -22.7850
 119   2.0000      -0.835311       -22.7300
 120   2.0000      -0.834838       -22.7171
 121   2.0000      -0.831900       -22.6372
 122   2.0000      -0.824105       -22.4250
 123   2.0000      -0.816819       -22.2268
 124   2.0000      -0.809756       -22.0346
 125   2.0000      -0.807613       -21.9763
 126   2.0000      -0.804285       -21.8857
 127   2.0000      -0.786124       -21.3915
 128   2.0000      -0.783139       -21.3103
 129   2.0000      -0.780628       -21.2420
 130   2.0000      -0.778646       -21.1880
 131   2.0000      -0.772758       -21.0278
 132   2.0000      -0.769777       -20.9467
 133   2.0000      -0.760166       -20.6852
 134   2.0000      -0.748459       -20.3666
 135   2.0000      -0.716841       -19.5062
 136   2.0000      -0.710817       -19.3423
 137   2.0000      -0.696698       -18.9581
 138   2.0000      -0.688883       -18.7455
 139   2.0000      -0.682598       -18.5744
 140   2.0000      -0.681055       -18.5324
 141   2.0000      -0.675911       -18.3925
 142   2.0000      -0.670417       -18.2430
 143   2.0000      -0.663292       -18.0491
 144   2.0000      -0.657802       -17.8997
 145   2.0000      -0.647363       -17.6156
 146   2.0000      -0.642442       -17.4817
 147   2.0000      -0.640183       -17.4203
 148   2.0000      -0.637039       -17.3347
 149   2.0000      -0.628402       -17.0997
 150   2.0000      -0.621164       -16.9027
 151   2.0000      -0.616423       -16.7737
 152   2.0000      -0.613838       -16.7034
 153   2.0000      -0.608210       -16.5502
 154   2.0000      -0.606583       -16.5060
 155   2.0000      -0.594698       -16.1826
 156   2.0000      -0.594234       -16.1699
 157   2.0000      -0.589081       -16.0297
 158   2.0000      -0.588756       -16.0209
 159   2.0000      -0.585161       -15.9230
 160   2.0000      -0.572738       -15.5850
 161   2.0000      -0.568239       -15.4626
 162   2.0000      -0.554163       -15.0795
 163   2.0000      -0.553762       -15.0686
 164   2.0000      -0.545166       -14.8347
 165   2.0000      -0.543746       -14.7961
 166   2.0000      -0.542795       -14.7702
 167   2.0000      -0.541985       -14.7482
 168   2.0000      -0.540418       -14.7055
 169   2.0000      -0.535806       -14.5800
 170   2.0000      -0.522580       -14.2201
 171   2.0000      -0.521593       -14.1933
 172   2.0000      -0.519522       -14.1369
 173   2.0000      -0.514131       -13.9902
 174   2.0000      -0.505281       -13.7494
 175   2.0000      -0.504279       -13.7221
 176   2.0000      -0.501692       -13.6517
 177   2.0000      -0.500639       -13.6231
 178   2.0000      -0.500171       -13.6103
 179   2.0000      -0.496421       -13.5083
 180   2.0000      -0.493827       -13.4377
 181   2.0000      -0.486945       -13.2504
 182   2.0000      -0.485536       -13.2121
 183   2.0000      -0.483388       -13.1537
 184   2.0000      -0.481839       -13.1115
 185   2.0000      -0.476071       -12.9545
 186   2.0000      -0.475825       -12.9479
 187   2.0000      -0.470875       -12.8132
 188   2.0000      -0.470316       -12.7979
 189   2.0000      -0.465234       -12.6597
 190   2.0000      -0.464978       -12.6527
 191   2.0000      -0.459475       -12.5029
 192   2.0000      -0.457828       -12.4581
 193   2.0000      -0.455997       -12.4083
 194   2.0000      -0.453873       -12.3505
 195   2.0000      -0.451527       -12.2867
 196   2.0000      -0.450442       -12.2572
 197   2.0000      -0.448683       -12.2093
 198   2.0000      -0.448619       -12.2075
 199   2.0000      -0.444978       -12.1085
 200   2.0000      -0.444088       -12.0843
 201   2.0000      -0.442372       -12.0375
 202   2.0000      -0.437741       -11.9115
 203   2.0000      -0.436936       -11.8896
 204   2.0000      -0.434734       -11.8297
 205   2.0000      -0.434476       -11.8227
 206   2.0000      -0.433214       -11.7883
 207   2.0000      -0.428333       -11.6555
 208   2.0000      -0.427747       -11.6396
 209   2.0000      -0.422223       -11.4893
 210   2.0000      -0.418393       -11.3851
 211   2.0000      -0.414117       -11.2687
 212   2.0000      -0.410899       -11.1811
 213   2.0000      -0.410718       -11.1762
 214   2.0000      -0.407616       -11.0918
 215   2.0000      -0.404937       -11.0189
 216   2.0000      -0.404397       -11.0042
 217   2.0000      -0.396574       -10.7913
 218   2.0000      -0.395774       -10.7695
 219   2.0000      -0.395378       -10.7588
 220   2.0000      -0.391678       -10.6581
 221   2.0000      -0.386887       -10.5277
 222   2.0000      -0.384489       -10.4625
 223   2.0000      -0.384156       -10.4534
 224   2.0000      -0.381419       -10.3790
 225   2.0000      -0.376098       -10.2342
 226   2.0000      -0.373450       -10.1621
 227   2.0000      -0.368401       -10.0247
 228   2.0000      -0.367879       -10.0105
 229   2.0000      -0.349972        -9.5232
 230   2.0000      -0.345854        -9.4112
 231   2.0000      -0.342002        -9.3063
 232   2.0000      -0.336673        -9.1613
 233   2.0000      -0.331822        -9.0293
 234   2.0000      -0.328952        -8.9513
 235   2.0000      -0.326498        -8.8845
 236   2.0000      -0.322575        -8.7777
 237   2.0000      -0.319982        -8.7072
 238   2.0000      -0.306352        -8.3363
 239   2.0000      -0.303754        -8.2656
 240   2.0000      -0.295602        -8.0437
 241   2.0000      -0.271653        -7.3921
 242   2.0000      -0.258550        -7.0355
 243   2.0000      -0.256889        -6.9903
 244   2.0000      -0.244968        -6.6659
 245   2.0000      -0.242389        -6.5957
 246   2.0000      -0.232171        -6.3177
 247   2.0000      -0.213162        -5.8004
 248   2.0000      -0.211257        -5.7486
 249   0.0000      -0.049917        -1.3583
 250   0.0000      -0.048661        -1.3241
 251   0.0000       0.010920         0.2971
 252   0.0000       0.015971         0.4346
 253   0.0000       0.021428         0.5831

MULLIKEN ATOMIC CHARGES
-----------------------
   0 C :   -0.042081
   1 C :   -0.053623
   2 C :    0.050527
   3 C :    0.034894
   4 C :   -0.051978
   5 S :    0.061881
   6 C :   -0.027785
   7 C :    0.033425
   8 C :    0.031252
   9 C :    0.006935
  10 S :    0.058040
  11 C :   -0.162852
  12 C :    0.066972
  13 C :   -0.148328
  14 C :   -0.098128
  15 S :   -0.000725
  16 C :   -0.059002
  17 C :    0.143310
  18 C :   -0.101480
  19 C :   -0.050387
  20 C :    0.153044
  21 C :   -0.068346
  22 S :    0.003893
  23 C :   -0.062988
  24 C :   -0.045306
  25 C :   -0.085598
  26 C :   -0.091538
  27 S :   -0.012968
  28 C :   -0.049288
  29 C :    0.166666
  30 C :   -0.084818
  31 C :   -0.090878
  32 C :    0.169330
  33 C :   -0.049398
  34 S :   -0.013668
  35 C :   -0.045477
  36 C :   -0.063836
  37 C :   -0.051098
  38 C :   -0.100388
  39 S :    0.002851
  40 C :   -0.067233
  41 C :    0.151416
  42 C :   -0.097361
  43 C :   -0.154081
  44 C :    0.145535
  45 C :   -0.062109
  46 S :    0.000436
  47 C :    0.071704
  48 C :   -0.163900
  49 C :    0.007854
  50 C :    0.030888
  51 C :    0.033488
  52 C :   -0.029038
  53 S :    0.059160
  54 C :   -0.053439
  55 C :    0.037100
  56 C :    0.046103
  57 C :   -0.050242
  58 S :    0.061925
  59 C :   -0.041486
  60 H :    0.016753
  61 H :    0.016714
  62 H :   -0.015599
  63 H :   -0.013608
  64 H :   -0.017931
  65 H :   -0.017501
  66 H :    0.003973
  67 H :    0.058861
  68 H :    0.046568
  69 H :    0.009186
  70 H :    0.026900
  71 H :    0.025716
  72 H :    0.026199
  73 H :    0.041701
  74 H :    0.081435
  75 H :    0.044643
  76 H :    0.040573
  77 H :    0.006357
  78 H :    0.019335
  79 H :    0.019661
  80 H :    0.005511
  81 H :    0.040410
  82 H :    0.045756
  83 H :    0.080813
  84 H :    0.042448
  85 H :    0.027498
  86 H :    0.025627
  87 H :    0.027649
  88 H :    0.008500
  89 H :    0.047368
  90 H :    0.059543
  91 H :    0.003487
  92 H :   -0.017973
  93 H :   -0.017638
  94 H :   -0.013521
  95 H :   -0.015335
  96 H :    0.016199
  97 H :    0.015945
Sum of atomic charges:   -0.0000000

LOEWDIN ATOMIC CHARGES
----------------------
   0 C :   -0.090260
   1 C :   -0.135876
   2 C :   -0.036272
   3 C :   -0.019964
   4 C :   -0.177277
   5 S :    0.362669
   6 C :   -0.174317
   7 C :   -0.029165
   8 C :   -0.034693
   9 C :   -0.141094
  10 S :    0.410933
  11 C :   -0.062757
  12 C :   -0.047598
  13 C :   -0.046530
  14 C :   -0.182091
  15 S :    0.268635
  16 C :   -0.114135
  17 C :   -0.033042
  18 C :   -0.172752
  19 C :   -0.034497
  20 C :   -0.033789
  21 C :   -0.110270
  22 S :    0.279136
  23 C :   -0.019350
  24 C :   -0.042136
  25 C :   -0.042878
  26 C :   -0.175428
  27 S :    0.268238
  28 C :   -0.112863
  29 C :   -0.035877
  30 C :   -0.175178
  31 C :   -0.042917
  32 C :   -0.035988
  33 C :   -0.112570
  34 S :    0.267797
  35 C :   -0.042169
  36 C :   -0.019292
  37 C :   -0.034299
  38 C :   -0.172561
  39 S :    0.279122
  40 C :   -0.110287
  41 C :   -0.034111
  42 C :   -0.182207
  43 C :   -0.046533
  44 C :   -0.033174
  45 C :   -0.114350
  46 S :    0.268550
  47 C :   -0.047561
  48 C :   -0.062711
  49 C :   -0.141320
  50 C :   -0.034608
  51 C :   -0.029851
  52 C :   -0.174469
  53 S :    0.410642
  54 C :   -0.177582
  55 C :   -0.020019
  56 C :   -0.036454
  57 C :   -0.135538
  58 S :    0.362674
  59 C :   -0.090050
  60 H :    0.027166
  61 H :    0.023568
  62 H :    0.032055
  63 H :    0.032291
  64 H :    0.030796
  65 H :    0.028449
  66 H :    0.030409
  67 H :    0.022686
  68 H :    0.025140
  69 H :    0.032152
  70 H :    0.036961
  71 H :    0.035270
  72 H :    0.022780
  73 H :    0.023692
  74 H :    0.025163
  75 H :    0.015465
  76 H :    0.021645
  77 H :    0.031163
  78 H :    0.019582
  79 H :    0.019256
  80 H :    0.031006
  81 H :    0.021769
  82 H :    0.015767
  83 H :    0.024952
  84 H :    0.023857
  85 H :    0.022649
  86 H :    0.034968
  87 H :    0.037145
  88 H :    0.031917
  89 H :    0.025222
  90 H :    0.022817
  91 H :    0.030514
  92 H :    0.028465
  93 H :    0.030796
  94 H :    0.032211
  95 H :    0.032030
  96 H :    0.027139
  97 H :    0.023401

  Mayer bond orders larger than 0.100000
B(  0-C ,  1-C ) :   1.8643 B(  0-C , 60-H ) :   0.9499 B(  0-C , 61-H ) :   0.9421
B(  1-C ,  2-C ) :   1.0778 B(  1-C ,  5-S ) :   1.0099 B(  2-C ,  3-C ) :   1.6680
B(  2-C , 62-H ) :   0.9921 B(  3-C ,  4-C ) :   1.1466 B(  3-C , 63-H ) :   0.9895
B(  4-C ,  5-S ) :   1.0284 B(  4-C ,  6-C ) :   1.5849 B(  6-C ,  7-C ) :   1.1451
B(  6-C , 10-S ) :   1.0362 B(  7-C ,  8-C ) :   1.6376 B(  7-C , 64-H ) :   0.9910
B(  8-C ,  9-C ) :   1.0888 B(  8-C , 65-H ) :   0.9953 B(  9-C , 10-S ) :   1.0383
B(  9-C , 11-C ) :   1.7028 B( 11-C , 12-C ) :   1.0103 B( 11-C , 66-H ) :   0.9473
B( 12-C , 13-C ) :   1.3940 B( 12-C , 23-C ) :   1.3445 B( 13-C , 14-C ) :   1.3991
B( 13-C , 17-C ) :   1.0611 B( 14-C , 15-S ) :   0.9826 B( 14-C , 18-C ) :   1.4707
B( 15-S , 16-C ) :   0.9895 B( 16-C , 17-C ) :   1.0505 B( 16-C , 67-H ) :   0.9539
B( 16-C , 68-H ) :   0.9524 B( 17-C , 69-H ) :   0.9104 B( 17-C , 70-H ) :   0.9131
B( 18-C , 19-C ) :   1.3690 B( 18-C , 22-S ) :   1.0153 B( 19-C , 20-C ) :   1.0479
B( 19-C , 23-C ) :   1.4524 B( 20-C , 21-C ) :   1.0555 B( 20-C , 71-H ) :   0.9162
B( 20-C , 72-H ) :   0.8955 B( 21-C , 22-S ) :   0.9804 B( 21-C , 73-H ) :   0.9505
B( 21-C , 74-H ) :   0.9441 B( 23-C , 24-C ) :   0.9406 B( 24-C , 25-C ) :   1.4168
B( 24-C , 35-C ) :   1.4186 B( 25-C , 26-C ) :   1.3959 B( 25-C , 29-C ) :   1.0627
B( 26-C , 27-S ) :   0.9964 B( 26-C , 30-C ) :   1.4624 B( 27-S , 28-C ) :   0.9876
B( 28-C , 29-C ) :   1.0583 B( 28-C , 75-H ) :   0.9464 B( 28-C , 76-H ) :   0.9486
B( 29-C , 77-H ) :   0.8938 B( 29-C , 78-H ) :   0.9040 B( 30-C , 31-C ) :   1.3979
B( 30-C , 34-S ) :   0.9956 B( 31-C , 32-C ) :   1.0631 B( 31-C , 35-C ) :   1.4155
B( 32-C , 33-C ) :   1.0587 B( 32-C , 79-H ) :   0.9029 B( 32-C , 80-H ) :   0.8933
B( 33-C , 34-S ) :   0.9871 B( 33-C , 81-H ) :   0.9488 B( 33-C , 82-H ) :   0.9464
B( 35-C , 36-C ) :   0.9394 B( 36-C , 37-C ) :   1.4527 B( 36-C , 47-C ) :   1.3439
B( 37-C , 38-C ) :   1.3703 B( 37-C , 41-C ) :   1.0478 B( 38-C , 39-S ) :   1.0146
B( 38-C , 42-C ) :   1.4697 B( 39-S , 40-C ) :   0.9799 B( 40-C , 41-C ) :   1.0560
B( 40-C , 83-H ) :   0.9440 B( 40-C , 84-H ) :   0.9503 B( 41-C , 85-H ) :   0.8948
B( 41-C , 86-H ) :   0.9166 B( 42-C , 43-C ) :   1.4014 B( 42-C , 46-S ) :   0.9818
B( 43-C , 44-C ) :   1.0608 B( 43-C , 47-C ) :   1.3940 B( 44-C , 45-C ) :   1.0495
B( 44-C , 87-H ) :   0.9129 B( 44-C , 88-H ) :   0.9101 B( 45-C , 46-S ) :   0.9888
B( 45-C , 89-H ) :   0.9526 B( 45-C , 90-H ) :   0.9541 B( 47-C , 48-C ) :   1.0102
B( 48-C , 49-C ) :   1.7026 B( 48-C , 91-H ) :   0.9469 B( 49-C , 50-C ) :   1.0881
B( 49-C , 53-S ) :   1.0380 B( 50-C , 51-C ) :   1.6375 B( 50-C , 92-H ) :   0.9957
B( 51-C , 52-C ) :   1.1441 B( 51-C , 93-H ) :   0.9914 B( 52-C , 53-S ) :   1.0359
B( 52-C , 54-C ) :   1.5858 B( 54-C , 55-C ) :   1.1461 B( 54-C , 58-S ) :   1.0294
B( 55-C , 56-C ) :   1.6689 B( 55-C , 94-H ) :   0.9896 B( 56-C , 57-C ) :   1.0773
B( 56-C , 95-H ) :   0.9922 B( 57-C , 58-S ) :   1.0089 B( 57-C , 59-C ) :   1.8643
B( 59-C , 96-H ) :   0.9498 B( 59-C , 97-H ) :   0.9421

-----------------------------------------------------------------------------
         ABSORPTION SPECTRUM VIA TRANSITION ELECTRIC DIPOLE MOMENTS
-----------------------------------------------------------------------------
State   Energy  Wavelength   fosc         T2         TX        TY        TZ
        (cm-1)    (nm)                  (au**2)     (au)      (au)      (au)
-----------------------------------------------------------------------------
   0   21079.9    474.4   0.416710943   6.50791  -0.53673  -1.20093  -2.18577
   1   21118.1    473.5   0.709540629  11.06107   3.12561   0.73694  -0.86519
   2   21467.8    465.8   0.068815147   1.05529   1.00075   0.03874  -0.22867
   3   21629.6    462.3   0.125495817   1.91010  -0.00065   0.56931   1.25936
   4   22498.4    444.5   0.552964056   8.09134  -2.82406  -0.27291   0.20387
   5   22825.3    438.1   0.398028892   5.74082   0.04716   1.04093   2.15756
   6   25105.9    398.3   0.044836597   0.58794   0.15414   0.33544   0.67205
   7   25448.6    392.9   0.145879809   1.88716   1.36984  -0.10008  -0.02580
   8   28182.3    354.8   0.083171049   0.97156   0.73226  -0.61086   0.24944
   9   28459.6    351.4   0.000326929   0.00378   0.02651   0.00303   0.05541
  10   29676.1    337.0   0.006429011   0.07132   0.26658  -0.01591   0.00067
  11   29780.9    335.8   0.000035657   0.00039   0.01871  -0.00022  -0.00664
  12   30834.3    324.3   0.025024193   0.26718  -0.00808  -0.23032  -0.46267
  13   30926.7    323.3   0.021655491   0.23052   0.37575  -0.27049   0.12714
  14   31347.9    319.0   0.025400050   0.26675   0.03598   0.21591   0.46780
  15   31838.8    314.1   0.189981490   1.96440   0.98601  -0.91706   0.38881
  16   32651.1    306.3   0.039568476   0.39896  -0.51290   0.31284  -0.19500
  17   32711.1    305.7   0.006331256   0.06372   0.15857  -0.18005  -0.07847
  18   32863.3    304.3   0.003731244   0.03738  -0.02702   0.10399   0.16073
  19   33056.4    302.5   0.004911674   0.04892   0.09662  -0.18201   0.08034
  20   34055.5    293.6   0.029084763   0.28116   0.00310   0.23913   0.47325
  21   34294.7    291.6   0.038083262   0.36558  -0.31156   0.46834  -0.22174
  22   34911.9    286.4   0.062349067   0.58794   0.61398  -0.45626   0.05286
  23   34966.2    286.0   0.050797689   0.47827  -0.18227  -0.17552  -0.64361
  24   35051.6    285.3   0.041508017   0.38985   0.01977  -0.28915  -0.55304
  25   35146.3    284.5   0.017660582   0.16542   0.13367  -0.32705  -0.20148
  26   35179.2    284.3   0.028172896   0.26365   0.14561   0.06790   0.48768
  27   35638.6    280.6   0.066633395   0.61553   0.62159  -0.44557   0.17499
  28   35782.1    279.5   0.080861427   0.74396  -0.78139   0.33178  -0.15269
  29   35823.6    279.1   0.005126309   0.04711  -0.15137   0.13259   0.08133
  30   36753.3    272.1   0.007147193   0.06402  -0.02009   0.11387   0.22505
  31   37193.3    268.9   0.067904765   0.60105  -0.75228   0.17461  -0.06806
  32   37690.4    265.3   0.254288904   2.22112   0.04484   0.65098   1.33990
  33   38508.1    259.7   0.086529217   0.73975   0.84107  -0.17078   0.05649
  34   38690.4    258.5   0.057618906   0.49027  -0.00464  -0.29404  -0.63545
  35   39138.4    255.5   0.089150145   0.74988  -0.15949  -0.79476   0.30463
  36   39218.5    255.0   0.009974957   0.08373  -0.00653   0.04459   0.28584
  37   39539.0    252.9   0.014775052   0.12302   0.21971   0.24466  -0.12201
  38   39720.9    251.8   0.004288396   0.03554  -0.03732   0.17346  -0.06374
  39   39933.7    250.4   0.120732001   0.99531   0.04664   0.40419   0.91092
  40   40084.7    249.5   0.009941316   0.08165  -0.01011  -0.13781  -0.25011

FINAL SINGLE POINT ENERGY     -5906.337636800662

DIPOLE MOMENT
-------------
                                X             Y             Z
Electronic contribution:     -0.46245      -4.58765      -9.74865
Nuclear contribution   :      0.54609       5.49336      11.65485
                        -----------------------------------------
Total Dipole Moment    :      0.08364       0.90571       1.90620
                        -----------------------------------------
Magnitude (a.u.)       :      2.11209
Magnitude (Debye)      :      5.36850

Rotational constants in cm-1:     0.001401     0.001110     0.001004
Rotational constants in MHz :    41.991415    33.286349    30.107903

                             ****ORCA TERMINATED NORMALLY****
TOTAL RUN TIME: 0 days 0 hours 21 minutes 1 seconds 532 msec
