                         Program Version 4.2.0 -  RELEASE  -
|  1> # ORCA input file
|  2> # SCF done       -205.160247318388          0.000912306945
|  3> ! CAM-B3LYP def2-SVP def2/J RIJCOSX Grid4 TightSCF
|  4> %maxcore 5000
|  5> %tddft
|  6>     Mode sTDDFT
|  7>     Ethresh 5.0
|  8>     maxcore 5000
|  9> end
| 10>
| 11> %pal
| 12>   nprocs 6
| 13>   end
| 14> * xyz 0 1
| 15>    C       -2.15555        -1.60882        -0.42737
| 16>    C       -0.88191        -1.38848         0.02742
| 17>    C        0.15618        -2.34288        -0.03565
| 18>    N        1.04281        -3.07139        -0.05642
| 19>    C       -0.41274        -0.20169         0.62947
| 20>    N        0.04675         0.72419         1.12999
| 21>    C       -2.63272        -2.84928        -1.02885
| 22>    C       -4.00985        -2.70689        -1.33765
| 23>    C       -4.75120        -3.70963        -1.91544
| 24>    C       -4.10365        -4.91396        -2.20465
| 25>    C       -2.72846        -5.04923        -1.89441
| 26>    C       -1.97948        -4.03434        -1.30954
| 27>    S       -2.13647        -6.61827        -2.33768
| 28>    C       -3.69997        -7.07054        -2.92187
| 29>    C       -4.62883        -6.09758        -2.79480
| 30>    C       -4.45401        -1.36539        -0.94366
| 31>    O       -5.58070        -0.91148        -1.06065
| 32>    C       -3.27731        -0.68365        -0.38857
| 33>    C       -3.24753         0.60768         0.06472
| 34>    C       -4.27585         1.56316         0.15498
| 35>    C       -4.03971         2.85125         0.64971
| 36>    C       -5.18481         3.62607         0.67720
| 37>    C       -6.31288         2.92198         0.19923
| 38>    S       -5.96441         1.32888        -0.28871
| 39>    C       -7.43398         3.78629         0.28359
| 40>    C       -7.02243         5.02414         0.80880
| 41>    C       -5.59201         4.97065         1.06321
| 42>    C       -4.79814         5.96636         1.54913
| 43>    C       -3.41217         5.79073         1.75201
| 44>    N       -2.28599         5.65595         1.91798
| 45>    C       -5.30029         7.24565         1.87167
| 46>    N       -5.69892         8.29088         2.12182
| 47>    C       -8.07546         5.92785         0.95263
| 48>    C       -9.28006         5.38984         0.53575
| 49>    S       -9.09827         3.74290        -0.05552
| 50>    C      -10.58672         5.99583         0.57879
| 51>    C      -11.67820         5.48766        -0.14253
| 52>    F      -11.50920         4.42759        -0.94802
| 53>    C      -12.94404         6.03428        -0.07021
| 54>    F      -13.90564         5.45457        -0.80611
| 55>    C      -13.25425         7.13852         0.74066
| 56>    C      -12.15469         7.66685         1.43990
| 57>    C      -10.88556         7.12131         1.36469
| 58>    F       -9.93029         7.69646         2.10416
| 59>    F      -12.30530         8.74362         2.22009
| 60>    C      -14.59239         7.65686         0.86374
| 61>    C      -15.07016         8.56852         1.79012
| 62>    C      -16.43620         8.80219         1.64030
| 63>    C      -17.00275         8.06749         0.58365
| 64>    S      -15.86477         7.09073        -0.21272
| 65>    C      -18.39491         8.34011         0.53644
| 66>    C      -18.70324         9.24836         1.56576
| 67>    C      -17.48564         9.56625         2.29503
| 68>    C      -17.38300        10.37250         3.38959
| 69>    C      -16.15944        10.60782         4.05248
| 70>    N      -15.16982        10.80687         4.59509
| 71>    C      -18.51487        11.01916         3.93083
| 72>    N      -19.44423        11.53738         4.35856
| 73>    C      -20.06240         9.52866         1.64852
| 74>    C      -20.79678         8.83890         0.69689
| 75>    S      -19.77018         7.86365        -0.34391
| 76>    C      -22.19551         8.85033         0.47758
| 77>    C      -23.18509         9.18314         1.34682
| 78>    C      -23.22434         9.39408         2.78135
| 79>    C      -22.43616         8.78747         3.72432
| 80>    C      -22.62313         8.93123         5.11587
| 81>    N      -22.73078         9.00724         6.25554
| 82>    C      -21.41186         7.86685         3.43073
| 83>    N      -20.58850         7.08702         3.24979
| 84>    C      -24.43938        10.14585         3.07141
| 85>    C      -25.24798        10.17719         1.90482
| 86>    C      -24.53938         9.50553         0.80385
| 87>    O      -24.92889         9.29046        -0.32047
| 88>    C      -26.48597        10.77421         1.88452
| 89>    C      -26.93991        11.37705         3.06140
| 90>    C      -26.11491        11.35899         4.21315
| 91>    C      -24.86646        10.74861         4.23835
| 92>    S      -26.87272        12.17532         5.54220
| 93>    C      -28.26089        12.52047         4.57051
| 94>    C      -28.16822        12.05290         3.30628
| 95>    H       -5.79757        -3.56688        -2.13661
| 96>    H       -0.93554        -4.18947        -1.09503
| 97>    H       -3.82941        -8.05364        -3.33107
| 98>    H       -5.65364        -6.19890        -3.10304
| 99>    H       -2.29484         0.98382         0.41761
|100>    H       -3.06391         3.17142         0.97005
|101>    H       -7.96374         6.92599         1.33219
|102>    H      -14.46640         9.02918         2.54875
|103>    H      -20.50570        10.22190         2.33997
|104>    H      -22.52914         8.60982        -0.52742
|105>    H      -27.08556        10.77456         0.98756
|106>    H      -24.26764        10.76693         5.13396
|107>    H      -29.07438        13.06181         5.01310
|108>    H      -28.93390        12.17372         2.56160
|109> *
|110>
|111>                          ****END OF INPUT****

CARTESIAN COORDINATES (ANGSTROEM)
---------------------------------
  C     -2.155550   -1.608820   -0.427370
  C     -0.881910   -1.388480    0.027420
  C      0.156180   -2.342880   -0.035650
  N      1.042810   -3.071390   -0.056420
  C     -0.412740   -0.201690    0.629470
  N      0.046750    0.724190    1.129990
  C     -2.632720   -2.849280   -1.028850
  C     -4.009850   -2.706890   -1.337650
  C     -4.751200   -3.709630   -1.915440
  C     -4.103650   -4.913960   -2.204650
  C     -2.728460   -5.049230   -1.894410
  C     -1.979480   -4.034340   -1.309540
  S     -2.136470   -6.618270   -2.337680
  C     -3.699970   -7.070540   -2.921870
  C     -4.628830   -6.097580   -2.794800
  C     -4.454010   -1.365390   -0.943660
  O     -5.580700   -0.911480   -1.060650
  C     -3.277310   -0.683650   -0.388570
  C     -3.247530    0.607680    0.064720
  C     -4.275850    1.563160    0.154980
  C     -4.039710    2.851250    0.649710
  C     -5.184810    3.626070    0.677200
  C     -6.312880    2.921980    0.199230
  S     -5.964410    1.328880   -0.288710
  C     -7.433980    3.786290    0.283590
  C     -7.022430    5.024140    0.808800
  C     -5.592010    4.970650    1.063210
  C     -4.798140    5.966360    1.549130
  C     -3.412170    5.790730    1.752010
  N     -2.285990    5.655950    1.917980
  C     -5.300290    7.245650    1.871670
  N     -5.698920    8.290880    2.121820
  C     -8.075460    5.927850    0.952630
  C     -9.280060    5.389840    0.535750
  S     -9.098270    3.742900   -0.055520
  C    -10.586720    5.995830    0.578790
  C    -11.678200    5.487660   -0.142530
  F    -11.509200    4.427590   -0.948020
  C    -12.944040    6.034280   -0.070210
  F    -13.905640    5.454570   -0.806110
  C    -13.254250    7.138520    0.740660
  C    -12.154690    7.666850    1.439900
  C    -10.885560    7.121310    1.364690
  F     -9.930290    7.696460    2.104160
  F    -12.305300    8.743620    2.220090
  C    -14.592390    7.656860    0.863740
  C    -15.070160    8.568520    1.790120
  C    -16.436200    8.802190    1.640300
  C    -17.002750    8.067490    0.583650
  S    -15.864770    7.090730   -0.212720
  C    -18.394910    8.340110    0.536440
  C    -18.703240    9.248360    1.565760
  C    -17.485640    9.566250    2.295030
  C    -17.383000   10.372500    3.389590
  C    -16.159440   10.607820    4.052480
  N    -15.169820   10.806870    4.595090
  C    -18.514870   11.019160    3.930830
  N    -19.444230   11.537380    4.358560
  C    -20.062400    9.528660    1.648520
  C    -20.796780    8.838900    0.696890
  S    -19.770180    7.863650   -0.343910
  C    -22.195510    8.850330    0.477580
  C    -23.185090    9.183140    1.346820
  C    -23.224340    9.394080    2.781350
  C    -22.436160    8.787470    3.724320
  C    -22.623130    8.931230    5.115870
  N    -22.730780    9.007240    6.255540
  C    -21.411860    7.866850    3.430730
  N    -20.588500    7.087020    3.249790
  C    -24.439380   10.145850    3.071410
  C    -25.247980   10.177190    1.904820
  C    -24.539380    9.505530    0.803850
  O    -24.928890    9.290460   -0.320470
  C    -26.485970   10.774210    1.884520
  C    -26.939910   11.377050    3.061400
  C    -26.114910   11.358990    4.213150
  C    -24.866460   10.748610    4.238350
  S    -26.872720   12.175320    5.542200
  C    -28.260890   12.520470    4.570510
  C    -28.168220   12.052900    3.306280
  H     -5.797570   -3.566880   -2.136610
  H     -0.935540   -4.189470   -1.095030
  H     -3.829410   -8.053640   -3.331070
  H     -5.653640   -6.198900   -3.103040
  H     -2.294840    0.983820    0.417610
  H     -3.063910    3.171420    0.970050
  H     -7.963740    6.925990    1.332190
  H    -14.466400    9.029180    2.548750
  H    -20.505700   10.221900    2.339970
  H    -22.529140    8.609820   -0.527420
  H    -27.085560   10.774560    0.987560
  H    -24.267640   10.766930    5.133960
  H    -29.074380   13.061810    5.013100
  H    -28.933900   12.173720    2.561600

 Total Charge           Charge          ....    0
 Multiplicity           Mult            ....    1
 Number of Electrons    NEL             ....  578
 Basis Dimension        Dim             .... 1214

ORBITAL ENERGIES
----------------

  NO   OCC          E(Eh)            E(eV)
   0   2.0000     -88.999492     -2421.7993
   1   2.0000     -88.999361     -2421.7957
   2   2.0000     -88.998896     -2421.7831
   3   2.0000     -88.993357     -2421.6324
   4   2.0000     -88.971174     -2421.0287
   5   2.0000     -88.968528     -2420.9567
   6   2.0000     -24.826689      -675.5686
   7   2.0000     -24.825554      -675.5377
   8   2.0000     -24.818122      -675.3354
   9   2.0000     -24.817999      -675.3321
  10   2.0000     -19.229068      -523.2495
  11   2.0000     -19.218517      -522.9624
  12   2.0000     -14.435463      -392.8089
  13   2.0000     -14.433437      -392.7538
  14   2.0000     -14.432605      -392.7311
  15   2.0000     -14.431907      -392.7122
  16   2.0000     -14.420576      -392.4038
  17   2.0000     -14.419801      -392.3827
  18   2.0000     -14.417090      -392.3090
  19   2.0000     -14.416312      -392.2878
  20   2.0000     -10.400572      -283.0140
  21   2.0000     -10.400109      -283.0013
  22   2.0000     -10.399243      -282.9778
  23   2.0000     -10.398751      -282.9644
  24   2.0000     -10.376472      -282.3582
  25   2.0000     -10.370180      -282.1870
  26   2.0000     -10.369546      -282.1697
  27   2.0000     -10.368582      -282.1435
  28   2.0000     -10.357507      -281.8421
  29   2.0000     -10.356872      -281.8248
  30   2.0000     -10.347073      -281.5582
  31   2.0000     -10.346359      -281.5387
  32   2.0000     -10.345954      -281.5277
  33   2.0000     -10.345373      -281.5119
  34   2.0000     -10.344801      -281.4963
  35   2.0000     -10.343799      -281.4691
  36   2.0000     -10.343640      -281.4648
  37   2.0000     -10.342886      -281.4442
  38   2.0000     -10.342517      -281.4342
  39   2.0000     -10.339760      -281.3592
  40   2.0000     -10.338432      -281.3230
  41   2.0000     -10.336259      -281.2639
  42   2.0000     -10.335648      -281.2473
  43   2.0000     -10.333193      -281.1805
  44   2.0000     -10.332450      -281.1603
  45   2.0000     -10.331677      -281.1392
  46   2.0000     -10.331552      -281.1358
  47   2.0000     -10.330851      -281.1167
  48   2.0000     -10.330522      -281.1078
  49   2.0000     -10.327818      -281.0342
  50   2.0000     -10.325009      -280.9578
  51   2.0000     -10.323109      -280.9061
  52   2.0000     -10.322311      -280.8844
  53   2.0000     -10.322149      -280.8800
  54   2.0000     -10.319953      -280.8202
  55   2.0000     -10.318634      -280.7843
  56   2.0000     -10.318262      -280.7742
  57   2.0000     -10.315943      -280.7111
  58   2.0000     -10.315898      -280.7099
  59   2.0000     -10.314517      -280.6723
  60   2.0000     -10.313019      -280.6315
  61   2.0000     -10.311742      -280.5968
  62   2.0000     -10.311200      -280.5820
  63   2.0000     -10.311178      -280.5814
  64   2.0000     -10.310995      -280.5764
  65   2.0000     -10.310961      -280.5755
  66   2.0000     -10.309798      -280.5439
  67   2.0000     -10.309151      -280.5263
  68   2.0000     -10.307395      -280.4785
  69   2.0000     -10.306242      -280.4471
  70   2.0000     -10.305679      -280.4318
  71   2.0000     -10.304622      -280.4030
  72   2.0000     -10.304608      -280.4027
  73   2.0000     -10.304013      -280.3865
  74   2.0000     -10.303922      -280.3840
  75   2.0000     -10.302084      -280.3339
  76   2.0000     -10.295702      -280.1603
  77   2.0000     -10.294061      -280.1156
  78   2.0000     -10.293301      -280.0950
  79   2.0000     -10.290912      -280.0299
  80   2.0000      -8.094085      -220.2513
  81   2.0000      -8.093622      -220.2386
  82   2.0000      -8.093244      -220.2284
  83   2.0000      -8.085543      -220.0188
  84   2.0000      -8.067275      -219.5217
  85   2.0000      -8.064796      -219.4543
  86   2.0000      -6.063255      -164.9896
  87   2.0000      -6.062925      -164.9806
  88   2.0000      -6.062516      -164.9694
  89   2.0000      -6.059057      -164.8753
  90   2.0000      -6.058514      -164.8605
  91   2.0000      -6.058094      -164.8491
  92   2.0000      -6.056600      -164.8085
  93   2.0000      -6.056048      -164.7934
  94   2.0000      -6.055697      -164.7839
  95   2.0000      -6.054972      -164.7642
  96   2.0000      -6.050180      -164.6338
  97   2.0000      -6.048150      -164.5785
  98   2.0000      -6.036798      -164.2696
  99   2.0000      -6.034290      -164.2014
 100   2.0000      -6.032452      -164.1514
 101   2.0000      -6.029994      -164.0845
 102   2.0000      -6.029028      -164.0582
 103   2.0000      -6.026480      -163.9889
 104   2.0000      -1.350632       -36.7526
 105   2.0000      -1.343675       -36.5633
 106   2.0000      -1.332998       -36.2727
 107   2.0000      -1.325339       -36.0643
 108   2.0000      -1.144554       -31.1449
 109   2.0000      -1.133982       -30.8572
 110   2.0000      -1.053671       -28.6718
 111   2.0000      -1.051361       -28.6090
 112   2.0000      -1.027104       -27.9489
 113   2.0000      -1.025156       -27.8959
 114   2.0000      -1.024438       -27.8764
 115   2.0000      -1.024192       -27.8697
 116   2.0000      -1.017889       -27.6982
 117   2.0000      -1.012523       -27.5522
 118   2.0000      -1.012113       -27.5410
 119   2.0000      -1.011079       -27.5129
 120   2.0000      -1.009836       -27.4790
 121   2.0000      -1.007428       -27.4135
 122   2.0000      -0.999066       -27.1860
 123   2.0000      -0.997057       -27.1313
 124   2.0000      -0.996030       -27.1034
 125   2.0000      -0.989762       -26.9328
 126   2.0000      -0.987969       -26.8840
 127   2.0000      -0.968655       -26.3584
 128   2.0000      -0.963881       -26.2285
 129   2.0000      -0.937322       -25.5058
 130   2.0000      -0.936009       -25.4701
 131   2.0000      -0.931418       -25.3452
 132   2.0000      -0.922174       -25.0936
 133   2.0000      -0.912071       -24.8187
 134   2.0000      -0.902827       -24.5672
 135   2.0000      -0.896633       -24.3986
 136   2.0000      -0.885855       -24.1053
 137   2.0000      -0.883960       -24.0538
 138   2.0000      -0.880671       -23.9643
 139   2.0000      -0.880540       -23.9607
 140   2.0000      -0.872693       -23.7472
 141   2.0000      -0.870906       -23.6986
 142   2.0000      -0.864936       -23.5361
 143   2.0000      -0.862941       -23.4818
 144   2.0000      -0.861756       -23.4496
 145   2.0000      -0.832191       -22.6451
 146   2.0000      -0.827759       -22.5245
 147   2.0000      -0.825611       -22.4660
 148   2.0000      -0.810204       -22.0468
 149   2.0000      -0.800783       -21.7904
 150   2.0000      -0.784863       -21.3572
 151   2.0000      -0.782366       -21.2893
 152   2.0000      -0.774944       -21.0873
 153   2.0000      -0.765318       -20.8254
 154   2.0000      -0.762128       -20.7385
 155   2.0000      -0.754563       -20.5327
 156   2.0000      -0.751340       -20.4450
 157   2.0000      -0.730074       -19.8663
 158   2.0000      -0.726440       -19.7674
 159   2.0000      -0.712629       -19.3916
 160   2.0000      -0.709361       -19.3027
 161   2.0000      -0.704340       -19.1661
 162   2.0000      -0.700556       -19.0631
 163   2.0000      -0.697032       -18.9672
 164   2.0000      -0.694504       -18.8984
 165   2.0000      -0.691254       -18.8100
 166   2.0000      -0.689202       -18.7541
 167   2.0000      -0.683950       -18.6112
 168   2.0000      -0.680983       -18.5305
 169   2.0000      -0.675027       -18.3684
 170   2.0000      -0.666384       -18.1332
 171   2.0000      -0.664765       -18.0892
 172   2.0000      -0.662903       -18.0385
 173   2.0000      -0.657491       -17.8912
 174   2.0000      -0.649441       -17.6722
 175   2.0000      -0.646555       -17.5937
 176   2.0000      -0.640251       -17.4221
 177   2.0000      -0.639348       -17.3975
 178   2.0000      -0.629559       -17.1312
 179   2.0000      -0.628118       -17.0920
 180   2.0000      -0.624284       -16.9876
 181   2.0000      -0.622655       -16.9433
 182   2.0000      -0.620820       -16.8934
 183   2.0000      -0.620475       -16.8840
 184   2.0000      -0.612641       -16.6708
 185   2.0000      -0.609818       -16.5940
 186   2.0000      -0.603348       -16.4179
 187   2.0000      -0.599443       -16.3117
 188   2.0000      -0.597599       -16.2615
 189   2.0000      -0.591159       -16.0863
 190   2.0000      -0.589806       -16.0494
 191   2.0000      -0.580402       -15.7935
 192   2.0000      -0.576229       -15.6800
 193   2.0000      -0.574657       -15.6372
 194   2.0000      -0.570608       -15.5270
 195   2.0000      -0.564189       -15.3524
 196   2.0000      -0.559135       -15.2148
 197   2.0000      -0.554900       -15.0996
 198   2.0000      -0.553662       -15.0659
 199   2.0000      -0.552575       -15.0363
 200   2.0000      -0.548003       -14.9119
 201   2.0000      -0.547481       -14.8977
 202   2.0000      -0.545876       -14.8540
 203   2.0000      -0.545215       -14.8360
 204   2.0000      -0.542382       -14.7590
 205   2.0000      -0.541308       -14.7298
 206   2.0000      -0.536100       -14.5880
 207   2.0000      -0.533325       -14.5125
 208   2.0000      -0.528517       -14.3817
 209   2.0000      -0.524499       -14.2723
 210   2.0000      -0.522316       -14.2129
 211   2.0000      -0.520801       -14.1717
 212   2.0000      -0.515760       -14.0345
 213   2.0000      -0.514340       -13.9959
 214   2.0000      -0.510514       -13.8918
 215   2.0000      -0.509272       -13.8580
 216   2.0000      -0.508834       -13.8461
 217   2.0000      -0.505910       -13.7665
 218   2.0000      -0.505514       -13.7557
 219   2.0000      -0.504169       -13.7191
 220   2.0000      -0.502211       -13.6659
 221   2.0000      -0.501843       -13.6559
 222   2.0000      -0.499210       -13.5842
 223   2.0000      -0.498365       -13.5612
 224   2.0000      -0.496423       -13.5084
 225   2.0000      -0.494901       -13.4669
 226   2.0000      -0.491333       -13.3699
 227   2.0000      -0.490352       -13.3432
 228   2.0000      -0.489020       -13.3069
 229   2.0000      -0.488508       -13.2930
 230   2.0000      -0.478863       -13.0305
 231   2.0000      -0.476463       -12.9652
 232   2.0000      -0.471311       -12.8250
 233   2.0000      -0.468389       -12.7455
 234   2.0000      -0.465450       -12.6655
 235   2.0000      -0.465171       -12.6580
 236   2.0000      -0.462429       -12.5833
 237   2.0000      -0.461290       -12.5523
 238   2.0000      -0.459230       -12.4963
 239   2.0000      -0.458256       -12.4698
 240   2.0000      -0.456337       -12.4176
 241   2.0000      -0.455915       -12.4061
 242   2.0000      -0.452751       -12.3200
 243   2.0000      -0.451305       -12.2806
 244   2.0000      -0.448617       -12.2075
 245   2.0000      -0.445876       -12.1329
 246   2.0000      -0.445129       -12.1126
 247   2.0000      -0.444517       -12.0959
 248   2.0000      -0.444072       -12.0838
 249   2.0000      -0.442551       -12.0424
 250   2.0000      -0.442124       -12.0308
 251   2.0000      -0.441630       -12.0174
 252   2.0000      -0.441504       -12.0139
 253   2.0000      -0.440906       -11.9977
 254   2.0000      -0.438920       -11.9436
 255   2.0000      -0.436697       -11.8831
 256   2.0000      -0.434473       -11.8226
 257   2.0000      -0.434357       -11.8194
 258   2.0000      -0.430506       -11.7147
 259   2.0000      -0.430098       -11.7036
 260   2.0000      -0.429238       -11.6801
 261   2.0000      -0.428680       -11.6650
 262   2.0000      -0.427357       -11.6290
 263   2.0000      -0.422833       -11.5059
 264   2.0000      -0.419297       -11.4096
 265   2.0000      -0.412694       -11.2300
 266   2.0000      -0.409775       -11.1505
 267   2.0000      -0.408706       -11.1215
 268   2.0000      -0.406285       -11.0556
 269   2.0000      -0.401023       -10.9124
 270   2.0000      -0.387881       -10.5548
 271   2.0000      -0.382406       -10.4058
 272   2.0000      -0.375280       -10.2119
 273   2.0000      -0.366977        -9.9860
 274   2.0000      -0.355023        -9.6607
 275   2.0000      -0.354497        -9.6463
 276   2.0000      -0.346234        -9.4215
 277   2.0000      -0.344986        -9.3875
 278   2.0000      -0.339117        -9.2279
 279   2.0000      -0.338506        -9.2112
 280   2.0000      -0.329989        -8.9795
 281   2.0000      -0.326734        -8.8909
 282   2.0000      -0.320297        -8.7157
 283   2.0000      -0.318804        -8.6751
 284   2.0000      -0.315842        -8.5945
 285   2.0000      -0.299362        -8.1461
 286   2.0000      -0.297517        -8.0958
 287   2.0000      -0.280583        -7.6351
 288   2.0000      -0.262866        -7.1530
 289   0.0000      -0.116998        -3.1837
 290   0.0000      -0.111222        -3.0265
 291   0.0000      -0.091384        -2.4867
 292   0.0000      -0.090074        -2.4510
 293   0.0000      -0.068704        -1.8695

MULLIKEN ATOMIC CHARGES
-----------------------
   0 C :    0.327604
   1 C :   -0.357151
   2 C :   -0.183511
   3 N :    0.153157
   4 C :   -0.193201
   5 N :    0.156495
   6 C :    0.013001
   7 C :   -0.011730
   8 C :   -0.067248
   9 C :    0.113621
  10 C :   -0.097381
  11 C :   -0.021704
  12 S :    0.145442
  13 C :   -0.047216
  14 C :    0.026844
  15 C :    0.167489
  16 O :   -0.194096
  17 C :   -0.087494
  18 C :   -0.031387
  19 C :   -0.053014
  20 C :   -0.063236
  21 C :    0.049846
  22 C :   -0.071310
  23 S :    0.243669
  24 C :   -0.101204
  25 C :    0.011563
  26 C :    0.305086
  27 C :   -0.297508
  28 C :   -0.193927
  29 N :    0.183714
  30 C :   -0.189197
  31 N :    0.182073
  32 C :   -0.036226
  33 C :   -0.094310
  34 S :    0.217515
  35 C :    0.017463
  36 C :    0.149778
  37 F :   -0.170947
  38 C :    0.148523
  39 F :   -0.172237
  40 C :    0.038352
  41 C :    0.159762
  42 C :    0.170562
  43 F :   -0.157898
  44 F :   -0.159405
  45 C :   -0.096591
  46 C :   -0.047411
  47 C :    0.019225
  48 C :   -0.096745
  49 S :    0.213791
  50 C :   -0.076439
  51 C :   -0.002717
  52 C :    0.306506
  53 C :   -0.287274
  54 C :   -0.191137
  55 N :    0.182613
  56 C :   -0.184571
  57 N :    0.170745
  58 C :   -0.004209
  59 C :   -0.114735
  60 S :    0.218301
  61 C :    0.078174
  62 C :   -0.124621
  63 C :    0.266192
  64 C :   -0.331485
  65 C :   -0.175121
  66 N :    0.161890
  67 C :   -0.197167
  68 N :    0.164902
  69 C :   -0.003021
  70 C :    0.006956
  71 C :    0.130074
  72 O :   -0.143973
  73 C :   -0.071620
  74 C :    0.111415
  75 C :   -0.093649
  76 C :   -0.019162
  77 S :    0.145369
  78 C :   -0.050862
  79 C :    0.027284
  80 H :   -0.012227
  81 H :   -0.005563
  82 H :    0.039424
  83 H :   -0.006290
  84 H :    0.017616
  85 H :    0.028357
  86 H :    0.020948
  87 H :    0.022034
  88 H :    0.025062
  89 H :    0.022429
  90 H :   -0.010014
  91 H :    0.003567
  92 H :    0.039997
  93 H :   -0.005285
Sum of atomic charges:   -0.0000000

LOEWDIN ATOMIC CHARGES
----------------------
   0 C :    0.076526
   1 C :   -0.139570
   2 C :   -0.017715
   3 N :   -0.051406
   4 C :   -0.023285
   5 N :   -0.046147
   6 C :   -0.021274
   7 C :   -0.054610
   8 C :    0.024374
   9 C :   -0.035306
  10 C :   -0.144837
  11 C :   -0.007225
  12 S :    0.434013
  13 C :   -0.148114
  14 C :   -0.057665
  15 C :    0.087043
  16 O :   -0.176709
  17 C :   -0.107990
  18 C :    0.056073
  19 C :   -0.182725
  20 C :    0.010724
  21 C :   -0.074936
  22 C :   -0.170854
  23 S :    0.550539
  24 C :   -0.185037
  25 C :   -0.061373
  26 C :    0.076827
  27 C :   -0.098371
  28 C :   -0.019752
  29 N :   -0.023316
  30 C :   -0.018779
  31 N :   -0.026176
  32 C :   -0.018534
  33 C :   -0.163515
  34 S :    0.503354
  35 C :   -0.080122
  36 C :    0.053699
  37 F :   -0.047170
  38 C :    0.052822
  39 F :   -0.047245
  40 C :   -0.075733
  41 C :    0.065942
  42 C :    0.067437
  43 F :   -0.031259
  44 F :   -0.031558
  45 C :   -0.167477
  46 C :   -0.016219
  47 C :   -0.064146
  48 C :   -0.181697
  49 S :    0.502588
  50 C :   -0.163553
  51 C :   -0.061991
  52 C :    0.081608
  53 C :   -0.095767
  54 C :   -0.019412
  55 N :   -0.023273
  56 C :   -0.012596
  57 N :   -0.032048
  58 C :    0.004195
  59 C :   -0.179629
  60 S :    0.502332
  61 C :    0.040368
  62 C :   -0.085385
  63 C :    0.066660
  64 C :   -0.135957
  65 C :   -0.019642
  66 N :   -0.044667
  67 C :   -0.015319
  68 N :   -0.048854
  69 C :   -0.019327
  70 C :   -0.056479
  71 C :    0.083581
  72 O :   -0.143261
  73 C :    0.024785
  74 C :   -0.034968
  75 C :   -0.143792
  76 C :   -0.007777
  77 S :    0.433859
  78 C :   -0.148583
  79 C :   -0.057605
  80 H :    0.040336
  81 H :    0.041318
  82 H :    0.030021
  83 H :    0.035526
  84 H :    0.053851
  85 H :    0.048076
  86 H :    0.040709
  87 H :    0.040398
  88 H :    0.042566
  89 H :    0.046096
  90 H :    0.041090
  91 H :    0.042771
  92 H :    0.029952
  93 H :    0.035675

  Mayer bond orders larger than 0.100000
B(  0-C ,  1-C ) :   1.6287 B(  0-C ,  6-C ) :   1.0009 B(  0-C , 17-C ) :   1.0720
B(  1-C ,  2-C ) :   1.1451 B(  1-C ,  4-C ) :   1.1460 B(  2-C ,  3-N ) :   2.9691
B(  4-C ,  5-N ) :   2.9611 B(  6-C ,  7-C ) :   1.2686 B(  6-C , 11-C ) :   1.4148
B(  7-C ,  8-C ) :   1.4206 B(  7-C , 15-C ) :   0.9697 B(  8-C ,  9-C ) :   1.2437
B(  8-C , 80-H ) :   1.0168 B(  9-C , 10-C ) :   1.3014 B(  9-C , 14-C ) :   1.1741
B( 10-C , 11-C ) :   1.3220 B( 10-C , 12-S ) :   1.1024 B( 11-C , 81-H ) :   0.9814
B( 12-S , 13-C ) :   1.1285 B( 13-C , 14-C ) :   1.6265 B( 13-C , 82-H ) :   0.9685
B( 14-C , 83-H ) :   0.9989 B( 15-C , 16-O ) :   2.1016 B( 15-C , 17-C ) :   0.9798
B( 17-C , 18-C ) :   1.5083 B( 18-C , 19-C ) :   1.2546 B( 18-C , 84-H ) :   0.9393
B( 19-C , 20-C ) :   1.3354 B( 19-C , 23-S ) :   1.0761 B( 20-C , 21-C ) :   1.3246
B( 20-C , 85-H ) :   1.0092 B( 21-C , 22-C ) :   1.3683 B( 21-C , 26-C ) :   0.9840
B( 22-C , 23-S ) :   1.1236 B( 22-C , 24-C ) :   1.1944 B( 24-C , 25-C ) :   1.4275
B( 24-C , 34-S ) :   1.1216 B( 25-C , 26-C ) :   0.9980 B( 25-C , 32-C ) :   1.2876
B( 26-C , 27-C ) :   1.7194 B( 27-C , 28-C ) :   1.1350 B( 27-C , 30-C ) :   1.1325
B( 28-C , 29-N ) :   2.9941 B( 30-C , 31-N ) :   2.9934 B( 32-C , 33-C ) :   1.4715
B( 32-C , 86-H ) :   0.9933 B( 33-C , 34-S ) :   1.1115 B( 33-C , 35-C ) :   1.0927
B( 35-C , 36-C ) :   1.2771 B( 35-C , 40-C ) :   0.1208 B( 35-C , 42-C ) :   1.2888
B( 36-C , 37-F ) :   1.1409 B( 36-C , 38-C ) :   1.3392 B( 38-C , 39-F ) :   1.1311
B( 38-C , 40-C ) :   1.2711 B( 40-C , 41-C ) :   1.2790 B( 40-C , 45-C ) :   1.1081
B( 41-C , 42-C ) :   1.3271 B( 41-C , 44-F ) :   1.1427 B( 42-C , 43-F ) :   1.1480
B( 45-C , 46-C ) :   1.4682 B( 45-C , 49-S ) :   1.1062 B( 46-C , 47-C ) :   1.2886
B( 46-C , 87-H ) :   0.9927 B( 47-C , 48-C ) :   1.4312 B( 47-C , 52-C ) :   0.9978
B( 48-C , 49-S ) :   1.1197 B( 48-C , 50-C ) :   1.1858 B( 50-C , 51-C ) :   1.4281
B( 50-C , 60-S ) :   1.1500 B( 51-C , 52-C ) :   0.9977 B( 51-C , 58-C ) :   1.3455
B( 52-C , 53-C ) :   1.7177 B( 53-C , 54-C ) :   1.1339 B( 53-C , 56-C ) :   1.1338
B( 54-C , 55-N ) :   2.9933 B( 56-C , 57-N ) :   2.9818 B( 58-C , 59-C ) :   1.4126
B( 58-C , 88-H ) :   0.9835 B( 59-C , 60-S ) :   1.0970 B( 59-C , 61-C ) :   1.1095
B( 61-C , 62-C ) :   1.7008 B( 61-C , 89-H ) :   0.9283 B( 62-C , 63-C ) :   1.0264
B( 62-C , 71-C ) :   0.9364 B( 63-C , 64-C ) :   1.6521 B( 63-C , 69-C ) :   1.0153
B( 64-C , 65-C ) :   1.1249 B( 64-C , 67-C ) :   1.1722 B( 65-C , 66-N ) :   2.9951
B( 67-C , 68-N ) :   2.9964 B( 69-C , 70-C ) :   1.2681 B( 69-C , 76-C ) :   1.4173
B( 70-C , 71-C ) :   0.9261 B( 70-C , 73-C ) :   1.4226 B( 71-C , 72-O ) :   2.2652
B( 73-C , 74-C ) :   1.2531 B( 73-C , 90-H ) :   1.0167 B( 74-C , 75-C ) :   1.2991
B( 74-C , 79-C ) :   1.1745 B( 75-C , 76-C ) :   1.3217 B( 75-C , 77-S ) :   1.1003
B( 76-C , 91-H ) :   0.9849 B( 77-S , 78-C ) :   1.1284 B( 78-C , 79-C ) :   1.6277
B( 78-C , 92-H ) :   0.9684 B( 79-C , 93-H ) :   0.9992

-----------------------------------------------------------------------------
         ABSORPTION SPECTRUM VIA TRANSITION ELECTRIC DIPOLE MOMENTS
-----------------------------------------------------------------------------
State   Energy  Wavelength   fosc         T2         TX        TY        TZ
        (cm-1)    (nm)                  (au**2)     (au)      (au)      (au)
-----------------------------------------------------------------------------
   0   14828.3    674.4   0.514335145  11.41903  -3.07268   1.33468   0.44302
   1   15751.0    634.9   0.201672347   4.21515  -1.34791   1.53164   0.22883
   2   20811.0    480.5   1.483085335  23.46115  -4.36616   1.80736   1.06361
   3   22316.2    448.1   0.807569521  11.91336  -1.70978   2.99656   0.10334
   4   24251.7    412.3   0.005369793   0.07289  -0.10908  -0.17494   0.17433
   5   25219.8    396.5   0.015837992   0.20674  -0.33450  -0.14723  -0.27052
   6   25889.4    386.3   0.020111294   0.25574   0.14414  -0.47894  -0.07471
   7   26460.1    377.9   0.049019378   0.60989  -0.68739  -0.29176  -0.22862
   8   27649.3    361.7   0.406848178   4.84421   1.17058  -1.74716  -0.64915
   9   28098.5    355.9   0.082290898   0.96415  -0.97097  -0.08528   0.11874
  10   28544.1    350.3   0.414701683   4.78295  -2.15847   0.23246  -0.26445
  11   28882.0    346.2   0.002923072   0.03332   0.05408   0.06888   0.16015
  12   29068.7    344.0   0.034952846   0.39585   0.17733  -0.60246  -0.03812
  13   29327.9    341.0   0.170735051   1.91654  -1.34504  -0.07425  -0.31921
  14   29801.3    335.6   0.007926748   0.08757  -0.11191   0.27278   0.02515
  15   30370.4    329.3   0.295234030   3.20030   0.14024   1.36044   1.15318
  16   30608.9    326.7   0.307804614   3.31057   1.79056   0.15390   0.28420
  17   30920.7    323.4   0.057665280   0.61396  -0.04304  -0.75455   0.20679
  18   31343.9    319.0   0.122387331   1.28546   0.60173   0.95246   0.12731
  19   31480.6    317.7   0.033979326   0.35534   0.32123  -0.28622   0.41259
  20   31661.4    315.8   0.302703086   3.14748  -0.55437   1.24457   1.13631
  21   32200.0    310.6   0.424660604   4.34172   1.72494   0.84351   0.80919
  22   32441.5    308.2   0.149557529   1.51769  -0.39107   0.97053   0.65026
  23   32482.4    307.9   0.182730155   1.85199  -0.05662   1.09834   0.80152
  24   32788.0    305.0   0.064762612   0.65026   0.23694   0.75892   0.13477
  25   32862.1    304.3   0.254585035   2.55043   1.55295   0.17976   0.32630
  26   33317.7    300.1   0.034008291   0.33604   0.21059  -0.50387  -0.19443
  27   33418.5    299.2   0.177647791   1.75004   0.37720   1.22878   0.31283
  28   33496.4    298.5   0.385132998   3.78520  -1.23648   1.40374   0.53463
  29   33756.1    296.2   0.080733621   0.78737   0.79100  -0.09724   0.39018
  30   34396.6    290.7   0.005472637   0.05238  -0.19196   0.10664  -0.06449
  31   34506.5    289.8   0.235109011   2.24308  -1.13727   0.97424   0.02324
  32   34794.0    287.4   0.329264176   3.11541   1.21384   0.53538   1.16420
  33   34903.0    286.5   0.086387942   0.81483   0.67003  -0.57520  -0.18715
  34   34914.3    286.4   0.023830569   0.22470  -0.08503   0.37153   0.28184
  35   35096.9    284.9   0.276760137   2.59603   0.74032   1.35173   0.46990
  36   35598.8    280.9   0.167930306   1.55299   0.56891   0.89664   0.65219
  37   35954.7    278.1   0.018702317   0.17124   0.38552   0.13090   0.07404
  38   36111.0    276.9   0.056838706   0.51818  -0.67730   0.21711  -0.11093
  39   36603.5    273.2   0.012345821   0.11104   0.12025   0.16503   0.26333
  40   36991.6    270.3   0.010172754   0.09053   0.00842  -0.27409  -0.12385
  41   37082.7    269.7   0.009014138   0.08003   0.10195  -0.18491  -0.18826
  42   37554.8    266.3   0.063632287   0.55781  -0.55413   0.49666   0.06380
  43   37792.6    264.6   0.022446328   0.19553   0.34725  -0.17141   0.21345
  44   38260.5    261.4   0.049202397   0.42336   0.55585   0.00079   0.33821
  45   38441.1    260.1   0.037851724   0.32416   0.34330  -0.29435  -0.34593
  46   38503.0    259.7   0.017451627   0.14922  -0.38143   0.05848   0.01751
  47   38682.4    258.5   0.036621242   0.31167  -0.40471   0.37222  -0.09660
  48   38890.3    257.1   0.107400047   0.90916   0.55059   0.19760   0.75297
  49   39125.1    255.6   0.000499718   0.00420   0.02938   0.02484  -0.05219
  50   39283.3    254.6   0.124486935   1.04326  -0.81708   0.60290  -0.11025
  51   39406.3    253.8   0.062567670   0.52271  -0.09856   0.08213   0.71151
  52   39815.4    251.2   0.041716559   0.34493   0.02010  -0.25140  -0.53040
  53   40168.2    249.0   0.066784121   0.54735  -0.35596   0.25873   0.59473

FINAL SINGLE POINT ENERGY     -5666.803188446635

DIPOLE MOMENT
-------------
                                X             Y             Z
Electronic contribution:     16.43016      11.98103      -1.49793
Nuclear contribution   :    -20.54749     -13.61283      -1.84177
                        -----------------------------------------
Total Dipole Moment    :     -4.11733      -1.63180      -3.33970
                        -----------------------------------------
Magnitude (a.u.)       :      5.54696
Magnitude (Debye)      :     14.09924

Rotational constants in cm-1:     0.001743     0.000149     0.000141
Rotational constants in MHz :    52.256348     4.471041     4.223434

                             ****ORCA TERMINATED NORMALLY****
TOTAL RUN TIME: 0 days 0 hours 9 minutes 36 seconds 646 msec
