                         Program Version 4.2.0 -  RELEASE  -
|  1> # ORCA input file
|  2> # SCF done       -219.419827944096          0.000366385770
|  3> ! CAM-B3LYP def2-SVP def2/J RIJCOSX Grid4 TightSCF
|  4> %maxcore 5000
|  5> %tddft
|  6>     Mode sTDDFT
|  7>     Ethresh 5.0
|  8>     maxcore 5000
|  9> end
| 10>
| 11> %pal
| 12>   nprocs 6
| 13>   end
| 14> * xyz 0 1
| 15>    C       -2.82470         3.05297         3.05862
| 16>    C       -2.20796         3.96218         2.24599
| 17>    F       -1.96698         5.20405         2.68631
| 18>    C       -1.81820         3.60822         0.93835
| 19>    F       -1.21661         4.52124         0.16429
| 20>    C       -2.04946         2.34838         0.46180
| 21>    C       -2.68234         1.38870         1.27550
| 22>    C       -3.07896         1.74551         2.59705
| 23>    C       -3.71864         0.80073         3.43159
| 24>    C       -3.95396        -0.46482         2.96023
| 25>    C       -3.54974        -0.81057         1.64289
| 26>    C       -2.93234         0.07869         0.81149
| 27>    C       -3.90049        -2.21659         1.37035
| 28>    O       -3.69165        -2.80350         0.33005
| 29>    C       -4.54045        -2.72126         2.60825
| 30>    C       -4.58294        -1.63229         3.57313
| 31>    C       -5.11284        -1.65341         4.83797
| 32>    C       -5.74267        -2.74443         5.47384
| 33>    N       -6.27173        -3.56985         6.07316
| 34>    C       -5.10872        -0.54614         5.71410
| 35>    N       -5.14156         0.30711         6.48123
| 36>    C       -5.01408        -3.98073         2.86671
| 37>    C       -5.04241        -5.15456         2.09144
| 38>    C       -4.61973        -5.46011         0.80159
| 39>    C       -4.84329        -6.78937         0.47735
| 40>    C       -5.44883        -7.52422         1.52499
| 41>    S       -5.74090        -6.57194         2.89874
| 42>    C       -5.61551        -8.86174         1.09767
| 43>    C       -5.11933        -8.98103        -0.21294
| 44>    C       -4.62120        -7.68504        -0.64778
| 45>    C       -4.06018        -7.39098        -1.85454
| 46>    C       -3.89766        -8.36908        -2.86041
| 47>    N       -3.75982        -9.15552        -3.68314
| 48>    C       -3.59684        -6.10290        -2.20332
| 49>    N       -3.21065        -5.07275        -2.52383
| 50>    C       -5.22412       -10.27443        -0.71836
| 51>    C       -5.79255       -11.15090         0.18763
| 52>    S       -6.21112       -10.34291         1.69869
| 53>    C       -6.03673       -12.55757         0.04608
| 54>    C       -6.60593       -13.28427         1.08411
| 55>    C       -6.81450       -14.65043         1.00762
| 56>    C       -6.46787       -15.39546        -0.11225
| 57>    C       -5.90902       -14.68428        -1.22129
| 58>    N       -5.58716       -15.34400        -2.34811
| 59>    C       -5.07586       -14.68198        -3.35035
| 60>    C       -4.86261       -13.29537        -3.27214
| 61>    N       -5.17062       -12.62489        -2.19530
| 62>    C       -5.69567       -13.27709        -1.14299
| 63>    C       -6.65427       -16.81766        -0.13028
| 64>    C       -6.28801       -17.72710        -1.10476
| 65>    C       -6.60780       -19.03683        -0.75577
| 66>    C       -7.22985       -19.13658         0.50220
| 67>    S       -7.41594       -17.61527         1.24743
| 68>    C       -7.49452       -20.50229         0.77091
| 69>    C       -7.03533       -21.26533        -0.32338
| 70>    C       -6.46108       -20.37022        -1.31370
| 71>    C       -5.88051       -20.72275        -2.49625
| 72>    C       -5.78551       -22.07441        -2.89009
| 73>    N       -5.71982       -23.17824        -3.19366
| 74>    C       -5.34656       -19.77082        -3.39056
| 75>    N       -4.91804       -19.00159        -4.12460
| 76>    C       -7.20884       -22.62937        -0.14228
| 77>    C       -7.79585       -22.92764         1.08029
| 78>    S       -8.16504       -21.47091         1.99777
| 79>    C       -8.14383       -24.18917         1.60674
| 80>    C       -7.68327       -25.41824         1.23776
| 81>    C       -8.48635       -26.62147         1.59704
| 82>    O       -9.41181       -26.66417         2.37359
| 83>    C       -7.94550       -27.71238         0.76247
| 84>    C       -8.40255       -28.99047         0.61652
| 85>    C       -7.73592       -29.86006        -0.27575
| 86>    C       -6.61136       -29.38236        -1.00991
| 87>    C       -5.95735       -30.25197        -1.90557
| 88>    C       -6.39551       -31.53708        -2.06114
| 89>    C       -7.50612       -32.00939        -1.33285
| 90>    C       -8.16356       -31.18955        -0.45901
| 91>    F       -7.91410       -33.27352        -1.50595
| 92>    F       -5.77164       -32.36337        -2.91016
| 93>    C       -6.15712       -28.05532        -0.83364
| 94>    C       -6.80888       -27.23646         0.04875
| 95>    C       -6.54783       -25.85727         0.45495
| 96>    C       -5.33674       -25.22687         0.33187
| 97>    C       -5.02431       -23.99257         0.93333
| 98>    N       -4.71533       -23.00216         1.42539
| 99>    C       -4.22463       -25.78629        -0.33240
|100>    N       -3.28913       -26.19562        -0.85539
|101>    H       -3.11680         3.34088         4.05649
|102>    H       -1.74513         2.09203        -0.54087
|103>    H       -4.00425         1.10658         4.42454
|104>    H       -2.63986        -0.21679        -0.18461
|105>    H       -5.44159        -4.12714         3.85153
|106>    H       -4.17139        -4.72523         0.15633
|107>    H       -4.90818       -10.59696        -1.69273
|108>    H       -6.88756       -12.77010         1.99181
|109>    H       -7.25062       -15.15401         1.85834
|110>    H       -4.83203       -15.25583        -4.23347
|111>    H       -4.44333       -12.72704        -4.09052
|112>    H       -5.80999       -17.41922        -2.01585
|113>    H       -6.96447       -23.37981        -0.87183
|114>    H       -8.92740       -24.20078         2.35828
|115>    H       -9.26113       -29.33382         1.17320
|116>    H       -5.10380       -29.90697        -2.46786
|117>    H       -9.01216       -31.56638         0.09014
|118>    H       -5.31174       -27.71496        -1.40994
|119> *
|120>
|121>                          ****END OF INPUT****

CARTESIAN COORDINATES (ANGSTROEM)
---------------------------------
  C     -2.824700    3.052970    3.058620
  C     -2.207960    3.962180    2.245990
  F     -1.966980    5.204050    2.686310
  C     -1.818200    3.608220    0.938350
  F     -1.216610    4.521240    0.164290
  C     -2.049460    2.348380    0.461800
  C     -2.682340    1.388700    1.275500
  C     -3.078960    1.745510    2.597050
  C     -3.718640    0.800730    3.431590
  C     -3.953960   -0.464820    2.960230
  C     -3.549740   -0.810570    1.642890
  C     -2.932340    0.078690    0.811490
  C     -3.900490   -2.216590    1.370350
  O     -3.691650   -2.803500    0.330050
  C     -4.540450   -2.721260    2.608250
  C     -4.582940   -1.632290    3.573130
  C     -5.112840   -1.653410    4.837970
  C     -5.742670   -2.744430    5.473840
  N     -6.271730   -3.569850    6.073160
  C     -5.108720   -0.546140    5.714100
  N     -5.141560    0.307110    6.481230
  C     -5.014080   -3.980730    2.866710
  C     -5.042410   -5.154560    2.091440
  C     -4.619730   -5.460110    0.801590
  C     -4.843290   -6.789370    0.477350
  C     -5.448830   -7.524220    1.524990
  S     -5.740900   -6.571940    2.898740
  C     -5.615510   -8.861740    1.097670
  C     -5.119330   -8.981030   -0.212940
  C     -4.621200   -7.685040   -0.647780
  C     -4.060180   -7.390980   -1.854540
  C     -3.897660   -8.369080   -2.860410
  N     -3.759820   -9.155520   -3.683140
  C     -3.596840   -6.102900   -2.203320
  N     -3.210650   -5.072750   -2.523830
  C     -5.224120  -10.274430   -0.718360
  C     -5.792550  -11.150900    0.187630
  S     -6.211120  -10.342910    1.698690
  C     -6.036730  -12.557570    0.046080
  C     -6.605930  -13.284270    1.084110
  C     -6.814500  -14.650430    1.007620
  C     -6.467870  -15.395460   -0.112250
  C     -5.909020  -14.684280   -1.221290
  N     -5.587160  -15.344000   -2.348110
  C     -5.075860  -14.681980   -3.350350
  C     -4.862610  -13.295370   -3.272140
  N     -5.170620  -12.624890   -2.195300
  C     -5.695670  -13.277090   -1.142990
  C     -6.654270  -16.817660   -0.130280
  C     -6.288010  -17.727100   -1.104760
  C     -6.607800  -19.036830   -0.755770
  C     -7.229850  -19.136580    0.502200
  S     -7.415940  -17.615270    1.247430
  C     -7.494520  -20.502290    0.770910
  C     -7.035330  -21.265330   -0.323380
  C     -6.461080  -20.370220   -1.313700
  C     -5.880510  -20.722750   -2.496250
  C     -5.785510  -22.074410   -2.890090
  N     -5.719820  -23.178240   -3.193660
  C     -5.346560  -19.770820   -3.390560
  N     -4.918040  -19.001590   -4.124600
  C     -7.208840  -22.629370   -0.142280
  C     -7.795850  -22.927640    1.080290
  S     -8.165040  -21.470910    1.997770
  C     -8.143830  -24.189170    1.606740
  C     -7.683270  -25.418240    1.237760
  C     -8.486350  -26.621470    1.597040
  O     -9.411810  -26.664170    2.373590
  C     -7.945500  -27.712380    0.762470
  C     -8.402550  -28.990470    0.616520
  C     -7.735920  -29.860060   -0.275750
  C     -6.611360  -29.382360   -1.009910
  C     -5.957350  -30.251970   -1.905570
  C     -6.395510  -31.537080   -2.061140
  C     -7.506120  -32.009390   -1.332850
  C     -8.163560  -31.189550   -0.459010
  F     -7.914100  -33.273520   -1.505950
  F     -5.771640  -32.363370   -2.910160
  C     -6.157120  -28.055320   -0.833640
  C     -6.808880  -27.236460    0.048750
  C     -6.547830  -25.857270    0.454950
  C     -5.336740  -25.226870    0.331870
  C     -5.024310  -23.992570    0.933330
  N     -4.715330  -23.002160    1.425390
  C     -4.224630  -25.786290   -0.332400
  N     -3.289130  -26.195620   -0.855390
  H     -3.116800    3.340880    4.056490
  H     -1.745130    2.092030   -0.540870
  H     -4.004250    1.106580    4.424540
  H     -2.639860   -0.216790   -0.184610
  H     -5.441590   -4.127140    3.851530
  H     -4.171390   -4.725230    0.156330
  H     -4.908180  -10.596960   -1.692730
  H     -6.887560  -12.770100    1.991810
  H     -7.250620  -15.154010    1.858340
  H     -4.832030  -15.255830   -4.233470
  H     -4.443330  -12.727040   -4.090520
  H     -5.809990  -17.419220   -2.015850
  H     -6.964470  -23.379810   -0.871830
  H     -8.927400  -24.200780    2.358280
  H     -9.261130  -29.333820    1.173200
  H     -5.103800  -29.906970   -2.467860
  H     -9.012160  -31.566380    0.090140
  H     -5.311740  -27.714960   -1.409940

 Total Charge           Charge          ....    0
 Multiplicity           Mult            ....    1
 Number of Electrons    NEL             ....  600
 Basis Dimension        Dim             .... 1310

ORBITAL ENERGIES
----------------

  NO   OCC          E(Eh)            E(eV)
   0   2.0000     -89.001098     -2421.8430
   1   2.0000     -89.000153     -2421.8173
   2   2.0000     -88.997744     -2421.7517
   3   2.0000     -88.996879     -2421.7282
   4   2.0000     -24.799278      -674.8226
   5   2.0000     -24.798678      -674.8063
   6   2.0000     -24.798397      -674.7987
   7   2.0000     -24.797739      -674.7808
   8   2.0000     -19.222615      -523.0739
   9   2.0000     -19.219853      -522.9988
  10   2.0000     -14.443369      -393.0240
  11   2.0000     -14.443223      -393.0201
  12   2.0000     -14.437090      -392.8532
  13   2.0000     -14.435792      -392.8179
  14   2.0000     -14.435709      -392.8156
  15   2.0000     -14.431848      -392.7105
  16   2.0000     -14.422313      -392.4511
  17   2.0000     -14.422107      -392.4455
  18   2.0000     -14.417537      -392.3211
  19   2.0000     -14.417148      -392.3105
  20   2.0000     -10.382499      -282.5222
  21   2.0000     -10.382036      -282.5096
  22   2.0000     -10.381918      -282.5064
  23   2.0000     -10.381182      -282.4863
  24   2.0000     -10.373517      -282.2778
  25   2.0000     -10.371382      -282.2196
  26   2.0000     -10.371380      -282.2196
  27   2.0000     -10.371371      -282.2194
  28   2.0000     -10.358172      -281.8602
  29   2.0000     -10.357497      -281.8418
  30   2.0000     -10.351452      -281.6773
  31   2.0000     -10.348503      -281.5971
  32   2.0000     -10.348091      -281.5859
  33   2.0000     -10.347233      -281.5625
  34   2.0000     -10.346307      -281.5373
  35   2.0000     -10.345230      -281.5080
  36   2.0000     -10.342783      -281.4414
  37   2.0000     -10.342418      -281.4315
  38   2.0000     -10.340350      -281.3752
  39   2.0000     -10.340000      -281.3657
  40   2.0000     -10.337370      -281.2941
  41   2.0000     -10.336783      -281.2782
  42   2.0000     -10.336474      -281.2698
  43   2.0000     -10.335927      -281.2549
  44   2.0000     -10.335702      -281.2488
  45   2.0000     -10.335076      -281.2317
  46   2.0000     -10.333188      -281.1803
  47   2.0000     -10.332759      -281.1687
  48   2.0000     -10.332712      -281.1674
  49   2.0000     -10.332019      -281.1485
  50   2.0000     -10.330807      -281.1156
  51   2.0000     -10.330490      -281.1069
  52   2.0000     -10.325335      -280.9666
  53   2.0000     -10.323431      -280.9148
  54   2.0000     -10.321297      -280.8568
  55   2.0000     -10.320813      -280.8436
  56   2.0000     -10.320503      -280.8352
  57   2.0000     -10.319977      -280.8209
  58   2.0000     -10.317466      -280.7525
  59   2.0000     -10.312951      -280.6297
  60   2.0000     -10.312806      -280.6257
  61   2.0000     -10.312425      -280.6153
  62   2.0000     -10.312136      -280.6075
  63   2.0000     -10.311879      -280.6005
  64   2.0000     -10.311136      -280.5803
  65   2.0000     -10.310875      -280.5732
  66   2.0000     -10.310519      -280.5635
  67   2.0000     -10.310284      -280.5571
  68   2.0000     -10.310075      -280.5514
  69   2.0000     -10.309942      -280.5478
  70   2.0000     -10.309430      -280.5338
  71   2.0000     -10.308610      -280.5115
  72   2.0000     -10.305998      -280.4404
  73   2.0000     -10.305088      -280.4157
  74   2.0000     -10.304985      -280.4129
  75   2.0000     -10.303963      -280.3851
  76   2.0000     -10.303428      -280.3705
  77   2.0000     -10.302661      -280.3496
  78   2.0000     -10.302335      -280.3408
  79   2.0000     -10.301444      -280.3166
  80   2.0000     -10.301247      -280.3112
  81   2.0000     -10.300895      -280.3016
  82   2.0000     -10.298616      -280.2396
  83   2.0000     -10.298448      -280.2350
  84   2.0000     -10.296400      -280.1793
  85   2.0000     -10.293635      -280.1041
  86   2.0000      -8.095872      -220.2999
  87   2.0000      -8.094869      -220.2726
  88   2.0000      -8.092108      -220.1974
  89   2.0000      -8.091376      -220.1775
  90   2.0000      -6.065037      -165.0380
  91   2.0000      -6.063948      -165.0084
  92   2.0000      -6.061355      -164.9379
  93   2.0000      -6.060856      -164.9243
  94   2.0000      -6.060605      -164.9174
  95   2.0000      -6.059803      -164.8956
  96   2.0000      -6.058345      -164.8560
  97   2.0000      -6.057459      -164.8319
  98   2.0000      -6.057187      -164.8244
  99   2.0000      -6.056448      -164.8043
 100   2.0000      -6.054538      -164.7524
 101   2.0000      -6.053777      -164.7316
 102   2.0000      -1.321901       -35.9707
 103   2.0000      -1.321174       -35.9510
 104   2.0000      -1.307018       -35.5658
 105   2.0000      -1.306274       -35.5455
 106   2.0000      -1.138395       -30.9773
 107   2.0000      -1.135584       -30.9008
 108   2.0000      -1.102091       -29.9894
 109   2.0000      -1.053786       -28.6750
 110   2.0000      -1.053515       -28.6676
 111   2.0000      -1.028569       -27.9888
 112   2.0000      -1.026734       -27.9389
 113   2.0000      -1.025629       -27.9088
 114   2.0000      -1.023977       -27.8638
 115   2.0000      -1.023549       -27.8522
 116   2.0000      -1.013911       -27.5899
 117   2.0000      -1.010868       -27.5071
 118   2.0000      -1.009282       -27.4639
 119   2.0000      -1.007281       -27.4095
 120   2.0000      -1.006983       -27.4014
 121   2.0000      -1.005425       -27.3590
 122   2.0000      -0.998035       -27.1579
 123   2.0000      -0.997459       -27.1422
 124   2.0000      -0.985453       -26.8155
 125   2.0000      -0.983794       -26.7704
 126   2.0000      -0.980859       -26.6905
 127   2.0000      -0.967705       -26.3326
 128   2.0000      -0.960435       -26.1348
 129   2.0000      -0.936775       -25.4909
 130   2.0000      -0.935809       -25.4647
 131   2.0000      -0.927482       -25.2381
 132   2.0000      -0.921763       -25.0824
 133   2.0000      -0.907987       -24.7076
 134   2.0000      -0.903097       -24.5745
 135   2.0000      -0.895111       -24.3572
 136   2.0000      -0.893727       -24.3195
 137   2.0000      -0.890943       -24.2438
 138   2.0000      -0.885232       -24.0884
 139   2.0000      -0.882856       -24.0237
 140   2.0000      -0.880564       -23.9614
 141   2.0000      -0.871766       -23.7220
 142   2.0000      -0.863633       -23.5007
 143   2.0000      -0.861654       -23.4468
 144   2.0000      -0.860449       -23.4140
 145   2.0000      -0.842533       -22.9265
 146   2.0000      -0.841547       -22.8996
 147   2.0000      -0.828802       -22.5529
 148   2.0000      -0.820491       -22.3267
 149   2.0000      -0.803193       -21.8560
 150   2.0000      -0.788257       -21.4496
 151   2.0000      -0.784752       -21.3542
 152   2.0000      -0.778815       -21.1926
 153   2.0000      -0.776959       -21.1421
 154   2.0000      -0.770625       -20.9698
 155   2.0000      -0.769225       -20.9317
 156   2.0000      -0.764738       -20.8096
 157   2.0000      -0.755048       -20.5459
 158   2.0000      -0.744051       -20.2467
 159   2.0000      -0.733360       -19.9558
 160   2.0000      -0.723066       -19.6756
 161   2.0000      -0.720640       -19.6096
 162   2.0000      -0.716129       -19.4869
 163   2.0000      -0.714587       -19.4449
 164   2.0000      -0.706252       -19.2181
 165   2.0000      -0.700207       -19.0536
 166   2.0000      -0.694293       -18.8927
 167   2.0000      -0.690996       -18.8030
 168   2.0000      -0.690280       -18.7835
 169   2.0000      -0.684812       -18.6347
 170   2.0000      -0.681195       -18.5362
 171   2.0000      -0.671836       -18.2816
 172   2.0000      -0.666991       -18.1497
 173   2.0000      -0.661812       -18.0088
 174   2.0000      -0.656687       -17.8694
 175   2.0000      -0.655309       -17.8319
 176   2.0000      -0.650083       -17.6897
 177   2.0000      -0.644993       -17.5512
 178   2.0000      -0.644301       -17.5323
 179   2.0000      -0.643287       -17.5047
 180   2.0000      -0.638720       -17.3804
 181   2.0000      -0.636234       -17.3128
 182   2.0000      -0.629688       -17.1347
 183   2.0000      -0.622534       -16.9400
 184   2.0000      -0.621139       -16.9021
 185   2.0000      -0.619599       -16.8601
 186   2.0000      -0.618077       -16.8187
 187   2.0000      -0.612628       -16.6704
 188   2.0000      -0.604804       -16.4576
 189   2.0000      -0.596454       -16.2304
 190   2.0000      -0.592476       -16.1221
 191   2.0000      -0.589120       -16.0308
 192   2.0000      -0.586372       -15.9560
 193   2.0000      -0.585710       -15.9380
 194   2.0000      -0.584753       -15.9119
 195   2.0000      -0.581271       -15.8172
 196   2.0000      -0.577465       -15.7136
 197   2.0000      -0.573430       -15.6038
 198   2.0000      -0.569443       -15.4953
 199   2.0000      -0.558898       -15.2084
 200   2.0000      -0.557307       -15.1651
 201   2.0000      -0.555700       -15.1214
 202   2.0000      -0.555310       -15.1108
 203   2.0000      -0.554268       -15.0824
 204   2.0000      -0.550781       -14.9875
 205   2.0000      -0.547964       -14.9109
 206   2.0000      -0.547282       -14.8923
 207   2.0000      -0.546789       -14.8789
 208   2.0000      -0.544076       -14.8051
 209   2.0000      -0.542399       -14.7594
 210   2.0000      -0.542114       -14.7517
 211   2.0000      -0.540332       -14.7032
 212   2.0000      -0.537637       -14.6298
 213   2.0000      -0.534485       -14.5441
 214   2.0000      -0.532018       -14.4769
 215   2.0000      -0.530831       -14.4447
 216   2.0000      -0.527662       -14.3584
 217   2.0000      -0.523653       -14.2493
 218   2.0000      -0.520472       -14.1628
 219   2.0000      -0.516717       -14.0606
 220   2.0000      -0.515684       -14.0325
 221   2.0000      -0.514906       -14.0113
 222   2.0000      -0.512304       -13.9405
 223   2.0000      -0.510748       -13.8982
 224   2.0000      -0.510150       -13.8819
 225   2.0000      -0.508280       -13.8310
 226   2.0000      -0.506372       -13.7791
 227   2.0000      -0.503848       -13.7104
 228   2.0000      -0.502947       -13.6859
 229   2.0000      -0.501469       -13.6457
 230   2.0000      -0.498630       -13.5684
 231   2.0000      -0.495327       -13.4785
 232   2.0000      -0.494843       -13.4654
 233   2.0000      -0.491388       -13.3713
 234   2.0000      -0.486585       -13.2407
 235   2.0000      -0.485703       -13.2166
 236   2.0000      -0.484850       -13.1934
 237   2.0000      -0.483677       -13.1615
 238   2.0000      -0.478406       -13.0181
 239   2.0000      -0.472923       -12.8689
 240   2.0000      -0.470390       -12.8000
 241   2.0000      -0.469519       -12.7763
 242   2.0000      -0.467519       -12.7218
 243   2.0000      -0.466482       -12.6936
 244   2.0000      -0.465852       -12.6765
 245   2.0000      -0.464307       -12.6344
 246   2.0000      -0.463994       -12.6259
 247   2.0000      -0.463653       -12.6166
 248   2.0000      -0.458851       -12.4860
 249   2.0000      -0.457119       -12.4388
 250   2.0000      -0.455740       -12.4013
 251   2.0000      -0.454381       -12.3643
 252   2.0000      -0.454020       -12.3545
 253   2.0000      -0.453453       -12.3391
 254   2.0000      -0.448555       -12.2058
 255   2.0000      -0.448146       -12.1947
 256   2.0000      -0.447524       -12.1777
 257   2.0000      -0.446240       -12.1428
 258   2.0000      -0.446090       -12.1387
 259   2.0000      -0.445636       -12.1264
 260   2.0000      -0.444260       -12.0889
 261   2.0000      -0.443231       -12.0609
 262   2.0000      -0.442635       -12.0447
 263   2.0000      -0.440230       -11.9793
 264   2.0000      -0.434943       -11.8354
 265   2.0000      -0.433656       -11.8004
 266   2.0000      -0.432101       -11.7581
 267   2.0000      -0.431731       -11.7480
 268   2.0000      -0.431208       -11.7338
 269   2.0000      -0.429165       -11.6782
 270   2.0000      -0.429126       -11.6771
 271   2.0000      -0.425862       -11.5883
 272   2.0000      -0.424779       -11.5588
 273   2.0000      -0.421796       -11.4776
 274   2.0000      -0.414033       -11.2664
 275   2.0000      -0.410233       -11.1630
 276   2.0000      -0.407878       -11.0989
 277   2.0000      -0.404411       -11.0046
 278   2.0000      -0.396323       -10.7845
 279   2.0000      -0.391849       -10.6627
 280   2.0000      -0.389201       -10.5907
 281   2.0000      -0.384857       -10.4725
 282   2.0000      -0.376019       -10.2320
 283   2.0000      -0.363415        -9.8890
 284   2.0000      -0.358461        -9.7542
 285   2.0000      -0.355828        -9.6826
 286   2.0000      -0.352164        -9.5829
 287   2.0000      -0.345878        -9.4118
 288   2.0000      -0.343932        -9.3589
 289   2.0000      -0.339175        -9.2294
 290   2.0000      -0.336947        -9.1688
 291   2.0000      -0.330173        -8.9845
 292   2.0000      -0.327809        -8.9201
 293   2.0000      -0.320147        -8.7116
 294   2.0000      -0.319215        -8.6863
 295   2.0000      -0.314916        -8.5693
 296   2.0000      -0.303579        -8.2608
 297   2.0000      -0.300889        -8.1876
 298   2.0000      -0.280068        -7.6210
 299   2.0000      -0.255963        -6.9651
 300   0.0000      -0.122974        -3.3463
 301   0.0000      -0.114323        -3.1109
 302   0.0000      -0.095344        -2.5944
 303   0.0000      -0.094488        -2.5712
 304   0.0000      -0.077205        -2.1008

MULLIKEN ATOMIC CHARGES
-----------------------
   0 C :   -0.108327
   1 C :    0.242117
   2 F :   -0.170763
   3 C :    0.238214
   4 F :   -0.171463
   5 C :   -0.103163
   6 C :    0.118896
   7 C :    0.114724
   8 C :   -0.084665
   9 C :    0.047540
  10 C :    0.000360
  11 C :   -0.083649
  12 C :    0.156511
  13 O :   -0.145216
  14 C :   -0.090800
  15 C :    0.331153
  16 C :   -0.371537
  17 C :   -0.178787
  18 N :    0.144847
  19 C :   -0.181382
  20 N :    0.147185
  21 C :    0.043826
  22 C :   -0.114365
  23 C :   -0.019539
  24 C :    0.000891
  25 C :   -0.078536
  26 S :    0.204992
  27 C :   -0.092695
  28 C :    0.042595
  29 C :    0.319062
  30 C :   -0.307623
  31 C :   -0.185807
  32 N :    0.172953
  33 C :   -0.197041
  34 N :    0.201847
  35 C :   -0.059968
  36 C :   -0.108214
  37 S :    0.162672
  38 C :    0.166519
  39 C :   -0.069275
  40 C :   -0.072443
  41 C :    0.173193
  42 C :   -0.046040
  43 N :   -0.034106
  44 C :    0.045775
  45 C :    0.046580
  46 N :   -0.033659
  47 C :   -0.038207
  48 C :   -0.112988
  49 C :   -0.053421
  50 C :    0.038973
  51 C :   -0.090296
  52 S :    0.162307
  53 C :   -0.069548
  54 C :   -0.006619
  55 C :    0.310431
  56 C :   -0.292382
  57 C :   -0.184553
  58 N :    0.168355
  59 C :   -0.185225
  60 N :    0.176464
  61 C :    0.001298
  62 C :   -0.114833
  63 S :    0.217011
  64 C :    0.080448
  65 C :   -0.138193
  66 C :    0.136319
  67 O :   -0.141929
  68 C :    0.019943
  69 C :   -0.083656
  70 C :    0.113907
  71 C :    0.110609
  72 C :   -0.108182
  73 C :    0.244385
  74 C :    0.240628
  75 C :   -0.105261
  76 F :   -0.171686
  77 F :   -0.170222
  78 C :   -0.077721
  79 C :    0.027794
  80 C :    0.271801
  81 C :   -0.333407
  82 C :   -0.203620
  83 N :    0.169244
  84 C :   -0.172338
  85 N :    0.162211
  86 H :    0.007572
  87 H :    0.000407
  88 H :   -0.006612
  89 H :   -0.006101
  90 H :   -0.002536
  91 H :    0.039712
  92 H :    0.024896
  93 H :   -0.003379
  94 H :   -0.003726
  95 H :    0.031491
  96 H :    0.032217
  97 H :    0.024540
  98 H :    0.026068
  99 H :    0.023409
 100 H :   -0.009301
 101 H :    0.007750
 102 H :   -0.000450
 103 H :    0.002811
Sum of atomic charges:   -0.0000000

LOEWDIN ATOMIC CHARGES
----------------------
   0 C :   -0.029143
   1 C :    0.066608
   2 F :   -0.048774
   3 C :    0.068048
   4 F :   -0.048822
   5 C :   -0.032440
   6 C :   -0.008178
   7 C :   -0.006674
   8 C :    0.018053
   9 C :   -0.024230
  10 C :   -0.052109
  11 C :    0.031533
  12 C :    0.086850
  13 O :   -0.135220
  14 C :   -0.099413
  15 C :    0.077844
  16 C :   -0.144189
  17 C :   -0.022891
  18 N :   -0.054692
  19 C :   -0.016864
  20 N :   -0.054911
  21 C :    0.042967
  22 C :   -0.176475
  23 C :    0.017837
  24 C :   -0.074259
  25 C :   -0.156150
  26 S :    0.497609
  27 C :   -0.189645
  28 C :   -0.055406
  29 C :    0.075311
  30 C :   -0.092540
  31 C :   -0.012728
  32 N :   -0.032371
  33 C :   -0.024175
  34 N :   -0.013690
  35 C :   -0.021334
  36 C :   -0.144693
  37 S :    0.475228
  38 C :   -0.036508
  39 C :   -0.015831
  40 C :   -0.018334
  41 C :   -0.032308
  42 C :    0.002458
  43 N :   -0.024171
  44 C :    0.021518
  45 C :    0.022550
  46 N :   -0.024408
  47 C :    0.003373
  48 C :   -0.149938
  49 C :   -0.017257
  50 C :   -0.060939
  51 C :   -0.181982
  52 S :    0.476505
  53 C :   -0.157094
  54 C :   -0.065049
  55 C :    0.082630
  56 C :   -0.096747
  57 C :   -0.012850
  58 N :   -0.032908
  59 C :   -0.014705
  60 N :   -0.030368
  61 C :    0.009847
  62 C :   -0.182319
  63 S :    0.500773
  64 C :    0.044960
  65 C :   -0.092700
  66 C :    0.082815
  67 O :   -0.143055
  68 C :   -0.054771
  69 C :    0.030844
  70 C :   -0.009361
  71 C :   -0.005309
  72 C :   -0.028914
  73 C :    0.067470
  74 C :    0.067438
  75 C :   -0.033020
  76 F :   -0.049117
  77 F :   -0.047963
  78 C :    0.017583
  79 C :   -0.020233
  80 C :    0.065294
  81 C :   -0.136292
  82 C :   -0.015814
  83 N :   -0.046873
  84 C :   -0.019020
  85 N :   -0.045900
  86 H :    0.047696
  87 H :    0.045440
  88 H :    0.039824
  89 H :    0.041869
  90 H :    0.041775
  91 H :    0.043026
  92 H :    0.037691
  93 H :    0.024867
  94 H :    0.024892
  95 H :    0.034967
  96 H :    0.035202
  97 H :    0.038126
  98 H :    0.042982
  99 H :    0.046403
 100 H :    0.040655
 101 H :    0.048183
 102 H :    0.044806
 103 H :    0.041719

  Mayer bond orders larger than 0.100000
B(  0-C ,  1-C ) :   1.4411 B(  0-C ,  5-C ) :   0.1086 B(  0-C ,  7-C ) :   1.1877
B(  0-C , 86-H ) :   1.0065 B(  1-C ,  2-F ) :   1.1353 B(  1-C ,  3-C ) :   1.1918
B(  3-C ,  4-F ) :   1.1336 B(  3-C ,  5-C ) :   1.4432 B(  5-C ,  6-C ) :   1.1915
B(  5-C , 87-H ) :   1.0068 B(  6-C ,  7-C ) :   1.2583 B(  6-C , 11-C ) :   1.1845
B(  7-C ,  8-C ) :   1.2188 B(  8-C ,  9-C ) :   1.4466 B(  8-C , 88-H ) :   0.9882
B(  9-C , 10-C ) :   1.2258 B(  9-C , 15-C ) :   0.9770 B( 10-C , 11-C ) :   1.4709
B( 10-C , 12-C ) :   0.9522 B( 11-C , 89-H ) :   1.0171 B( 12-C , 13-O ) :   2.1657
B( 12-C , 14-C ) :   0.9372 B( 13-O , 91-H ) :   0.1032 B( 14-C , 15-C ) :   1.0911
B( 14-C , 21-C ) :   1.5811 B( 15-C , 16-C ) :   1.6098 B( 16-C , 17-C ) :   1.1418
B( 16-C , 19-C ) :   1.1541 B( 17-C , 18-N ) :   2.9505 B( 19-C , 20-N ) :   2.9575
B( 21-C , 22-C ) :   1.2351 B( 21-C , 90-H ) :   0.8991 B( 22-C , 23-C ) :   1.3876
B( 22-C , 26-S ) :   1.0735 B( 23-C , 24-C ) :   1.3122 B( 23-C , 91-H ) :   0.9688
B( 24-C , 25-C ) :   1.3720 B( 24-C , 29-C ) :   0.9896 B( 25-C , 26-S ) :   1.1686
B( 25-C , 27-C ) :   1.2003 B( 27-C , 28-C ) :   1.4284 B( 27-C , 37-S ) :   1.1159
B( 28-C , 29-C ) :   0.9978 B( 28-C , 35-C ) :   1.2283 B( 29-C , 30-C ) :   1.7149
B( 30-C , 31-C ) :   1.1402 B( 30-C , 33-C ) :   1.1371 B( 31-C , 32-N ) :   2.9877
B( 33-C , 34-N ) :   3.0014 B( 35-C , 36-C ) :   1.4764 B( 35-C , 92-H ) :   0.9777
B( 36-C , 37-S ) :   1.1004 B( 36-C , 38-C ) :   1.1186 B( 38-C , 39-C ) :   1.3877
B( 38-C , 41-C ) :   0.1213 B( 38-C , 47-C ) :   1.2096 B( 39-C , 40-C ) :   1.3120
B( 39-C , 93-H ) :   0.9845 B( 40-C , 41-C ) :   1.3867 B( 40-C , 94-H ) :   0.9849
B( 41-C , 42-C ) :   1.2102 B( 41-C , 48-C ) :   1.1185 B( 42-C , 43-N ) :   1.4767
B( 42-C , 47-C ) :   1.2368 B( 43-N , 44-C ) :   1.6283 B( 44-C , 45-C ) :   1.2297
B( 44-C , 95-H ) :   0.9752 B( 45-C , 46-N ) :   1.6280 B( 45-C , 96-H ) :   0.9749
B( 46-N , 47-C ) :   1.4772 B( 48-C , 49-C ) :   1.4800 B( 48-C , 52-S ) :   1.0972
B( 49-C , 50-C ) :   1.2289 B( 49-C , 97-H ) :   0.9788 B( 50-C , 51-C ) :   1.4310
B( 50-C , 55-C ) :   1.0002 B( 51-C , 52-S ) :   1.1235 B( 51-C , 53-C ) :   1.1899
B( 53-C , 54-C ) :   1.4081 B( 53-C , 63-S ) :   1.1555 B( 54-C , 55-C ) :   0.9940
B( 54-C , 61-C ) :   1.3630 B( 55-C , 56-C ) :   1.7149 B( 56-C , 57-C ) :   1.1334
B( 56-C , 59-C ) :   1.1372 B( 57-C , 58-N ) :   2.9814 B( 59-C , 60-N ) :   2.9905
B( 61-C , 62-C ) :   1.3918 B( 61-C , 98-H ) :   0.9797 B( 62-C , 63-S ) :   1.0877
B( 62-C , 64-C ) :   1.1397 B( 64-C , 65-C ) :   1.6583 B( 64-C , 99-H ) :   0.9312
B( 65-C , 66-C ) :   0.9443 B( 65-C , 80-C ) :   1.0403 B( 66-C , 67-O ) :   2.2705
B( 66-C , 68-C ) :   0.9178 B( 68-C , 69-C ) :   1.4698 B( 68-C , 79-C ) :   1.2223
B( 69-C , 70-C ) :   1.1931 B( 69-C ,100-H ) :   1.0178 B( 70-C , 71-C ) :   1.2582
B( 70-C , 75-C ) :   1.1903 B( 71-C , 72-C ) :   1.1890 B( 71-C , 78-C ) :   1.2121
B( 72-C , 73-C ) :   1.4405 B( 72-C , 75-C ) :   0.1089 B( 72-C ,101-H ) :   1.0085
B( 73-C , 74-C ) :   1.1911 B( 73-C , 77-F ) :   1.1345 B( 74-C , 75-C ) :   1.4421
B( 74-C , 76-F ) :   1.1334 B( 75-C ,102-H ) :   1.0084 B( 78-C , 79-C ) :   1.4567
B( 78-C ,103-H ) :   0.9953 B( 79-C , 80-C ) :   0.9955 B( 80-C , 81-C ) :   1.6492
B( 81-C , 82-C ) :   1.1748 B( 81-C , 84-C ) :   1.1288 B( 82-C , 83-N ) :   2.9971
B( 84-C , 85-N ) :   2.9916

-----------------------------------------------------------------------------
         ABSORPTION SPECTRUM VIA TRANSITION ELECTRIC DIPOLE MOMENTS
-----------------------------------------------------------------------------
State   Energy  Wavelength   fosc         T2         TX        TY        TZ
        (cm-1)    (nm)                  (au**2)     (au)      (au)      (au)
-----------------------------------------------------------------------------
   0   12998.4    769.3   0.923573463  23.39148   0.48245   4.79788   0.37287
   1   14140.5    707.2   0.094085425   2.19045   0.20670   1.24703   0.76983
   2   18884.2    529.5   1.644334174  28.66593   0.20515   5.33564   0.39348
   3   20702.8    483.0   0.376777993   5.99146   0.69738   1.81036   1.49256
   4   21835.7    458.0   0.016299899   0.24575  -0.14814  -0.25932  -0.39567
   5   23316.9    428.9   0.083233771   1.17518  -0.47699   0.51727   0.82468
   6   23952.6    417.5   0.032530133   0.44710   0.11746   0.61481  -0.23520
   7   25974.1    385.0   0.030189642   0.38264   0.28892   0.50199   0.21719
   8   26214.7    381.5   0.053570945   0.67276  -0.31808  -0.73711   0.16809
   9   27571.6    362.7   0.003853947   0.04602   0.21086   0.00437   0.03920
  10   27991.9    357.2   0.003385658   0.03982   0.05465  -0.07924  -0.17479
  11   28000.3    357.1   0.000585206   0.00688   0.02484   0.00537  -0.07896
  12   28128.1    355.5   0.009808444   0.11480  -0.23927   0.21949   0.09681
  13   28303.1    353.3   0.016802343   0.19544  -0.04312  -0.41886  -0.13468
  14   28512.7    350.7   0.061982919   0.71566  -0.33802  -0.67337   0.38468
  15   28937.3    345.6   0.037521646   0.42687   0.45109   0.45241  -0.13680
  16   29058.9    344.1   0.074468383   0.84366  -0.61032  -0.57055   0.38163
  17   29398.1    340.2   0.055716795   0.62394  -0.42523  -0.51116   0.42642
  18   29748.0    336.2   0.111288266   1.23159  -0.23510  -0.82488   0.70420
  19   29831.7    335.2   0.207159470   2.28614   0.54274  -0.04559  -1.41049
  20   30196.7    331.2   0.620897762   6.76918  -0.20213  -2.45421  -0.83975
  21   30407.6    328.9   0.219116855   2.37230  -0.60468  -0.48909   1.32946
  22   30805.7    324.6   0.091923477   0.98236  -0.72646  -0.08130   0.66934
  23   31054.8    322.0   0.414814326   4.39744  -0.83657  -1.78802   0.70752
  24   31551.9    316.9   0.120115413   1.25328   0.24578   1.08382   0.13497
  25   32253.9    310.0   0.299215574   3.05406  -0.24574  -1.72997  -0.02939
  26   32449.1    308.2   0.042152396   0.42766   0.34901  -0.12660  -0.53835
  27   32565.5    307.1   0.136212705   1.37700  -0.11154  -1.02315  -0.56368
  28   32766.1    305.2   0.003478025   0.03494   0.00483  -0.11483  -0.14743
  29   32950.7    303.5   0.099270013   0.99181   0.39137   0.77138  -0.49357
  30   33119.0    301.9   0.080812223   0.80330   0.20823   0.86583   0.10139
  31   33190.1    301.3   0.005661666   0.05616  -0.13553  -0.13116  -0.14348
  32   33572.6    297.9   0.000023344   0.00023  -0.01283  -0.00108   0.00794
  33   33897.7    295.0   0.376171573   3.65335   0.36081   1.85026   0.31578
  34   33992.0    294.2   0.000155520   0.00151   0.03413  -0.00024  -0.01848
  35   34170.1    292.7   0.086036523   0.82892   0.40893   0.44578  -0.68042
  36   34381.1    290.9   0.101243157   0.96944  -0.18428  -0.37694  -0.89073
  37   34589.8    289.1   0.130961908   1.24644   0.68970   0.25330  -0.84059
  38   34708.0    288.1   0.500677437   4.74902   1.01571   1.39210  -1.33395
  39   34809.3    287.3   0.233332317   2.20676  -0.11545   1.20250   0.86454
  40   35084.5    285.0   0.121927473   1.14409   0.55815   0.39504  -0.82250
  41   35267.9    283.5   0.236193416   2.20477   0.81960   1.20791  -0.27201
  42   35412.6    282.4   0.003780923   0.03515   0.01514  -0.04501  -0.18137
  43   35727.6    279.9   0.012989804   0.11969   0.02546   0.19765   0.28281
  44   36264.3    275.8   0.070749421   0.64227  -0.43125  -0.65319  -0.17217
  45   36322.1    275.3   0.058576492   0.53092   0.14521   0.68687  -0.19505
  46   36525.4    273.8   0.245422610   2.21205  -0.48110   0.03768   1.40683
  47   36840.0    271.4   0.071368937   0.63777   0.05949  -0.47972  -0.63569
  48   37093.7    269.6   0.081584970   0.72408   0.16855  -0.09294  -0.82887
  49   37178.3    269.0   0.080815802   0.71562  -0.47921  -0.30577   0.62648
  50   37287.3    268.2   0.080891408   0.71420   0.43908   0.21532  -0.68924
  51   37599.4    266.0   0.019327153   0.16922  -0.13035  -0.35372  -0.16467
  52   37680.5    265.4   0.022747188   0.19874   0.11400   0.40983   0.13337
  53   37899.8    263.9   0.063265677   0.54955  -0.00689  -0.67002  -0.31713
  54   38107.2    262.4   0.024240095   0.20941  -0.13201  -0.43767  -0.02069
  55   38217.4    261.7   0.025530224   0.21992  -0.41993  -0.08911   0.18878
  56   38584.8    259.2   0.055004081   0.46930   0.28282  -0.00230  -0.62395
  57   38853.3    257.4   0.071288165   0.60404  -0.35528  -0.69123  -0.00508
  58   38987.5    256.5   0.035652731   0.30105  -0.22858   0.49734   0.03813
  59   39241.0    254.8   0.070346419   0.59017   0.08650  -0.66363  -0.37721
  60   39383.0    253.9   0.160766912   1.34389  -0.51887   0.41197   0.95128
  61   40019.6    249.9   0.010458719   0.08604   0.13183  -0.16993   0.19945
  62   40074.2    249.5   0.045257231   0.37179   0.47199   0.07046  -0.37954
  63   40299.2    248.1   0.030470237   0.24892   0.22833   0.41264   0.16281

FINAL SINGLE POINT ENERGY     -5210.800909755970

DIPOLE MOMENT
-------------
                                X             Y             Z
Electronic contribution:      2.92939       0.39104       2.31304
Nuclear contribution   :     -4.93961      -1.16214      -2.08670
                        -----------------------------------------
Total Dipole Moment    :     -2.01022      -0.77110       0.22634
                        -----------------------------------------
Magnitude (a.u.)       :      2.16491
Magnitude (Debye)      :      5.50276

Rotational constants in cm-1:     0.002646     0.000115     0.000111
Rotational constants in MHz :    79.329087     3.436494     3.333869

                             ****ORCA TERMINATED NORMALLY****
TOTAL RUN TIME: 0 days 0 hours 14 minutes 42 seconds 221 msec
