                         Program Version 4.2.0 -  RELEASE  -
|  1> # ORCA input file
|  2> # SCF done       -210.172649014172          0.000669480353
|  3> ! CAM-B3LYP def2-SVP def2/J RIJCOSX Grid4 TightSCF
|  4> %maxcore 5000
|  5> %tddft
|  6>     Mode sTDDFT
|  7>     Ethresh 5.0
|  8>     maxcore 5000
|  9> end
| 10>
| 11> %pal
| 12>   nprocs 6
| 13>   end
| 14> * xyz 0 1
| 15>    C      -13.52519        13.32209         0.02342
| 16>    C      -13.22504        11.99372         0.18579
| 17>    C      -14.00936        10.94310        -0.33449
| 18>    N      -14.61450        10.05097        -0.72800
| 19>    C      -12.15902        11.51869         0.97249
| 20>    N      -11.31696        11.08865         1.62455
| 21>    C      -14.75197        13.83017        -0.58303
| 22>    C      -14.95873        15.16854        -0.13771
| 23>    C      -16.05438        15.88925        -0.51640
| 24>    C      -17.00286        15.29742        -1.38096
| 25>    C      -16.79090        13.96712        -1.84574
| 26>    C      -15.64935        13.24203        -1.43244
| 27>    C      -17.74033        13.39199        -2.71441
| 28>    C      -18.84902        14.09355        -3.10310
| 29>    C      -19.05765        15.40261        -2.64408
| 30>    C      -18.15425        15.99169        -1.80156
| 31>    C      -13.83115        15.57429         0.71790
| 32>    O      -13.68124        16.61312         1.31987
| 33>    C      -12.85740        14.44528         0.64556
| 34>    C      -11.57977        14.66378         1.06331
| 35>    C      -10.40841        13.93617         0.76223
| 36>    C      -10.17106        13.04395        -0.27360
| 37>    C       -8.86935        12.56073        -0.26324
| 38>    C       -8.09579        13.08729         0.78961
| 39>    S       -8.96796        14.19023         1.74345
| 40>    C       -6.79535        12.51967         0.71492
| 41>    C       -6.75473        11.63844        -0.37491
| 42>    C       -8.05374        11.62648        -1.02258
| 43>    C       -8.43671        10.88619        -2.10230
| 44>    C       -7.55635         9.99785        -2.75540
| 45>    N       -6.84254         9.27190        -3.28310
| 46>    C       -9.74527        10.96856        -2.62343
| 47>    N      -10.81068        11.04934        -3.03983
| 48>    C       -5.50338        11.03771        -0.54348
| 49>    C       -4.60010        11.46299         0.40070
| 50>    S       -5.29689        12.60276         1.53165
| 51>    C       -3.21901        11.08324         0.50940
| 52>    C       -2.43024        11.03982         1.62892
| 53>    O       -1.19808        10.60866         1.32715
| 54>    C       -1.16940        10.35886         0.01291
| 55>    C       -2.37949        10.62544        -0.56367
| 56>    C       -2.72814        10.62837        -2.00131
| 57>    O       -3.30852        11.56745        -2.51554
| 58>    C       -2.33427         9.45944        -2.76451
| 59>    C       -1.77131         8.26467        -2.36670
| 60>    C       -1.55450         7.38538        -3.42377
| 61>    C       -1.96414         7.89759        -4.64340
| 62>    S       -2.63198         9.48480        -4.47122
| 63>    C       -1.85827         7.27157        -5.91830
| 64>    C       -1.14244         6.13014        -6.23179
| 65>    C       -1.22342         5.82077        -7.58946
| 66>    C       -2.02002         6.72867        -8.30870
| 67>    S       -2.65740         7.96300        -7.31694
| 68>    C       -2.02755         6.34103        -9.67236
| 69>    C       -1.21712         5.19534        -9.81727
| 70>    C       -0.70314         4.82069        -8.50967
| 71>    C        0.08891         3.75432        -8.20313
| 72>    C        0.51222         2.81185        -9.16554
| 73>    N        0.85267         2.02061        -9.92161
| 74>    C        0.52478         3.50787        -6.88366
| 75>    N        0.88017         3.31149        -5.81121
| 76>    C       -1.11495         4.76212       -11.13378
| 77>    C       -1.84781         5.55796       -12.00243
| 78>    S       -2.70028         6.84854       -11.14753
| 79>    C       -2.04907         5.46514       -13.39698
| 80>    C       -1.24688         4.86668       -14.32611
| 81>    C       -1.57524         4.72058       -15.73270
| 82>    C       -2.83037         4.78249       -16.28000
| 83>    C       -3.10158         4.60058       -17.65207
| 84>    N       -3.38504         4.46788       -18.75657
| 85>    C       -4.01821         4.99206       -15.54865
| 86>    N       -5.02460         5.13729       -15.01503
| 87>    C       -0.34724         4.40062       -16.44751
| 88>    C        0.70450         4.26465       -15.49730
| 89>    C        0.18305         4.50114       -14.14040
| 90>    O        0.81961         4.47366       -13.10909
| 91>    C        1.98293         3.96849       -15.87327
| 92>    C        2.27354         3.79353       -17.24484
| 93>    C        1.22734         3.93149       -18.20255
| 94>    C       -0.08770         4.23679       -17.78237
| 95>    C        1.53081         3.76113       -19.56857
| 96>    C        2.80568         3.46958       -19.97145
| 97>    C        3.83491         3.33445       -19.02786
| 98>    C        3.57423         3.49145       -17.69348
| 99>    H      -16.19658        16.89932        -0.16185
|100>    H      -15.50563        12.24150        -1.80937
|101>    H      -17.57648        12.38289        -3.06276
|102>    H      -19.57207        13.64314        -3.76650
|103>    H      -19.93739        15.94220        -2.96156
|104>    H      -18.30941        16.99963        -1.44527
|105>    H      -11.44335        15.56639         1.65181
|106>    H      -10.90577        12.80333        -1.02023
|107>    H       -5.26799        10.32555        -1.31162
|108>    H       -2.64270        11.27893         2.65203
|109>    H       -0.23748        10.04111        -0.41168
|110>    H       -1.53772         8.03612        -1.34287
|111>    H       -1.12748         6.40608        -3.30928
|112>    H       -0.57989         5.57076        -5.50790
|113>    H       -0.54869         3.90976       -11.45781
|114>    H       -2.93530         5.97618       -13.75598
|115>    H        2.76263         3.86937       -15.13272
|116>    H       -0.85676         4.34326       -18.53102
|117>    H        0.73477         3.86478       -20.29126
|118>    H        3.02803         3.34155       -21.02021
|119>    H        4.83536         3.10569       -19.36345
|120>    H        4.36247         3.38817       -16.96217
|121> *
|122>
|123>                          ****END OF INPUT****

CARTESIAN COORDINATES (ANGSTROEM)
---------------------------------
  C    -13.525190   13.322090    0.023420
  C    -13.225040   11.993720    0.185790
  C    -14.009360   10.943100   -0.334490
  N    -14.614500   10.050970   -0.728000
  C    -12.159020   11.518690    0.972490
  N    -11.316960   11.088650    1.624550
  C    -14.751970   13.830170   -0.583030
  C    -14.958730   15.168540   -0.137710
  C    -16.054380   15.889250   -0.516400
  C    -17.002860   15.297420   -1.380960
  C    -16.790900   13.967120   -1.845740
  C    -15.649350   13.242030   -1.432440
  C    -17.740330   13.391990   -2.714410
  C    -18.849020   14.093550   -3.103100
  C    -19.057650   15.402610   -2.644080
  C    -18.154250   15.991690   -1.801560
  C    -13.831150   15.574290    0.717900
  O    -13.681240   16.613120    1.319870
  C    -12.857400   14.445280    0.645560
  C    -11.579770   14.663780    1.063310
  C    -10.408410   13.936170    0.762230
  C    -10.171060   13.043950   -0.273600
  C     -8.869350   12.560730   -0.263240
  C     -8.095790   13.087290    0.789610
  S     -8.967960   14.190230    1.743450
  C     -6.795350   12.519670    0.714920
  C     -6.754730   11.638440   -0.374910
  C     -8.053740   11.626480   -1.022580
  C     -8.436710   10.886190   -2.102300
  C     -7.556350    9.997850   -2.755400
  N     -6.842540    9.271900   -3.283100
  C     -9.745270   10.968560   -2.623430
  N    -10.810680   11.049340   -3.039830
  C     -5.503380   11.037710   -0.543480
  C     -4.600100   11.462990    0.400700
  S     -5.296890   12.602760    1.531650
  C     -3.219010   11.083240    0.509400
  C     -2.430240   11.039820    1.628920
  O     -1.198080   10.608660    1.327150
  C     -1.169400   10.358860    0.012910
  C     -2.379490   10.625440   -0.563670
  C     -2.728140   10.628370   -2.001310
  O     -3.308520   11.567450   -2.515540
  C     -2.334270    9.459440   -2.764510
  C     -1.771310    8.264670   -2.366700
  C     -1.554500    7.385380   -3.423770
  C     -1.964140    7.897590   -4.643400
  S     -2.631980    9.484800   -4.471220
  C     -1.858270    7.271570   -5.918300
  C     -1.142440    6.130140   -6.231790
  C     -1.223420    5.820770   -7.589460
  C     -2.020020    6.728670   -8.308700
  S     -2.657400    7.963000   -7.316940
  C     -2.027550    6.341030   -9.672360
  C     -1.217120    5.195340   -9.817270
  C     -0.703140    4.820690   -8.509670
  C      0.088910    3.754320   -8.203130
  C      0.512220    2.811850   -9.165540
  N      0.852670    2.020610   -9.921610
  C      0.524780    3.507870   -6.883660
  N      0.880170    3.311490   -5.811210
  C     -1.114950    4.762120  -11.133780
  C     -1.847810    5.557960  -12.002430
  S     -2.700280    6.848540  -11.147530
  C     -2.049070    5.465140  -13.396980
  C     -1.246880    4.866680  -14.326110
  C     -1.575240    4.720580  -15.732700
  C     -2.830370    4.782490  -16.280000
  C     -3.101580    4.600580  -17.652070
  N     -3.385040    4.467880  -18.756570
  C     -4.018210    4.992060  -15.548650
  N     -5.024600    5.137290  -15.015030
  C     -0.347240    4.400620  -16.447510
  C      0.704500    4.264650  -15.497300
  C      0.183050    4.501140  -14.140400
  O      0.819610    4.473660  -13.109090
  C      1.982930    3.968490  -15.873270
  C      2.273540    3.793530  -17.244840
  C      1.227340    3.931490  -18.202550
  C     -0.087700    4.236790  -17.782370
  C      1.530810    3.761130  -19.568570
  C      2.805680    3.469580  -19.971450
  C      3.834910    3.334450  -19.027860
  C      3.574230    3.491450  -17.693480
  H    -16.196580   16.899320   -0.161850
  H    -15.505630   12.241500   -1.809370
  H    -17.576480   12.382890   -3.062760
  H    -19.572070   13.643140   -3.766500
  H    -19.937390   15.942200   -2.961560
  H    -18.309410   16.999630   -1.445270
  H    -11.443350   15.566390    1.651810
  H    -10.905770   12.803330   -1.020230
  H     -5.267990   10.325550   -1.311620
  H     -2.642700   11.278930    2.652030
  H     -0.237480   10.041110   -0.411680
  H     -1.537720    8.036120   -1.342870
  H     -1.127480    6.406080   -3.309280
  H     -0.579890    5.570760   -5.507900
  H     -0.548690    3.909760  -11.457810
  H     -2.935300    5.976180  -13.755980
  H      2.762630    3.869370  -15.132720
  H     -0.856760    4.343260  -18.531020
  H      0.734770    3.864780  -20.291260
  H      3.028030    3.341550  -21.020210
  H      4.835360    3.105690  -19.363450
  H      4.362470    3.388170  -16.962170

 Total Charge           Charge          ....    0
 Multiplicity           Mult            ....    1
 Number of Electrons    NEL             ....  592
 Basis Dimension        Dim             .... 1306

ORBITAL ENERGIES
----------------

  NO   OCC          E(Eh)            E(eV)
   0   2.0000     -89.000263     -2421.8203
   1   2.0000     -88.998367     -2421.7687
   2   2.0000     -88.993486     -2421.6359
   3   2.0000     -88.991526     -2421.5825
   4   2.0000     -88.977323     -2421.1961
   5   2.0000     -19.315853      -525.6111
   6   2.0000     -19.217508      -522.9350
   7   2.0000     -19.215177      -522.8716
   8   2.0000     -19.211076      -522.7600
   9   2.0000     -14.436620      -392.8404
  10   2.0000     -14.432760      -392.7354
  11   2.0000     -14.430326      -392.6691
  12   2.0000     -14.429833      -392.6557
  13   2.0000     -14.415252      -392.2590
  14   2.0000     -14.414292      -392.2328
  15   2.0000     -14.413937      -392.2232
  16   2.0000     -14.409629      -392.1059
  17   2.0000     -10.379144      -282.4309
  18   2.0000     -10.371390      -282.2199
  19   2.0000     -10.369617      -282.1716
  20   2.0000     -10.364613      -282.0355
  21   2.0000     -10.362455      -281.9767
  22   2.0000     -10.358365      -281.8655
  23   2.0000     -10.351775      -281.6861
  24   2.0000     -10.350896      -281.6622
  25   2.0000     -10.348273      -281.5908
  26   2.0000     -10.345315      -281.5103
  27   2.0000     -10.341560      -281.4081
  28   2.0000     -10.341460      -281.4054
  29   2.0000     -10.341246      -281.3996
  30   2.0000     -10.340217      -281.3716
  31   2.0000     -10.340019      -281.3662
  32   2.0000     -10.339450      -281.3507
  33   2.0000     -10.338636      -281.3286
  34   2.0000     -10.336814      -281.2790
  35   2.0000     -10.334198      -281.2078
  36   2.0000     -10.332170      -281.1526
  37   2.0000     -10.331650      -281.1385
  38   2.0000     -10.330624      -281.1106
  39   2.0000     -10.330246      -281.1003
  40   2.0000     -10.329318      -281.0750
  41   2.0000     -10.328746      -281.0595
  42   2.0000     -10.328363      -281.0491
  43   2.0000     -10.324295      -280.9384
  44   2.0000     -10.322027      -280.8766
  45   2.0000     -10.318169      -280.7716
  46   2.0000     -10.316782      -280.7339
  47   2.0000     -10.315994      -280.7125
  48   2.0000     -10.315645      -280.7030
  49   2.0000     -10.313473      -280.6439
  50   2.0000     -10.312266      -280.6110
  51   2.0000     -10.311846      -280.5996
  52   2.0000     -10.311426      -280.5882
  53   2.0000     -10.310682      -280.5679
  54   2.0000     -10.310194      -280.5546
  55   2.0000     -10.306223      -280.4466
  56   2.0000     -10.305345      -280.4227
  57   2.0000     -10.304248      -280.3928
  58   2.0000     -10.303821      -280.3812
  59   2.0000     -10.302456      -280.3441
  60   2.0000     -10.302224      -280.3378
  61   2.0000     -10.299504      -280.2638
  62   2.0000     -10.298332      -280.2319
  63   2.0000     -10.297514      -280.2096
  64   2.0000     -10.297280      -280.2032
  65   2.0000     -10.297042      -280.1968
  66   2.0000     -10.296662      -280.1864
  67   2.0000     -10.296386      -280.1789
  68   2.0000     -10.296191      -280.1736
  69   2.0000     -10.295893      -280.1655
  70   2.0000     -10.294167      -280.1185
  71   2.0000     -10.293951      -280.1126
  72   2.0000     -10.293619      -280.1036
  73   2.0000     -10.292662      -280.0776
  74   2.0000     -10.288611      -279.9673
  75   2.0000     -10.286355      -279.9059
  76   2.0000     -10.285838      -279.8919
  77   2.0000     -10.285817      -279.8913
  78   2.0000     -10.285624      -279.8860
  79   2.0000     -10.285155      -279.8733
  80   2.0000     -10.283180      -279.8196
  81   2.0000     -10.282704      -279.8066
  82   2.0000     -10.282331      -279.7964
  83   2.0000     -10.281669      -279.7784
  84   2.0000      -8.095026      -220.2769
  85   2.0000      -8.093177      -220.2266
  86   2.0000      -8.088219      -220.0916
  87   2.0000      -8.086281      -220.0389
  88   2.0000      -8.072722      -219.6699
  89   2.0000      -6.064292      -165.0178
  90   2.0000      -6.062332      -164.9644
  91   2.0000      -6.060029      -164.9018
  92   2.0000      -6.058137      -164.8503
  93   2.0000      -6.057384      -164.8298
  94   2.0000      -6.057363      -164.8292
  95   2.0000      -6.055694      -164.7838
  96   2.0000      -6.055542      -164.7797
  97   2.0000      -6.053209      -164.7162
  98   2.0000      -6.051315      -164.6646
  99   2.0000      -6.050731      -164.6488
 100   2.0000      -6.048662      -164.5925
 101   2.0000      -6.041999      -164.4112
 102   2.0000      -6.037613      -164.2918
 103   2.0000      -6.035049      -164.2220
 104   2.0000      -1.236375       -33.6435
 105   2.0000      -1.134375       -30.8679
 106   2.0000      -1.133138       -30.8343
 107   2.0000      -1.126357       -30.6497
 108   2.0000      -1.054232       -28.6871
 109   2.0000      -1.046974       -28.4896
 110   2.0000      -1.027525       -27.9604
 111   2.0000      -1.021979       -27.8095
 112   2.0000      -1.018522       -27.7154
 113   2.0000      -1.015636       -27.6369
 114   2.0000      -1.015381       -27.6299
 115   2.0000      -1.011258       -27.5177
 116   2.0000      -1.007665       -27.4199
 117   2.0000      -1.001169       -27.2432
 118   2.0000      -0.998729       -27.1768
 119   2.0000      -0.996968       -27.1289
 120   2.0000      -0.995361       -27.0851
 121   2.0000      -0.993051       -27.0223
 122   2.0000      -0.989233       -26.9184
 123   2.0000      -0.972301       -26.4577
 124   2.0000      -0.969072       -26.3698
 125   2.0000      -0.965002       -26.2590
 126   2.0000      -0.961926       -26.1753
 127   2.0000      -0.935072       -25.4446
 128   2.0000      -0.929859       -25.3028
 129   2.0000      -0.922916       -25.1138
 130   2.0000      -0.920693       -25.0533
 131   2.0000      -0.912359       -24.8265
 132   2.0000      -0.900580       -24.5060
 133   2.0000      -0.895233       -24.3605
 134   2.0000      -0.883324       -24.0365
 135   2.0000      -0.881929       -23.9985
 136   2.0000      -0.879082       -23.9210
 137   2.0000      -0.877936       -23.8898
 138   2.0000      -0.874472       -23.7956
 139   2.0000      -0.872114       -23.7314
 140   2.0000      -0.866568       -23.5805
 141   2.0000      -0.858620       -23.3642
 142   2.0000      -0.856985       -23.3198
 143   2.0000      -0.852752       -23.2046
 144   2.0000      -0.850531       -23.1441
 145   2.0000      -0.828095       -22.5336
 146   2.0000      -0.824811       -22.4443
 147   2.0000      -0.817314       -22.2403
 148   2.0000      -0.814142       -22.1539
 149   2.0000      -0.793764       -21.5994
 150   2.0000      -0.785435       -21.3728
 151   2.0000      -0.782477       -21.2923
 152   2.0000      -0.776577       -21.1317
 153   2.0000      -0.761560       -20.7231
 154   2.0000      -0.758703       -20.6453
 155   2.0000      -0.755535       -20.5592
 156   2.0000      -0.737195       -20.0601
 157   2.0000      -0.728917       -19.8348
 158   2.0000      -0.715157       -19.4604
 159   2.0000      -0.711501       -19.3609
 160   2.0000      -0.704566       -19.1722
 161   2.0000      -0.704126       -19.1602
 162   2.0000      -0.700444       -19.0600
 163   2.0000      -0.698580       -19.0093
 164   2.0000      -0.698184       -18.9985
 165   2.0000      -0.692481       -18.8434
 166   2.0000      -0.689421       -18.7601
 167   2.0000      -0.684620       -18.6295
 168   2.0000      -0.678799       -18.4711
 169   2.0000      -0.677472       -18.4350
 170   2.0000      -0.675004       -18.3678
 171   2.0000      -0.670518       -18.2457
 172   2.0000      -0.658051       -17.9065
 173   2.0000      -0.653225       -17.7751
 174   2.0000      -0.642438       -17.4816
 175   2.0000      -0.636694       -17.3253
 176   2.0000      -0.633799       -17.2465
 177   2.0000      -0.633206       -17.2304
 178   2.0000      -0.631497       -17.1839
 179   2.0000      -0.627267       -17.0688
 180   2.0000      -0.626595       -17.0505
 181   2.0000      -0.617946       -16.8152
 182   2.0000      -0.616822       -16.7846
 183   2.0000      -0.606786       -16.5115
 184   2.0000      -0.604060       -16.4373
 185   2.0000      -0.601719       -16.3736
 186   2.0000      -0.599937       -16.3251
 187   2.0000      -0.595658       -16.2087
 188   2.0000      -0.591955       -16.1079
 189   2.0000      -0.579304       -15.7637
 190   2.0000      -0.575151       -15.6507
 191   2.0000      -0.564531       -15.3617
 192   2.0000      -0.561199       -15.2710
 193   2.0000      -0.558193       -15.1892
 194   2.0000      -0.555936       -15.1278
 195   2.0000      -0.553839       -15.0707
 196   2.0000      -0.549494       -14.9525
 197   2.0000      -0.547425       -14.8962
 198   2.0000      -0.546609       -14.8740
 199   2.0000      -0.542736       -14.7686
 200   2.0000      -0.542053       -14.7500
 201   2.0000      -0.538792       -14.6613
 202   2.0000      -0.537610       -14.6291
 203   2.0000      -0.535015       -14.5585
 204   2.0000      -0.533464       -14.5163
 205   2.0000      -0.531673       -14.4676
 206   2.0000      -0.527984       -14.3672
 207   2.0000      -0.526930       -14.3385
 208   2.0000      -0.523975       -14.2581
 209   2.0000      -0.520815       -14.1721
 210   2.0000      -0.518672       -14.1138
 211   2.0000      -0.517660       -14.0862
 212   2.0000      -0.514141       -13.9905
 213   2.0000      -0.511514       -13.9190
 214   2.0000      -0.510809       -13.8998
 215   2.0000      -0.510029       -13.8786
 216   2.0000      -0.508449       -13.8356
 217   2.0000      -0.506565       -13.7843
 218   2.0000      -0.505904       -13.7663
 219   2.0000      -0.504983       -13.7413
 220   2.0000      -0.501952       -13.6588
 221   2.0000      -0.500390       -13.6163
 222   2.0000      -0.497693       -13.5429
 223   2.0000      -0.496774       -13.5179
 224   2.0000      -0.496415       -13.5082
 225   2.0000      -0.493076       -13.4173
 226   2.0000      -0.492671       -13.4063
 227   2.0000      -0.487013       -13.2523
 228   2.0000      -0.484913       -13.1952
 229   2.0000      -0.482591       -13.1320
 230   2.0000      -0.480509       -13.0753
 231   2.0000      -0.475628       -12.9425
 232   2.0000      -0.474749       -12.9186
 233   2.0000      -0.472300       -12.8519
 234   2.0000      -0.471149       -12.8206
 235   2.0000      -0.466521       -12.6947
 236   2.0000      -0.465237       -12.6597
 237   2.0000      -0.463749       -12.6192
 238   2.0000      -0.461448       -12.5566
 239   2.0000      -0.461272       -12.5519
 240   2.0000      -0.458740       -12.4829
 241   2.0000      -0.457911       -12.4604
 242   2.0000      -0.457459       -12.4481
 243   2.0000      -0.451622       -12.2893
 244   2.0000      -0.448341       -12.2000
 245   2.0000      -0.448119       -12.1939
 246   2.0000      -0.447313       -12.1720
 247   2.0000      -0.444301       -12.0901
 248   2.0000      -0.444169       -12.0864
 249   2.0000      -0.444031       -12.0827
 250   2.0000      -0.443272       -12.0620
 251   2.0000      -0.441250       -12.0070
 252   2.0000      -0.440117       -11.9762
 253   2.0000      -0.439886       -11.9699
 254   2.0000      -0.438140       -11.9224
 255   2.0000      -0.435580       -11.8527
 256   2.0000      -0.435144       -11.8409
 257   2.0000      -0.434008       -11.8100
 258   2.0000      -0.433669       -11.8007
 259   2.0000      -0.432360       -11.7651
 260   2.0000      -0.429676       -11.6921
 261   2.0000      -0.428692       -11.6653
 262   2.0000      -0.427422       -11.6308
 263   2.0000      -0.427286       -11.6271
 264   2.0000      -0.425424       -11.5764
 265   2.0000      -0.423925       -11.5356
 266   2.0000      -0.422426       -11.4948
 267   2.0000      -0.419522       -11.4158
 268   2.0000      -0.415446       -11.3049
 269   2.0000      -0.409216       -11.1353
 270   2.0000      -0.406359       -11.0576
 271   2.0000      -0.404800       -11.0152
 272   2.0000      -0.399325       -10.8662
 273   2.0000      -0.392676       -10.6853
 274   2.0000      -0.389478       -10.5982
 275   2.0000      -0.376212       -10.2373
 276   2.0000      -0.375444       -10.2163
 277   2.0000      -0.362980        -9.8772
 278   2.0000      -0.359737        -9.7890
 279   2.0000      -0.356010        -9.6875
 280   2.0000      -0.350100        -9.5267
 281   2.0000      -0.345635        -9.4052
 282   2.0000      -0.344792        -9.3823
 283   2.0000      -0.340791        -9.2734
 284   2.0000      -0.339048        -9.2260
 285   2.0000      -0.332895        -9.0585
 286   2.0000      -0.327787        -8.9195
 287   2.0000      -0.323903        -8.8139
 288   2.0000      -0.319154        -8.6846
 289   2.0000      -0.316930        -8.6241
 290   2.0000      -0.311542        -8.4775
 291   2.0000      -0.310843        -8.4585
 292   2.0000      -0.293743        -7.9932
 293   2.0000      -0.291442        -7.9305
 294   2.0000      -0.265318        -7.2197
 295   2.0000      -0.262433        -7.1412
 296   0.0000      -0.116646        -3.1741
 297   0.0000      -0.107886        -2.9357
 298   0.0000      -0.090810        -2.4711
 299   0.0000      -0.086222        -2.3462
 300   0.0000      -0.063876        -1.7382

MULLIKEN ATOMIC CHARGES
-----------------------
   0 C :    0.273907
   1 C :   -0.331288
   2 C :   -0.170857
   3 N :    0.157042
   4 C :   -0.203020
   5 N :    0.164094
   6 C :    0.026806
   7 C :    0.019236
   8 C :   -0.082810
   9 C :    0.093644
  10 C :    0.092556
  11 C :   -0.075074
  12 C :   -0.014879
  13 C :    0.033424
  14 C :    0.036381
  15 C :   -0.015317
  16 C :    0.134230
  17 O :   -0.147577
  18 C :   -0.140462
  19 C :    0.081725
  20 C :   -0.114401
  21 C :    0.003479
  22 C :   -0.007930
  23 C :   -0.070652
  24 S :    0.210761
  25 C :   -0.105568
  26 C :    0.003268
  27 C :    0.308537
  28 C :   -0.287089
  29 C :   -0.182463
  30 N :    0.169101
  31 C :   -0.188446
  32 N :    0.170380
  33 C :   -0.008818
  34 C :   -0.093869
  35 S :    0.195511
  36 C :    0.093030
  37 C :    0.051467
  38 O :   -0.163242
  39 C :    0.084904
  40 C :   -0.061644
  41 C :    0.161135
  42 O :   -0.172554
  43 C :   -0.160632
  44 C :    0.046412
  45 C :   -0.003855
  46 C :   -0.056036
  47 S :    0.196556
  48 C :   -0.032327
  49 C :   -0.042081
  50 C :    0.011230
  51 C :   -0.102542
  52 S :    0.216709
  53 C :   -0.083920
  54 C :   -0.025647
  55 C :    0.305599
  56 C :   -0.292382
  57 C :   -0.186265
  58 N :    0.187884
  59 C :   -0.187387
  60 N :    0.171098
  61 C :    0.050226
  62 C :   -0.113475
  63 S :    0.211293
  64 C :    0.025051
  65 C :   -0.101448
  66 C :    0.300011
  67 C :   -0.338933
  68 C :   -0.183001
  69 N :    0.149350
  70 C :   -0.208158
  71 N :    0.157667
  72 C :    0.050549
  73 C :   -0.009960
  74 C :    0.155478
  75 O :   -0.152045
  76 C :   -0.077569
  77 C :    0.097444
  78 C :    0.097500
  79 C :   -0.082837
  80 C :   -0.020266
  81 C :    0.034476
  82 C :    0.036861
  83 C :   -0.016272
  84 H :   -0.013717
  85 H :   -0.001272
  86 H :   -0.009573
  87 H :   -0.004631
  88 H :   -0.006384
  89 H :   -0.018853
  90 H :    0.020049
  91 H :    0.025105
  92 H :    0.014124
  93 H :    0.015978
  94 H :    0.021339
  95 H :   -0.002079
  96 H :   -0.003959
  97 H :    0.008609
  98 H :    0.028363
  99 H :    0.026840
 100 H :   -0.010324
 101 H :   -0.007289
 102 H :   -0.008237
 103 H :   -0.004026
 104 H :   -0.005377
 105 H :   -0.015699
Sum of atomic charges:   -0.0000000

LOEWDIN ATOMIC CHARGES
----------------------
   0 C :    0.066400
   1 C :   -0.139066
   2 C :   -0.018421
   3 N :   -0.048988
   4 C :   -0.015759
   5 N :   -0.049292
   6 C :   -0.022763
   7 C :   -0.057314
   8 C :    0.031905
   9 C :   -0.009372
  10 C :   -0.005313
  11 C :    0.018600
  12 C :   -0.005160
  13 C :   -0.013474
  14 C :   -0.013492
  15 C :   -0.009867
  16 C :    0.083248
  17 O :   -0.147364
  18 C :   -0.093583
  19 C :    0.043208
  20 C :   -0.183511
  21 C :    0.011496
  22 C :   -0.068820
  23 C :   -0.155516
  24 S :    0.498077
  25 C :   -0.188859
  26 C :   -0.055491
  27 C :    0.084218
  28 C :   -0.097954
  29 C :   -0.013830
  30 N :   -0.033316
  31 C :   -0.013952
  32 N :   -0.032594
  33 C :   -0.020140
  34 C :   -0.150587
  35 S :    0.480584
  36 C :   -0.073553
  37 C :    0.036020
  38 O :    0.039415
  39 C :    0.052909
  40 C :   -0.091919
  41 C :    0.053245
  42 O :   -0.155876
  43 C :   -0.219138
  44 C :   -0.023071
  45 C :   -0.054757
  46 C :   -0.171297
  47 S :    0.487852
  48 C :   -0.173063
  49 C :   -0.022640
  50 C :   -0.055709
  51 C :   -0.186423
  52 S :    0.490383
  53 C :   -0.160248
  54 C :   -0.074343
  55 C :    0.078119
  56 C :   -0.094288
  57 C :   -0.019657
  58 N :   -0.018557
  59 C :   -0.014445
  60 N :   -0.032864
  61 C :    0.026303
  62 C :   -0.177682
  63 S :    0.496688
  64 C :    0.043296
  65 C :   -0.092612
  66 C :    0.075146
  67 C :   -0.140799
  68 C :   -0.017810
  69 N :   -0.053287
  70 C :   -0.025718
  71 N :   -0.052774
  72 C :   -0.026175
  73 C :   -0.055225
  74 C :    0.084366
  75 O :   -0.139766
  76 C :    0.033414
  77 C :   -0.008284
  78 C :   -0.006150
  79 C :    0.019510
  80 C :   -0.005545
  81 C :   -0.013254
  82 C :   -0.012124
  83 C :   -0.009118
  84 H :    0.038781
  85 H :    0.040244
  86 H :    0.034944
  87 H :    0.033073
  88 H :    0.032311
  89 H :    0.031323
  90 H :    0.045240
  91 H :    0.043045
  92 H :    0.039933
  93 H :    0.025673
  94 H :    0.028669
  95 H :    0.035484
  96 H :    0.034846
  97 H :    0.041426
  98 H :    0.045754
  99 H :    0.044606
 100 H :    0.039803
 101 H :    0.039092
 102 H :    0.034861
 103 H :    0.033359
 104 H :    0.032787
 105 H :    0.032314

  Mayer bond orders larger than 0.100000
B(  0-C ,  1-C ) :   1.6453 B(  0-C ,  6-C ) :   0.9967 B(  0-C , 18-C ) :   1.0387
B(  1-C ,  2-C ) :   1.1289 B(  1-C ,  4-C ) :   1.1713 B(  2-C ,  3-N ) :   2.9914
B(  4-C ,  5-N ) :   2.9952 B(  6-C ,  7-C ) :   1.2155 B(  6-C , 11-C ) :   1.4611
B(  7-C ,  8-C ) :   1.4735 B(  7-C , 16-C ) :   0.9219 B(  8-C ,  9-C ) :   1.1840
B(  8-C , 84-H ) :   1.0156 B(  9-C , 10-C ) :   1.2576 B(  9-C , 15-C ) :   1.2454
B( 10-C , 11-C ) :   1.2046 B( 10-C , 12-C ) :   1.2414 B( 11-C , 85-H ) :   0.9931
B( 12-C , 13-C ) :   1.4886 B( 12-C , 86-H ) :   0.9974 B( 13-C , 14-C ) :   1.2606
B( 13-C , 87-H ) :   0.9890 B( 14-C , 15-C ) :   1.4893 B( 14-C , 88-H ) :   0.9888
B( 15-C , 89-H ) :   0.9969 B( 16-C , 17-O ) :   2.2627 B( 16-C , 18-C ) :   0.9424
B( 18-C , 19-C ) :   1.6644 B( 19-C , 20-C ) :   1.1411 B( 19-C , 90-H ) :   0.9268
B( 20-C , 21-C ) :   1.3952 B( 20-C , 24-S ) :   1.0844 B( 21-C , 22-C ) :   1.3589
B( 21-C , 91-H ) :   0.9797 B( 22-C , 23-C ) :   1.4160 B( 22-C , 27-C ) :   0.9947
B( 23-C , 24-S ) :   1.1596 B( 23-C , 25-C ) :   1.1845 B( 25-C , 26-C ) :   1.4500
B( 25-C , 35-S ) :   1.1117 B( 26-C , 27-C ) :   0.9959 B( 26-C , 33-C ) :   1.2878
B( 27-C , 28-C ) :   1.7158 B( 28-C , 29-C ) :   1.1356 B( 28-C , 31-C ) :   1.1340
B( 29-C , 30-N ) :   2.9831 B( 31-C , 32-N ) :   2.9849 B( 33-C , 34-C ) :   1.5045
B( 33-C , 92-H ) :   0.9825 B( 34-C , 35-S ) :   1.1241 B( 34-C , 36-C ) :   1.0419
B( 36-C , 37-C ) :   1.5127 B( 36-C , 40-C ) :   1.2711 B( 37-C , 38-O ) :   1.1543
B( 37-C , 93-H ) :   1.0081 B( 38-O , 39-C ) :   1.1753 B( 39-C , 40-C ) :   1.5393
B( 39-C , 94-H ) :   1.0063 B( 40-C , 41-C ) :   0.9111 B( 41-C , 42-O ) :   2.2206
B( 41-C , 43-C ) :   0.9927 B( 43-C , 44-C ) :   1.4956 B( 43-C , 46-C ) :   0.1174
B( 43-C , 47-S ) :   1.1249 B( 44-C , 45-C ) :   1.2857 B( 44-C , 95-H ) :   0.9855
B( 45-C , 46-C ) :   1.4958 B( 45-C , 96-H ) :   0.9977 B( 46-C , 47-S ) :   1.1610
B( 46-C , 48-C ) :   1.1047 B( 48-C , 49-C ) :   1.4827 B( 48-C , 52-S ) :   1.1172
B( 49-C , 50-C ) :   1.2971 B( 49-C , 97-H ) :   0.9943 B( 50-C , 51-C ) :   1.4358
B( 50-C , 55-C ) :   0.9957 B( 51-C , 52-S ) :   1.1227 B( 51-C , 53-C ) :   1.1990
B( 53-C , 54-C ) :   1.3902 B( 53-C , 63-S ) :   1.1668 B( 54-C , 55-C ) :   0.9952
B( 54-C , 61-C ) :   1.3396 B( 55-C , 56-C ) :   1.7198 B( 56-C , 57-C ) :   1.1325
B( 56-C , 59-C ) :   1.1347 B( 57-C , 58-N ) :   2.9946 B( 59-C , 60-N ) :   2.9881
B( 61-C , 62-C ) :   1.4166 B( 61-C , 98-H ) :   0.9763 B( 62-C , 63-S ) :   1.0755
B( 62-C , 64-C ) :   1.1818 B( 64-C , 65-C ) :   1.6095 B( 64-C , 99-H ) :   0.9311
B( 65-C , 66-C ) :   1.0679 B( 65-C , 74-C ) :   0.9411 B( 66-C , 67-C ) :   1.6395
B( 66-C , 72-C ) :   0.9919 B( 67-C , 68-C ) :   1.1447 B( 67-C , 70-C ) :   1.1383
B( 68-C , 69-N ) :   2.9683 B( 70-C , 71-N ) :   2.9964 B( 72-C , 73-C ) :   1.2119
B( 72-C , 79-C ) :   1.4511 B( 73-C , 74-C ) :   0.9463 B( 73-C , 76-C ) :   1.4741
B( 74-C , 75-O ) :   2.2017 B( 76-C , 77-C ) :   1.1787 B( 76-C ,100-H ) :   1.0161
B( 77-C , 78-C ) :   1.2559 B( 77-C , 83-C ) :   1.2448 B( 78-C , 79-C ) :   1.2048
B( 78-C , 80-C ) :   1.2398 B( 79-C ,101-H ) :   0.9910 B( 80-C , 81-C ) :   1.4890
B( 80-C ,102-H ) :   0.9977 B( 81-C , 82-C ) :   1.2592 B( 81-C ,103-H ) :   0.9891
B( 82-C , 83-C ) :   1.4886 B( 82-C ,104-H ) :   0.9890 B( 83-C ,105-H ) :   0.9978

-----------------------------------------------------------------------------
         ABSORPTION SPECTRUM VIA TRANSITION ELECTRIC DIPOLE MOMENTS
-----------------------------------------------------------------------------
State   Energy  Wavelength   fosc         T2         TX        TY        TZ
        (cm-1)    (nm)                  (au**2)     (au)      (au)      (au)
-----------------------------------------------------------------------------
   0   14059.5    711.3   0.292680710   6.85330   0.89617  -0.94422  -2.27126
   1   14345.2    697.1   0.134237821   3.08066   1.58501  -0.21922   0.72135
   2   20591.6    485.6   0.764208043  12.21791  -3.22061   0.71191   1.15705
   3   21347.8    468.4   1.207307473  18.61831  -0.57041  -1.04226  -4.14809
   4   23154.5    431.9   0.000113634   0.00162  -0.01017  -0.02015  -0.03326
   5   24265.5    412.1   0.000206242   0.00280   0.03717  -0.00301   0.03752
   6   24804.1    403.2   0.043404566   0.57609  -0.46176   0.36618   0.47830
   7   25561.4    391.2   0.028428545   0.36614   0.33430  -0.39297   0.31616
   8   26091.8    383.3   0.015208678   0.19189  -0.15141  -0.24012   0.33364
   9   27356.1    365.5   0.012846969   0.15460   0.20706   0.23477   0.23793
  10   27747.9    360.4   0.059210819   0.70250  -0.00909  -0.34882  -0.76207
  11   28054.3    356.5   0.426610084   5.00619  -1.21767   1.34374   1.31066
  12   28226.7    354.3   0.023261210   0.27130   0.23451   0.24092   0.39782
  13   28917.2    345.8   0.212598562   2.42036   0.99554  -0.89771  -0.78955
  14   29117.3    343.4   0.038875396   0.43954  -0.35132   0.07525  -0.55718
  15   29206.2    342.4   0.048788924   0.54995  -0.58399   0.42130   0.17724
  16   29573.5    338.1   0.174509220   1.94263  -0.86910   0.97604   0.48441
  17   29919.3    334.2   0.152134157   1.67398   0.76428  -0.72298  -0.75310
  18   30207.8    331.0   0.212983035   2.32114  -0.08028   1.45140  -0.45622
  19   30429.2    328.6   0.234842839   2.54075   1.42947  -0.44866   0.54414
  20   30812.9    324.5   0.299187167   3.19658  -1.11523   1.33451  -0.41464
  21   31101.1    321.5   0.411037290   4.35091   0.84030   0.90286   1.68216
  22   31232.1    320.2   0.081670756   0.86088  -0.44940  -0.33153  -0.74095
  23   31684.9    315.6   0.001146926   0.01192  -0.06203   0.04255  -0.07911
  24   31861.4    313.9   0.143867709   1.48653  -0.59648   0.56717   0.89947
  25   32207.7    310.5   0.316439408   3.23450  -1.57159   0.35219  -0.80034
  26   32239.3    310.2   0.007925496   0.08093   0.10281   0.01226   0.26497
  27   32353.8    309.1   0.281386504   2.86322  -1.21568   0.47660   1.07619
  28   32503.4    307.7   0.115604632   1.17091   1.07761  -0.08177   0.05463
  29   33076.6    302.3   0.108757321   1.08246   0.29109  -0.25390   0.96605
  30   33328.9    300.0   0.010906030   0.10773   0.31602  -0.05157  -0.07209
  31   33515.6    298.4   0.342851496   3.36771   1.27344  -0.52249   1.21370
  32   33828.5    295.6   0.003683035   0.03584   0.13704  -0.12646   0.03269
  33   33918.6    294.8   0.104822411   1.01740  -0.73062   0.61119  -0.33171
  34   34094.1    293.3   0.130199473   1.25720  -0.39539   0.93014   0.48550
  35   34272.7    291.8   0.013973586   0.13423   0.13474  -0.26255  -0.21712
  36   34350.4    291.1   0.057871003   0.55463   0.60751  -0.38203   0.19904
  37   34404.2    290.7   0.034858247   0.33356   0.29235  -0.15599  -0.47303
  38   34489.2    289.9   0.082877132   0.79109   0.28729  -0.61485  -0.57491
  39   34562.2    289.3   0.499738877   4.76012  -1.91382   0.85017  -0.61207
  40   34685.8    288.3   0.313250710   2.97314  -1.56530  -0.35313   0.63109
  41   35149.5    284.5   0.255828365   2.39610   0.86169  -1.26041  -0.25485
  42   35797.3    279.4   0.001513512   0.01392  -0.07645  -0.02952  -0.08487
  43   36275.6    275.7   0.027407770   0.24873  -0.37147  -0.06113  -0.32712
  44   36343.2    275.2   0.125503618   1.13686   0.81033   0.27285   0.63701
  45   36734.4    272.2   0.017104317   0.15329   0.33071  -0.15797  -0.13773
  46   36768.2    272.0   0.050418981   0.45144  -0.49046   0.33836  -0.31047
  47   36941.2    270.7   0.007947184   0.07082   0.15635   0.04710  -0.21014
  48   37050.2    269.9   0.139207966   1.23694  -1.00039   0.30529   0.37811
  49   37393.6    267.4   0.199594858   1.75723   1.18440  -0.59526  -0.00948
  50   37735.5    265.0   0.006344608   0.05535  -0.18327   0.11701   0.08985
  51   38449.8    260.1   0.001568655   0.01343   0.08560   0.01943   0.07567
  52   38562.9    259.3   0.000529365   0.00452  -0.04911  -0.00969  -0.04487
  53   38678.2    258.5   0.026830783   0.22837   0.26692  -0.24355   0.31274
  54   38877.2    257.2   0.001666275   0.01411   0.04759   0.10666  -0.02168
  55   38994.5    256.4   0.023403899   0.19759  -0.15311  -0.41687  -0.01906
  56   39307.6    254.4   0.334734478   2.80349   1.07730  -0.07174   1.27976
  57   39546.8    252.9   0.004693099   0.03907   0.07963   0.15521  -0.09294
  58   39774.6    251.4   0.074667953   0.61802   0.30714   0.62479   0.36513
  59   39864.6    250.8   0.058503465   0.48314  -0.14860   0.60464   0.30897
  60   39981.8    250.1   0.000036995   0.00030  -0.00342  -0.01058  -0.01345
  61   40055.9    249.7   0.004613178   0.03791  -0.00405  -0.19000   0.04242
  62   40296.5    248.2   0.031140739   0.25441  -0.23385   0.42907  -0.12500
  63   40326.3    248.0   0.000685181   0.00559  -0.04496  -0.05718  -0.01740

FINAL SINGLE POINT ENERGY     -5291.256577399948

DIPOLE MOMENT
-------------
                                X             Y             Z
Electronic contribution:      9.92342       2.45059      28.20241
Nuclear contribution   :     -7.36203      -0.13024     -27.50132
                        -----------------------------------------
Total Dipole Moment    :      2.56139       2.32035       0.70109
                        -----------------------------------------
Magnitude (a.u.)       :      3.52651
Magnitude (Debye)      :      8.96368

Rotational constants in cm-1:     0.000924     0.000173     0.000151
Rotational constants in MHz :    27.699170     5.199033     4.513015

                             ****ORCA TERMINATED NORMALLY****
TOTAL RUN TIME: 0 days 0 hours 13 minutes 55 seconds 316 msec
