                         Program Version 4.2.0 -  RELEASE  -
|  1> # ORCA input file
|  2> # SCF done       -200.478531515869          0.000729784486
|  3> ! CAM-B3LYP def2-SVP def2/J RIJCOSX Grid4 TightSCF
|  4> %maxcore 5000
|  5> %tddft
|  6>     Mode sTDDFT
|  7>     Ethresh 5.0
|  8>     maxcore 5000
|  9> end
| 10>
| 11> %pal
| 12>   nprocs 6
| 13>   end
| 14> * xyz 0 1
| 15>    C        0.82470         1.19361         1.32542
| 16>    C       -0.22037         1.61253         2.10802
| 17>    C       -0.40659         1.21012         3.44730
| 18>    N       -0.60909         0.91088         4.53631
| 19>    C       -1.28177         2.41129         1.64227
| 20>    N       -2.17673         3.04421         1.29944
| 21>    C        1.80560         0.18667         1.71722
| 22>    C        2.38940        -0.36237         0.53809
| 23>    C        3.32034        -1.35915         0.59719
| 24>    C        3.72619        -1.84864         1.85942
| 25>    C        3.16427        -1.28562         3.04191
| 26>    C        2.19495        -0.26021         2.95059
| 27>    C        3.58829        -1.77341         4.29450
| 28>    C        4.51866        -2.77338         4.37777
| 29>    C        5.06878        -3.32969         3.21336
| 30>    C        4.68111        -2.87727         1.98125
| 31>    C        1.84408         0.33099        -0.64097
| 32>    O        2.05897         0.10786        -1.81036
| 33>    C        1.00109         1.43446        -0.09141
| 34>    C        0.64017         2.45342        -0.91926
| 35>    C        0.20358         3.75232        -0.57828
| 36>    C        0.35472         4.43294         0.62128
| 37>    C       -0.17855         5.71329         0.57078
| 38>    C       -0.74165         6.02604        -0.68339
| 39>    S       -0.59050         4.74664        -1.79504
| 40>    C       -1.27018         7.33936        -0.61805
| 41>    C       -1.04491         7.85264         0.67229
| 42>    C       -0.36230         6.84339         1.46487
| 43>    C        0.00260         6.91584         2.77692
| 44>    C       -0.23141         8.06155         3.56652
| 45>    N       -0.41128         8.99205         4.21153
| 46>    C        0.64190         5.83491         3.42055
| 47>    N        1.16659         4.95073         3.92846
| 48>    C       -1.52690         9.14925         0.83527
| 49>    C       -2.11837         9.63466        -0.31652
| 50>    S       -2.07890         8.45602        -1.62272
| 51>    C       -2.70679        10.92295        -0.51735
| 52>    C       -3.30366        11.29133        -1.71740
| 53>    C       -3.86984        12.54190        -1.92688
| 54>    C       -3.88535        13.53706        -0.95656
| 55>    C       -3.28950        13.20408         0.29054
| 56>    C       -2.70699        11.90658         0.50926
| 57>    N       -2.20467        11.79546         1.73827
| 58>    S       -2.43948        13.16665         2.53672
| 59>    N       -3.18625        13.97663         1.37104
| 60>    C       -4.46045        14.82622        -1.18864
| 61>    C       -4.48079        15.90660        -0.32527
| 62>    C       -5.11825        17.01293        -0.88177
| 63>    C       -5.59586        16.77399        -2.18293
| 64>    S       -5.25172        15.18918        -2.71704
| 65>    C       -6.22550        17.94889        -2.65741
| 66>    C       -6.13829        18.94083        -1.65416
| 67>    C       -5.45319        18.37721        -0.50197
| 68>    C       -5.19437        18.98211         0.69168
| 69>    C       -5.60622        20.29929         0.99213
| 70>    N       -5.94603        21.35669         1.27503
| 71>    C       -4.50980        18.32048         1.73454
| 72>    N       -3.94886        17.79600         2.58590
| 73>    C       -6.70468        20.15059        -2.03109
| 74>    C       -7.23651        20.10377        -3.31366
| 75>    S       -7.03280        18.50402        -4.04531
| 76>    C       -7.94146        21.05327        -4.08008
| 77>    C       -8.07206        22.40369        -3.90611
| 78>    C       -8.93366        23.24889        -4.71517
| 79>    C       -9.95059        22.83264        -5.53623
| 80>    C      -10.76969        23.70657        -6.28135
| 81>    N      -11.46644        24.36051        -6.91798
| 82>    C      -10.35351        21.49485        -5.72953
| 83>    N      -10.75334        20.43539        -5.92396
| 84>    C       -8.59245        24.63760        -4.43393
| 85>    C       -7.59603        24.65889        -3.41798
| 86>    C       -7.25469        23.28067        -3.02836
| 87>    O       -6.42836        22.95603        -2.20208
| 88>    C       -7.07984        25.82630        -2.93457
| 89>    C       -7.54604        27.05287        -3.45819
| 90>    C       -8.53833        27.04120        -4.48071
| 91>    C       -9.05411        25.81510        -4.96023
| 92>    C       -8.99241        28.27077        -4.99964
| 93>    C       -8.49259        29.45556        -4.53169
| 94>    C       -7.51614        29.46572        -3.52453
| 95>    C       -7.05338        28.28992        -2.99870
| 96>    H        3.74469        -1.76879        -0.30741
| 97>    H        1.79389         0.15804         3.86057
| 98>    H        3.15916        -1.34390         5.18771
| 99>    H        4.83558        -3.14177         5.34191
|100>    H        5.80181        -4.11802         3.29734
|101>    H        5.10207        -3.30150         1.08141
|102>    H        0.77694         2.25327        -1.97771
|103>    H        0.87126         4.01923         1.46796
|104>    H       -1.46310         9.73531         1.73352
|105>    H       -3.32797        10.57322        -2.52426
|106>    H       -4.31422        12.75130        -2.88920
|107>    H       -4.04295        15.85917         0.65462
|108>    H       -6.73338        21.03551        -1.42275
|109>    H       -8.43399        20.62650        -4.94651
|110>    H       -6.32685        25.81276        -2.16066
|111>    H       -9.79961        25.84067        -5.73897
|112>    H       -9.74551        28.25800        -5.77386
|113>    H       -8.84753        30.39206        -4.93516
|114>    H       -7.13240        30.40972        -3.16750
|115>    H       -6.30186        28.29112        -2.22283
|116> *
|117>
|118>                          ****END OF INPUT****

CARTESIAN COORDINATES (ANGSTROEM)
---------------------------------
  C      0.824700    1.193610    1.325420
  C     -0.220370    1.612530    2.108020
  C     -0.406590    1.210120    3.447300
  N     -0.609090    0.910880    4.536310
  C     -1.281770    2.411290    1.642270
  N     -2.176730    3.044210    1.299440
  C      1.805600    0.186670    1.717220
  C      2.389400   -0.362370    0.538090
  C      3.320340   -1.359150    0.597190
  C      3.726190   -1.848640    1.859420
  C      3.164270   -1.285620    3.041910
  C      2.194950   -0.260210    2.950590
  C      3.588290   -1.773410    4.294500
  C      4.518660   -2.773380    4.377770
  C      5.068780   -3.329690    3.213360
  C      4.681110   -2.877270    1.981250
  C      1.844080    0.330990   -0.640970
  O      2.058970    0.107860   -1.810360
  C      1.001090    1.434460   -0.091410
  C      0.640170    2.453420   -0.919260
  C      0.203580    3.752320   -0.578280
  C      0.354720    4.432940    0.621280
  C     -0.178550    5.713290    0.570780
  C     -0.741650    6.026040   -0.683390
  S     -0.590500    4.746640   -1.795040
  C     -1.270180    7.339360   -0.618050
  C     -1.044910    7.852640    0.672290
  C     -0.362300    6.843390    1.464870
  C      0.002600    6.915840    2.776920
  C     -0.231410    8.061550    3.566520
  N     -0.411280    8.992050    4.211530
  C      0.641900    5.834910    3.420550
  N      1.166590    4.950730    3.928460
  C     -1.526900    9.149250    0.835270
  C     -2.118370    9.634660   -0.316520
  S     -2.078900    8.456020   -1.622720
  C     -2.706790   10.922950   -0.517350
  C     -3.303660   11.291330   -1.717400
  C     -3.869840   12.541900   -1.926880
  C     -3.885350   13.537060   -0.956560
  C     -3.289500   13.204080    0.290540
  C     -2.706990   11.906580    0.509260
  N     -2.204670   11.795460    1.738270
  S     -2.439480   13.166650    2.536720
  N     -3.186250   13.976630    1.371040
  C     -4.460450   14.826220   -1.188640
  C     -4.480790   15.906600   -0.325270
  C     -5.118250   17.012930   -0.881770
  C     -5.595860   16.773990   -2.182930
  S     -5.251720   15.189180   -2.717040
  C     -6.225500   17.948890   -2.657410
  C     -6.138290   18.940830   -1.654160
  C     -5.453190   18.377210   -0.501970
  C     -5.194370   18.982110    0.691680
  C     -5.606220   20.299290    0.992130
  N     -5.946030   21.356690    1.275030
  C     -4.509800   18.320480    1.734540
  N     -3.948860   17.796000    2.585900
  C     -6.704680   20.150590   -2.031090
  C     -7.236510   20.103770   -3.313660
  S     -7.032800   18.504020   -4.045310
  C     -7.941460   21.053270   -4.080080
  C     -8.072060   22.403690   -3.906110
  C     -8.933660   23.248890   -4.715170
  C     -9.950590   22.832640   -5.536230
  C    -10.769690   23.706570   -6.281350
  N    -11.466440   24.360510   -6.917980
  C    -10.353510   21.494850   -5.729530
  N    -10.753340   20.435390   -5.923960
  C     -8.592450   24.637600   -4.433930
  C     -7.596030   24.658890   -3.417980
  C     -7.254690   23.280670   -3.028360
  O     -6.428360   22.956030   -2.202080
  C     -7.079840   25.826300   -2.934570
  C     -7.546040   27.052870   -3.458190
  C     -8.538330   27.041200   -4.480710
  C     -9.054110   25.815100   -4.960230
  C     -8.992410   28.270770   -4.999640
  C     -8.492590   29.455560   -4.531690
  C     -7.516140   29.465720   -3.524530
  C     -7.053380   28.289920   -2.998700
  H      3.744690   -1.768790   -0.307410
  H      1.793890    0.158040    3.860570
  H      3.159160   -1.343900    5.187710
  H      4.835580   -3.141770    5.341910
  H      5.801810   -4.118020    3.297340
  H      5.102070   -3.301500    1.081410
  H      0.776940    2.253270   -1.977710
  H      0.871260    4.019230    1.467960
  H     -1.463100    9.735310    1.733520
  H     -3.327970   10.573220   -2.524260
  H     -4.314220   12.751300   -2.889200
  H     -4.042950   15.859170    0.654620
  H     -6.733380   21.035510   -1.422750
  H     -8.433990   20.626500   -4.946510
  H     -6.326850   25.812760   -2.160660
  H     -9.799610   25.840670   -5.738970
  H     -9.745510   28.258000   -5.773860
  H     -8.847530   30.392060   -4.935160
  H     -7.132400   30.409720   -3.167500
  H     -6.301860   28.291120   -2.222830

 Total Charge           Charge          ....    0
 Multiplicity           Mult            ....    1
 Number of Electrons    NEL             ....  570
 Basis Dimension        Dim             .... 1254

ORBITAL ENERGIES
----------------

  NO   OCC          E(Eh)            E(eV)
   0   2.0000     -89.040148     -2422.9056
   1   2.0000     -88.998115     -2421.7618
   2   2.0000     -88.997191     -2421.7367
   3   2.0000     -88.996373     -2421.7144
   4   2.0000     -88.995967     -2421.7034
   5   2.0000     -19.216498      -522.9075
   6   2.0000     -19.214762      -522.8603
   7   2.0000     -14.453605      -393.3026
   8   2.0000     -14.453392      -393.2968
   9   2.0000     -14.434114      -392.7722
  10   2.0000     -14.431972      -392.7139
  11   2.0000     -14.431892      -392.7118
  12   2.0000     -14.429886      -392.6572
  13   2.0000     -14.417775      -392.3276
  14   2.0000     -14.415818      -392.2743
  15   2.0000     -14.412823      -392.1928
  16   2.0000     -14.412529      -392.1848
  17   2.0000     -10.368801      -282.1494
  18   2.0000     -10.368688      -282.1463
  19   2.0000     -10.368292      -282.1356
  20   2.0000     -10.366212      -282.0790
  21   2.0000     -10.355228      -281.7801
  22   2.0000     -10.354837      -281.7694
  23   2.0000     -10.347655      -281.5740
  24   2.0000     -10.345024      -281.5024
  25   2.0000     -10.343175      -281.4521
  26   2.0000     -10.342058      -281.4217
  27   2.0000     -10.341768      -281.4138
  28   2.0000     -10.341490      -281.4063
  29   2.0000     -10.340356      -281.3754
  30   2.0000     -10.339730      -281.3584
  31   2.0000     -10.339091      -281.3410
  32   2.0000     -10.338676      -281.3297
  33   2.0000     -10.334243      -281.2090
  34   2.0000     -10.333341      -281.1845
  35   2.0000     -10.331762      -281.1415
  36   2.0000     -10.331744      -281.1410
  37   2.0000     -10.331404      -281.1318
  38   2.0000     -10.329490      -281.0797
  39   2.0000     -10.329308      -281.0748
  40   2.0000     -10.329056      -281.0679
  41   2.0000     -10.328030      -281.0400
  42   2.0000     -10.325777      -280.9787
  43   2.0000     -10.321922      -280.8738
  44   2.0000     -10.321316      -280.8573
  45   2.0000     -10.319049      -280.7956
  46   2.0000     -10.318994      -280.7941
  47   2.0000     -10.315989      -280.7123
  48   2.0000     -10.315033      -280.6863
  49   2.0000     -10.313579      -280.6468
  50   2.0000     -10.311441      -280.5886
  51   2.0000     -10.309702      -280.5413
  52   2.0000     -10.309405      -280.5332
  53   2.0000     -10.309369      -280.5322
  54   2.0000     -10.309301      -280.5303
  55   2.0000     -10.308650      -280.5126
  56   2.0000     -10.308480      -280.5080
  57   2.0000     -10.302457      -280.3441
  58   2.0000     -10.301234      -280.3108
  59   2.0000     -10.301063      -280.3062
  60   2.0000     -10.300967      -280.3036
  61   2.0000     -10.299829      -280.2726
  62   2.0000     -10.299581      -280.2659
  63   2.0000     -10.296920      -280.1934
  64   2.0000     -10.296769      -280.1893
  65   2.0000     -10.296527      -280.1828
  66   2.0000     -10.296308      -280.1768
  67   2.0000     -10.296073      -280.1704
  68   2.0000     -10.295563      -280.1565
  69   2.0000     -10.295487      -280.1544
  70   2.0000     -10.294923      -280.1391
  71   2.0000     -10.288940      -279.9763
  72   2.0000     -10.286944      -279.9220
  73   2.0000     -10.285658      -279.8870
  74   2.0000     -10.285307      -279.8774
  75   2.0000     -10.285184      -279.8741
  76   2.0000     -10.284787      -279.8633
  77   2.0000     -10.284770      -279.8628
  78   2.0000     -10.284594      -279.8580
  79   2.0000     -10.284157      -279.8461
  80   2.0000     -10.284138      -279.8456
  81   2.0000      -8.131588      -221.2717
  82   2.0000      -8.092709      -220.2138
  83   2.0000      -8.091969      -220.1937
  84   2.0000      -8.090836      -220.1628
  85   2.0000      -8.090344      -220.1495
  86   2.0000      -6.102825      -166.0663
  87   2.0000      -6.094866      -165.8497
  88   2.0000      -6.094128      -165.8297
  89   2.0000      -6.061859      -164.9516
  90   2.0000      -6.061083      -164.9305
  91   2.0000      -6.060110      -164.9040
  92   2.0000      -6.059591      -164.8898
  93   2.0000      -6.057716      -164.8388
  94   2.0000      -6.056952      -164.8180
  95   2.0000      -6.055920      -164.7899
  96   2.0000      -6.055421      -164.7764
  97   2.0000      -6.055244      -164.7716
  98   2.0000      -6.054493      -164.7511
  99   2.0000      -6.053222      -164.7166
 100   2.0000      -6.052792      -164.7048
 101   2.0000      -1.141028       -31.0490
 102   2.0000      -1.132071       -30.8052
 103   2.0000      -1.130047       -30.7501
 104   2.0000      -1.051279       -28.6068
 105   2.0000      -1.051266       -28.6064
 106   2.0000      -1.025209       -27.8974
 107   2.0000      -1.023563       -27.8526
 108   2.0000      -1.019223       -27.7345
 109   2.0000      -1.017722       -27.6936
 110   2.0000      -1.010532       -27.4980
 111   2.0000      -1.009417       -27.4676
 112   2.0000      -1.007762       -27.4226
 113   2.0000      -1.006973       -27.4011
 114   2.0000      -0.998564       -27.1723
 115   2.0000      -0.997712       -27.1491
 116   2.0000      -0.993647       -27.0385
 117   2.0000      -0.992628       -27.0108
 118   2.0000      -0.991739       -26.9866
 119   2.0000      -0.983041       -26.7499
 120   2.0000      -0.971523       -26.4365
 121   2.0000      -0.970480       -26.4081
 122   2.0000      -0.963692       -26.2234
 123   2.0000      -0.958633       -26.0857
 124   2.0000      -0.929330       -25.2884
 125   2.0000      -0.927271       -25.2323
 126   2.0000      -0.920961       -25.0606
 127   2.0000      -0.917296       -24.9609
 128   2.0000      -0.902803       -24.5665
 129   2.0000      -0.897620       -24.4255
 130   2.0000      -0.886475       -24.1222
 131   2.0000      -0.882511       -24.0144
 132   2.0000      -0.880702       -23.9651
 133   2.0000      -0.880093       -23.9485
 134   2.0000      -0.877753       -23.8849
 135   2.0000      -0.875994       -23.8370
 136   2.0000      -0.867339       -23.6015
 137   2.0000      -0.861066       -23.4308
 138   2.0000      -0.858789       -23.3688
 139   2.0000      -0.857400       -23.3310
 140   2.0000      -0.827620       -22.5207
 141   2.0000      -0.827014       -22.5042
 142   2.0000      -0.823809       -22.4170
 143   2.0000      -0.813490       -22.1362
 144   2.0000      -0.798801       -21.7365
 145   2.0000      -0.782734       -21.2993
 146   2.0000      -0.781332       -21.2611
 147   2.0000      -0.772389       -21.0178
 148   2.0000      -0.761623       -20.7248
 149   2.0000      -0.760922       -20.7057
 150   2.0000      -0.756605       -20.5883
 151   2.0000      -0.738495       -20.0955
 152   2.0000      -0.731087       -19.8939
 153   2.0000      -0.725546       -19.7431
 154   2.0000      -0.716922       -19.5084
 155   2.0000      -0.706745       -19.2315
 156   2.0000      -0.704686       -19.1755
 157   2.0000      -0.702967       -19.1287
 158   2.0000      -0.700703       -19.0671
 159   2.0000      -0.698444       -19.0056
 160   2.0000      -0.693342       -18.8668
 161   2.0000      -0.687716       -18.7137
 162   2.0000      -0.683971       -18.6118
 163   2.0000      -0.681006       -18.5311
 164   2.0000      -0.675278       -18.3752
 165   2.0000      -0.672078       -18.2882
 166   2.0000      -0.657123       -17.8812
 167   2.0000      -0.651298       -17.7227
 168   2.0000      -0.649253       -17.6671
 169   2.0000      -0.637604       -17.3501
 170   2.0000      -0.635563       -17.2946
 171   2.0000      -0.632997       -17.2247
 172   2.0000      -0.630333       -17.1522
 173   2.0000      -0.621848       -16.9214
 174   2.0000      -0.618739       -16.8367
 175   2.0000      -0.615690       -16.7538
 176   2.0000      -0.613287       -16.6884
 177   2.0000      -0.606804       -16.5120
 178   2.0000      -0.605560       -16.4781
 179   2.0000      -0.602534       -16.3958
 180   2.0000      -0.598399       -16.2833
 181   2.0000      -0.592849       -16.1323
 182   2.0000      -0.584906       -15.9161
 183   2.0000      -0.582023       -15.8377
 184   2.0000      -0.574035       -15.6203
 185   2.0000      -0.566647       -15.4192
 186   2.0000      -0.558716       -15.2034
 187   2.0000      -0.557627       -15.1738
 188   2.0000      -0.555317       -15.1109
 189   2.0000      -0.552562       -15.0360
 190   2.0000      -0.552055       -15.0222
 191   2.0000      -0.547796       -14.9063
 192   2.0000      -0.545688       -14.8489
 193   2.0000      -0.545409       -14.8413
 194   2.0000      -0.539510       -14.6808
 195   2.0000      -0.537039       -14.6136
 196   2.0000      -0.536316       -14.5939
 197   2.0000      -0.533031       -14.5045
 198   2.0000      -0.528365       -14.3775
 199   2.0000      -0.525516       -14.3000
 200   2.0000      -0.522057       -14.2059
 201   2.0000      -0.519976       -14.1493
 202   2.0000      -0.518540       -14.1102
 203   2.0000      -0.516450       -14.0533
 204   2.0000      -0.511687       -13.9237
 205   2.0000      -0.510378       -13.8881
 206   2.0000      -0.508915       -13.8483
 207   2.0000      -0.508157       -13.8277
 208   2.0000      -0.507428       -13.8078
 209   2.0000      -0.506057       -13.7705
 210   2.0000      -0.503673       -13.7056
 211   2.0000      -0.503005       -13.6875
 212   2.0000      -0.502225       -13.6662
 213   2.0000      -0.497209       -13.5297
 214   2.0000      -0.494672       -13.4607
 215   2.0000      -0.493075       -13.4173
 216   2.0000      -0.491585       -13.3767
 217   2.0000      -0.491324       -13.3696
 218   2.0000      -0.487866       -13.2755
 219   2.0000      -0.485118       -13.2007
 220   2.0000      -0.483823       -13.1655
 221   2.0000      -0.483382       -13.1535
 222   2.0000      -0.480087       -13.0638
 223   2.0000      -0.475917       -12.9504
 224   2.0000      -0.473591       -12.8871
 225   2.0000      -0.465518       -12.6674
 226   2.0000      -0.464215       -12.6319
 227   2.0000      -0.463980       -12.6255
 228   2.0000      -0.463654       -12.6167
 229   2.0000      -0.461900       -12.5689
 230   2.0000      -0.460506       -12.5310
 231   2.0000      -0.457722       -12.4553
 232   2.0000      -0.456653       -12.4262
 233   2.0000      -0.452304       -12.3078
 234   2.0000      -0.450854       -12.2684
 235   2.0000      -0.448859       -12.2141
 236   2.0000      -0.448439       -12.2026
 237   2.0000      -0.446962       -12.1625
 238   2.0000      -0.443396       -12.0654
 239   2.0000      -0.443335       -12.0637
 240   2.0000      -0.442394       -12.0382
 241   2.0000      -0.442224       -12.0335
 242   2.0000      -0.441112       -12.0033
 243   2.0000      -0.440290       -11.9809
 244   2.0000      -0.439833       -11.9685
 245   2.0000      -0.438394       -11.9293
 246   2.0000      -0.438350       -11.9281
 247   2.0000      -0.433018       -11.7830
 248   2.0000      -0.432787       -11.7767
 249   2.0000      -0.431788       -11.7495
 250   2.0000      -0.431390       -11.7387
 251   2.0000      -0.429133       -11.6773
 252   2.0000      -0.426425       -11.6036
 253   2.0000      -0.426094       -11.5946
 254   2.0000      -0.425502       -11.5785
 255   2.0000      -0.423217       -11.5163
 256   2.0000      -0.419708       -11.4208
 257   2.0000      -0.417911       -11.3719
 258   2.0000      -0.416297       -11.3280
 259   2.0000      -0.409470       -11.1423
 260   2.0000      -0.408936       -11.1277
 261   2.0000      -0.407484       -11.0882
 262   2.0000      -0.403815       -10.9884
 263   2.0000      -0.402603       -10.9554
 264   2.0000      -0.385587       -10.4924
 265   2.0000      -0.381950       -10.3934
 266   2.0000      -0.379673       -10.3314
 267   2.0000      -0.374652       -10.1948
 268   2.0000      -0.371058       -10.0970
 269   2.0000      -0.358250        -9.7485
 270   2.0000      -0.356748        -9.7076
 271   2.0000      -0.353863        -9.6291
 272   2.0000      -0.350402        -9.5349
 273   2.0000      -0.343906        -9.3582
 274   2.0000      -0.337965        -9.1965
 275   2.0000      -0.334485        -9.1018
 276   2.0000      -0.326999        -8.8981
 277   2.0000      -0.325409        -8.8548
 278   2.0000      -0.317783        -8.6473
 279   2.0000      -0.315944        -8.5973
 280   2.0000      -0.308962        -8.4073
 281   2.0000      -0.294846        -8.0232
 282   2.0000      -0.292831        -7.9683
 283   2.0000      -0.276896        -7.5347
 284   2.0000      -0.252176        -6.8620
 285   0.0000      -0.120967        -3.2917
 286   0.0000      -0.111226        -3.0266
 287   0.0000      -0.091363        -2.4861
 288   0.0000      -0.089295        -2.4298
 289   0.0000      -0.080450        -2.1892

MULLIKEN ATOMIC CHARGES
-----------------------
   0 C :    0.268323
   1 C :   -0.332492
   2 C :   -0.170720
   3 N :    0.161758
   4 C :   -0.200526
   5 N :    0.164036
   6 C :    0.027932
   7 C :    0.012687
   8 C :   -0.077395
   9 C :    0.091336
  10 C :    0.087901
  11 C :   -0.071324
  12 C :   -0.013817
  13 C :    0.036666
  14 C :    0.031496
  15 C :   -0.012482
  16 C :    0.137833
  17 O :   -0.144627
  18 C :   -0.138997
  19 C :    0.079232
  20 C :   -0.111547
  21 C :   -0.001153
  22 C :   -0.003988
  23 C :   -0.073626
  24 S :    0.214152
  25 C :   -0.091790
  26 C :    0.034972
  27 C :    0.311329
  28 C :   -0.293746
  29 C :   -0.185824
  30 N :    0.178501
  31 C :   -0.185161
  32 N :    0.172140
  33 C :   -0.057403
  34 C :   -0.112581
  35 S :    0.168398
  36 C :    0.156071
  37 C :   -0.071300
  38 C :   -0.065942
  39 C :    0.146622
  40 C :    0.009287
  41 C :    0.014925
  42 N :   -0.286661
  43 S :    0.558347
  44 N :   -0.283693
  45 C :   -0.107650
  46 C :   -0.055292
  47 C :    0.033109
  48 C :   -0.092518
  49 S :    0.169378
  50 C :   -0.082350
  51 C :   -0.014491
  52 C :    0.315854
  53 C :   -0.301964
  54 C :   -0.191647
  55 N :    0.194378
  56 C :   -0.187623
  57 N :    0.176047
  58 C :    0.011848
  59 C :   -0.110314
  60 S :    0.205739
  61 C :    0.027985
  62 C :   -0.093204
  63 C :    0.307963
  64 C :   -0.351720
  65 C :   -0.182726
  66 N :    0.148165
  67 C :   -0.202097
  68 N :    0.153635
  69 C :    0.049972
  70 C :   -0.006645
  71 C :    0.156337
  72 O :   -0.153512
  73 C :   -0.079628
  74 C :    0.098598
  75 C :    0.097778
  76 C :   -0.085425
  77 C :   -0.022170
  78 C :    0.037023
  79 C :    0.036613
  80 C :   -0.018553
  81 H :   -0.012641
  82 H :   -0.000380
  83 H :   -0.008854
  84 H :   -0.004799
  85 H :   -0.003885
  86 H :   -0.018153
  87 H :    0.021443
  88 H :    0.026406
  89 H :    0.024520
  90 H :   -0.005803
  91 H :   -0.006949
  92 H :    0.025694
  93 H :    0.037400
  94 H :    0.017708
  95 H :   -0.008887
  96 H :   -0.007314
  97 H :   -0.007885
  98 H :   -0.005285
  99 H :   -0.005374
 100 H :   -0.015009
Sum of atomic charges:   -0.0000000

LOEWDIN ATOMIC CHARGES
----------------------
   0 C :    0.065607
   1 C :   -0.137054
   2 C :   -0.018584
   3 N :   -0.046751
   4 C :   -0.015672
   5 N :   -0.048451
   6 C :   -0.022969
   7 C :   -0.058028
   8 C :    0.032803
   9 C :   -0.009428
  10 C :   -0.005283
  11 C :    0.019504
  12 C :   -0.005011
  13 C :   -0.012461
  14 C :   -0.013275
  15 C :   -0.009293
  16 C :    0.083407
  17 O :   -0.145456
  18 C :   -0.089096
  19 C :    0.041388
  20 C :   -0.180278
  21 C :    0.008610
  22 C :   -0.064472
  23 C :   -0.160378
  24 S :    0.498681
  25 C :   -0.179778
  26 C :   -0.060185
  27 C :    0.081409
  28 C :   -0.095318
  29 C :   -0.017370
  30 N :   -0.026095
  31 C :   -0.012966
  32 N :   -0.031802
  33 C :   -0.017113
  34 C :   -0.154183
  35 S :    0.476288
  36 C :   -0.038512
  37 C :   -0.020791
  38 C :   -0.017735
  39 C :   -0.042721
  40 C :   -0.036783
  41 C :   -0.036963
  42 N :   -0.273619
  43 S :    0.678142
  44 N :   -0.273811
  45 C :   -0.149503
  46 C :   -0.020254
  47 C :   -0.055571
  48 C :   -0.186705
  49 S :    0.474995
  50 C :   -0.159079
  51 C :   -0.073590
  52 C :    0.075429
  53 C :   -0.091644
  54 C :   -0.021161
  55 N :   -0.017206
  56 C :   -0.016257
  57 N :   -0.027398
  58 C :    0.021800
  59 C :   -0.176523
  60 S :    0.493590
  61 C :    0.042551
  62 C :   -0.095097
  63 C :    0.076655
  64 C :   -0.143992
  65 C :   -0.017457
  66 N :   -0.055479
  67 C :   -0.024797
  68 N :   -0.056209
  69 C :   -0.026522
  70 C :   -0.055111
  71 C :    0.085267
  72 O :   -0.139837
  73 C :    0.033258
  74 C :   -0.008226
  75 C :   -0.006389
  76 C :    0.019150
  77 C :   -0.005836
  78 C :   -0.013454
  79 C :   -0.012217
  80 C :   -0.009258
  81 H :    0.039056
  82 H :    0.040555
  83 H :    0.035119
  84 H :    0.033173
  85 H :    0.032854
  86 H :    0.031569
  87 H :    0.045754
  88 H :    0.042926
  89 H :    0.039862
  90 H :    0.026550
  91 H :    0.026544
  92 H :    0.039806
  93 H :    0.044991
  94 H :    0.043285
  95 H :    0.040150
  96 H :    0.038888
  97 H :    0.034738
  98 H :    0.032994
  99 H :    0.032699
 100 H :    0.032413

  Mayer bond orders larger than 0.100000
B(  0-C ,  1-C ) :   1.6496 B(  0-C ,  6-C ) :   0.9973 B(  0-C , 18-C ) :   1.0354
B(  1-C ,  2-C ) :   1.1301 B(  1-C ,  4-C ) :   1.1708 B(  2-C ,  3-N ) :   2.9941
B(  4-C ,  5-N ) :   2.9954 B(  6-C ,  7-C ) :   1.2142 B(  6-C , 11-C ) :   1.4599
B(  7-C ,  8-C ) :   1.4751 B(  7-C , 16-C ) :   0.9227 B(  8-C ,  9-C ) :   1.1853
B(  8-C , 81-H ) :   1.0157 B(  9-C , 10-C ) :   1.2573 B(  9-C , 15-C ) :   1.2454
B( 10-C , 11-C ) :   1.2063 B( 10-C , 12-C ) :   1.2416 B( 11-C , 82-H ) :   0.9941
B( 12-C , 13-C ) :   1.4898 B( 12-C , 83-H ) :   0.9978 B( 13-C , 14-C ) :   1.2594
B( 13-C , 84-H ) :   0.9895 B( 14-C , 15-C ) :   1.4886 B( 14-C , 85-H ) :   0.9900
B( 15-C , 86-H ) :   0.9977 B( 16-C , 17-O ) :   2.2668 B( 16-C , 18-C ) :   0.9396
B( 18-C , 19-C ) :   1.6708 B( 19-C , 20-C ) :   1.1340 B( 19-C , 87-H ) :   0.9295
B( 20-C , 21-C ) :   1.3973 B( 20-C , 24-S ) :   1.0899 B( 21-C , 22-C ) :   1.3592
B( 21-C , 88-H ) :   0.9790 B( 22-C , 23-C ) :   1.4121 B( 22-C , 27-C ) :   0.9941
B( 23-C , 24-S ) :   1.1519 B( 23-C , 25-C ) :   1.1920 B( 25-C , 26-C ) :   1.4355
B( 25-C , 35-S ) :   1.1217 B( 26-C , 27-C ) :   0.9951 B( 26-C , 33-C ) :   1.2484
B( 27-C , 28-C ) :   1.7180 B( 28-C , 29-C ) :   1.1359 B( 28-C , 31-C ) :   1.1355
B( 29-C , 30-N ) :   2.9877 B( 31-C , 32-N ) :   2.9824 B( 33-C , 34-C ) :   1.4766
B( 33-C , 89-H ) :   0.9808 B( 34-C , 35-S ) :   1.0949 B( 34-C , 36-C ) :   1.1279
B( 36-C , 37-C ) :   1.4281 B( 36-C , 39-C ) :   0.1188 B( 36-C , 41-C ) :   1.1871
B( 37-C , 38-C ) :   1.2747 B( 37-C , 90-H ) :   0.9848 B( 38-C , 39-C ) :   1.4280
B( 38-C , 91-H ) :   0.9843 B( 39-C , 40-C ) :   1.1886 B( 39-C , 45-C ) :   1.1274
B( 40-C , 41-C ) :   1.1655 B( 40-C , 44-N ) :   1.5243 B( 41-C , 42-N ) :   1.5208
B( 42-N , 43-S ) :   1.2705 B( 42-N , 44-N ) :   0.1434 B( 43-S , 44-N ) :   1.2695
B( 45-C , 46-C ) :   1.4745 B( 45-C , 49-S ) :   1.0983 B( 46-C , 47-C ) :   1.2486
B( 46-C , 92-H ) :   0.9798 B( 47-C , 48-C ) :   1.4345 B( 47-C , 52-C ) :   0.9973
B( 48-C , 49-S ) :   1.1150 B( 48-C , 50-C ) :   1.2000 B( 50-C , 51-C ) :   1.3801
B( 50-C , 60-S ) :   1.1645 B( 51-C , 52-C ) :   0.9922 B( 51-C , 58-C ) :   1.3287
B( 52-C , 53-C ) :   1.7152 B( 53-C , 54-C ) :   1.1382 B( 53-C , 56-C ) :   1.1388
B( 54-C , 55-N ) :   2.9961 B( 56-C , 57-N ) :   2.9850 B( 58-C , 59-C ) :   1.4011
B( 58-C , 93-H ) :   0.9734 B( 59-C , 60-S ) :   1.0745 B( 59-C , 61-C ) :   1.2061
B( 61-C , 62-C ) :   1.5921 B( 61-C , 94-H ) :   0.9213 B( 62-C , 63-C ) :   1.0784
B( 62-C , 71-C ) :   0.9414 B( 63-C , 64-C ) :   1.6241 B( 63-C , 69-C ) :   0.9891
B( 64-C , 65-C ) :   1.1484 B( 64-C , 67-C ) :   1.1413 B( 65-C , 66-N ) :   2.9661
B( 67-C , 68-N ) :   2.9866 B( 69-C , 70-C ) :   1.2150 B( 69-C , 76-C ) :   1.4502
B( 70-C , 71-C ) :   0.9491 B( 70-C , 73-C ) :   1.4740 B( 71-C , 72-O ) :   2.1850
B( 73-C , 74-C ) :   1.1774 B( 73-C , 95-H ) :   1.0167 B( 74-C , 75-C ) :   1.2569
B( 74-C , 80-C ) :   1.2448 B( 75-C , 76-C ) :   1.2056 B( 75-C , 77-C ) :   1.2402
B( 76-C , 96-H ) :   0.9908 B( 77-C , 78-C ) :   1.4882 B( 77-C , 97-H ) :   0.9979
B( 78-C , 79-C ) :   1.2604 B( 78-C , 98-H ) :   0.9889 B( 79-C , 80-C ) :   1.4875
B( 79-C , 99-H ) :   0.9893 B( 80-C ,100-H ) :   0.9984

-----------------------------------------------------------------------------
         ABSORPTION SPECTRUM VIA TRANSITION ELECTRIC DIPOLE MOMENTS
-----------------------------------------------------------------------------
State   Energy  Wavelength   fosc         T2         TX        TY        TZ
        (cm-1)    (nm)                  (au**2)     (au)      (au)      (au)
-----------------------------------------------------------------------------
   0   12768.2    783.2   1.007415459  25.97493  -1.97647   4.58042  -1.04318
   1   13993.2    714.6   0.043245085   1.01741  -0.50284   0.66944  -0.56250
   2   18584.9    538.1   1.601169959  28.36307   1.96435  -4.80061   1.20771
   3   20930.5    477.8   0.080083258   1.25962  -0.89870   0.34267  -0.57838
   4   21366.4    468.0   0.010282463   0.15843  -0.24059   0.22680  -0.22161
   5   22619.4    442.1   0.198860644   2.89429   0.61006  -1.12456   1.12137
   6   23242.2    430.3   0.036785879   0.52105   0.17926  -0.51244   0.47573
   7   25120.7    398.1   0.022840329   0.29933  -0.49962   0.20686  -0.08318
   8   25294.5    395.3   0.046199077   0.60129  -0.03309   0.76367  -0.13041
   9   27093.1    369.1   0.002240946   0.02723  -0.04524  -0.00428  -0.15863
  10   27429.9    364.6   0.005417626   0.06502  -0.04392  -0.06013   0.24388
  11   27705.4    360.9   0.016474285   0.19576  -0.16985   0.29963  -0.27772
  12   28378.4    352.4   0.016633308   0.19296  -0.21563   0.36906  -0.10128
  13   28450.4    351.5   0.040973422   0.47412  -0.17419  -0.65437  -0.12482
  14   28859.6    346.5   0.005767955   0.06580  -0.13333   0.19202  -0.10558
  15   29161.2    342.9   0.080615896   0.91010   0.76334  -0.47454  -0.31973
  16   29320.7    341.1   0.114264297   1.28296  -0.09164  -1.00857  -0.50730
  17   29582.3    338.0   0.176783909   1.96737  -0.03089   0.61709   1.25921
  18   29826.3    335.3   0.067369009   0.74360  -0.34169   0.04034   0.79071
  19   30086.0    332.4   0.176467698   1.93097  -0.95333   0.55290  -0.84643
  20   30295.2    330.1   0.241020945   2.61913  -0.46658  -1.28529  -0.86572
  21   30587.8    326.9   0.529679883   5.70086   0.92918  -1.95819   1.00149
  22   30722.6    325.5   0.341187107   3.65603  -0.13117   1.46650   1.21993
  23   31026.4    322.3   0.033009277   0.35025   0.27632   0.51630  -0.08562
  24   31806.9    314.4   0.008816956   0.09126   0.26032   0.12154   0.09337
  25   32147.1    311.1   0.443272394   4.53946  -1.16991   1.56570  -0.84814
  26   32447.6    308.2   0.099119218   1.00566  -0.12332   0.81838   0.56631
  27   32586.5    306.9   0.374110617   3.77953   0.15489  -1.91701   0.28391
  28   33293.5    300.4   0.026425773   0.26130   0.32645   0.05848   0.38899
  29   33535.6    298.2   0.057996144   0.56934   0.58223  -0.30018   0.37448
  30   33608.1    297.5   0.091479343   0.89610  -0.50045   0.70179  -0.39133
  31   33751.4    296.3   0.343552750   3.35103   0.74988  -1.66771   0.08628
  32   34304.5    291.5   0.114664228   1.10040   0.97578  -0.17890   0.34097
  33   34413.9    290.6   0.168764445   1.61444  -0.86276   0.68767   0.63024
  34   34480.9    290.0   0.251636592   2.40254   0.27212   1.16744   0.98263
  35   34646.4    288.6   0.051100509   0.48556   0.16293  -0.66912   0.10628
  36   34736.9    287.9   0.068770270   0.65176  -0.29280  -0.74814   0.07944
  37   34850.7    286.9   0.464557439   4.38838  -1.14236  -0.99371  -1.44773
  38   35002.4    285.7   0.078061041   0.73420  -0.63700   0.37377  -0.43442
  39   35106.4    284.8   0.108499006   1.01745   0.20996   0.08417   0.98300
  40   35545.1    281.3   0.141901203   1.31426   0.48765  -0.38445  -0.96367
  41   35824.3    279.1   0.008273873   0.07603  -0.05148  -0.02103   0.27008
  42   35955.7    278.1   0.158334275   1.44971  -0.44716   1.10892   0.14167
  43   36427.8    274.5   0.117336207   1.06041   0.68582  -0.60285   0.47605
  44   36993.9    270.3   0.050885365   0.45283   0.13304  -0.62145  -0.22120
  45   37411.2    267.3   0.049728180   0.43760  -0.10602  -0.35214  -0.54987
  46   37436.7    267.1   0.015362573   0.13510  -0.33439  -0.01021   0.15223
  47   37572.7    266.2   0.090063540   0.78914  -0.64828  -0.13219  -0.59279
  48   37670.3    265.5   0.059114682   0.51662  -0.25410  -0.46745  -0.48326
  49   37917.2    263.7   0.013010759   0.11296  -0.14129   0.29067  -0.09226
  50   38022.4    263.0   0.030759783   0.26633   0.39339   0.05137   0.33006
  51   38210.6    261.7   0.046590623   0.40141   0.35063  -0.01323   0.52754
  52   38334.1    260.9   0.043207184   0.37106  -0.33188  -0.43093  -0.27425
  53   38461.1    260.0   0.045521558   0.38965   0.22949  -0.56735  -0.12287
  54   38508.5    259.7   0.038948904   0.33298  -0.33080   0.38733  -0.27115
  55   38738.5    258.1   0.042281262   0.35932   0.20155  -0.56440   0.01231
  56   38967.1    256.6   0.006473368   0.05469   0.03038  -0.13797  -0.18637
  57   39400.6    253.8   0.023486118   0.19624  -0.39008   0.05564   0.20243
  58   39615.2    252.4   0.212629000   1.76700  -0.59123   0.12762  -1.18371
  59   39748.0    251.6   0.032698869   0.27083   0.38794  -0.29196  -0.18731
  60   40059.9    249.6   0.031713245   0.26062   0.26432  -0.39398  -0.18851
  61   40083.1    249.5   0.042879853   0.35218  -0.56693   0.11345   0.13382
  62   40307.9    248.1   0.028306099   0.23119  -0.26966   0.26055  -0.30098

FINAL SINGLE POINT ENERGY     -5134.988598046904

DIPOLE MOMENT
-------------
                                X             Y             Z
Electronic contribution:    -10.81129      -4.47048      -0.25525
Nuclear contribution   :     13.50352       4.20375      -1.64388
                        -----------------------------------------
Total Dipole Moment    :      2.69223      -0.26673      -1.89913
                        -----------------------------------------
Magnitude (a.u.)       :      3.30544
Magnitude (Debye)      :      8.40177

Rotational constants in cm-1:     0.002959     0.000138     0.000134
Rotational constants in MHz :    88.701496     4.147343     4.025797

                             ****ORCA TERMINATED NORMALLY****
TOTAL RUN TIME: 0 days 0 hours 11 minutes 38 seconds 722 msec
