                         Program Version 4.2.0 -  RELEASE  -
|  1> # ORCA input file
|  2> # SCF done       -165.738048054173          0.000913915326
|  3> ! CAM-B3LYP def2-SVP def2/J RIJCOSX Grid4 TightSCF
|  4> %maxcore 5000
|  5> %tddft
|  6>     Mode sTDDFT
|  7>     Ethresh 5.0
|  8>     maxcore 5000
|  9> end
| 10>
| 11> %pal
| 12>   nprocs 6
| 13>   end
| 14> * xyz 0 1
| 15>    C        4.03921         5.07455         6.55181
| 16>    S        3.53376         4.37647         5.05480
| 17>    C        4.74442         3.13712         5.19256
| 18>    O        4.85467         2.15538         4.27328
| 19>    C        5.49444         3.27311         6.33354
| 20>    C        5.05983         4.38774         7.10813
| 21>    C        6.54459         2.36467         6.75539
| 22>    C        6.68076         1.84216         7.99995
| 23>    C        7.77019         0.87798         7.97724
| 24>    C        8.20901         0.11880         9.06261
| 25>    N        8.55817        -0.54162         9.93734
| 26>    C        8.26378         0.79130         6.70381
| 27>    C        7.53991         1.72625         5.88294
| 28>    C        7.80464         2.01735         4.56639
| 29>    C        8.53076         1.13984         3.61752
| 30>    C        8.74779         1.86283         2.47658
| 31>    C        8.16923         3.17092         2.65106
| 32>    C        7.56785         3.24813         3.88707
| 33>    C        8.21147         4.19033         1.69221
| 34>    N        8.24297         5.02293         0.90144
| 35>    C        8.75957        -0.23464         3.88756
| 36>    C        9.60097        -1.06593         3.22732
| 37>    C        9.88382        -2.41183         3.63587
| 38>    C        9.45495        -2.92073         4.85209
| 39>    C        9.84517        -4.20028         5.25904
| 40>    C        9.60861        -4.88250         6.45533
| 41>    C        8.83778        -4.37485         7.62113
| 42>    C        7.69491        -5.33473         8.01559
| 43>    N        6.60622        -4.55959         8.57013
| 44>    C        9.76770        -4.08733         8.82070
| 45>    N        9.00237        -3.59492         9.95215
| 46>    C       10.28610        -6.15042         6.34454
| 47>    C       10.42704        -7.17860         7.20907
| 48>    C       11.34119        -8.31283         6.90530
| 49>    C       11.77323        -8.40385         5.48162
| 50>    C       11.60306        -7.38808         4.61435
| 51>    C       10.91862        -6.21584         5.01876
| 52>    C       10.65962        -5.01773         4.37766
| 53>    C       11.06311        -4.49446         3.12902
| 54>    C       10.69718        -3.23119         2.78756
| 55>    C       12.53854        -7.98701         7.79792
| 56>    C       13.38084        -6.99421         7.50458
| 57>    C       14.52329        -6.60970         8.28647
| 58>    C       15.26817        -7.39434         9.11644
| 59>    C       16.40529        -6.62863         9.57551
| 60>    C       17.36759        -7.10006        10.47409
| 61>    N       18.15788        -7.49797        11.20717
| 62>    C       16.37461        -5.38827         8.98629
| 63>    C       15.19223        -5.30414         8.18322
| 64>    C       14.70478        -4.17222         7.56057
| 65>    C       15.47744        -2.95553         7.21550
| 66>    C       14.57569        -1.99298         6.84617
| 67>    C       13.25385        -2.55269         6.91763
| 68>    C       13.33728        -3.87747         7.29562
| 69>    C       12.08605        -1.82887         6.66236
| 70>    N       11.13836        -1.20936         6.46186
| 71>    C       16.89679        -2.90304         7.14369
| 72>    C       17.61790        -1.76217         7.00777
| 73>    C       19.03268        -1.70936         6.91542
| 74>    S       19.82227        -0.15136         6.76689
| 75>    C       21.38506        -0.90308         6.71649
| 76>    O       22.51950        -0.19794         6.59758
| 77>    C       21.29630        -2.26563         6.80996
| 78>    C       19.97411        -2.71459         6.92200
| 79>    H        3.53983         5.95166         6.91001
| 80>    H        4.19878         2.26773         3.57654
| 81>    H        5.52489         4.66069         8.03801
| 82>    H        6.08353         2.05924         8.86587
| 83>    H        9.13395         0.23459         6.41239
| 84>    H        9.21704         1.52933         1.57027
| 85>    H        7.10814         4.12018         4.31098
| 86>    H        8.18850        -0.63074         4.71255
| 87>    H       10.14533        -0.69906         2.36695
| 88>    H        8.85275        -2.32858         5.52015
| 89>    H        8.36131        -3.42986         7.34524
| 90>    H        8.08359        -6.09718         8.70927
| 91>    H        7.32687        -5.84697         7.11979
| 92>    H        6.94327        -4.08089         9.40087
| 93>    H        5.83065        -5.15856         8.82929
| 94>    H       10.54620        -3.38207         8.48472
| 95>    H       10.26348        -5.01521         9.12420
| 96>    H        8.71288        -2.63156         9.78971
| 97>    H        9.58054        -3.58398        10.78559
| 98>    H        9.97695        -7.17011         8.19060
| 99>    H       10.91373        -9.26325         7.23788
|100>    H       12.29487        -9.30439         5.19680
|101>    H       11.96696        -7.45748         3.59947
|102>    H       11.67046        -5.09512         2.46761
|103>    H       11.01685        -2.81387         1.84318
|104>    H       12.63091        -8.55445         8.71110
|105>    H       13.22245        -6.42721         6.59625
|106>    H       15.09190        -8.42200         9.37346
|107>    H       17.04752        -4.57996         9.19899
|108>    H       14.78505        -0.99508         6.51090
|109>    H       12.50282        -4.52469         7.48585
|110>    H       17.41858        -3.84739         7.17934
|111>    H       17.10569        -0.81070         6.98422
|112>    H       22.34309         0.74907         6.55396
|113>    H       22.15941        -2.90390         6.79802
|114>    H       19.71860        -3.75463         7.00727
|115> *
|116>
|117>                          ****END OF INPUT****

CARTESIAN COORDINATES (ANGSTROEM)
---------------------------------
  C      4.039210    5.074550    6.551810
  S      3.533760    4.376470    5.054800
  C      4.744420    3.137120    5.192560
  O      4.854670    2.155380    4.273280
  C      5.494440    3.273110    6.333540
  C      5.059830    4.387740    7.108130
  C      6.544590    2.364670    6.755390
  C      6.680760    1.842160    7.999950
  C      7.770190    0.877980    7.977240
  C      8.209010    0.118800    9.062610
  N      8.558170   -0.541620    9.937340
  C      8.263780    0.791300    6.703810
  C      7.539910    1.726250    5.882940
  C      7.804640    2.017350    4.566390
  C      8.530760    1.139840    3.617520
  C      8.747790    1.862830    2.476580
  C      8.169230    3.170920    2.651060
  C      7.567850    3.248130    3.887070
  C      8.211470    4.190330    1.692210
  N      8.242970    5.022930    0.901440
  C      8.759570   -0.234640    3.887560
  C      9.600970   -1.065930    3.227320
  C      9.883820   -2.411830    3.635870
  C      9.454950   -2.920730    4.852090
  C      9.845170   -4.200280    5.259040
  C      9.608610   -4.882500    6.455330
  C      8.837780   -4.374850    7.621130
  C      7.694910   -5.334730    8.015590
  N      6.606220   -4.559590    8.570130
  C      9.767700   -4.087330    8.820700
  N      9.002370   -3.594920    9.952150
  C     10.286100   -6.150420    6.344540
  C     10.427040   -7.178600    7.209070
  C     11.341190   -8.312830    6.905300
  C     11.773230   -8.403850    5.481620
  C     11.603060   -7.388080    4.614350
  C     10.918620   -6.215840    5.018760
  C     10.659620   -5.017730    4.377660
  C     11.063110   -4.494460    3.129020
  C     10.697180   -3.231190    2.787560
  C     12.538540   -7.987010    7.797920
  C     13.380840   -6.994210    7.504580
  C     14.523290   -6.609700    8.286470
  C     15.268170   -7.394340    9.116440
  C     16.405290   -6.628630    9.575510
  C     17.367590   -7.100060   10.474090
  N     18.157880   -7.497970   11.207170
  C     16.374610   -5.388270    8.986290
  C     15.192230   -5.304140    8.183220
  C     14.704780   -4.172220    7.560570
  C     15.477440   -2.955530    7.215500
  C     14.575690   -1.992980    6.846170
  C     13.253850   -2.552690    6.917630
  C     13.337280   -3.877470    7.295620
  C     12.086050   -1.828870    6.662360
  N     11.138360   -1.209360    6.461860
  C     16.896790   -2.903040    7.143690
  C     17.617900   -1.762170    7.007770
  C     19.032680   -1.709360    6.915420
  S     19.822270   -0.151360    6.766890
  C     21.385060   -0.903080    6.716490
  O     22.519500   -0.197940    6.597580
  C     21.296300   -2.265630    6.809960
  C     19.974110   -2.714590    6.922000
  H      3.539830    5.951660    6.910010
  H      4.198780    2.267730    3.576540
  H      5.524890    4.660690    8.038010
  H      6.083530    2.059240    8.865870
  H      9.133950    0.234590    6.412390
  H      9.217040    1.529330    1.570270
  H      7.108140    4.120180    4.310980
  H      8.188500   -0.630740    4.712550
  H     10.145330   -0.699060    2.366950
  H      8.852750   -2.328580    5.520150
  H      8.361310   -3.429860    7.345240
  H      8.083590   -6.097180    8.709270
  H      7.326870   -5.846970    7.119790
  H      6.943270   -4.080890    9.400870
  H      5.830650   -5.158560    8.829290
  H     10.546200   -3.382070    8.484720
  H     10.263480   -5.015210    9.124200
  H      8.712880   -2.631560    9.789710
  H      9.580540   -3.583980   10.785590
  H      9.976950   -7.170110    8.190600
  H     10.913730   -9.263250    7.237880
  H     12.294870   -9.304390    5.196800
  H     11.966960   -7.457480    3.599470
  H     11.670460   -5.095120    2.467610
  H     11.016850   -2.813870    1.843180
  H     12.630910   -8.554450    8.711100
  H     13.222450   -6.427210    6.596250
  H     15.091900   -8.422000    9.373460
  H     17.047520   -4.579960    9.198990
  H     14.785050   -0.995080    6.510900
  H     12.502820   -4.524690    7.485850
  H     17.418580   -3.847390    7.179340
  H     17.105690   -0.810700    6.984220
  H     22.343090    0.749070    6.553960
  H     22.159410   -2.903900    6.798020
  H     19.718600   -3.754630    7.007270

 Total Charge           Charge          ....    0
 Multiplicity           Mult            ....    1
 Number of Electrons    NEL             ....  450
 Basis Dimension        Dim             .... 1084

ORBITAL ENERGIES
----------------

  NO   OCC          E(Eh)            E(eV)
   0   2.0000     -88.965668     -2420.8789
   1   2.0000     -88.957320     -2420.6518
   2   2.0000     -19.274405      -524.4832
   3   2.0000     -19.264892      -524.2244
   4   2.0000     -14.418179      -392.3386
   5   2.0000     -14.410813      -392.1382
   6   2.0000     -14.406233      -392.0135
   7   2.0000     -14.401036      -391.8721
   8   2.0000     -14.362151      -390.8140
   9   2.0000     -14.345776      -390.3684
  10   2.0000     -10.368504      -282.1413
  11   2.0000     -10.355793      -281.7955
  12   2.0000     -10.321834      -280.8714
  13   2.0000     -10.321339      -280.8579
  14   2.0000     -10.320263      -280.8286
  15   2.0000     -10.319881      -280.8182
  16   2.0000     -10.316595      -280.7288
  17   2.0000     -10.309381      -280.5325
  18   2.0000     -10.308750      -280.5153
  19   2.0000     -10.307903      -280.4923
  20   2.0000     -10.306598      -280.4568
  21   2.0000     -10.304791      -280.4076
  22   2.0000     -10.303892      -280.3832
  23   2.0000     -10.303620      -280.3758
  24   2.0000     -10.303541      -280.3736
  25   2.0000     -10.299721      -280.2697
  26   2.0000     -10.297171      -280.2003
  27   2.0000     -10.295943      -280.1668
  28   2.0000     -10.295796      -280.1628
  29   2.0000     -10.295477      -280.1542
  30   2.0000     -10.293872      -280.1105
  31   2.0000     -10.291988      -280.0592
  32   2.0000     -10.291917      -280.0573
  33   2.0000     -10.289964      -280.0041
  34   2.0000     -10.288492      -279.9641
  35   2.0000     -10.285573      -279.8847
  36   2.0000     -10.284579      -279.8576
  37   2.0000     -10.283390      -279.8253
  38   2.0000     -10.283172      -279.8193
  39   2.0000     -10.282694      -279.8063
  40   2.0000     -10.280344      -279.7424
  41   2.0000     -10.280068      -279.7349
  42   2.0000     -10.279066      -279.7076
  43   2.0000     -10.278168      -279.6832
  44   2.0000     -10.273751      -279.5630
  45   2.0000     -10.273303      -279.5508
  46   2.0000     -10.272957      -279.5414
  47   2.0000     -10.272412      -279.5265
  48   2.0000     -10.272401      -279.5262
  49   2.0000     -10.270584      -279.4768
  50   2.0000     -10.268604      -279.4229
  51   2.0000     -10.267039      -279.3803
  52   2.0000     -10.266351      -279.3616
  53   2.0000     -10.264925      -279.3228
  54   2.0000     -10.264848      -279.3207
  55   2.0000     -10.263141      -279.2743
  56   2.0000     -10.261611      -279.2326
  57   2.0000     -10.261021      -279.2166
  58   2.0000     -10.260925      -279.2140
  59   2.0000     -10.257446      -279.1193
  60   2.0000     -10.256589      -279.0960
  61   2.0000     -10.254560      -279.0408
  62   2.0000     -10.254427      -279.0372
  63   2.0000     -10.250093      -278.9192
  64   2.0000      -8.062568      -219.3936
  65   2.0000      -8.054088      -219.1629
  66   2.0000      -6.031803      -164.1337
  67   2.0000      -6.028015      -164.0306
  68   2.0000      -6.024236      -163.9278
  69   2.0000      -6.023491      -163.9075
  70   2.0000      -6.019300      -163.7935
  71   2.0000      -6.015903      -163.7010
  72   2.0000      -1.171588       -31.8805
  73   2.0000      -1.160518       -31.5793
  74   2.0000      -1.012501       -27.5516
  75   2.0000      -1.002749       -27.2862
  76   2.0000      -1.000077       -27.2135
  77   2.0000      -0.991494       -26.9799
  78   2.0000      -0.990396       -26.9500
  79   2.0000      -0.984754       -26.7965
  80   2.0000      -0.981544       -26.7092
  81   2.0000      -0.979324       -26.6488
  82   2.0000      -0.976114       -26.5614
  83   2.0000      -0.972428       -26.4611
  84   2.0000      -0.961721       -26.1698
  85   2.0000      -0.953817       -25.9547
  86   2.0000      -0.944518       -25.7017
  87   2.0000      -0.923604       -25.1325
  88   2.0000      -0.913596       -24.8602
  89   2.0000      -0.904071       -24.6010
  90   2.0000      -0.885337       -24.0912
  91   2.0000      -0.877474       -23.8773
  92   2.0000      -0.874154       -23.7870
  93   2.0000      -0.867976       -23.6188
  94   2.0000      -0.861256       -23.4360
  95   2.0000      -0.853329       -23.2203
  96   2.0000      -0.845458       -23.0061
  97   2.0000      -0.835142       -22.7254
  98   2.0000      -0.831976       -22.6392
  99   2.0000      -0.824970       -22.4486
 100   2.0000      -0.818904       -22.2835
 101   2.0000      -0.808771       -22.0078
 102   2.0000      -0.802506       -21.8373
 103   2.0000      -0.798087       -21.7171
 104   2.0000      -0.796876       -21.6841
 105   2.0000      -0.788674       -21.4609
 106   2.0000      -0.783477       -21.3195
 107   2.0000      -0.776007       -21.1162
 108   2.0000      -0.747218       -20.3328
 109   2.0000      -0.739091       -20.1117
 110   2.0000      -0.738090       -20.0844
 111   2.0000      -0.722320       -19.6553
 112   2.0000      -0.710602       -19.3365
 113   2.0000      -0.707629       -19.2556
 114   2.0000      -0.705153       -19.1882
 115   2.0000      -0.694191       -18.8899
 116   2.0000      -0.692776       -18.8514
 117   2.0000      -0.684185       -18.6176
 118   2.0000      -0.675757       -18.3883
 119   2.0000      -0.674067       -18.3423
 120   2.0000      -0.662168       -18.0185
 121   2.0000      -0.658921       -17.9301
 122   2.0000      -0.650722       -17.7071
 123   2.0000      -0.642560       -17.4849
 124   2.0000      -0.636761       -17.3272
 125   2.0000      -0.634306       -17.2604
 126   2.0000      -0.630474       -17.1561
 127   2.0000      -0.629346       -17.1254
 128   2.0000      -0.623922       -16.9778
 129   2.0000      -0.619983       -16.8706
 130   2.0000      -0.614511       -16.7217
 131   2.0000      -0.607513       -16.5313
 132   2.0000      -0.603412       -16.4197
 133   2.0000      -0.593079       -16.1385
 134   2.0000      -0.589622       -16.0444
 135   2.0000      -0.579518       -15.7695
 136   2.0000      -0.569884       -15.5073
 137   2.0000      -0.567927       -15.4541
 138   2.0000      -0.566089       -15.4041
 139   2.0000      -0.565757       -15.3950
 140   2.0000      -0.550050       -14.9676
 141   2.0000      -0.549404       -14.9501
 142   2.0000      -0.547260       -14.8917
 143   2.0000      -0.545461       -14.8427
 144   2.0000      -0.541887       -14.7455
 145   2.0000      -0.536970       -14.6117
 146   2.0000      -0.529631       -14.4120
 147   2.0000      -0.523300       -14.2397
 148   2.0000      -0.522482       -14.2175
 149   2.0000      -0.518854       -14.1187
 150   2.0000      -0.517300       -14.0765
 151   2.0000      -0.516668       -14.0592
 152   2.0000      -0.515851       -14.0370
 153   2.0000      -0.514515       -14.0007
 154   2.0000      -0.509631       -13.8678
 155   2.0000      -0.508747       -13.8437
 156   2.0000      -0.506772       -13.7900
 157   2.0000      -0.506027       -13.7697
 158   2.0000      -0.501955       -13.6589
 159   2.0000      -0.498232       -13.5576
 160   2.0000      -0.496593       -13.5130
 161   2.0000      -0.495503       -13.4833
 162   2.0000      -0.494307       -13.4508
 163   2.0000      -0.492516       -13.4020
 164   2.0000      -0.490205       -13.3392
 165   2.0000      -0.488623       -13.2961
 166   2.0000      -0.488306       -13.2875
 167   2.0000      -0.484577       -13.1860
 168   2.0000      -0.482876       -13.1397
 169   2.0000      -0.478649       -13.0247
 170   2.0000      -0.475988       -12.9523
 171   2.0000      -0.473937       -12.8965
 172   2.0000      -0.470423       -12.8009
 173   2.0000      -0.466171       -12.6852
 174   2.0000      -0.460978       -12.5438
 175   2.0000      -0.457750       -12.4560
 176   2.0000      -0.456448       -12.4206
 177   2.0000      -0.455093       -12.3837
 178   2.0000      -0.452837       -12.3223
 179   2.0000      -0.447292       -12.1714
 180   2.0000      -0.445499       -12.1226
 181   2.0000      -0.444215       -12.0877
 182   2.0000      -0.440657       -11.9909
 183   2.0000      -0.438976       -11.9451
 184   2.0000      -0.438474       -11.9315
 185   2.0000      -0.436226       -11.8703
 186   2.0000      -0.434931       -11.8351
 187   2.0000      -0.434147       -11.8137
 188   2.0000      -0.430888       -11.7250
 189   2.0000      -0.428636       -11.6638
 190   2.0000      -0.427742       -11.6395
 191   2.0000      -0.427128       -11.6227
 192   2.0000      -0.424130       -11.5412
 193   2.0000      -0.422805       -11.5051
 194   2.0000      -0.422226       -11.4894
 195   2.0000      -0.420946       -11.4545
 196   2.0000      -0.415572       -11.3083
 197   2.0000      -0.413307       -11.2466
 198   2.0000      -0.408074       -11.1043
 199   2.0000      -0.404996       -11.0205
 200   2.0000      -0.403379       -10.9765
 201   2.0000      -0.400042       -10.8857
 202   2.0000      -0.397874       -10.8267
 203   2.0000      -0.394957       -10.7473
 204   2.0000      -0.387892       -10.5551
 205   2.0000      -0.383959       -10.4481
 206   2.0000      -0.379896       -10.3375
 207   2.0000      -0.370928       -10.0935
 208   2.0000      -0.360371        -9.8062
 209   2.0000      -0.354555        -9.6479
 210   2.0000      -0.336464        -9.1557
 211   2.0000      -0.334692        -9.1074
 212   2.0000      -0.328984        -8.9521
 213   2.0000      -0.321391        -8.7455
 214   2.0000      -0.313211        -8.5229
 215   2.0000      -0.311072        -8.4647
 216   2.0000      -0.305858        -8.3228
 217   2.0000      -0.299675        -8.1546
 218   2.0000      -0.292377        -7.9560
 219   2.0000      -0.281448        -7.6586
 220   2.0000      -0.272427        -7.4131
 221   2.0000      -0.264557        -7.1990
 222   2.0000      -0.255488        -6.9522
 223   2.0000      -0.247613        -6.7379
 224   2.0000      -0.209848        -5.7103
 225   0.0000      -0.125917        -3.4264
 226   0.0000      -0.109930        -2.9913
 227   0.0000      -0.065596        -1.7850
 228   0.0000      -0.028746        -0.7822
 229   0.0000       0.000733         0.0200

MULLIKEN ATOMIC CHARGES
-----------------------
   0 C :   -0.082554
   1 S :    0.062548
   2 C :   -0.056428
   3 O :   -0.166052
   4 C :   -0.002333
   5 C :    0.047391
   6 C :    0.101652
   7 C :   -0.022986
   8 C :   -0.128629
   9 C :   -0.059304
  10 N :    0.080120
  11 C :   -0.040182
  12 C :    0.050787
  13 C :    0.055347
  14 C :    0.105036
  15 C :   -0.047173
  16 C :   -0.111327
  17 C :   -0.027696
  18 C :   -0.129665
  19 N :    0.134626
  20 C :   -0.002901
  21 C :   -0.010301
  22 C :    0.102744
  23 C :   -0.054046
  24 C :    0.045911
  25 C :   -0.031745
  26 C :   -0.051950
  27 C :    0.157663
  28 N :   -0.217202
  29 C :    0.122146
  30 N :   -0.216672
  31 C :    0.073690
  32 C :   -0.103517
  33 C :    0.136177
  34 C :   -0.024543
  35 C :    0.013266
  36 C :   -0.006790
  37 C :    0.047828
  38 C :   -0.019041
  39 C :   -0.009672
  40 C :   -0.082336
  41 C :    0.029532
  42 C :    0.082390
  43 C :   -0.029966
  44 C :   -0.103187
  45 C :   -0.131349
  46 N :    0.135778
  47 C :   -0.041011
  48 C :    0.050938
  49 C :    0.060791
  50 C :    0.096016
  51 C :   -0.048390
  52 C :   -0.099367
  53 C :   -0.025967
  54 C :   -0.084473
  55 N :    0.140959
  56 C :   -0.045662
  57 C :    0.085142
  58 C :   -0.112785
  59 S :    0.071090
  60 C :    0.044192
  61 O :   -0.160863
  62 C :   -0.002374
  63 C :    0.028787
  64 H :    0.027751
  65 H :    0.194459
  66 H :   -0.014676
  67 H :   -0.018223
  68 H :    0.003749
  69 H :   -0.019116
  70 H :    0.005210
  71 H :    0.009092
  72 H :   -0.026360
  73 H :   -0.041325
  74 H :   -0.020969
  75 H :   -0.032537
  76 H :   -0.007096
  77 H :    0.081446
  78 H :    0.077195
  79 H :   -0.003629
  80 H :   -0.021232
  81 H :    0.103569
  82 H :    0.091684
  83 H :   -0.001661
  84 H :    0.006914
  85 H :   -0.015217
  86 H :   -0.037220
  87 H :   -0.042424
  88 H :   -0.034175
  89 H :    0.001239
  90 H :    0.025854
  91 H :   -0.011350
  92 H :    0.005888
  93 H :   -0.014931
  94 H :   -0.001704
  95 H :   -0.008421
  96 H :   -0.016461
  97 H :    0.195483
  98 H :   -0.006843
  99 H :   -0.006076
Sum of atomic charges:   -0.0000000

LOEWDIN ATOMIC CHARGES
----------------------
   0 C :   -0.196420
   1 S :    0.388306
   2 C :   -0.101737
   3 O :   -0.042336
   4 C :   -0.119336
   5 C :   -0.043460
   6 C :   -0.020113
   7 C :    0.000101
   8 C :   -0.070148
   9 C :    0.000876
  10 N :   -0.069534
  11 C :    0.008761
  12 C :    0.030533
  13 C :    0.056136
  14 C :   -0.016734
  15 C :   -0.019679
  16 C :   -0.050495
  17 C :   -0.011042
  18 C :   -0.029238
  19 N :   -0.053321
  20 C :   -0.023406
  21 C :    0.007639
  22 C :   -0.039679
  23 C :    0.018395
  24 C :   -0.028269
  25 C :   -0.018115
  26 C :   -0.039855
  27 C :    0.030068
  28 N :   -0.125555
  29 C :    0.023554
  30 N :   -0.109281
  31 C :   -0.030999
  32 C :    0.079469
  33 C :   -0.029258
  34 C :   -0.038712
  35 C :   -0.021826
  36 C :   -0.055192
  37 C :   -0.025795
  38 C :   -0.020929
  39 C :   -0.022037
  40 C :    0.008470
  41 C :   -0.016246
  42 C :   -0.027926
  43 C :    0.004745
  44 C :   -0.054046
  45 C :   -0.031251
  46 N :   -0.046182
  47 C :   -0.008378
  48 C :    0.033801
  49 C :    0.047420
  50 C :   -0.017955
  51 C :   -0.019785
  52 C :   -0.040682
  53 C :   -0.015867
  54 C :    0.000971
  55 N :   -0.044369
  56 C :   -0.042369
  57 C :   -0.010543
  58 C :   -0.192463
  59 S :    0.384096
  60 C :   -0.090037
  61 O :   -0.038882
  62 C :   -0.105403
  63 C :   -0.028938
  64 H :    0.024002
  65 H :    0.098487
  66 H :    0.031672
  67 H :    0.029752
  68 H :    0.033132
  69 H :    0.027399
  70 H :    0.033866
  71 H :    0.031460
  72 H :    0.025422
  73 H :    0.023979
  74 H :    0.026479
  75 H :   -0.006948
  76 H :    0.014633
  77 H :    0.038623
  78 H :    0.047808
  79 H :    0.002463
  80 H :    0.006434
  81 H :    0.044954
  82 H :    0.056274
  83 H :    0.027951
  84 H :    0.045330
  85 H :    0.023197
  86 H :    0.028731
  87 H :    0.024964
  88 H :    0.023627
  89 H :    0.024217
  90 H :    0.038995
  91 H :    0.030980
  92 H :    0.035190
  93 H :    0.028017
  94 H :    0.034331
  95 H :    0.027819
  96 H :    0.028803
  97 H :    0.100292
  98 H :    0.035795
  99 H :    0.032353

  Mayer bond orders larger than 0.100000
B(  0-C ,  1-S ) :   1.1135 B(  0-C ,  5-C ) :   1.6036 B(  0-C , 64-H ) :   0.9714
B(  1-S ,  2-C ) :   1.1159 B(  2-C ,  3-O ) :   1.2006 B(  2-C ,  4-C ) :   1.5147
B(  3-O , 65-H ) :   0.9514 B(  4-C ,  5-C ) :   1.2498 B(  4-C ,  6-C ) :   0.9403
B(  5-C , 66-H ) :   1.0006 B(  6-C ,  7-C ) :   1.6668 B(  6-C , 12-C ) :   1.1008
B(  7-C ,  8-C ) :   1.0708 B(  7-C , 67-H ) :   1.0192 B(  8-C ,  9-C ) :   1.0769
B(  8-C , 11-C ) :   1.6329 B(  9-C , 10-N ) :   2.9053 B( 11-C , 12-C ) :   1.0709
B( 11-C , 68-H ) :   1.0019 B( 12-C , 13-C ) :   1.4616 B( 13-C , 14-C ) :   1.0373
B( 13-C , 17-C ) :   1.1042 B( 14-C , 15-C ) :   1.5830 B( 14-C , 20-C ) :   1.0967
B( 15-C , 16-C ) :   1.1074 B( 15-C , 69-H ) :   1.0161 B( 16-C , 17-C ) :   1.6062
B( 16-C , 18-C ) :   1.0527 B( 17-C , 70-H ) :   1.0146 B( 18-C , 19-N ) :   3.0426
B( 20-C , 21-C ) :   1.6706 B( 20-C , 71-H ) :   0.9526 B( 21-C , 22-C ) :   1.0812
B( 21-C , 72-H ) :   0.9888 B( 22-C , 23-C ) :   1.4854 B( 22-C , 39-C ) :   1.1193
B( 23-C , 24-C ) :   1.1819 B( 23-C , 73-H ) :   0.9772 B( 24-C , 25-C ) :   1.4601
B( 24-C , 37-C ) :   1.1189 B( 25-C , 26-C ) :   1.0363 B( 25-C , 31-C ) :   1.0872
B( 26-C , 27-C ) :   1.0196 B( 26-C , 29-C ) :   1.0493 B( 26-C , 74-H ) :   0.8711
B( 27-C , 28-N ) :   1.1149 B( 27-C , 75-H ) :   0.9172 B( 27-C , 76-H ) :   0.9499
B( 28-N , 77-H ) :   0.9457 B( 28-N , 78-H ) :   0.9661 B( 29-C , 30-N ) :   1.1056
B( 29-C , 79-H ) :   0.9375 B( 29-C , 80-H ) :   0.9301 B( 30-N , 81-H ) :   0.9355
B( 30-N , 82-H ) :   0.9654 B( 31-C , 32-C ) :   1.6497 B( 31-C , 36-C ) :   1.0603
B( 32-C , 33-C ) :   0.9926 B( 32-C , 83-H ) :   0.9548 B( 33-C , 34-C ) :   1.0020
B( 33-C , 40-C ) :   0.9519 B( 33-C , 84-H ) :   0.8825 B( 34-C , 35-C ) :   1.7192
B( 34-C , 85-H ) :   0.9768 B( 35-C , 36-C ) :   1.1250 B( 35-C , 86-H ) :   0.9894
B( 36-C , 37-C ) :   1.4235 B( 37-C , 38-C ) :   1.1434 B( 38-C , 39-C ) :   1.5929
B( 38-C , 87-H ) :   0.9922 B( 39-C , 88-H ) :   0.9906 B( 40-C , 41-C ) :   1.8055
B( 40-C , 89-H ) :   0.9823 B( 41-C , 42-C ) :   1.0717 B( 41-C , 90-H ) :   0.9435
B( 42-C , 43-C ) :   1.6189 B( 42-C , 48-C ) :   1.0619 B( 43-C , 44-C ) :   1.0922
B( 43-C , 91-H ) :   1.0164 B( 44-C , 45-C ) :   1.0579 B( 44-C , 47-C ) :   1.6230
B( 45-C , 46-N ) :   3.0354 B( 47-C , 48-C ) :   1.0901 B( 47-C , 92-H ) :   1.0157
B( 48-C , 49-C ) :   1.4581 B( 49-C , 50-C ) :   1.0260 B( 49-C , 53-C ) :   1.1086
B( 50-C , 51-C ) :   1.5840 B( 50-C , 56-C ) :   1.1139 B( 51-C , 52-C ) :   1.1113
B( 51-C , 93-H ) :   1.0121 B( 52-C , 53-C ) :   1.5896 B( 52-C , 54-C ) :   1.0641
B( 53-C , 94-H ) :   1.0118 B( 54-C , 55-N ) :   2.9304 B( 56-C , 57-C ) :   1.6761
B( 56-C , 95-H ) :   0.9646 B( 57-C , 58-C ) :   1.1372 B( 57-C , 96-H ) :   0.9641
B( 58-C , 59-S ) :   1.0714 B( 58-C , 63-C ) :   1.5063 B( 59-S , 60-C ) :   1.1257
B( 60-C , 61-O ) :   1.2087 B( 60-C , 62-C ) :   1.4897 B( 61-O , 97-H ) :   0.9536
B( 62-C , 63-C ) :   1.2646 B( 62-C , 98-H ) :   1.0027 B( 63-C , 99-H ) :   0.9928

-----------------------------------------------------------------------------
         ABSORPTION SPECTRUM VIA TRANSITION ELECTRIC DIPOLE MOMENTS
-----------------------------------------------------------------------------
State   Energy  Wavelength   fosc         T2         TX        TY        TZ
        (cm-1)    (nm)                  (au**2)     (au)      (au)      (au)
-----------------------------------------------------------------------------
   0    2247.2   4449.9   0.000163735   0.02399   0.13443   0.03647   0.06773
   1    6717.7   1488.6   0.083121119   4.07349  -0.91422   1.79796   0.07080
   2    8381.0   1193.2   0.093966358   3.69107   1.46565   1.18628  -0.36835
   3   12413.4    805.6   0.055397840   1.46918  -0.72000   0.52571   0.82123
   4   12773.1    782.9   0.003527174   0.09091   0.23161  -0.01298   0.19261
   5   13756.2    726.9   0.013023763   0.31168   0.30653   0.38867   0.25818
   6   14408.2    694.0   0.001648827   0.03767   0.09868  -0.16610   0.01862
   7   14839.2    673.9   0.005898814   0.13087  -0.16587  -0.32060   0.02393
   8   18194.2    549.6   0.000217124   0.00393   0.02554   0.05135  -0.02529
   9   19534.7    511.9   0.001585532   0.02672  -0.05506   0.11666  -0.10040
  10   20328.4    491.9   0.000020592   0.00033  -0.00066  -0.01714   0.00627
  11   20720.8    482.6   0.003462694   0.05502  -0.13998  -0.09714   0.16120
  12   21365.2    468.1   0.005102654   0.07863  -0.27855  -0.01268  -0.02961
  13   21725.7    460.3   0.002871086   0.04351  -0.01884   0.08660   0.18882
  14   22502.3    444.4   0.130525396   1.90961  -1.38053  -0.05753  -0.02108
  15   24120.9    414.6   0.114978456   1.56927  -0.42931   1.14416  -0.27545
  16   24193.3    413.3   0.093565277   1.27319  -0.41650   0.91045  -0.52039
  17   24710.9    404.7   0.031132054   0.41476  -0.30738   0.52866  -0.20198
  18   25293.0    395.4   0.021434301   0.27899   0.22909  -0.26515   0.39522
  19   26034.7    384.1   0.028012758   0.35422  -0.01503   0.59463  -0.02044
  20   26215.6    381.5   0.010250763   0.12873   0.34668  -0.07673  -0.05153
  21   26570.1    376.4   0.122640435   1.51955   0.41336   1.00061  -0.58947
  22   26689.9    374.7   0.181555658   2.23944  -0.06856  -1.27342   0.78303
  23   27063.3    369.5   0.062056080   0.75488  -0.66541   0.48982   0.26866
  24   27429.5    364.6   0.209122167   2.50991   0.86888  -0.52435  -1.21656
  25   27770.7    360.1   0.205644690   2.43785   0.14085   1.53010   0.27716
  26   28597.5    349.7   0.004647684   0.05350   0.17355  -0.14511   0.04825
  27   28831.7    346.8   0.014491464   0.16547  -0.09942   0.37835   0.11150
  28   29458.8    339.5   0.028538750   0.31893  -0.36872   0.34707  -0.25005
  29   29600.8    337.8   0.088827664   0.98792   0.38979  -0.87274   0.27259
  30   29933.8    334.1   0.010885968   0.11972  -0.05347   0.16890  -0.29721
  31   30158.1    331.6   1.178726198  12.86723   0.19950  -2.38887   2.66847
  32   30293.1    330.1   0.044405087   0.48257  -0.61244   0.19049  -0.26684
  33   30744.4    325.3   0.075403840   0.80743   0.27723  -0.61292   0.59573
  34   30891.8    323.7   0.069446353   0.74009  -0.01245   0.50456  -0.69667
  35   31190.8    320.6   0.043937670   0.46375   0.08959   0.40219  -0.54219
  36   31696.3    315.5   0.202378352   2.10199  -1.32981  -0.57247   0.07667
  37   32358.7    309.0   0.837184430   8.51736   2.77209  -0.77983   0.47409
  38   32890.4    304.0   0.006301478   0.06307  -0.10140   0.07705   0.21646
  39   33657.9    297.1   0.302559146   2.95937   0.79157  -1.46381   0.43597
  40   35580.0    281.1   0.010648715   0.09853  -0.09207   0.04601  -0.29654
  41   35898.4    278.6   0.059203864   0.54294   0.29601  -0.32348   0.59218
  42   36192.7    276.3   0.040205000   0.36571   0.05886   0.38885  -0.45939
  43   36320.7    275.3   0.000532044   0.00482  -0.04981  -0.04485   0.01816
  44   36677.3    272.6   0.000253011   0.00227   0.00786  -0.03474   0.03166
  45   36797.2    271.8   0.007162323   0.06408  -0.07632   0.00770   0.24124
  46   36853.5    271.3   0.026053293   0.23273   0.02243   0.40846  -0.25572
  47   37318.9    268.0   0.000275829   0.00243   0.01474  -0.00726  -0.04651
  48   37660.4    265.5   0.047406542   0.41441   0.14499   0.62309  -0.07177
  49   37898.9    263.9   0.012506247   0.10864   0.27500  -0.18065  -0.01948
  50   38004.8    263.1   0.002164162   0.01875   0.07357   0.09277   0.06876
  51   38698.4    258.4   0.011483016   0.09769  -0.05595   0.06786  -0.29992
  52   38859.0    257.3   0.012596754   0.10672   0.24955   0.19183  -0.08743
  53   38965.5    256.6   0.076839015   0.64920   0.75296  -0.07725   0.27619
  54   39107.9    255.7   0.028065555   0.23626  -0.32856   0.28582  -0.21589
  55   39158.4    255.4   0.031821115   0.26753  -0.18131   0.47074   0.11426
  56   39395.0    253.8   0.008662518   0.07239  -0.21623  -0.15111   0.05291
  57   39668.4    252.1   0.579394071   4.80845   0.44797  -1.96729   0.85881
  58   40166.9    249.0   0.045877357   0.37602   0.05958   0.44940  -0.41293

FINAL SINGLE POINT ENERGY     -3350.907043104417

DIPOLE MOMENT
-------------
                                X             Y             Z
Electronic contribution:     10.74880      35.16942     -11.68331
Nuclear contribution   :     -9.99135     -35.44374      11.51705
                        -----------------------------------------
Total Dipole Moment    :      0.75745      -0.27433      -0.16626
                        -----------------------------------------
Magnitude (a.u.)       :      0.82258
Magnitude (Debye)      :      2.09083

Rotational constants in cm-1:     0.001460     0.000588     0.000490
Rotational constants in MHz :    43.782417    17.632694    14.697004

                             ****ORCA TERMINATED NORMALLY****
TOTAL RUN TIME: 0 days 0 hours 13 minutes 3 seconds 382 msec
