                         Program Version 4.2.0 -  RELEASE  -
|  1> # ORCA input file
|  2> # SCF done       -213.621954235056          0.000604525673
|  3> ! CAM-B3LYP def2-SVP def2/J RIJCOSX Grid4 TightSCF
|  4> %maxcore 5000
|  5> %tddft
|  6>     Mode sTDDFT
|  7>     Ethresh 5.0
|  8>     maxcore 5000
|  9> end
| 10>
| 11> %pal
| 12>   nprocs 6
| 13>   end
| 14> * xyz 0 1
| 15>    C       -2.07160         1.33816         9.79151
| 16>    S       -1.27336         2.84834         9.65569
| 17>    C       -0.36195         2.27730         8.29208
| 18>    C       -0.66428         0.97359         7.99840
| 19>    C       -1.64710         0.43397         8.86655
| 20>    C       -2.11006        -0.98325         8.76072
| 21>    C       -1.76699        -1.57425         7.39554
| 22>    F       -1.98830        -2.93320         7.44389
| 23>    C       -0.30061        -1.30689         7.04679
| 24>    F        0.00739        -1.92277         5.85227
| 25>    C       -0.04211         0.18979         6.88705
| 26>    C        0.62248         3.11817         7.64496
| 27>    C        1.87744         3.39413         8.12219
| 28>    N        2.46461         2.86460         9.29200
| 29>    O        3.60447         3.20325         9.54682
| 30>    O        1.80718         2.08942         9.96393
| 31>    C        2.58134         4.25666         7.19286
| 32>    C        1.73994         4.55989         6.18429
| 33>    C        0.46296         3.91661         6.42032
| 34>    C       -0.70062         4.06646         5.70598
| 35>    C       -1.84415         3.20040         5.73659
| 36>    C       -2.64680         3.50857         4.68845
| 37>    C       -2.09243         4.62719         3.97250
| 38>    N       -2.79072         5.15925         2.87346
| 39>    O       -3.95989         4.83843         2.75617
| 40>    O       -2.20763         5.88679         2.08277
| 41>    C       -0.93008         5.05207         4.61959
| 42>    C       -0.19749         6.25559         4.56669
| 43>    C       -0.15353         7.17137         3.55048
| 44>    C        0.55274         8.38320         3.67718
| 45>    N        0.61696         9.32987         2.68586
| 46>    C        0.04616         9.22500         1.36242
| 47>    C        0.90191         8.35426         0.44677
| 48>    C        1.37419        10.45264         3.06950
| 49>    O        1.57622        11.41371         2.36270
| 50>    C        1.79067        10.14294         4.42508
| 51>    C        1.28467         8.87830         4.77103
| 52>    C        1.70914         8.60169         6.12849
| 53>    O        1.51101         7.65553         6.86320
| 54>    N        2.46245         9.73418         6.50767
| 55>    C        3.02894         9.80615         7.83446
| 56>    C        4.46303         9.28299         7.87338
| 57>    C        2.51325        10.66234         5.50294
| 58>    C        3.10747        11.95163         5.46874
| 59>    C        4.00568        12.50371         6.31321
| 60>    C        4.54346        13.82483         6.11869
| 61>    C        3.81788        14.96008         5.69274
| 62>    C        2.33676        15.01383         5.71807
| 63>    O        1.57080        14.16869         6.07272
| 64>    S        1.79906        16.64759         5.22797
| 65>    C        3.47720        17.27200         5.10545
| 66>    O        3.70535        18.42454         4.89277
| 67>    C        4.43053        16.17140         5.37242
| 68>    C        5.83300        16.36131         5.45072
| 69>    C        6.51336        15.28152         6.04307
| 70>    C        5.90101        14.07771         6.35736
| 71>    C        6.94669        13.17633         6.89375
| 72>    O        6.86073        12.04904         7.27429
| 73>    O        8.12515        13.87684         6.88846
| 74>    C        7.94757        15.14277         6.37793
| 75>    O        8.84556        15.91797         6.25480
| 76>    C        6.57751        17.51139         5.03083
| 77>    C        6.30231        18.24877         3.93223
| 78>    C        7.03233        19.36239         3.43506
| 79>    S        6.39703        20.11749         1.99356
| 80>    C        7.62677        21.29603         2.01420
| 81>    C        8.49627        21.12963         3.05647
| 82>    C        8.17270        20.02239         3.87178
| 83>    C        8.98212        19.66610         5.07588
| 84>    C       10.27660        20.47486         5.19648
| 85>    F       10.68391        20.41666         6.51097
| 86>    C       10.07689        21.93533         4.79023
| 87>    F       11.25777        22.62456         4.95382
| 88>    C        9.67024        22.01441         3.32269
| 89>    H       -2.80884         1.19831        10.55657
| 90>    H       -3.18507        -1.05557         8.93584
| 91>    H       -1.61210        -1.58980         9.52415
| 92>    H       -2.41685        -1.18762         6.59973
| 93>    H        0.35010        -1.76030         7.80418
| 94>    H       -0.46333         0.50206         5.92428
| 95>    H        1.03347         0.37286         6.84263
| 96>    H        3.60265         4.55619         7.32466
| 97>    H        1.98410         5.12378         5.30696
| 98>    H       -1.99419         2.40418         6.43597
| 99>    H       -3.56129         3.02626         4.39788
|100>    H        0.36191         6.48008         5.46558
|101>    H       -0.66449         6.97593         2.62082
|102>    H        0.00497        10.24431         0.96938
|103>    H       -0.96908         8.82774         1.43167
|104>    H        1.90562         8.76553         0.36824
|105>    H        0.45914         8.32502        -0.54427
|106>    H        0.96761         7.33759         0.82658
|107>    H        2.40238         9.16942         8.46659
|108>    H        2.96266        10.83464         8.19477
|109>    H        4.48055         8.23957         7.56858
|110>    H        4.84779         9.35201         8.88671
|111>    H        5.11998         9.84735         7.21605
|112>    H        2.79564        12.51430         4.59731
|113>    H        4.46825        11.93553         7.10493
|114>    H        7.47323        17.69027         5.60119
|115>    H        5.45203        17.97715         3.32105
|116>    H        7.65340        22.05848         1.26090
|117>    H        9.23885        18.60398         5.07100
|118>    H        8.39108        19.85867         5.97787
|119>    H       11.09255        20.03999         4.60578
|120>    H        9.34418        22.41607         5.45024
|121>    H       10.52445        21.69778         2.71527
|122>    H        9.44325        23.04770         3.05567
|123> *
|124>
|125>                          ****END OF INPUT****

CARTESIAN COORDINATES (ANGSTROEM)
---------------------------------
  C     -2.071600    1.338160    9.791510
  S     -1.273360    2.848340    9.655690
  C     -0.361950    2.277300    8.292080
  C     -0.664280    0.973590    7.998400
  C     -1.647100    0.433970    8.866550
  C     -2.110060   -0.983250    8.760720
  C     -1.766990   -1.574250    7.395540
  F     -1.988300   -2.933200    7.443890
  C     -0.300610   -1.306890    7.046790
  F      0.007390   -1.922770    5.852270
  C     -0.042110    0.189790    6.887050
  C      0.622480    3.118170    7.644960
  C      1.877440    3.394130    8.122190
  N      2.464610    2.864600    9.292000
  O      3.604470    3.203250    9.546820
  O      1.807180    2.089420    9.963930
  C      2.581340    4.256660    7.192860
  C      1.739940    4.559890    6.184290
  C      0.462960    3.916610    6.420320
  C     -0.700620    4.066460    5.705980
  C     -1.844150    3.200400    5.736590
  C     -2.646800    3.508570    4.688450
  C     -2.092430    4.627190    3.972500
  N     -2.790720    5.159250    2.873460
  O     -3.959890    4.838430    2.756170
  O     -2.207630    5.886790    2.082770
  C     -0.930080    5.052070    4.619590
  C     -0.197490    6.255590    4.566690
  C     -0.153530    7.171370    3.550480
  C      0.552740    8.383200    3.677180
  N      0.616960    9.329870    2.685860
  C      0.046160    9.225000    1.362420
  C      0.901910    8.354260    0.446770
  C      1.374190   10.452640    3.069500
  O      1.576220   11.413710    2.362700
  C      1.790670   10.142940    4.425080
  C      1.284670    8.878300    4.771030
  C      1.709140    8.601690    6.128490
  O      1.511010    7.655530    6.863200
  N      2.462450    9.734180    6.507670
  C      3.028940    9.806150    7.834460
  C      4.463030    9.282990    7.873380
  C      2.513250   10.662340    5.502940
  C      3.107470   11.951630    5.468740
  C      4.005680   12.503710    6.313210
  C      4.543460   13.824830    6.118690
  C      3.817880   14.960080    5.692740
  C      2.336760   15.013830    5.718070
  O      1.570800   14.168690    6.072720
  S      1.799060   16.647590    5.227970
  C      3.477200   17.272000    5.105450
  O      3.705350   18.424540    4.892770
  C      4.430530   16.171400    5.372420
  C      5.833000   16.361310    5.450720
  C      6.513360   15.281520    6.043070
  C      5.901010   14.077710    6.357360
  C      6.946690   13.176330    6.893750
  O      6.860730   12.049040    7.274290
  O      8.125150   13.876840    6.888460
  C      7.947570   15.142770    6.377930
  O      8.845560   15.917970    6.254800
  C      6.577510   17.511390    5.030830
  C      6.302310   18.248770    3.932230
  C      7.032330   19.362390    3.435060
  S      6.397030   20.117490    1.993560
  C      7.626770   21.296030    2.014200
  C      8.496270   21.129630    3.056470
  C      8.172700   20.022390    3.871780
  C      8.982120   19.666100    5.075880
  C     10.276600   20.474860    5.196480
  F     10.683910   20.416660    6.510970
  C     10.076890   21.935330    4.790230
  F     11.257770   22.624560    4.953820
  C      9.670240   22.014410    3.322690
  H     -2.808840    1.198310   10.556570
  H     -3.185070   -1.055570    8.935840
  H     -1.612100   -1.589800    9.524150
  H     -2.416850   -1.187620    6.599730
  H      0.350100   -1.760300    7.804180
  H     -0.463330    0.502060    5.924280
  H      1.033470    0.372860    6.842630
  H      3.602650    4.556190    7.324660
  H      1.984100    5.123780    5.306960
  H     -1.994190    2.404180    6.435970
  H     -3.561290    3.026260    4.397880
  H      0.361910    6.480080    5.465580
  H     -0.664490    6.975930    2.620820
  H      0.004970   10.244310    0.969380
  H     -0.969080    8.827740    1.431670
  H      1.905620    8.765530    0.368240
  H      0.459140    8.325020   -0.544270
  H      0.967610    7.337590    0.826580
  H      2.402380    9.169420    8.466590
  H      2.962660   10.834640    8.194770
  H      4.480550    8.239570    7.568580
  H      4.847790    9.352010    8.886710
  H      5.119980    9.847350    7.216050
  H      2.795640   12.514300    4.597310
  H      4.468250   11.935530    7.104930
  H      7.473230   17.690270    5.601190
  H      5.452030   17.977150    3.321050
  H      7.653400   22.058480    1.260900
  H      9.238850   18.603980    5.071000
  H      8.391080   19.858670    5.977870
  H     11.092550   20.039990    4.605780
  H      9.344180   22.416070    5.450240
  H     10.524450   21.697780    2.715270
  H      9.443250   23.047700    3.055670

 Total Charge           Charge          ....    0
 Multiplicity           Mult            ....    1
 Number of Electrons    NEL             ....  546
 Basis Dimension        Dim             .... 1218

ORBITAL ENERGIES
----------------

  NO   OCC          E(Eh)            E(eV)
   0   2.0000     -88.968007     -2420.9425
   1   2.0000     -88.958860     -2420.6936
   2   2.0000     -88.958312     -2420.6787
   3   2.0000     -24.750653      -673.4995
   4   2.0000     -24.749573      -673.4701
   5   2.0000     -24.746893      -673.3972
   6   2.0000     -24.746742      -673.3931
   7   2.0000     -19.304795      -525.3102
   8   2.0000     -19.253846      -523.9238
   9   2.0000     -19.252835      -523.8963
  10   2.0000     -19.250006      -523.8193
  11   2.0000     -19.249113      -523.7950
  12   2.0000     -19.248178      -523.7696
  13   2.0000     -19.245876      -523.7069
  14   2.0000     -19.241560      -523.5895
  15   2.0000     -19.238983      -523.5193
  16   2.0000     -19.208986      -522.7031
  17   2.0000     -19.201647      -522.5034
  18   2.0000     -14.655360      -398.7926
  19   2.0000     -14.648805      -398.6142
  20   2.0000     -14.467783      -393.6884
  21   2.0000     -14.463877      -393.5821
  22   2.0000     -10.446557      -284.2653
  23   2.0000     -10.445384      -284.2333
  24   2.0000     -10.414439      -283.3913
  25   2.0000     -10.414029      -283.3801
  26   2.0000     -10.389698      -282.7181
  27   2.0000     -10.385486      -282.6034
  28   2.0000     -10.353580      -281.7352
  29   2.0000     -10.351574      -281.6806
  30   2.0000     -10.351485      -281.6782
  31   2.0000     -10.351158      -281.6693
  32   2.0000     -10.347921      -281.5812
  33   2.0000     -10.347802      -281.5780
  34   2.0000     -10.345075      -281.5038
  35   2.0000     -10.343036      -281.4483
  36   2.0000     -10.339854      -281.3617
  37   2.0000     -10.339671      -281.3568
  38   2.0000     -10.337772      -281.3051
  39   2.0000     -10.336291      -281.2648
  40   2.0000     -10.335918      -281.2546
  41   2.0000     -10.333731      -281.1951
  42   2.0000     -10.332090      -281.1505
  43   2.0000     -10.329691      -281.0852
  44   2.0000     -10.329629      -281.0835
  45   2.0000     -10.321886      -280.8728
  46   2.0000     -10.314848      -280.6813
  47   2.0000     -10.312778      -280.6250
  48   2.0000     -10.311624      -280.5936
  49   2.0000     -10.310981      -280.5761
  50   2.0000     -10.310795      -280.5710
  51   2.0000     -10.308261      -280.5020
  52   2.0000     -10.307212      -280.4735
  53   2.0000     -10.306389      -280.4511
  54   2.0000     -10.305738      -280.4334
  55   2.0000     -10.303768      -280.3798
  56   2.0000     -10.303434      -280.3707
  57   2.0000     -10.298422      -280.2343
  58   2.0000     -10.295553      -280.1563
  59   2.0000     -10.293606      -280.1033
  60   2.0000     -10.292181      -280.0645
  61   2.0000     -10.291015      -280.0328
  62   2.0000     -10.289552      -279.9929
  63   2.0000     -10.288938      -279.9762
  64   2.0000     -10.288256      -279.9577
  65   2.0000     -10.287848      -279.9466
  66   2.0000     -10.285169      -279.8737
  67   2.0000     -10.284823      -279.8643
  68   2.0000     -10.282675      -279.8058
  69   2.0000     -10.282405      -279.7985
  70   2.0000     -10.278652      -279.6963
  71   2.0000     -10.276444      -279.6363
  72   2.0000     -10.266857      -279.3754
  73   2.0000     -10.264780      -279.3189
  74   2.0000      -8.064007      -219.4328
  75   2.0000      -8.058201      -219.2748
  76   2.0000      -8.053971      -219.1597
  77   2.0000      -6.033091      -164.1688
  78   2.0000      -6.028930      -164.0555
  79   2.0000      -6.027022      -164.0036
  80   2.0000      -6.026529      -163.9902
  81   2.0000      -6.023800      -163.9159
  82   2.0000      -6.023301      -163.9024
  83   2.0000      -6.019263      -163.7925
  84   2.0000      -6.018938      -163.7836
  85   2.0000      -6.016196      -163.7090
  86   2.0000      -1.325899       -36.0795
  87   2.0000      -1.320425       -35.9306
  88   2.0000      -1.270607       -34.5750
  89   2.0000      -1.266980       -34.4763
  90   2.0000      -1.255792       -34.1718
  91   2.0000      -1.254300       -34.1312
  92   2.0000      -1.251953       -34.0674
  93   2.0000      -1.180330       -32.1184
  94   2.0000      -1.176568       -32.0161
  95   2.0000      -1.172303       -31.9000
  96   2.0000      -1.148218       -31.2446
  97   2.0000      -1.142858       -31.0987
  98   2.0000      -1.142568       -31.0908
  99   2.0000      -1.139975       -31.0203
 100   2.0000      -1.137960       -30.9655
 101   2.0000      -1.077404       -29.3177
 102   2.0000      -1.068221       -29.0678
 103   2.0000      -1.026423       -27.9304
 104   2.0000      -1.022318       -27.8187
 105   2.0000      -1.004117       -27.3234
 106   2.0000      -1.002922       -27.2909
 107   2.0000      -0.987074       -26.8597
 108   2.0000      -0.962224       -26.1835
 109   2.0000      -0.949485       -25.8368
 110   2.0000      -0.940139       -25.5825
 111   2.0000      -0.926289       -25.2056
 112   2.0000      -0.922000       -25.0889
 113   2.0000      -0.917192       -24.9581
 114   2.0000      -0.915403       -24.9094
 115   2.0000      -0.914321       -24.8799
 116   2.0000      -0.889353       -24.2005
 117   2.0000      -0.886491       -24.1226
 118   2.0000      -0.885663       -24.1001
 119   2.0000      -0.876990       -23.8641
 120   2.0000      -0.875382       -23.8204
 121   2.0000      -0.856593       -23.3091
 122   2.0000      -0.852615       -23.2008
 123   2.0000      -0.840669       -22.8758
 124   2.0000      -0.831368       -22.6227
 125   2.0000      -0.828060       -22.5326
 126   2.0000      -0.823071       -22.3969
 127   2.0000      -0.821772       -22.3616
 128   2.0000      -0.810933       -22.0666
 129   2.0000      -0.809453       -22.0263
 130   2.0000      -0.796665       -21.6784
 131   2.0000      -0.779880       -21.2216
 132   2.0000      -0.774440       -21.0736
 133   2.0000      -0.770947       -20.9785
 134   2.0000      -0.767390       -20.8818
 135   2.0000      -0.766121       -20.8472
 136   2.0000      -0.740395       -20.1472
 137   2.0000      -0.732941       -19.9443
 138   2.0000      -0.731782       -19.9128
 139   2.0000      -0.730818       -19.8866
 140   2.0000      -0.718008       -19.5380
 141   2.0000      -0.717278       -19.5181
 142   2.0000      -0.706651       -19.2290
 143   2.0000      -0.699628       -19.0378
 144   2.0000      -0.693138       -18.8612
 145   2.0000      -0.691432       -18.8148
 146   2.0000      -0.686463       -18.6796
 147   2.0000      -0.681891       -18.5552
 148   2.0000      -0.673411       -18.3244
 149   2.0000      -0.663699       -18.0602
 150   2.0000      -0.662661       -18.0319
 151   2.0000      -0.658715       -17.9246
 152   2.0000      -0.650156       -17.6916
 153   2.0000      -0.646343       -17.5879
 154   2.0000      -0.641693       -17.4614
 155   2.0000      -0.637482       -17.3468
 156   2.0000      -0.636562       -17.3217
 157   2.0000      -0.634945       -17.2777
 158   2.0000      -0.634113       -17.2551
 159   2.0000      -0.628469       -17.1015
 160   2.0000      -0.624412       -16.9911
 161   2.0000      -0.621461       -16.9108
 162   2.0000      -0.616173       -16.7669
 163   2.0000      -0.614784       -16.7291
 164   2.0000      -0.610352       -16.6085
 165   2.0000      -0.605371       -16.4730
 166   2.0000      -0.602835       -16.4040
 167   2.0000      -0.598275       -16.2799
 168   2.0000      -0.593245       -16.1430
 169   2.0000      -0.592583       -16.1250
 170   2.0000      -0.590691       -16.0735
 171   2.0000      -0.587330       -15.9820
 172   2.0000      -0.585862       -15.9421
 173   2.0000      -0.582914       -15.8619
 174   2.0000      -0.579694       -15.7743
 175   2.0000      -0.575083       -15.6488
 176   2.0000      -0.573255       -15.5991
 177   2.0000      -0.572433       -15.5767
 178   2.0000      -0.569044       -15.4845
 179   2.0000      -0.564296       -15.3553
 180   2.0000      -0.563568       -15.3355
 181   2.0000      -0.561533       -15.2801
 182   2.0000      -0.559375       -15.2214
 183   2.0000      -0.558311       -15.1924
 184   2.0000      -0.555958       -15.1284
 185   2.0000      -0.555422       -15.1138
 186   2.0000      -0.551429       -15.0051
 187   2.0000      -0.547063       -14.8863
 188   2.0000      -0.544661       -14.8210
 189   2.0000      -0.540533       -14.7086
 190   2.0000      -0.538559       -14.6549
 191   2.0000      -0.536264       -14.5925
 192   2.0000      -0.535843       -14.5810
 193   2.0000      -0.533259       -14.5107
 194   2.0000      -0.529860       -14.4182
 195   2.0000      -0.526699       -14.3322
 196   2.0000      -0.523751       -14.2520
 197   2.0000      -0.523181       -14.2365
 198   2.0000      -0.520960       -14.1761
 199   2.0000      -0.515995       -14.0409
 200   2.0000      -0.515500       -14.0275
 201   2.0000      -0.514493       -14.0001
 202   2.0000      -0.513255       -13.9664
 203   2.0000      -0.510837       -13.9006
 204   2.0000      -0.508312       -13.8319
 205   2.0000      -0.507827       -13.8187
 206   2.0000      -0.504561       -13.7298
 207   2.0000      -0.503706       -13.7065
 208   2.0000      -0.497293       -13.5320
 209   2.0000      -0.495376       -13.4799
 210   2.0000      -0.493162       -13.4196
 211   2.0000      -0.492850       -13.4111
 212   2.0000      -0.490040       -13.3347
 213   2.0000      -0.486957       -13.2508
 214   2.0000      -0.484681       -13.1888
 215   2.0000      -0.483148       -13.1471
 216   2.0000      -0.483023       -13.1437
 217   2.0000      -0.481759       -13.1093
 218   2.0000      -0.479316       -13.0428
 219   2.0000      -0.478595       -13.0232
 220   2.0000      -0.472538       -12.8584
 221   2.0000      -0.470801       -12.8111
 222   2.0000      -0.468254       -12.7418
 223   2.0000      -0.467101       -12.7105
 224   2.0000      -0.465556       -12.6684
 225   2.0000      -0.461253       -12.5513
 226   2.0000      -0.458973       -12.4893
 227   2.0000      -0.458161       -12.4672
 228   2.0000      -0.456584       -12.4243
 229   2.0000      -0.452122       -12.3029
 230   2.0000      -0.450062       -12.2468
 231   2.0000      -0.448244       -12.1974
 232   2.0000      -0.445222       -12.1151
 233   2.0000      -0.444067       -12.0837
 234   2.0000      -0.436765       -11.8850
 235   2.0000      -0.433792       -11.8041
 236   2.0000      -0.432489       -11.7686
 237   2.0000      -0.428661       -11.6645
 238   2.0000      -0.427707       -11.6385
 239   2.0000      -0.426584       -11.6079
 240   2.0000      -0.421518       -11.4701
 241   2.0000      -0.415863       -11.3162
 242   2.0000      -0.414209       -11.2712
 243   2.0000      -0.407809       -11.0970
 244   2.0000      -0.406108       -11.0508
 245   2.0000      -0.403077       -10.9683
 246   2.0000      -0.395428       -10.7601
 247   2.0000      -0.391824       -10.6621
 248   2.0000      -0.388641       -10.5754
 249   2.0000      -0.387233       -10.5371
 250   2.0000      -0.385580       -10.4922
 251   2.0000      -0.384828       -10.4717
 252   2.0000      -0.383591       -10.4380
 253   2.0000      -0.383087       -10.4243
 254   2.0000      -0.379191       -10.3183
 255   2.0000      -0.378500       -10.2995
 256   2.0000      -0.373084       -10.1521
 257   2.0000      -0.368514       -10.0278
 258   2.0000      -0.366753        -9.9799
 259   2.0000      -0.362274        -9.8580
 260   2.0000      -0.356964        -9.7135
 261   2.0000      -0.355170        -9.6647
 262   2.0000      -0.345214        -9.3938
 263   2.0000      -0.343955        -9.3595
 264   2.0000      -0.336099        -9.1457
 265   2.0000      -0.328571        -8.9409
 266   2.0000      -0.323283        -8.7970
 267   2.0000      -0.317946        -8.6518
 268   2.0000      -0.313279        -8.5248
 269   2.0000      -0.307939        -8.3794
 270   2.0000      -0.296561        -8.0698
 271   2.0000      -0.282664        -7.6917
 272   2.0000      -0.247923        -6.7463
 273   0.0000      -0.140481        -3.8227
 274   0.0000      -0.104442        -2.8420
 275   0.0000      -0.097995        -2.6666
 276   0.0000      -0.071464        -1.9446
 277   0.0000      -0.049379        -1.3437

MULLIKEN ATOMIC CHARGES
-----------------------
   0 C :   -0.121242
   1 S :    0.171994
   2 C :   -0.244556
   3 C :   -0.051488
   4 C :   -0.083789
   5 C :    0.153588
   6 C :    0.185577
   7 F :   -0.246692
   8 C :    0.187875
   9 F :   -0.246759
  10 C :    0.181483
  11 C :   -0.037618
  12 C :    0.101409
  13 N :    0.257497
  14 O :   -0.240506
  15 O :   -0.231668
  16 C :    0.024898
  17 C :    0.028610
  18 C :    0.075006
  19 C :    0.011581
  20 C :    0.022764
  21 C :    0.028361
  22 C :    0.066862
  23 N :    0.276180
  24 O :   -0.240664
  25 O :   -0.254763
  26 C :    0.080586
  27 C :   -0.083879
  28 C :   -0.014939
  29 C :    0.134601
  30 N :   -0.259925
  31 C :    0.096186
  32 C :    0.006830
  33 C :    0.152256
  34 O :   -0.184732
  35 C :   -0.036047
  36 C :   -0.052736
  37 C :    0.161065
  38 O :   -0.201237
  39 N :   -0.253684
  40 C :    0.100811
  41 C :    0.003765
  42 C :    0.084628
  43 C :    0.040572
  44 C :   -0.046841
  45 C :    0.029398
  46 C :    0.021411
  47 C :    0.032392
  48 O :   -0.117938
  49 S :    0.029654
  50 C :    0.025722
  51 O :   -0.118237
  52 C :    0.019615
  53 C :    0.058998
  54 C :   -0.076445
  55 C :   -0.067309
  56 C :    0.238313
  57 O :   -0.103313
  58 O :   -0.228794
  59 C :    0.240906
  60 O :   -0.103568
  61 C :   -0.094791
  62 C :    0.134919
  63 C :   -0.184684
  64 S :    0.144328
  65 C :   -0.113598
  66 C :   -0.093569
  67 C :   -0.054314
  68 C :    0.100282
  69 C :    0.216274
  70 F :   -0.245105
  71 C :    0.183451
  72 F :   -0.244911
  73 C :    0.150843
  74 H :    0.014621
  75 H :    0.020791
  76 H :    0.034289
  77 H :    0.002421
  78 H :    0.011984
  79 H :    0.018295
  80 H :    0.025025
  81 H :   -0.001114
  82 H :   -0.004292
  83 H :    0.000620
  84 H :    0.006809
  85 H :    0.042498
  86 H :    0.007179
  87 H :    0.042375
  88 H :    0.039695
  89 H :    0.025220
  90 H :    0.028664
  91 H :    0.018998
  92 H :    0.040575
  93 H :    0.029673
  94 H :    0.021848
  95 H :    0.027805
  96 H :    0.031998
  97 H :    0.013944
  98 H :    0.023215
  99 H :    0.015869
 100 H :   -0.011668
 101 H :    0.021727
 102 H :    0.057377
 103 H :    0.042699
 104 H :    0.008176
 105 H :    0.009305
 106 H :    0.030489
 107 H :    0.021737
Sum of atomic charges:    0.0000000

LOEWDIN ATOMIC CHARGES
----------------------
   0 C :   -0.185012
   1 S :    0.462458
   2 C :   -0.193935
   3 C :   -0.063330
   4 C :   -0.072535
   5 C :   -0.033519
   6 C :    0.092907
   7 F :   -0.123882
   8 C :    0.096165
   9 F :   -0.124783
  10 C :   -0.035990
  11 C :   -0.013889
  12 C :   -0.021613
  13 N :    0.280495
  14 O :   -0.205426
  15 O :   -0.202147
  16 C :    0.010397
  17 C :   -0.022579
  18 C :    0.038726
  19 C :    0.047534
  20 C :   -0.032734
  21 C :    0.017555
  22 C :   -0.038238
  23 N :    0.286650
  24 O :   -0.204655
  25 O :   -0.215633
  26 C :    0.008690
  27 C :    0.008761
  28 C :   -0.010858
  29 C :    0.076802
  30 N :    0.001827
  31 C :    0.038473
  32 C :   -0.059018
  33 C :    0.080034
  34 O :   -0.187302
  35 C :   -0.103959
  36 C :   -0.113825
  37 C :    0.082996
  38 O :   -0.187606
  39 N :    0.006442
  40 C :    0.036825
  41 C :   -0.061362
  42 C :    0.072757
  43 C :    0.011700
  44 C :   -0.017880
  45 C :    0.017923
  46 C :   -0.048240
  47 C :   -0.048623
  48 O :   -0.107789
  49 S :    0.314083
  50 C :   -0.047039
  51 O :   -0.107776
  52 C :   -0.058810
  53 C :    0.036778
  54 C :   -0.051005
  55 C :   -0.042539
  56 C :    0.110112
  57 O :   -0.100636
  58 O :   -0.052853
  59 C :    0.112772
  60 O :   -0.098817
  61 C :   -0.060669
  62 C :    0.020396
  63 C :   -0.182760
  64 S :    0.463696
  65 C :   -0.179626
  66 C :   -0.070688
  67 C :   -0.041586
  68 C :   -0.040993
  69 C :    0.097321
  70 F :   -0.122018
  71 C :    0.092584
  72 F :   -0.122850
  73 C :   -0.033474
  74 H :    0.023797
  75 H :    0.038786
  76 H :    0.042277
  77 H :    0.017849
  78 H :    0.022062
  79 H :    0.035740
  80 H :    0.039879
  81 H :    0.037814
  82 H :    0.031110
  83 H :    0.035236
  84 H :    0.038835
  85 H :    0.041929
  86 H :    0.029167
  87 H :    0.037932
  88 H :    0.030153
  89 H :    0.030286
  90 H :    0.033703
  91 H :    0.023646
  92 H :    0.036941
  93 H :    0.026273
  94 H :    0.030296
  95 H :    0.034182
  96 H :    0.024400
  97 H :    0.045239
  98 H :    0.036603
  99 H :    0.033769
 100 H :    0.028266
 101 H :    0.026016
 102 H :    0.046501
 103 H :    0.045774
 104 H :    0.021225
 105 H :    0.020737
 106 H :    0.040577
 107 H :    0.039644

  Mayer bond orders larger than 0.100000
B(  0-C ,  1-S ) :   1.1678 B(  0-C ,  2-C ) :   0.1087 B(  0-C ,  4-C ) :   1.5919
B(  0-C , 74-H ) :   0.9696 B(  1-S ,  2-C ) :   1.1600 B(  2-C ,  3-C ) :   1.5913
B(  2-C , 11-C ) :   0.9913 B(  3-C ,  4-C ) :   1.2767 B(  3-C , 10-C ) :   1.0236
B(  4-C ,  5-C ) :   0.9905 B(  5-C ,  6-C ) :   1.0380 B(  5-C , 75-H ) :   0.9175
B(  5-C , 76-H ) :   0.9083 B(  6-C ,  7-F ) :   1.0277 B(  6-C ,  8-C ) :   1.0125
B(  6-C , 77-H ) :   0.9385 B(  8-C ,  9-F ) :   1.0268 B(  8-C , 10-C ) :   1.0314
B(  8-C , 78-H ) :   0.9372 B( 10-C , 79-H ) :   0.8970 B( 10-C , 80-H ) :   0.8999
B( 11-C , 12-C ) :   1.6686 B( 11-C , 18-C ) :   1.0731 B( 12-C , 13-N ) :   0.9207
B( 12-C , 16-C ) :   1.0986 B( 13-N , 14-O ) :   1.5302 B( 13-N , 15-O ) :   1.5307
B( 14-O , 15-O ) :   0.2760 B( 16-C , 17-C ) :   1.6371 B( 16-C , 81-H ) :   1.0124
B( 17-C , 18-C ) :   1.0791 B( 17-C , 82-H ) :   0.9964 B( 18-C , 19-C ) :   1.5486
B( 19-C , 20-C ) :   1.1128 B( 19-C , 26-C ) :   1.0012 B( 20-C , 21-C ) :   1.5708
B( 20-C , 83-H ) :   1.0088 B( 21-C , 22-C ) :   1.1343 B( 21-C , 84-H ) :   1.0094
B( 22-C , 23-N ) :   0.9545 B( 22-C , 26-C ) :   1.4825 B( 23-N , 24-O ) :   1.5420
B( 23-N , 25-O ) :   1.4633 B( 24-O , 25-O ) :   0.2535 B( 25-O , 86-H ) :   0.1018
B( 26-C , 27-C ) :   1.1743 B( 27-C , 28-C ) :   1.5473 B( 27-C , 85-H ) :   0.9376
B( 28-C , 29-C ) :   1.1691 B( 28-C , 86-H ) :   0.9459 B( 29-C , 30-N ) :   1.1763
B( 29-C , 36-C ) :   1.2845 B( 30-N , 31-C ) :   0.9354 B( 30-N , 33-C ) :   1.0380
B( 31-C , 32-C ) :   1.1246 B( 31-C , 87-H ) :   0.9285 B( 31-C , 88-H ) :   0.9478
B( 32-C , 89-H ) :   0.9636 B( 32-C , 90-H ) :   0.9677 B( 32-C , 91-H ) :   0.9677
B( 33-C , 34-O ) :   2.1386 B( 33-C , 35-C ) :   0.9680 B( 35-C , 36-C ) :   1.2753
B( 35-C , 42-C ) :   1.3298 B( 36-C , 37-C ) :   0.9846 B( 37-C , 38-O ) :   2.0169
B( 37-C , 39-N ) :   1.0610 B( 38-O , 85-H ) :   0.1069 B( 39-N , 40-C ) :   0.9316
B( 39-N , 42-C ) :   1.1841 B( 40-C , 41-C ) :   1.1208 B( 40-C , 92-H ) :   0.9271
B( 40-C , 93-H ) :   0.9486 B( 41-C , 94-H ) :   0.9596 B( 41-C , 95-H ) :   0.9681
B( 41-C , 96-H ) :   0.9635 B( 42-C , 43-C ) :   1.2140 B( 43-C , 44-C ) :   1.6187
B( 43-C , 97-H ) :   0.9365 B( 44-C , 45-C ) :   1.0966 B( 44-C , 98-H ) :   0.9516
B( 45-C , 46-C ) :   1.3389 B( 45-C , 55-C ) :   1.3400 B( 46-C , 47-C ) :   0.8415
B( 46-C , 52-C ) :   1.3368 B( 47-C , 48-O ) :   2.1863 B( 47-C , 49-S ) :   1.0310
B( 48-O , 49-S ) :   0.1065 B( 49-S , 50-C ) :   1.0279 B( 49-S , 51-O ) :   0.1045
B( 50-C , 51-O ) :   2.1869 B( 50-C , 52-C ) :   0.8432 B( 52-C , 53-C ) :   1.3151
B( 53-C , 54-C ) :   1.3172 B( 53-C , 61-C ) :   1.1381 B( 54-C , 55-C ) :   1.3551
B( 54-C , 59-C ) :   0.9191 B( 55-C , 56-C ) :   0.9113 B( 56-C , 57-O ) :   2.2248
B( 56-C , 58-O ) :   1.0650 B( 58-O , 59-C ) :   1.0505 B( 59-C , 60-O ) :   2.2217
B( 61-C , 62-C ) :   1.6683 B( 61-C , 99-H ) :   0.9410 B( 62-C , 63-C ) :   1.1778
B( 62-C ,100-H ) :   0.9375 B( 63-C , 64-S ) :   1.1384 B( 63-C , 67-C ) :   1.4881
B( 64-S , 65-C ) :   1.1898 B( 65-C , 66-C ) :   1.5449 B( 65-C ,101-H ) :   0.9714
B( 66-C , 67-C ) :   1.3182 B( 66-C , 73-C ) :   0.9919 B( 67-C , 68-C ) :   1.0283
B( 68-C , 69-C ) :   1.0115 B( 68-C ,102-H ) :   0.8996 B( 68-C ,103-H ) :   0.9003
B( 69-C , 70-F ) :   1.0312 B( 69-C , 71-C ) :   1.0199 B( 69-C ,104-H ) :   0.9323
B( 71-C , 72-F ) :   1.0317 B( 71-C , 73-C ) :   1.0354 B( 71-C ,105-H ) :   0.9422
B( 73-C ,106-H ) :   0.9089 B( 73-C ,107-H ) :   0.9196

-----------------------------------------------------------------------------
         ABSORPTION SPECTRUM VIA TRANSITION ELECTRIC DIPOLE MOMENTS
-----------------------------------------------------------------------------
State   Energy  Wavelength   fosc         T2         TX        TY        TZ
        (cm-1)    (nm)                  (au**2)     (au)      (au)      (au)
-----------------------------------------------------------------------------
   0    7788.6   1283.9   0.288681534  12.20214   1.49797   3.15558   0.02312
   1   14882.6    671.9   0.010435394   0.23084   0.23264   0.32340  -0.26856
   2   15853.1    630.8   0.048628280   1.00983  -0.01725  -0.95469  -0.31321
   3   17115.4    584.3   0.473991790   9.11715   1.97545   2.00631   1.09063
   4   17816.6    561.3   0.017539304   0.32409  -0.04724   0.38682  -0.41500
   5   18359.9    544.7   0.029079363   0.52142   0.35699   0.62028  -0.09612
   6   19395.7    515.6   0.002996533   0.05086   0.08707  -0.02309   0.20675
   7   20367.4    491.0   0.017442567   0.28194   0.35827  -0.37584   0.11101
   8   21547.4    464.1   0.270572333   4.13394  -0.94080  -1.65990   0.70254
   9   22590.9    442.7   0.011319913   0.16496   0.09766   0.30164  -0.25384
  10   23623.0    423.3   0.100627943   1.40236  -0.29912  -0.92295   0.67901
  11   24052.4    415.8   0.017642015   0.24147   0.20180  -0.17150   0.41393
  12   26386.4    379.0   0.277722907   3.46503   0.43147  -1.09135   1.44493
  13   26516.8    377.1   0.191047429   2.37189  -0.91934  -1.12721   0.50606
  14   27011.5    370.2   0.005846837   0.07126  -0.25021  -0.04503  -0.08140
  15   27441.2    364.4   0.003308164   0.03969  -0.14525  -0.02109  -0.13471
  16   28350.8    352.7   0.202732723   2.35415  -0.19002   1.03424  -1.11731
  17   28690.2    348.6   0.006340420   0.07275  -0.13179   0.23082  -0.04592
  18   28776.1    347.5   0.108251353   1.23845  -0.27534   0.76207  -0.76281
  19   29279.6    341.5   0.015176088   0.17064  -0.35403  -0.04263  -0.20851
  20   29914.3    334.3   0.084925310   0.93462  -0.42364  -0.81001  -0.31468
  21   30533.8    327.5   0.007097983   0.07653  -0.13023  -0.03872  -0.24098
  22   30878.5    323.8   0.472861129   5.04142  -1.91961  -0.79677  -0.84952
  23   31074.8    321.8   0.002519033   0.02669   0.11573   0.09973  -0.05787
  24   31501.5    317.4   0.021470948   0.22439  -0.41016  -0.23041  -0.05537
  25   31783.8    314.6   0.058902485   0.61010   0.61717   0.44702   0.17138
  26   31866.5    313.8   0.116546776   1.20404  -0.37857  -0.86714   0.55569
  27   32169.1    310.9   0.010778163   0.11030  -0.08677   0.31642   0.05151
  28   32287.3    309.7   0.024118849   0.24592  -0.10859   0.43992  -0.20149
  29   32352.6    309.1   0.002467862   0.02511   0.04919   0.04314   0.14433
  30   32431.5    308.3   0.028214502   0.28641  -0.28480   0.37853  -0.24902
  31   32759.6    305.3   0.000968275   0.00973  -0.07805  -0.05181  -0.03090
  32   32891.6    304.0   0.068653591   0.68715  -0.38407   0.45406  -0.57747
  33   33231.2    300.9   0.009976227   0.09883  -0.14294  -0.24619  -0.13337
  34   33500.8    298.5   0.003913547   0.03846  -0.07693  -0.10335  -0.14785
  35   33547.8    298.1   0.035228340   0.34570   0.42747   0.02321   0.40303
  36   33677.4    296.9   0.068404254   0.66868   0.43391  -0.39589   0.56893
  37   33880.9    295.2   0.001510658   0.01468  -0.10141  -0.03372  -0.05707
  38   34254.2    291.9   0.008257881   0.07937  -0.03591  -0.20741   0.18723
  39   34341.4    291.2   0.017883937   0.17144  -0.27368  -0.30501   0.05930
  40   34537.7    289.5   0.001358643   0.01295   0.09231   0.06488   0.01484
  41   34829.3    287.1   0.000896954   0.00848  -0.03792   0.06810  -0.04901
  42   35214.1    284.0   0.012310322   0.11509  -0.03432  -0.32074   0.10505
  43   35407.7    282.4   0.005632272   0.05237  -0.18488  -0.11307   0.07350
  44   35658.7    280.4   0.019005901   0.17547   0.36036   0.09129   0.19308
  45   35888.7    278.6   0.053390010   0.48975  -0.64515   0.26676  -0.04867
  46   36298.1    275.5   0.050000945   0.45349  -0.15520  -0.59095   0.28317
  47   36597.7    273.2   0.033772494   0.30380   0.36669   0.38927   0.13344
  48   37000.3    270.3   0.025360891   0.22565   0.22544  -0.21028   0.36140
  49   37082.7    269.7   0.025852377   0.22951   0.27100   0.19526   0.34343
  50   37421.4    267.2   0.013917295   0.12244   0.07322  -0.19197   0.28324
  51   37450.6    267.0   0.056205251   0.49408  -0.00221   0.50272  -0.49127
  52   37611.9    265.9   0.010761843   0.09420   0.24241   0.18823  -0.00262
  53   37852.3    264.2   0.000288989   0.00251   0.00785   0.00898  -0.04869
  54   37871.7    264.0   0.003096942   0.02692  -0.11582   0.03671  -0.11027
  55   37903.8    263.8   0.005153761   0.04476   0.17730   0.06238   0.09714
  56   38392.9    260.5   0.005912432   0.05070   0.16194  -0.05352   0.14700
  57   38456.9    260.0   0.072054656   0.61683   0.58565  -0.11857   0.50968
  58   39017.4    256.3   0.111828095   0.94356   0.75265  -0.14293   0.59720
  59   39822.9    251.1   0.031713232   0.26217  -0.02173   0.44847  -0.24612
  60   39904.1    250.6   0.055217139   0.45555  -0.24724  -0.59215   0.20924
  61   39992.3    250.0   0.013841908   0.11394   0.04379   0.29848  -0.15145
  62   40136.7    249.1   0.214274613   1.75754  -0.97602   0.27230  -0.85485
  63   40272.8    248.3   0.024432647   0.19973  -0.14148  -0.42385  -0.00784

FINAL SINGLE POINT ENERGY     -4637.704017866582

DIPOLE MOMENT
-------------
                                X             Y             Z
Electronic contribution:      6.09721      19.39226      12.25598
Nuclear contribution   :     -6.47259     -17.49122     -13.38239
                        -----------------------------------------
Total Dipole Moment    :     -0.37538       1.90104      -1.12640
                        -----------------------------------------
Magnitude (a.u.)       :      2.24135
Magnitude (Debye)      :      5.69705

Rotational constants in cm-1:     0.002103     0.000239     0.000224
Rotational constants in MHz :    63.034821     7.173828     6.723803

                             ****ORCA TERMINATED NORMALLY****
TOTAL RUN TIME: 0 days 0 hours 12 minutes 22 seconds 515 msec
