                         Program Version 4.2.0 -  RELEASE  -
|  1> # ORCA input file
|  2> # SCF done       -184.856734918894          0.000965199790
|  3> ! CAM-B3LYP def2-SVP def2/J RIJCOSX Grid4 TightSCF
|  4> %maxcore 5000
|  5> %tddft
|  6>     Mode sTDDFT
|  7>     Ethresh 5.0
|  8>     maxcore 5000
|  9> end
| 10>
| 11> %pal
| 12>   nprocs 6
| 13>   end
| 14> * xyz 0 1
| 15>    C        2.47424         2.32224        -6.06093
| 16>    C        1.51681         1.53892        -6.58979
| 17>    C        0.13844         1.80644        -6.28230
| 18>    C       -0.90539         1.03079        -6.76320
| 19>    C       -2.23736         1.32343        -6.42975
| 20>    N       -3.31968         1.57955        -6.14134
| 21>    C       -0.68662        -0.08515        -7.58582
| 22>    N       -0.50230        -0.99750        -8.25889
| 23>    C       -0.09355         2.93588        -5.44668
| 24>    C        0.95197         3.67294        -4.96991
| 25>    O        2.23229         3.34975        -5.23982
| 26>    C        0.75921         4.86230        -4.17488
| 27>    C        1.40068         6.08102        -4.30093
| 28>    N        2.37444         6.45045        -5.25424
| 29>    O        2.97090         7.49323        -5.06303
| 30>    O        2.54619         5.72230        -6.21528
| 31>    C        0.82952         7.01706        -3.36947
| 32>    C       -0.19079         6.40539        -2.72088
| 33>    C       -0.27252         5.03627        -3.16479
| 34>    C       -1.05698         4.04022        -2.60089
| 35>    C       -0.69581         2.67662        -2.41588
| 36>    C       -1.57537         2.09719        -1.54127
| 37>    C       -2.58086         3.04486        -1.19776
| 38>    N       -3.66418         2.74346        -0.35623
| 39>    O       -4.49890         3.61221        -0.14340
| 40>    O       -3.70176         1.62909         0.13184
| 41>    C       -2.32441         4.24766        -1.87253
| 42>    C       -3.19945         5.33336        -1.99997
| 43>    C       -3.13160         6.24325        -3.02819
| 44>    C       -3.91279         7.37590        -3.28178
| 45>    N       -4.94816         7.95701        -2.58552
| 46>    C       -5.51714         7.54803        -1.31943
| 47>    C       -4.61303         7.91175        -0.14576
| 48>    C       -5.42797         9.10307        -3.23317
| 49>    O       -6.33910         9.79065        -2.81093
| 50>    C       -4.61596         9.22679        -4.43107
| 51>    C       -3.70503         8.16851        -4.42692
| 52>    C       -2.86334         8.27282        -5.60346
| 53>    O       -1.93346         7.60358        -5.99348
| 54>    N       -3.35259         9.41643        -6.26744
| 55>    C       -2.80254         9.84082        -7.53376
| 56>    C       -3.66763         9.38959        -8.70746
| 57>    C       -4.39646         9.99733        -5.59379
| 58>    C       -5.09290        11.13998        -6.01571
| 59>    C       -6.11391        11.66187        -5.26442
| 60>    C       -6.88283        12.77837        -5.60042
| 61>    S       -6.69254        13.65663        -7.08529
| 62>    C       -7.95703        14.77175        -6.69940
| 63>    C       -8.51800        14.48611        -5.43904
| 64>    C       -7.91137        13.35068        -4.81835
| 65>    C       -8.34239        12.91230        -3.55795
| 66>    C       -9.35572        13.59337        -2.91993
| 67>    C       -9.80481        13.17715        -1.64375
| 68>    N      -10.16411        12.83631        -0.61130
| 69>    C       -9.96172        14.72839        -3.53381
| 70>    C      -10.99886        15.41653        -2.85891
| 71>    N      -11.83803        15.99080        -2.33238
| 72>    C       -9.55211        15.16635        -4.77296
| 73>    C       -8.29724        15.79571        -7.63451
| 74>    C       -7.67867        15.92827        -8.84888
| 75>    C       -8.05267        16.95286        -9.76133
| 76>    C       -7.44215        17.09439       -10.99398
| 77>    C       -7.81493        18.10504       -11.89573
| 78>    N       -8.12521        18.93360       -12.62749
| 79>    C       -6.41617        16.22573       -11.40251
| 80>    N       -5.57985        15.50190       -11.71119
| 81>    C       -9.10977        17.82383        -9.31011
| 82>    C       -9.65777        17.62267        -8.10400
| 83>    O       -9.29112        16.64342        -7.25316
| 84>    H        3.53010         2.19230        -6.24433
| 85>    H        1.77042         0.72156        -7.24420
| 86>    H       -1.10551         3.23164        -5.22185
| 87>    H        1.17878         8.02486        -3.25527
| 88>    H       -0.78753         6.82016        -1.93251
| 89>    H        0.19851         2.22297        -2.79616
| 90>    H       -1.54331         1.09577        -1.15494
| 91>    H       -4.00872         5.36029        -1.28516
| 92>    H       -2.39356         6.07952        -3.80370
| 93>    H       -5.73044         6.47745        -1.33973
| 94>    H       -6.46426         8.08746        -1.22914
| 95>    H       -3.63139         7.45511        -0.24662
| 96>    H       -5.06355         7.56248         0.77833
| 97>    H       -4.49021         8.99073        -0.08781
| 98>    H       -1.81545         9.37646        -7.60649
| 99>    H       -2.68221        10.92736        -7.53185
|100>    H       -3.74059         8.30503        -8.72075
|101>    H       -3.21781         9.71782        -9.63986
|102>    H       -4.67105         9.80388        -8.63836
|103>    H       -4.81547        11.61212        -6.94782
|104>    H       -6.36159        11.17640        -4.32977
|105>    H       -7.89151        12.05245        -3.08655
|106>    H      -10.02400        16.02558        -5.21898
|107>    H       -6.89386        15.24120        -9.12602
|108>    H       -9.44942        18.62530        -9.94437
|109>    H      -10.45159        18.22692        -7.69154
|110> *
|111>
|112>                          ****END OF INPUT****

CARTESIAN COORDINATES (ANGSTROEM)
---------------------------------
  C      2.474240    2.322240   -6.060930
  C      1.516810    1.538920   -6.589790
  C      0.138440    1.806440   -6.282300
  C     -0.905390    1.030790   -6.763200
  C     -2.237360    1.323430   -6.429750
  N     -3.319680    1.579550   -6.141340
  C     -0.686620   -0.085150   -7.585820
  N     -0.502300   -0.997500   -8.258890
  C     -0.093550    2.935880   -5.446680
  C      0.951970    3.672940   -4.969910
  O      2.232290    3.349750   -5.239820
  C      0.759210    4.862300   -4.174880
  C      1.400680    6.081020   -4.300930
  N      2.374440    6.450450   -5.254240
  O      2.970900    7.493230   -5.063030
  O      2.546190    5.722300   -6.215280
  C      0.829520    7.017060   -3.369470
  C     -0.190790    6.405390   -2.720880
  C     -0.272520    5.036270   -3.164790
  C     -1.056980    4.040220   -2.600890
  C     -0.695810    2.676620   -2.415880
  C     -1.575370    2.097190   -1.541270
  C     -2.580860    3.044860   -1.197760
  N     -3.664180    2.743460   -0.356230
  O     -4.498900    3.612210   -0.143400
  O     -3.701760    1.629090    0.131840
  C     -2.324410    4.247660   -1.872530
  C     -3.199450    5.333360   -1.999970
  C     -3.131600    6.243250   -3.028190
  C     -3.912790    7.375900   -3.281780
  N     -4.948160    7.957010   -2.585520
  C     -5.517140    7.548030   -1.319430
  C     -4.613030    7.911750   -0.145760
  C     -5.427970    9.103070   -3.233170
  O     -6.339100    9.790650   -2.810930
  C     -4.615960    9.226790   -4.431070
  C     -3.705030    8.168510   -4.426920
  C     -2.863340    8.272820   -5.603460
  O     -1.933460    7.603580   -5.993480
  N     -3.352590    9.416430   -6.267440
  C     -2.802540    9.840820   -7.533760
  C     -3.667630    9.389590   -8.707460
  C     -4.396460    9.997330   -5.593790
  C     -5.092900   11.139980   -6.015710
  C     -6.113910   11.661870   -5.264420
  C     -6.882830   12.778370   -5.600420
  S     -6.692540   13.656630   -7.085290
  C     -7.957030   14.771750   -6.699400
  C     -8.518000   14.486110   -5.439040
  C     -7.911370   13.350680   -4.818350
  C     -8.342390   12.912300   -3.557950
  C     -9.355720   13.593370   -2.919930
  C     -9.804810   13.177150   -1.643750
  N    -10.164110   12.836310   -0.611300
  C     -9.961720   14.728390   -3.533810
  C    -10.998860   15.416530   -2.858910
  N    -11.838030   15.990800   -2.332380
  C     -9.552110   15.166350   -4.772960
  C     -8.297240   15.795710   -7.634510
  C     -7.678670   15.928270   -8.848880
  C     -8.052670   16.952860   -9.761330
  C     -7.442150   17.094390  -10.993980
  C     -7.814930   18.105040  -11.895730
  N     -8.125210   18.933600  -12.627490
  C     -6.416170   16.225730  -11.402510
  N     -5.579850   15.501900  -11.711190
  C     -9.109770   17.823830   -9.310110
  C     -9.657770   17.622670   -8.104000
  O     -9.291120   16.643420   -7.253160
  H      3.530100    2.192300   -6.244330
  H      1.770420    0.721560   -7.244200
  H     -1.105510    3.231640   -5.221850
  H      1.178780    8.024860   -3.255270
  H     -0.787530    6.820160   -1.932510
  H      0.198510    2.222970   -2.796160
  H     -1.543310    1.095770   -1.154940
  H     -4.008720    5.360290   -1.285160
  H     -2.393560    6.079520   -3.803700
  H     -5.730440    6.477450   -1.339730
  H     -6.464260    8.087460   -1.229140
  H     -3.631390    7.455110   -0.246620
  H     -5.063550    7.562480    0.778330
  H     -4.490210    8.990730   -0.087810
  H     -1.815450    9.376460   -7.606490
  H     -2.682210   10.927360   -7.531850
  H     -3.740590    8.305030   -8.720750
  H     -3.217810    9.717820   -9.639860
  H     -4.671050    9.803880   -8.638360
  H     -4.815470   11.612120   -6.947820
  H     -6.361590   11.176400   -4.329770
  H     -7.891510   12.052450   -3.086550
  H    -10.024000   16.025580   -5.218980
  H     -6.893860   15.241200   -9.126020
  H     -9.449420   18.625300   -9.944370
  H    -10.451590   18.226920   -7.691540

 Total Charge           Charge          ....    0
 Multiplicity           Mult            ....    1
 Number of Electrons    NEL             ....  476
 Basis Dimension        Dim             .... 1100

ORBITAL ENERGIES
----------------

  NO   OCC          E(Eh)            E(eV)
   0   2.0000     -89.027585     -2422.5638
   1   2.0000     -19.351102      -526.5702
   2   2.0000     -19.328083      -525.9439
   3   2.0000     -19.252687      -523.8923
   4   2.0000     -19.251498      -523.8599
   5   2.0000     -19.243179      -523.6335
   6   2.0000     -19.242091      -523.6039
   7   2.0000     -19.229019      -523.2482
   8   2.0000     -19.222397      -523.0680
   9   2.0000     -14.660516      -398.9329
  10   2.0000     -14.652681      -398.7197
  11   2.0000     -14.487999      -394.2385
  12   2.0000     -14.481830      -394.0706
  13   2.0000     -14.430749      -392.6806
  14   2.0000     -14.428171      -392.6105
  15   2.0000     -14.417470      -392.3193
  16   2.0000     -14.414590      -392.2409
  17   2.0000     -14.401397      -391.8819
  18   2.0000     -14.399738      -391.8368
  19   2.0000     -10.418550      -283.5031
  20   2.0000     -10.410167      -283.2750
  21   2.0000     -10.405496      -283.1479
  22   2.0000     -10.398334      -282.9531
  23   2.0000     -10.394903      -282.8597
  24   2.0000     -10.381374      -282.4915
  25   2.0000     -10.380087      -282.4565
  26   2.0000     -10.371088      -282.2117
  27   2.0000     -10.364606      -282.0353
  28   2.0000     -10.363909      -282.0163
  29   2.0000     -10.359162      -281.8871
  30   2.0000     -10.358769      -281.8764
  31   2.0000     -10.357812      -281.8504
  32   2.0000     -10.352034      -281.6932
  33   2.0000     -10.348873      -281.6071
  34   2.0000     -10.348170      -281.5880
  35   2.0000     -10.344229      -281.4808
  36   2.0000     -10.342931      -281.4455
  37   2.0000     -10.342265      -281.4273
  38   2.0000     -10.340609      -281.3823
  39   2.0000     -10.338522      -281.3255
  40   2.0000     -10.338178      -281.3161
  41   2.0000     -10.337948      -281.3099
  42   2.0000     -10.336636      -281.2742
  43   2.0000     -10.336239      -281.2634
  44   2.0000     -10.334639      -281.2198
  45   2.0000     -10.334162      -281.2068
  46   2.0000     -10.332707      -281.1672
  47   2.0000     -10.331791      -281.1423
  48   2.0000     -10.328161      -281.0435
  49   2.0000     -10.328145      -281.0431
  50   2.0000     -10.325858      -280.9809
  51   2.0000     -10.325409      -280.9687
  52   2.0000     -10.324476      -280.9433
  53   2.0000     -10.322610      -280.8925
  54   2.0000     -10.320561      -280.8367
  55   2.0000     -10.319698      -280.8133
  56   2.0000     -10.317491      -280.7532
  57   2.0000     -10.316283      -280.7203
  58   2.0000     -10.314217      -280.6641
  59   2.0000     -10.309821      -280.5445
  60   2.0000     -10.306192      -280.4457
  61   2.0000     -10.305266      -280.4205
  62   2.0000     -10.304104      -280.3889
  63   2.0000     -10.303347      -280.3683
  64   2.0000     -10.301974      -280.3310
  65   2.0000     -10.299323      -280.2588
  66   2.0000     -10.297362      -280.2055
  67   2.0000     -10.285244      -279.8757
  68   2.0000     -10.278040      -279.6797
  69   2.0000      -8.121980      -221.0103
  70   2.0000      -6.090949      -165.7431
  71   2.0000      -6.086843      -165.6314
  72   2.0000      -6.084854      -165.5773
  73   2.0000      -1.332048       -36.2469
  74   2.0000      -1.321954       -35.9722
  75   2.0000      -1.260311       -34.2948
  76   2.0000      -1.243378       -33.8340
  77   2.0000      -1.167830       -31.7783
  78   2.0000      -1.159135       -31.5417
  79   2.0000      -1.149525       -31.2802
  80   2.0000      -1.139257       -31.0008
  81   2.0000      -1.098300       -29.8863
  82   2.0000      -1.085360       -29.5341
  83   2.0000      -1.059255       -28.8238
  84   2.0000      -1.034573       -28.1522
  85   2.0000      -1.026791       -27.9404
  86   2.0000      -1.017631       -27.6911
  87   2.0000      -1.012991       -27.5649
  88   2.0000      -1.009405       -27.4673
  89   2.0000      -1.001519       -27.2527
  90   2.0000      -0.995019       -27.0758
  91   2.0000      -0.990928       -26.9645
  92   2.0000      -0.980781       -26.6884
  93   2.0000      -0.979791       -26.6615
  94   2.0000      -0.971868       -26.4459
  95   2.0000      -0.963536       -26.2191
  96   2.0000      -0.958872       -26.0922
  97   2.0000      -0.940910       -25.6035
  98   2.0000      -0.936319       -25.4785
  99   2.0000      -0.931945       -25.3595
 100   2.0000      -0.923358       -25.1259
 101   2.0000      -0.916368       -24.9356
 102   2.0000      -0.907511       -24.6946
 103   2.0000      -0.898769       -24.4568
 104   2.0000      -0.894626       -24.3440
 105   2.0000      -0.892847       -24.2956
 106   2.0000      -0.880113       -23.9491
 107   2.0000      -0.873512       -23.7695
 108   2.0000      -0.863913       -23.5083
 109   2.0000      -0.845218       -22.9996
 110   2.0000      -0.844615       -22.9831
 111   2.0000      -0.830390       -22.5961
 112   2.0000      -0.818680       -22.2774
 113   2.0000      -0.807207       -21.9652
 114   2.0000      -0.794176       -21.6106
 115   2.0000      -0.791783       -21.5455
 116   2.0000      -0.787340       -21.4246
 117   2.0000      -0.784266       -21.3410
 118   2.0000      -0.783222       -21.3125
 119   2.0000      -0.756929       -20.5971
 120   2.0000      -0.754059       -20.5190
 121   2.0000      -0.745695       -20.2914
 122   2.0000      -0.744420       -20.2567
 123   2.0000      -0.734887       -19.9973
 124   2.0000      -0.722101       -19.6494
 125   2.0000      -0.721524       -19.6337
 126   2.0000      -0.702482       -19.1155
 127   2.0000      -0.695745       -18.9322
 128   2.0000      -0.693636       -18.8748
 129   2.0000      -0.686874       -18.6908
 130   2.0000      -0.683912       -18.6102
 131   2.0000      -0.682122       -18.5615
 132   2.0000      -0.676987       -18.4218
 133   2.0000      -0.663742       -18.0613
 134   2.0000      -0.661814       -18.0089
 135   2.0000      -0.650581       -17.7032
 136   2.0000      -0.648427       -17.6446
 137   2.0000      -0.642930       -17.4950
 138   2.0000      -0.640685       -17.4339
 139   2.0000      -0.635258       -17.2863
 140   2.0000      -0.633683       -17.2434
 141   2.0000      -0.631398       -17.1812
 142   2.0000      -0.628613       -17.1054
 143   2.0000      -0.626022       -17.0349
 144   2.0000      -0.617582       -16.8053
 145   2.0000      -0.614439       -16.7197
 146   2.0000      -0.611938       -16.6517
 147   2.0000      -0.609943       -16.5974
 148   2.0000      -0.605438       -16.4748
 149   2.0000      -0.600860       -16.3502
 150   2.0000      -0.599192       -16.3049
 151   2.0000      -0.598223       -16.2785
 152   2.0000      -0.594210       -16.1693
 153   2.0000      -0.594092       -16.1661
 154   2.0000      -0.589181       -16.0324
 155   2.0000      -0.586969       -15.9722
 156   2.0000      -0.582411       -15.8482
 157   2.0000      -0.581880       -15.8337
 158   2.0000      -0.572291       -15.5728
 159   2.0000      -0.571583       -15.5536
 160   2.0000      -0.564093       -15.3498
 161   2.0000      -0.562614       -15.3095
 162   2.0000      -0.559554       -15.2262
 163   2.0000      -0.557664       -15.1748
 164   2.0000      -0.556232       -15.1359
 165   2.0000      -0.554257       -15.0821
 166   2.0000      -0.551740       -15.0136
 167   2.0000      -0.545381       -14.8406
 168   2.0000      -0.538030       -14.6406
 169   2.0000      -0.536275       -14.5928
 170   2.0000      -0.535815       -14.5803
 171   2.0000      -0.529456       -14.4072
 172   2.0000      -0.529149       -14.3989
 173   2.0000      -0.517268       -14.0756
 174   2.0000      -0.516731       -14.0610
 175   2.0000      -0.514450       -13.9989
 176   2.0000      -0.513921       -13.9845
 177   2.0000      -0.510390       -13.8884
 178   2.0000      -0.507546       -13.8110
 179   2.0000      -0.502140       -13.6639
 180   2.0000      -0.500570       -13.6212
 181   2.0000      -0.496933       -13.5222
 182   2.0000      -0.496067       -13.4987
 183   2.0000      -0.495452       -13.4819
 184   2.0000      -0.492283       -13.3957
 185   2.0000      -0.486268       -13.2320
 186   2.0000      -0.484817       -13.1925
 187   2.0000      -0.482696       -13.1348
 188   2.0000      -0.481131       -13.0923
 189   2.0000      -0.478941       -13.0327
 190   2.0000      -0.476006       -12.9528
 191   2.0000      -0.472389       -12.8543
 192   2.0000      -0.470820       -12.8117
 193   2.0000      -0.467194       -12.7130
 194   2.0000      -0.464109       -12.6290
 195   2.0000      -0.463194       -12.6042
 196   2.0000      -0.456431       -12.4201
 197   2.0000      -0.455859       -12.4046
 198   2.0000      -0.453431       -12.3385
 199   2.0000      -0.452893       -12.3239
 200   2.0000      -0.450386       -12.2556
 201   2.0000      -0.446242       -12.1429
 202   2.0000      -0.445440       -12.1210
 203   2.0000      -0.441259       -12.0073
 204   2.0000      -0.437191       -11.8966
 205   2.0000      -0.436722       -11.8838
 206   2.0000      -0.435820       -11.8593
 207   2.0000      -0.434001       -11.8098
 208   2.0000      -0.433006       -11.7827
 209   2.0000      -0.431339       -11.7373
 210   2.0000      -0.429983       -11.7004
 211   2.0000      -0.429279       -11.6813
 212   2.0000      -0.420249       -11.4356
 213   2.0000      -0.417766       -11.3680
 214   2.0000      -0.417181       -11.3521
 215   2.0000      -0.415409       -11.3039
 216   2.0000      -0.404715       -11.0129
 217   2.0000      -0.402512       -10.9529
 218   2.0000      -0.400489       -10.8979
 219   2.0000      -0.395622       -10.7654
 220   2.0000      -0.390665       -10.6305
 221   2.0000      -0.389339       -10.5944
 222   2.0000      -0.387048       -10.5321
 223   2.0000      -0.382309       -10.4032
 224   2.0000      -0.381295       -10.3756
 225   2.0000      -0.379458       -10.3256
 226   2.0000      -0.377784       -10.2800
 227   2.0000      -0.370163       -10.0727
 228   2.0000      -0.365434        -9.9440
 229   2.0000      -0.362651        -9.8682
 230   2.0000      -0.351181        -9.5561
 231   2.0000      -0.348975        -9.4961
 232   2.0000      -0.331226        -9.0131
 233   2.0000      -0.323497        -8.8028
 234   2.0000      -0.315302        -8.5798
 235   2.0000      -0.295569        -8.0428
 236   2.0000      -0.283326        -7.7097
 237   2.0000      -0.256263        -6.9733
 238   0.0000      -0.160681        -4.3723
 239   0.0000      -0.133565        -3.6345
 240   0.0000      -0.094952        -2.5838
 241   0.0000      -0.070866        -1.9284
 242   0.0000      -0.062446        -1.6992

MULLIKEN ATOMIC CHARGES
-----------------------
   0 C :    0.198202
   1 C :   -0.066965
   2 C :    0.219265
   3 C :   -0.323226
   4 C :   -0.175246
   5 N :    0.122815
   6 C :   -0.183731
   7 N :    0.132739
   8 C :   -0.102002
   9 C :    0.091534
  10 O :   -0.172191
  11 C :    0.072727
  12 C :    0.109674
  13 N :    0.262647
  14 O :   -0.237712
  15 O :   -0.237928
  16 C :    0.016338
  17 C :    0.013301
  18 C :    0.011566
  19 C :    0.008044
  20 C :    0.008935
  21 C :    0.035144
  22 C :    0.087072
  23 N :    0.277232
  24 O :   -0.263721
  25 O :   -0.242779
  26 C :    0.041174
  27 C :   -0.030440
  28 C :   -0.049410
  29 C :    0.123277
  30 N :   -0.253312
  31 C :    0.094370
  32 C :    0.002217
  33 C :    0.177492
  34 O :   -0.223115
  35 C :   -0.074340
  36 C :   -0.031354
  37 C :    0.163080
  38 O :   -0.170942
  39 N :   -0.259007
  40 C :    0.091658
  41 C :    0.001232
  42 C :    0.161857
  43 C :   -0.033714
  44 C :    0.006726
  45 C :   -0.062191
  46 S :    0.191971
  47 C :   -0.116799
  48 C :    0.124323
  49 C :    0.118652
  50 C :   -0.047145
  51 C :   -0.068952
  52 C :   -0.171097
  53 N :    0.193248
  54 C :   -0.055608
  55 C :   -0.176778
  56 N :    0.188124
  57 C :   -0.049949
  58 C :    0.231764
  59 C :   -0.166988
  60 C :    0.242872
  61 C :   -0.319649
  62 C :   -0.180123
  63 N :    0.140141
  64 C :   -0.169917
  65 N :    0.125961
  66 C :   -0.062609
  67 C :    0.200264
  68 O :   -0.227860
  69 H :    0.043599
  70 H :    0.038298
  71 H :    0.039778
  72 H :    0.001571
  73 H :    0.001701
  74 H :   -0.001635
  75 H :    0.014607
  76 H :    0.021190
  77 H :    0.038059
  78 H :    0.049136
  79 H :    0.048050
  80 H :    0.016041
  81 H :    0.037926
  82 H :    0.025763
  83 H :    0.052567
  84 H :    0.029920
  85 H :    0.038325
  86 H :    0.037294
  87 H :    0.014375
  88 H :   -0.013284
  89 H :    0.025947
  90 H :    0.024402
  91 H :    0.005663
  92 H :    0.038893
  93 H :    0.044283
  94 H :    0.046688
Sum of atomic charges:   -0.0000000

LOEWDIN ATOMIC CHARGES
----------------------
   0 C :    0.109158
   1 C :   -0.052346
   2 C :    0.054247
   3 C :   -0.176716
   4 C :   -0.028419
   5 N :   -0.073614
   6 C :   -0.031414
   7 N :   -0.066004
   8 C :   -0.030045
   9 C :    0.078889
  10 O :    0.028344
  11 C :   -0.031821
  12 C :   -0.004508
  13 N :    0.282684
  14 O :   -0.201593
  15 O :   -0.205070
  16 C :   -0.003958
  17 C :   -0.022591
  18 C :    0.024831
  19 C :    0.056201
  20 C :   -0.050574
  21 C :    0.045321
  22 C :   -0.058822
  23 N :    0.286929
  24 O :   -0.229055
  25 O :   -0.207288
  26 C :    0.014492
  27 C :   -0.002969
  28 C :    0.001822
  29 C :    0.055088
  30 N :    0.006342
  31 C :    0.038973
  32 C :   -0.059806
  33 C :    0.083921
  34 O :   -0.206610
  35 C :   -0.120192
  36 C :   -0.078188
  37 C :    0.086598
  38 O :   -0.169470
  39 N :    0.002011
  40 C :    0.037770
  41 C :   -0.058728
  42 C :    0.092827
  43 C :   -0.046442
  44 C :    0.021311
  45 C :   -0.158728
  46 S :    0.528211
  47 C :   -0.177746
  48 C :   -0.028392
  49 C :   -0.026306
  50 C :    0.040114
  51 C :   -0.042429
  52 C :   -0.032476
  53 N :   -0.019191
  54 C :   -0.041204
  55 C :   -0.032506
  56 N :   -0.022114
  57 C :    0.029046
  58 C :    0.068163
  59 C :   -0.047698
  60 C :    0.051493
  61 C :   -0.166840
  62 C :   -0.031923
  63 N :   -0.055969
  64 C :   -0.028249
  65 N :   -0.064809
  66 C :   -0.044914
  67 C :    0.105005
  68 O :    0.001521
  69 H :    0.042948
  70 H :    0.053117
  71 H :    0.048408
  72 H :    0.038595
  73 H :    0.032032
  74 H :    0.030301
  75 H :    0.044002
  76 H :    0.037533
  77 H :    0.048429
  78 H :    0.031223
  79 H :    0.040096
  80 H :    0.020397
  81 H :    0.038480
  82 H :    0.030898
  83 H :    0.041875
  84 H :    0.025947
  85 H :    0.035642
  86 H :    0.036969
  87 H :    0.021415
  88 H :    0.027522
  89 H :    0.044842
  90 H :    0.054032
  91 H :    0.041964
  92 H :    0.039641
  93 H :    0.056340
  94 H :    0.043778

  Mayer bond orders larger than 0.100000
B(  0-C ,  1-C ) :   1.6603 B(  0-C , 10-O ) :   1.1240 B(  0-C , 69-H ) :   0.9764
B(  1-C ,  2-C ) :   1.1456 B(  1-C , 70-H ) :   0.9620 B(  2-C ,  3-C ) :   1.5616
B(  2-C ,  8-C ) :   1.1413 B(  3-C ,  4-C ) :   1.1395 B(  3-C ,  6-C ) :   1.1308
B(  4-C ,  5-N ) :   2.9998 B(  6-C ,  7-N ) :   3.0147 B(  8-C ,  9-C ) :   1.5795
B(  8-C , 71-H ) :   0.9607 B(  9-C , 10-O ) :   1.1676 B(  9-C , 11-C ) :   0.9735
B( 11-C , 12-C ) :   1.5606 B( 11-C , 18-C ) :   1.1178 B( 12-C , 13-N ) :   0.9229
B( 12-C , 16-C ) :   1.1456 B( 13-N , 14-O ) :   1.5289 B( 13-N , 15-O ) :   1.5263
B( 14-O , 15-O ) :   0.2770 B( 16-C , 17-C ) :   1.5789 B( 16-C , 72-H ) :   1.0143
B( 17-C , 18-C ) :   1.1320 B( 17-C , 73-H ) :   0.9978 B( 18-C , 19-C ) :   1.4218
B( 19-C , 20-C ) :   1.2049 B( 19-C , 26-C ) :   0.9910 B( 20-C , 21-C ) :   1.5042
B( 20-C , 74-H ) :   1.0018 B( 21-C , 22-C ) :   1.1709 B( 21-C , 75-H ) :   1.0085
B( 22-C , 23-N ) :   0.9610 B( 22-C , 26-C ) :   1.4281 B( 23-N , 24-O ) :   1.4818
B( 23-N , 25-O ) :   1.5371 B( 24-O , 25-O ) :   0.2537 B( 26-C , 27-C ) :   1.2690
B( 27-C , 28-C ) :   1.3954 B( 27-C , 76-H ) :   0.9518 B( 28-C , 29-C ) :   1.2772
B( 28-C , 77-H ) :   0.9278 B( 29-C , 30-N ) :   1.1561 B( 29-C , 36-C ) :   1.2885
B( 30-N , 31-C ) :   0.9265 B( 30-N , 33-C ) :   1.0925 B( 31-C , 32-C ) :   1.1184
B( 31-C , 78-H ) :   0.9510 B( 31-C , 79-H ) :   0.9251 B( 32-C , 80-H ) :   0.9685
B( 32-C , 81-H ) :   0.9676 B( 32-C , 82-H ) :   0.9621 B( 33-C , 34-O ) :   1.9759
B( 33-C , 35-C ) :   0.9924 B( 34-O , 89-H ) :   0.1163 B( 35-C , 36-C ) :   1.3189
B( 35-C , 42-C ) :   1.2517 B( 36-C , 37-C ) :   0.9615 B( 37-C , 38-O ) :   2.1332
B( 37-C , 39-N ) :   1.0325 B( 39-N , 40-C ) :   0.9336 B( 39-N , 42-C ) :   1.1855
B( 40-C , 41-C ) :   1.1193 B( 40-C , 83-H ) :   0.9290 B( 40-C , 84-H ) :   0.9507
B( 41-C , 85-H ) :   0.9638 B( 41-C , 86-H ) :   0.9683 B( 41-C , 87-H ) :   0.9688
B( 42-C , 43-C ) :   1.2143 B( 43-C , 44-C ) :   1.5042 B( 43-C , 88-H ) :   0.9685
B( 44-C , 45-C ) :   1.2367 B( 44-C , 89-H ) :   0.9386 B( 45-C , 46-S ) :   1.1347
B( 45-C , 47-C ) :   0.1081 B( 45-C , 49-C ) :   1.2691 B( 46-S , 47-C ) :   1.1805
B( 47-C , 48-C ) :   1.2990 B( 47-C , 58-C ) :   1.1322 B( 48-C , 49-C ) :   1.2056
B( 48-C , 57-C ) :   1.2055 B( 49-C , 50-C ) :   1.2203 B( 50-C , 51-C ) :   1.5419
B( 50-C , 90-H ) :   0.9933 B( 51-C , 52-C ) :   1.0855 B( 51-C , 54-C ) :   1.2527
B( 52-C , 53-N ) :   3.0433 B( 54-C , 55-C ) :   1.0789 B( 54-C , 57-C ) :   1.5396
B( 55-C , 56-N ) :   3.0486 B( 57-C , 91-H ) :   0.9999 B( 58-C , 59-C ) :   1.5171
B( 58-C , 68-O ) :   1.1316 B( 59-C , 60-C ) :   1.1514 B( 59-C , 92-H ) :   0.9567
B( 60-C , 61-C ) :   1.5730 B( 60-C , 66-C ) :   1.1208 B( 61-C , 62-C ) :   1.1266
B( 61-C , 64-C ) :   1.1322 B( 62-C , 63-N ) :   3.0142 B( 64-C , 65-N ) :   2.9980
B( 66-C , 67-C ) :   1.6995 B( 66-C , 93-H ) :   0.9615 B( 67-C , 68-O ) :   1.0816
B( 67-C , 94-H ) :   0.9715

-----------------------------------------------------------------------------
         ABSORPTION SPECTRUM VIA TRANSITION ELECTRIC DIPOLE MOMENTS
-----------------------------------------------------------------------------
State   Energy  Wavelength   fosc         T2         TX        TY        TZ
        (cm-1)    (nm)                  (au**2)     (au)      (au)      (au)
-----------------------------------------------------------------------------
   0    5412.5   1847.6   0.289313867  17.59739  -2.21620   3.37164  -1.14799
   1   10851.9    921.5   0.083262404   2.52592  -0.75219   0.49313  -1.31032
   2   12337.2    810.6   0.379144757  10.11726   0.66787  -2.59582   1.71259
   3   15780.2    633.7   0.080457289   1.67853   0.22981  -1.15070   0.54918
   4   17166.1    582.5   0.183204817   3.51351   0.62660  -1.42818   1.03980
   5   18291.5    546.7   0.007433041   0.13378   0.26365  -0.17331   0.18502
   6   19913.4    502.2   0.014305854   0.23651   0.33097  -0.26997   0.23256
   7   20896.1    478.6   0.023574679   0.37141   0.24883   0.51635   0.20707
   8   22059.0    453.3   0.191929674   2.86439  -1.21149   1.08793   0.46163
   9   22835.6    437.9   0.012669417   0.18265  -0.05218  -0.19647   0.37594
  10   23352.5    428.2   0.066284187   0.93444  -0.16449  -0.36562   0.87960
  11   24237.9    412.6   0.077157031   1.04799  -0.87696   0.24460   0.46808
  12   24737.5    404.2   0.034287595   0.45631   0.56093  -0.35593  -0.12238
  13   25738.0    388.5   0.009823281   0.12565   0.02602  -0.03336  -0.35194
  14   25910.0    386.0   0.047589984   0.60468   0.04345  -0.22202  -0.74397
  15   26176.8    382.0   0.188998086   2.37693  -0.33173  -0.82971   1.25637
  16   26887.6    371.9   0.018333456   0.22447   0.11120  -0.19952   0.41509
  17   27930.2    358.0   0.004261621   0.05023  -0.01377   0.06769   0.21321
  18   28056.1    356.4   0.085669053   1.00525   0.47795   0.88091   0.02840
  19   28180.1    354.9   0.241426213   2.82045   0.77528   0.56268  -1.37941
  20   28724.3    348.1   0.072290276   0.82853   0.54007   0.24254  -0.69139
  21   28979.3    345.1   0.080135099   0.91035   0.44468  -0.77688   0.33027
  22   29372.3    340.5   0.040569427   0.45471   0.46243   0.49054  -0.01539
  23   29673.6    337.0   0.020375945   0.22606   0.18552   0.43533   0.04617
  24   29920.6    334.2   0.009154652   0.10073  -0.20563  -0.20465  -0.12868
  25   30021.6    333.1   0.054308305   0.59554  -0.39175   0.49020   0.44919
  26   30553.7    327.3   0.226628353   2.44189   0.55791   0.89768  -1.15100
  27   30822.2    324.4   0.036175102   0.38639   0.26608  -0.56100   0.02947
  28   31309.1    319.4   0.621654674   6.53664  -1.57947  -0.09735   2.00809
  29   31988.5    312.6   0.171993286   1.77008  -0.56805  -1.17675   0.25032
  30   32371.0    308.9   0.136932544   1.39260  -0.51295  -0.95618  -0.46390
  31   32541.9    307.3   0.036453109   0.36878  -0.58199   0.17324   0.00725
  32   32655.7    306.2   0.050837127   0.51250   0.42347   0.56967   0.09301
  33   32833.4    304.6   0.070842348   0.71032  -0.73040   0.16377  -0.38732
  34   33309.9    300.2   0.024063334   0.23783   0.17783   0.26002   0.37228
  35   33519.0    298.3   0.073978071   0.72659  -0.27536  -0.77247  -0.23249
  36   33809.8    295.8   0.107471729   1.04647   0.32506  -0.96782  -0.06436
  37   33923.0    294.8   0.101430155   0.98435   0.59397   0.65241  -0.45377
  38   34227.0    292.2   0.142482405   1.37046  -0.50453  -1.01292   0.29986
  39   34941.3    286.2   0.057989393   0.54637   0.45707  -0.51513  -0.26849
  40   35278.5    283.5   0.166473483   1.55350   0.34509   0.39710  -1.12992
  41   35623.2    280.7   0.063207717   0.58413   0.25982   0.71573   0.06601
  42   35690.1    280.2   0.212912403   1.96395  -0.61012  -1.25139  -0.16038
  43   36005.4    277.7   0.008788644   0.08036  -0.00326  -0.25827  -0.11680
  44   36305.3    275.4   0.009766360   0.08856   0.16345  -0.19026  -0.16014
  45   36620.8    273.1   0.139111276   1.25058   0.56651   0.44692   0.85435
  46   37056.6    269.9   0.365987037   3.25144   0.59028   0.06403  -1.70262
  47   37161.6    269.1   0.083595736   0.74057   0.71655   0.33453  -0.33943
  48   37266.3    268.3   0.054086261   0.47780  -0.36656  -0.02712   0.58540
  49   37373.0    267.6   0.079062556   0.69645  -0.74834  -0.16631   0.32980
  50   37879.2    264.0   0.049027929   0.42611   0.64219   0.07940   0.08600
  51   37934.5    263.6   0.095818222   0.83155  -0.82885  -0.01696   0.37983
  52   38275.1    261.3   0.005407539   0.04651   0.21444  -0.01115   0.02007
  53   38294.9    261.1   0.044520126   0.38273   0.26900  -0.46247   0.31063
  54   38637.5    258.8   0.015410681   0.13131  -0.17195   0.28407  -0.14506
  55   39278.6    254.6   0.012306009   0.10314  -0.28193   0.15180  -0.02474
  56   39321.5    254.3   0.094552154   0.79162  -0.55968   0.64081   0.26027
  57   39708.4    251.8   0.101728650   0.84341   0.56198  -0.63645  -0.35003
  58   39883.0    250.7   0.018534405   0.15299   0.36113  -0.09528   0.11617
  59   40052.2    249.7   0.007912149   0.06503  -0.25097  -0.04307  -0.01387
  60   40164.8    249.0   0.011582066   0.09493  -0.18843   0.18471   0.15908
  61   40271.5    248.3   0.010953259   0.08954  -0.16499   0.00099   0.24963

FINAL SINGLE POINT ENERGY     -3464.139971273666

DIPOLE MOMENT
-------------
                                X             Y             Z
Electronic contribution:     -7.28299      10.26289      -8.30385
Nuclear contribution   :      8.63879      -7.74925       9.43041
                        -----------------------------------------
Total Dipole Moment    :      1.35580       2.51364       1.12656
                        -----------------------------------------
Magnitude (a.u.)       :      3.07014
Magnitude (Debye)      :      7.80367

Rotational constants in cm-1:     0.001596     0.000408     0.000352
Rotational constants in MHz :    47.845689    12.219220    10.544891

                             ****ORCA TERMINATED NORMALLY****
TOTAL RUN TIME: 0 days 0 hours 11 minutes 40 seconds 392 msec
