                         Program Version 4.2.0 -  RELEASE  -
|  1> # ORCA input file
|  2> # SCF done       -213.779459543054          0.000816653386
|  3> ! CAM-B3LYP def2-SVP def2/J RIJCOSX Grid4 TightSCF
|  4> %maxcore 5000
|  5> %tddft
|  6>     Mode sTDDFT
|  7>     Ethresh 5.0
|  8>     maxcore 5000
|  9> end
| 10>
| 11> %pal
| 12>   nprocs 6
| 13>   end
| 14> * xyz 0 1
| 15>    C       -0.74018         1.83784         0.26543
| 16>    C       -1.89594         2.00439        -0.45304
| 17>    C       -3.12810         1.41856        -0.10161
| 18>    N       -4.15332         0.97859         0.16718
| 19>    C       -1.92045         2.70177        -1.67698
| 20>    N       -1.91215         3.21256        -2.70541
| 21>    C       -0.52822         0.87701         1.33863
| 22>    C        0.87267         0.63146         1.45386
| 23>    C        1.36828        -0.27474         2.34656
| 24>    C        0.47330        -0.97910         3.18334
| 25>    C       -0.92576        -0.72470         3.08423
| 26>    C       -1.41264         0.21423         2.14642
| 27>    C       -1.80606        -1.43186         3.92820
| 28>    C       -1.33041        -2.35021         4.82411
| 29>    C        0.04650        -2.60177         4.91943
| 30>    C        0.92895        -1.93081         4.11684
| 31>    C        1.60415         1.48310         0.49774
| 32>    O        2.78923         1.51006         0.27076
| 33>    C        0.55954         2.36967        -0.09946
| 34>    C        0.89703         3.50725        -0.75288
| 35>    C        0.03312         4.62058        -0.99057
| 36>    S       -1.08846         5.11787         0.24374
| 37>    C       -1.68293         6.41620        -0.74005
| 38>    C       -1.07798         6.40621        -1.99019
| 39>    C       -0.07527         5.42940        -2.10869
| 40>    C        0.73726         5.25535        -3.35311
| 41>    N        2.18847         5.17529        -3.03096
| 42>    O        2.84303         4.37188        -3.64398
| 43>    O        2.61010         5.95267        -2.21021
| 44>    C        0.56558         6.46556        -4.27901
| 45>    C       -0.91645         6.76261        -4.45161
| 46>    C       -1.51506         7.26458        -3.13110
| 47>    N       -3.00816         7.23710        -3.33289
| 48>    O       -3.67018         6.47647        -2.67818
| 49>    O       -3.41880         7.97185        -4.19157
| 50>    C       -2.63631         7.35614        -0.28665
| 51>    C       -3.38206         7.26078         0.84166
| 52>    C       -4.35459         8.24840         1.13958
| 53>    N       -5.17081         8.23599         2.24618
| 54>    C       -5.11705         7.29696         3.33955
| 55>    C       -3.94224         7.57899         4.27291
| 56>    C       -6.08568         9.30198         2.23868
| 57>    O       -6.89806         9.49738         3.12185
| 58>    C       -5.80032        10.01082         1.01143
| 59>    C       -4.71905         9.34968         0.36902
| 60>    C       -4.44904        10.04555        -0.86553
| 61>    O       -3.60458         9.87405        -1.72967
| 62>    N       -5.40764        11.06733        -0.91008
| 63>    C       -5.44465        12.01078        -2.00104
| 64>    C       -4.82994        13.35336        -1.61326
| 65>    C       -6.21657        11.05878         0.20200
| 66>    C       -7.29983        11.96935         0.40235
| 67>    C       -8.02537        11.97805         1.53076
| 68>    C       -9.16372        12.89885         1.76771
| 69>    C       -9.00012        13.79485         3.00430
| 70>    O       -8.36402        14.76763         3.23721
| 71>    C      -10.36670        12.27175         2.49156
| 72>    O      -11.24633        11.55482         2.13869
| 73>    C      -10.05325        12.99537         3.79274
| 74>    C      -11.10009        13.76720         4.48657
| 75>    C      -11.01089        14.14337         5.77695
| 76>    C      -11.93136        14.98818         6.53219
| 77>    C      -12.93360        15.75827         6.01241
| 78>    C      -13.78272        16.57936         6.78626
| 79>    N      -14.50255        17.26333         7.36122
| 80>    C      -13.23961        15.86456         4.63808
| 81>    N      -13.52739        16.01158         3.53693
| 82>    C      -11.53709        14.92248         7.93195
| 83>    C      -10.36019        14.12554         8.04454
| 84>    C       -9.96991        13.63367         6.71718
| 85>    O       -9.02867        12.92044         6.44172
| 86>    C       -9.75189        13.90310         9.24739
| 87>    C      -10.30115        14.47821        10.41428
| 88>    C      -11.48272        15.26917        10.31194
| 89>    C      -12.09201        15.48025         9.05476
| 90>    C      -12.02421        15.83584        11.48413
| 91>    C      -11.42713        15.63483        12.69869
| 92>    C      -10.26327        14.85730        12.79807
| 93>    C       -9.71243        14.29104        11.68056
| 94>    H        2.43089        -0.45514         2.41223
| 95>    H       -2.47521         0.39454         2.09321
| 96>    H       -2.86554        -1.23759         3.84831
| 97>    H       -2.01304        -2.88906         5.46389
| 98>    H        0.40442        -3.32992         5.63169
| 99>    H        1.99001        -2.12066         4.18567
|100>    H        1.94078         3.59878        -1.03445
|101>    H        0.46765         4.32704        -3.86931
|102>    H        1.02273         6.25393        -5.24641
|103>    H        1.06780         7.32916        -3.83518
|104>    H       -1.43026         5.84505        -4.75010
|105>    H       -1.07059         7.51214        -5.22770
|106>    H       -1.26554         8.31943        -2.96605
|107>    H       -2.77214         8.22575        -0.91475
|108>    H       -3.27538         6.40898         1.49846
|109>    H       -5.06407         6.27854         2.94407
|110>    H       -6.05749         7.41510         3.88494
|111>    H       -2.99580         7.50721         3.74126
|112>    H       -3.94050         6.86212         5.08930
|113>    H       -4.03090         8.57952         4.68895
|114>    H       -6.47631        12.13756        -2.34090
|115>    H       -4.86381        11.55785        -2.80950
|116>    H       -5.36574        13.80376        -0.78055
|117>    H       -4.86500        14.03185        -2.46101
|118>    H       -3.79180        13.21627        -1.32086
|119>    H       -7.52880        12.65793        -0.39915
|120>    H       -7.78975        11.29121         2.33248
|121>    H       -9.41884        13.45345         0.86073
|122>    H       -9.51033        12.35892         4.50944
|123>    H      -11.94322        14.06726         3.87912
|124>    H       -8.85945        13.29783         9.30530
|125>    H      -12.98841        16.07823         9.01095
|126>    H      -12.91926        16.43476        11.40238
|127>    H      -11.84811        16.07453        13.59031
|128>    H       -9.80571        14.70941        13.76472
|129>    H       -8.81682        13.69140        11.75090
|130> *
|131>
|132>                          ****END OF INPUT****

CARTESIAN COORDINATES (ANGSTROEM)
---------------------------------
  C     -0.740180    1.837840    0.265430
  C     -1.895940    2.004390   -0.453040
  C     -3.128100    1.418560   -0.101610
  N     -4.153320    0.978590    0.167180
  C     -1.920450    2.701770   -1.676980
  N     -1.912150    3.212560   -2.705410
  C     -0.528220    0.877010    1.338630
  C      0.872670    0.631460    1.453860
  C      1.368280   -0.274740    2.346560
  C      0.473300   -0.979100    3.183340
  C     -0.925760   -0.724700    3.084230
  C     -1.412640    0.214230    2.146420
  C     -1.806060   -1.431860    3.928200
  C     -1.330410   -2.350210    4.824110
  C      0.046500   -2.601770    4.919430
  C      0.928950   -1.930810    4.116840
  C      1.604150    1.483100    0.497740
  O      2.789230    1.510060    0.270760
  C      0.559540    2.369670   -0.099460
  C      0.897030    3.507250   -0.752880
  C      0.033120    4.620580   -0.990570
  S     -1.088460    5.117870    0.243740
  C     -1.682930    6.416200   -0.740050
  C     -1.077980    6.406210   -1.990190
  C     -0.075270    5.429400   -2.108690
  C      0.737260    5.255350   -3.353110
  N      2.188470    5.175290   -3.030960
  O      2.843030    4.371880   -3.643980
  O      2.610100    5.952670   -2.210210
  C      0.565580    6.465560   -4.279010
  C     -0.916450    6.762610   -4.451610
  C     -1.515060    7.264580   -3.131100
  N     -3.008160    7.237100   -3.332890
  O     -3.670180    6.476470   -2.678180
  O     -3.418800    7.971850   -4.191570
  C     -2.636310    7.356140   -0.286650
  C     -3.382060    7.260780    0.841660
  C     -4.354590    8.248400    1.139580
  N     -5.170810    8.235990    2.246180
  C     -5.117050    7.296960    3.339550
  C     -3.942240    7.578990    4.272910
  C     -6.085680    9.301980    2.238680
  O     -6.898060    9.497380    3.121850
  C     -5.800320   10.010820    1.011430
  C     -4.719050    9.349680    0.369020
  C     -4.449040   10.045550   -0.865530
  O     -3.604580    9.874050   -1.729670
  N     -5.407640   11.067330   -0.910080
  C     -5.444650   12.010780   -2.001040
  C     -4.829940   13.353360   -1.613260
  C     -6.216570   11.058780    0.202000
  C     -7.299830   11.969350    0.402350
  C     -8.025370   11.978050    1.530760
  C     -9.163720   12.898850    1.767710
  C     -9.000120   13.794850    3.004300
  O     -8.364020   14.767630    3.237210
  C    -10.366700   12.271750    2.491560
  O    -11.246330   11.554820    2.138690
  C    -10.053250   12.995370    3.792740
  C    -11.100090   13.767200    4.486570
  C    -11.010890   14.143370    5.776950
  C    -11.931360   14.988180    6.532190
  C    -12.933600   15.758270    6.012410
  C    -13.782720   16.579360    6.786260
  N    -14.502550   17.263330    7.361220
  C    -13.239610   15.864560    4.638080
  N    -13.527390   16.011580    3.536930
  C    -11.537090   14.922480    7.931950
  C    -10.360190   14.125540    8.044540
  C     -9.969910   13.633670    6.717180
  O     -9.028670   12.920440    6.441720
  C     -9.751890   13.903100    9.247390
  C    -10.301150   14.478210   10.414280
  C    -11.482720   15.269170   10.311940
  C    -12.092010   15.480250    9.054760
  C    -12.024210   15.835840   11.484130
  C    -11.427130   15.634830   12.698690
  C    -10.263270   14.857300   12.798070
  C     -9.712430   14.291040   11.680560
  H      2.430890   -0.455140    2.412230
  H     -2.475210    0.394540    2.093210
  H     -2.865540   -1.237590    3.848310
  H     -2.013040   -2.889060    5.463890
  H      0.404420   -3.329920    5.631690
  H      1.990010   -2.120660    4.185670
  H      1.940780    3.598780   -1.034450
  H      0.467650    4.327040   -3.869310
  H      1.022730    6.253930   -5.246410
  H      1.067800    7.329160   -3.835180
  H     -1.430260    5.845050   -4.750100
  H     -1.070590    7.512140   -5.227700
  H     -1.265540    8.319430   -2.966050
  H     -2.772140    8.225750   -0.914750
  H     -3.275380    6.408980    1.498460
  H     -5.064070    6.278540    2.944070
  H     -6.057490    7.415100    3.884940
  H     -2.995800    7.507210    3.741260
  H     -3.940500    6.862120    5.089300
  H     -4.030900    8.579520    4.688950
  H     -6.476310   12.137560   -2.340900
  H     -4.863810   11.557850   -2.809500
  H     -5.365740   13.803760   -0.780550
  H     -4.865000   14.031850   -2.461010
  H     -3.791800   13.216270   -1.320860
  H     -7.528800   12.657930   -0.399150
  H     -7.789750   11.291210    2.332480
  H     -9.418840   13.453450    0.860730
  H     -9.510330   12.358920    4.509440
  H    -11.943220   14.067260    3.879120
  H     -8.859450   13.297830    9.305300
  H    -12.988410   16.078230    9.010950
  H    -12.919260   16.434760   11.402380
  H    -11.848110   16.074530   13.590310
  H     -9.805710   14.709410   13.764720
  H     -8.816820   13.691400   11.750900

 Total Charge           Charge          ....    0
 Multiplicity           Mult            ....    1
 Number of Electrons    NEL             ....  548
 Basis Dimension        Dim             .... 1290

ORBITAL ENERGIES
----------------

  NO   OCC          E(Eh)            E(eV)
   0   2.0000     -88.979248     -2421.2484
   1   2.0000     -19.252566      -523.8890
   2   2.0000     -19.250777      -523.8403
   3   2.0000     -19.243177      -523.6335
   4   2.0000     -19.241393      -523.5849
   5   2.0000     -19.240899      -523.5715
   6   2.0000     -19.235245      -523.4176
   7   2.0000     -19.228908      -523.2452
   8   2.0000     -19.219672      -522.9939
   9   2.0000     -19.196058      -522.3513
  10   2.0000     -19.193586      -522.2840
  11   2.0000     -14.649763      -398.6403
  12   2.0000     -14.640060      -398.3763
  13   2.0000     -14.457425      -393.4065
  14   2.0000     -14.456171      -393.3724
  15   2.0000     -14.422703      -392.4617
  16   2.0000     -14.422701      -392.4617
  17   2.0000     -14.422125      -392.4460
  18   2.0000     -14.420915      -392.4130
  19   2.0000     -10.385784      -282.6116
  20   2.0000     -10.378901      -282.4243
  21   2.0000     -10.377856      -282.3958
  22   2.0000     -10.376944      -282.3710
  23   2.0000     -10.376443      -282.3574
  24   2.0000     -10.370818      -282.2043
  25   2.0000     -10.351747      -281.6854
  26   2.0000     -10.349371      -281.6207
  27   2.0000     -10.348343      -281.5927
  28   2.0000     -10.346259      -281.5360
  29   2.0000     -10.343394      -281.4581
  30   2.0000     -10.341917      -281.4179
  31   2.0000     -10.340404      -281.3767
  32   2.0000     -10.340389      -281.3763
  33   2.0000     -10.328526      -281.0535
  34   2.0000     -10.327373      -281.0221
  35   2.0000     -10.326652      -281.0025
  36   2.0000     -10.325061      -280.9592
  37   2.0000     -10.324621      -280.9472
  38   2.0000     -10.324545      -280.9452
  39   2.0000     -10.324151      -280.9344
  40   2.0000     -10.322944      -280.9016
  41   2.0000     -10.312331      -280.6128
  42   2.0000     -10.310671      -280.5676
  43   2.0000     -10.310471      -280.5622
  44   2.0000     -10.309979      -280.5488
  45   2.0000     -10.309505      -280.5359
  46   2.0000     -10.308383      -280.5054
  47   2.0000     -10.306838      -280.4633
  48   2.0000     -10.304603      -280.4025
  49   2.0000     -10.304496      -280.3996
  50   2.0000     -10.304213      -280.3919
  51   2.0000     -10.304208      -280.3918
  52   2.0000     -10.303821      -280.3812
  53   2.0000     -10.302197      -280.3370
  54   2.0000     -10.301717      -280.3240
  55   2.0000     -10.301445      -280.3166
  56   2.0000     -10.301367      -280.3145
  57   2.0000     -10.301274      -280.3119
  58   2.0000     -10.301161      -280.3089
  59   2.0000     -10.300851      -280.3004
  60   2.0000     -10.299705      -280.2692
  61   2.0000     -10.298925      -280.2480
  62   2.0000     -10.297637      -280.2129
  63   2.0000     -10.296753      -280.1889
  64   2.0000     -10.296583      -280.1843
  65   2.0000     -10.295323      -280.1500
  66   2.0000     -10.294065      -280.1157
  67   2.0000     -10.292527      -280.0739
  68   2.0000     -10.292055      -280.0611
  69   2.0000     -10.291802      -280.0542
  70   2.0000     -10.291271      -280.0397
  71   2.0000     -10.290137      -280.0089
  72   2.0000     -10.289880      -280.0019
  73   2.0000     -10.289553      -279.9930
  74   2.0000     -10.289215      -279.9838
  75   2.0000     -10.266982      -279.3788
  76   2.0000     -10.265528      -279.3392
  77   2.0000     -10.262137      -279.2469
  78   2.0000     -10.261553      -279.2310
  79   2.0000      -8.074153      -219.7089
  80   2.0000      -6.043342      -164.4477
  81   2.0000      -6.039353      -164.3392
  82   2.0000      -6.036357      -164.2576
  83   2.0000      -1.333590       -36.2888
  84   2.0000      -1.324525       -36.0422
  85   2.0000      -1.160509       -31.5791
  86   2.0000      -1.154160       -31.4063
  87   2.0000      -1.151356       -31.3300
  88   2.0000      -1.146281       -31.1919
  89   2.0000      -1.143225       -31.1087
  90   2.0000      -1.136547       -30.9270
  91   2.0000      -1.135295       -30.8930
  92   2.0000      -1.129826       -30.7441
  93   2.0000      -1.066798       -29.0290
  94   2.0000      -1.058819       -28.8119
  95   2.0000      -1.028500       -27.9869
  96   2.0000      -1.025286       -27.8995
  97   2.0000      -1.017496       -27.6875
  98   2.0000      -1.005522       -27.3617
  99   2.0000      -1.003373       -27.3032
 100   2.0000      -1.000711       -27.2307
 101   2.0000      -0.999503       -27.1978
 102   2.0000      -0.980902       -26.6917
 103   2.0000      -0.977102       -26.5883
 104   2.0000      -0.973453       -26.4890
 105   2.0000      -0.964131       -26.2353
 106   2.0000      -0.942135       -25.6368
 107   2.0000      -0.932343       -25.3703
 108   2.0000      -0.930704       -25.3257
 109   2.0000      -0.928137       -25.2559
 110   2.0000      -0.917301       -24.9610
 111   2.0000      -0.913844       -24.8669
 112   2.0000      -0.904722       -24.6187
 113   2.0000      -0.900175       -24.4950
 114   2.0000      -0.888027       -24.1644
 115   2.0000      -0.885902       -24.1066
 116   2.0000      -0.880601       -23.9624
 117   2.0000      -0.876591       -23.8533
 118   2.0000      -0.871614       -23.7178
 119   2.0000      -0.854680       -23.2570
 120   2.0000      -0.841252       -22.8916
 121   2.0000      -0.835151       -22.7256
 122   2.0000      -0.832546       -22.6547
 123   2.0000      -0.828896       -22.5554
 124   2.0000      -0.828085       -22.5333
 125   2.0000      -0.822797       -22.3894
 126   2.0000      -0.805712       -21.9245
 127   2.0000      -0.795560       -21.6483
 128   2.0000      -0.775028       -21.0896
 129   2.0000      -0.769434       -20.9374
 130   2.0000      -0.764174       -20.7942
 131   2.0000      -0.763412       -20.7735
 132   2.0000      -0.756450       -20.5840
 133   2.0000      -0.731337       -19.9007
 134   2.0000      -0.730825       -19.8868
 135   2.0000      -0.717473       -19.5234
 136   2.0000      -0.713896       -19.4261
 137   2.0000      -0.711888       -19.3714
 138   2.0000      -0.710502       -19.3337
 139   2.0000      -0.709104       -19.2957
 140   2.0000      -0.704993       -19.1838
 141   2.0000      -0.700742       -19.0682
 142   2.0000      -0.699302       -19.0290
 143   2.0000      -0.693308       -18.8659
 144   2.0000      -0.682995       -18.5853
 145   2.0000      -0.682537       -18.5728
 146   2.0000      -0.676007       -18.3951
 147   2.0000      -0.666797       -18.1445
 148   2.0000      -0.653678       -17.7875
 149   2.0000      -0.652265       -17.7490
 150   2.0000      -0.647198       -17.6112
 151   2.0000      -0.645422       -17.5628
 152   2.0000      -0.644639       -17.5415
 153   2.0000      -0.641328       -17.4514
 154   2.0000      -0.638811       -17.3829
 155   2.0000      -0.634690       -17.2708
 156   2.0000      -0.630705       -17.1623
 157   2.0000      -0.629388       -17.1265
 158   2.0000      -0.626874       -17.0581
 159   2.0000      -0.618285       -16.8244
 160   2.0000      -0.613543       -16.6954
 161   2.0000      -0.611750       -16.6466
 162   2.0000      -0.607950       -16.5432
 163   2.0000      -0.602220       -16.3872
 164   2.0000      -0.599236       -16.3060
 165   2.0000      -0.594194       -16.1689
 166   2.0000      -0.592167       -16.1137
 167   2.0000      -0.588020       -16.0008
 168   2.0000      -0.585614       -15.9354
 169   2.0000      -0.582565       -15.8524
 170   2.0000      -0.578735       -15.7482
 171   2.0000      -0.577681       -15.7195
 172   2.0000      -0.569972       -15.5097
 173   2.0000      -0.566834       -15.4243
 174   2.0000      -0.559389       -15.2217
 175   2.0000      -0.557409       -15.1679
 176   2.0000      -0.554803       -15.0970
 177   2.0000      -0.553453       -15.0602
 178   2.0000      -0.552321       -15.0294
 179   2.0000      -0.551833       -15.0161
 180   2.0000      -0.551183       -14.9984
 181   2.0000      -0.547683       -14.9032
 182   2.0000      -0.545187       -14.8353
 183   2.0000      -0.542286       -14.7564
 184   2.0000      -0.540471       -14.7070
 185   2.0000      -0.539946       -14.6927
 186   2.0000      -0.534190       -14.5360
 187   2.0000      -0.532818       -14.4987
 188   2.0000      -0.532577       -14.4921
 189   2.0000      -0.530236       -14.4284
 190   2.0000      -0.527597       -14.3566
 191   2.0000      -0.523361       -14.2414
 192   2.0000      -0.522121       -14.2076
 193   2.0000      -0.520154       -14.1541
 194   2.0000      -0.519139       -14.1265
 195   2.0000      -0.517320       -14.0770
 196   2.0000      -0.516111       -14.0441
 197   2.0000      -0.514377       -13.9969
 198   2.0000      -0.513334       -13.9685
 199   2.0000      -0.510391       -13.8884
 200   2.0000      -0.509172       -13.8553
 201   2.0000      -0.506143       -13.7729
 202   2.0000      -0.504477       -13.7275
 203   2.0000      -0.503058       -13.6889
 204   2.0000      -0.502808       -13.6821
 205   2.0000      -0.498625       -13.5683
 206   2.0000      -0.494358       -13.4522
 207   2.0000      -0.492444       -13.4001
 208   2.0000      -0.489951       -13.3322
 209   2.0000      -0.489414       -13.3176
 210   2.0000      -0.485421       -13.2090
 211   2.0000      -0.479085       -13.0366
 212   2.0000      -0.477860       -13.0032
 213   2.0000      -0.476458       -12.9651
 214   2.0000      -0.473387       -12.8815
 215   2.0000      -0.471275       -12.8241
 216   2.0000      -0.469846       -12.7852
 217   2.0000      -0.466341       -12.6898
 218   2.0000      -0.463977       -12.6254
 219   2.0000      -0.459626       -12.5071
 220   2.0000      -0.458149       -12.4669
 221   2.0000      -0.455989       -12.4081
 222   2.0000      -0.455098       -12.3839
 223   2.0000      -0.453506       -12.3405
 224   2.0000      -0.451386       -12.2828
 225   2.0000      -0.450617       -12.2619
 226   2.0000      -0.446848       -12.1593
 227   2.0000      -0.445747       -12.1294
 228   2.0000      -0.444695       -12.1008
 229   2.0000      -0.441906       -12.0249
 230   2.0000      -0.440455       -11.9854
 231   2.0000      -0.439853       -11.9690
 232   2.0000      -0.439012       -11.9461
 233   2.0000      -0.437335       -11.9005
 234   2.0000      -0.437070       -11.8933
 235   2.0000      -0.436695       -11.8831
 236   2.0000      -0.435088       -11.8394
 237   2.0000      -0.433314       -11.7911
 238   2.0000      -0.431492       -11.7415
 239   2.0000      -0.430874       -11.7247
 240   2.0000      -0.428968       -11.6728
 241   2.0000      -0.426409       -11.6032
 242   2.0000      -0.425134       -11.5685
 243   2.0000      -0.421061       -11.4577
 244   2.0000      -0.417934       -11.3726
 245   2.0000      -0.415331       -11.3017
 246   2.0000      -0.408202       -11.1078
 247   2.0000      -0.405090       -11.0231
 248   2.0000      -0.391288       -10.6475
 249   2.0000      -0.387272       -10.5382
 250   2.0000      -0.384690       -10.4680
 251   2.0000      -0.384184       -10.4542
 252   2.0000      -0.380941       -10.3659
 253   2.0000      -0.377746       -10.2790
 254   2.0000      -0.375964       -10.2305
 255   2.0000      -0.373548       -10.1647
 256   2.0000      -0.369836       -10.0638
 257   2.0000      -0.362692        -9.8693
 258   2.0000      -0.357654        -9.7323
 259   2.0000      -0.353624        -9.6226
 260   2.0000      -0.351402        -9.5621
 261   2.0000      -0.348958        -9.4956
 262   2.0000      -0.340422        -9.2634
 263   2.0000      -0.337002        -9.1703
 264   2.0000      -0.336497        -9.1565
 265   2.0000      -0.335304        -9.1241
 266   2.0000      -0.323633        -8.8065
 267   2.0000      -0.318269        -8.6605
 268   2.0000      -0.317330        -8.6350
 269   2.0000      -0.313315        -8.5257
 270   2.0000      -0.299668        -8.1544
 271   2.0000      -0.299136        -8.1399
 272   2.0000      -0.292035        -7.9467
 273   2.0000      -0.241140        -6.5617
 274   0.0000      -0.103920        -2.8278
 275   0.0000      -0.092721        -2.5231
 276   0.0000      -0.075665        -2.0589
 277   0.0000      -0.062835        -1.7098
 278   0.0000      -0.058312        -1.5868

MULLIKEN ATOMIC CHARGES
-----------------------
   0 C :    0.241885
   1 C :   -0.323851
   2 C :   -0.169528
   3 N :    0.155783
   4 C :   -0.151962
   5 N :    0.149815
   6 C :    0.043468
   7 C :    0.005658
   8 C :   -0.077636
   9 C :    0.093547
  10 C :    0.094626
  11 C :   -0.081928
  12 C :   -0.018525
  13 C :    0.036193
  14 C :    0.035694
  15 C :   -0.014130
  16 C :    0.145166
  17 O :   -0.128331
  18 C :   -0.135861
  19 C :    0.028117
  20 C :   -0.225956
  21 S :    0.170864
  22 C :   -0.064299
  23 C :   -0.030962
  24 C :    0.101724
  25 C :    0.136367
  26 N :    0.177557
  27 O :   -0.215868
  28 O :   -0.221229
  29 C :    0.063744
  30 C :    0.059587
  31 C :    0.101964
  32 N :    0.198854
  33 O :   -0.205254
  34 O :   -0.219415
  35 C :    0.017784
  36 C :   -0.032113
  37 C :    0.134352
  38 N :   -0.255113
  39 C :    0.099608
  40 C :    0.001150
  41 C :    0.168443
  42 O :   -0.211890
  43 C :   -0.064837
  44 C :   -0.074071
  45 C :    0.179227
  46 O :   -0.234632
  47 N :   -0.248299
  48 C :    0.094460
  49 C :    0.000030
  50 C :    0.118027
  51 C :   -0.004981
  52 C :    0.050733
  53 C :   -0.099054
  54 C :    0.116810
  55 O :   -0.097500
  56 C :    0.112708
  57 O :   -0.104204
  58 C :   -0.136204
  59 C :   -0.030872
  60 C :   -0.036332
  61 C :    0.323718
  62 C :   -0.333323
  63 C :   -0.182536
  64 N :    0.157296
  65 C :   -0.201653
  66 N :    0.164044
  67 C :    0.047743
  68 C :   -0.008727
  69 C :    0.163288
  70 O :   -0.150947
  71 C :   -0.070648
  72 C :    0.095978
  73 C :    0.096157
  74 C :   -0.080235
  75 C :   -0.019082
  76 C :    0.039968
  77 C :    0.035890
  78 C :   -0.013497
  79 H :   -0.008149
  80 H :   -0.005934
  81 H :   -0.009701
  82 H :   -0.003092
  83 H :   -0.003458
  84 H :   -0.014857
  85 H :    0.045843
  86 H :    0.044040
  87 H :    0.032900
  88 H :    0.030766
  89 H :    0.039268
  90 H :    0.040890
  91 H :    0.065122
  92 H :    0.021187
  93 H :   -0.024801
  94 H :    0.026716
  95 H :    0.045832
  96 H :    0.015052
  97 H :    0.024324
  98 H :    0.029844
  99 H :    0.026623
 100 H :    0.050278
 101 H :    0.019651
 102 H :    0.026647
 103 H :    0.028304
 104 H :   -0.021504
 105 H :    0.033102
 106 H :    0.049438
 107 H :    0.123010
 108 H :    0.032858
 109 H :   -0.009536
 110 H :   -0.006318
 111 H :   -0.006813
 112 H :   -0.002414
 113 H :   -0.002696
 114 H :   -0.014965
Sum of atomic charges:   -0.0000000

LOEWDIN ATOMIC CHARGES
----------------------
   0 C :    0.060837
   1 C :   -0.135634
   2 C :   -0.019260
   3 N :   -0.046602
   4 C :   -0.011246
   5 N :   -0.054010
   6 C :   -0.023864
   7 C :   -0.057959
   8 C :    0.034967
   9 C :   -0.008631
  10 C :   -0.004992
  11 C :    0.015857
  12 C :   -0.006676
  13 C :   -0.011582
  14 C :   -0.011918
  15 C :   -0.008185
  16 C :    0.083427
  17 O :   -0.129878
  18 C :   -0.080911
  19 C :    0.041515
  20 C :   -0.175373
  21 S :    0.478957
  22 C :   -0.143760
  23 C :   -0.056719
  24 C :   -0.032525
  25 C :    0.020633
  26 N :    0.269122
  27 O :   -0.188818
  28 O :   -0.199612
  29 C :   -0.017030
  30 C :   -0.017683
  31 C :    0.018076
  32 N :    0.274963
  33 O :   -0.177188
  34 O :   -0.186838
  35 C :    0.009974
  36 C :   -0.042916
  37 C :    0.078562
  38 N :    0.001205
  39 C :    0.037029
  40 C :   -0.061109
  41 C :    0.083294
  42 O :   -0.201386
  43 C :   -0.121919
  44 C :   -0.121348
  45 C :    0.083852
  46 O :   -0.213621
  47 N :    0.006806
  48 C :    0.037003
  49 C :   -0.061376
  50 C :    0.076976
  51 C :   -0.044746
  52 C :    0.040188
  53 C :   -0.080253
  54 C :    0.107387
  55 O :   -0.080664
  56 C :    0.093841
  57 O :   -0.087063
  58 C :   -0.098894
  59 C :    0.087153
  60 C :   -0.075313
  61 C :    0.076146
  62 C :   -0.126306
  63 C :   -0.016620
  64 N :   -0.045124
  65 C :   -0.020375
  66 N :   -0.042355
  67 C :   -0.025538
  68 C :   -0.057342
  69 C :    0.092995
  70 O :   -0.133674
  71 C :    0.037703
  72 C :   -0.007444
  73 C :   -0.004442
  74 C :    0.022366
  75 C :   -0.004370
  76 C :   -0.010083
  77 C :   -0.009898
  78 C :   -0.007901
  79 H :    0.040652
  80 H :    0.038622
  81 H :    0.034477
  82 H :    0.033737
  83 H :    0.033430
  84 H :    0.032690
  85 H :    0.050015
  86 H :    0.047132
  87 H :    0.039215
  88 H :    0.033259
  89 H :    0.039329
  90 H :    0.040449
  91 H :    0.052993
  92 H :    0.034803
  93 H :    0.024278
  94 H :    0.024289
  95 H :    0.038505
  96 H :    0.021642
  97 H :    0.030819
  98 H :    0.032481
  99 H :    0.024240
 100 H :    0.040195
 101 H :    0.023269
 102 H :    0.031765
 103 H :    0.031833
 104 H :    0.030908
 105 H :    0.034315
 106 H :    0.055916
 107 H :    0.081685
 108 H :    0.044103
 109 H :    0.040669
 110 H :    0.039750
 111 H :    0.035649
 112 H :    0.034308
 113 H :    0.033870
 114 H :    0.032846

  Mayer bond orders larger than 0.100000
B(  0-C ,  1-C ) :   1.6631 B(  0-C ,  6-C ) :   1.0090 B(  0-C , 18-C ) :   1.0250
B(  1-C ,  2-C ) :   1.1296 B(  1-C ,  4-C ) :   1.1650 B(  2-C ,  3-N ) :   2.9877
B(  4-C ,  5-N ) :   2.9692 B(  6-C ,  7-C ) :   1.2116 B(  6-C , 11-C ) :   1.4551
B(  7-C ,  8-C ) :   1.4771 B(  7-C , 16-C ) :   0.9205 B(  8-C ,  9-C ) :   1.1871
B(  8-C , 79-H ) :   1.0150 B(  9-C , 10-C ) :   1.2554 B(  9-C , 15-C ) :   1.2461
B( 10-C , 11-C ) :   1.2061 B( 10-C , 12-C ) :   1.2403 B( 11-C , 80-H ) :   0.9945
B( 12-C , 13-C ) :   1.4907 B( 12-C , 81-H ) :   0.9973 B( 13-C , 14-C ) :   1.2606
B( 13-C , 82-H ) :   0.9886 B( 14-C , 15-C ) :   1.4893 B( 14-C , 83-H ) :   0.9889
B( 15-C , 84-H ) :   0.9976 B( 16-C , 17-O ) :   2.2866 B( 16-C , 18-C ) :   0.9243
B( 18-C , 19-C ) :   1.7237 B( 19-C , 20-C ) :   1.0613 B( 19-C , 85-H ) :   0.9367
B( 20-C , 21-S ) :   1.1446 B( 20-C , 22-C ) :   0.1009 B( 20-C , 24-C ) :   1.4808
B( 21-S , 22-C ) :   1.1256 B( 22-C , 23-C ) :   1.4841 B( 22-C , 35-C ) :   1.1488
B( 23-C , 24-C ) :   1.3641 B( 23-C , 31-C ) :   0.9611 B( 24-C , 25-C ) :   0.9549
B( 25-C , 26-N ) :   0.8316 B( 25-C , 29-C ) :   1.0673 B( 25-C , 86-H ) :   0.8895
B( 26-N , 27-O ) :   1.5551 B( 26-N , 28-O ) :   1.5663 B( 27-O , 28-O ) :   0.2758
B( 29-C , 30-C ) :   1.0962 B( 29-C , 87-H ) :   0.9282 B( 29-C , 88-H ) :   0.9262
B( 30-C , 31-C ) :   1.0794 B( 30-C , 89-H ) :   0.9249 B( 30-C , 90-H ) :   0.9220
B( 31-C , 32-N ) :   0.8318 B( 31-C , 91-H ) :   0.8828 B( 32-N , 33-O ) :   1.6003
B( 32-N , 34-O ) :   1.5559 B( 33-O , 34-O ) :   0.2682 B( 35-C , 36-C ) :   1.6029
B( 35-C , 92-H ) :   0.9260 B( 36-C , 37-C ) :   1.1626 B( 36-C , 93-H ) :   0.9722
B( 37-C , 38-N ) :   1.1571 B( 37-C , 44-C ) :   1.3513 B( 38-N , 39-C ) :   0.9448
B( 38-N , 41-C ) :   1.0618 B( 39-C , 40-C ) :   1.1194 B( 39-C , 94-H ) :   0.9502
B( 39-C , 95-H ) :   0.9291 B( 40-C , 96-H ) :   0.9687 B( 40-C , 97-H ) :   0.9681
B( 40-C , 98-H ) :   0.9646 B( 41-C , 42-O ) :   2.0283 B( 41-C , 43-C ) :   0.9839
B( 42-O ,105-H ) :   0.1118 B( 43-C , 44-C ) :   1.2420 B( 43-C , 50-C ) :   1.3785
B( 44-C , 45-C ) :   1.0032 B( 45-C , 46-O ) :   1.9650 B( 45-C , 47-N ) :   1.0779
B( 46-O , 92-H ) :   0.1309 B( 47-N , 48-C ) :   0.9439 B( 47-N , 50-C ) :   1.1622
B( 48-C , 49-C ) :   1.1187 B( 48-C , 99-H ) :   0.9502 B( 48-C ,100-H ) :   0.9289
B( 49-C ,101-H ) :   0.9685 B( 49-C ,102-H ) :   0.9681 B( 49-C ,103-H ) :   0.9639
B( 50-C , 51-C ) :   1.1105 B( 51-C , 52-C ) :   1.7603 B( 51-C ,104-H ) :   0.9691
B( 52-C , 53-C ) :   1.0071 B( 52-C ,105-H ) :   0.9346 B( 53-C , 54-C ) :   0.8881
B( 53-C , 56-C ) :   0.8842 B( 53-C , 58-C ) :  -0.1063 B( 53-C ,106-H ) :   0.8946
B( 54-C , 55-O ) :   2.3170 B( 54-C , 58-C ) :   0.8843 B( 56-C , 57-O ) :   2.3219
B( 56-C , 58-C ) :   0.8808 B( 58-C , 59-C ) :   1.0367 B( 58-C ,107-H ) :   0.8246
B( 59-C , 60-C ) :   1.7434 B( 59-C ,108-H ) :   0.9536 B( 60-C , 61-C ) :   1.0140
B( 60-C , 69-C ) :   0.9320 B( 61-C , 62-C ) :   1.6719 B( 61-C , 67-C ) :   1.0023
B( 62-C , 63-C ) :   1.1383 B( 62-C , 65-C ) :   1.1450 B( 63-C , 64-N ) :   2.9705
B( 65-C , 66-N ) :   2.9815 B( 67-C , 68-C ) :   1.2122 B( 67-C , 74-C ) :   1.4422
B( 68-C , 69-C ) :   0.9528 B( 68-C , 71-C ) :   1.4681 B( 69-C , 70-O ) :   2.1780
B( 71-C , 72-C ) :   1.1843 B( 71-C ,109-H ) :   1.0156 B( 72-C , 73-C ) :   1.2521
B( 72-C , 78-C ) :   1.2431 B( 73-C , 74-C ) :   1.2131 B( 73-C , 75-C ) :   1.2368
B( 74-C ,110-H ) :   0.9893 B( 75-C , 76-C ) :   1.4918 B( 75-C ,111-H ) :   0.9975
B( 76-C , 77-C ) :   1.2576 B( 76-C ,112-H ) :   0.9888 B( 77-C , 78-C ) :   1.4892
B( 77-C ,113-H ) :   0.9893 B( 78-C ,114-H ) :   0.9979

-----------------------------------------------------------------------------
         ABSORPTION SPECTRUM VIA TRANSITION ELECTRIC DIPOLE MOMENTS
-----------------------------------------------------------------------------
State   Energy  Wavelength   fosc         T2         TX        TY        TZ
        (cm-1)    (nm)                  (au**2)     (au)      (au)      (au)
-----------------------------------------------------------------------------
   0   15270.3    654.9   0.680244953  14.66541  -1.91774   3.31440  -0.04916
   1   20588.6    485.7   0.120739619   1.93063  -1.18064   0.63713   0.36162
   2   21670.8    461.4   0.021489602   0.32646   0.17313  -0.08003   0.53859
   3   23920.0    418.1   0.205852941   2.83317   0.40337  -1.62573  -0.16567
   4   25864.5    386.6   0.111400961   1.41795  -0.26302   0.83926  -0.80275
   5   27067.5    369.4   0.044192329   0.53750   0.34751  -0.60981   0.21180
   6   27494.1    363.7   0.003791296   0.04540  -0.14283   0.15164  -0.04474
   7   27635.9    361.8   0.021361744   0.25447   0.35831  -0.17262   0.31030
   8   27816.7    359.5   0.041671035   0.49318   0.22170  -0.09597   0.65941
   9   27829.6    359.3   0.044428009   0.52556   0.54352  -0.29969   0.37462
  10   29239.8    342.0   0.033154874   0.37329  -0.14687   0.48261  -0.34468
  11   29603.7    337.8   0.051132473   0.56863   0.63922  -0.39978  -0.01399
  12   29669.9    337.0   0.163122827   1.80998   1.03695  -0.60670  -0.60550
  13   29790.5    335.7   0.148488519   1.64093  -0.43739   0.28774   1.16911
  14   29984.4    333.5   0.012403684   0.13619   0.14377  -0.25017   0.23007
  15   30406.0    328.9   0.157857098   1.70915  -0.62736   0.41664   1.06864
  16   30448.4    328.4   0.069052734   0.74661   0.76877  -0.38600  -0.08126
  17   30751.3    325.2   0.006849221   0.07333   0.08699   0.04660   0.25216
  18   31329.3    319.2   0.076908542   0.80816  -0.72142   0.51711   0.14255
  19   31995.1    312.5   0.137153611   1.41123   0.39143   0.30511  -1.07932
  20   32918.7    303.8   0.003061930   0.03062  -0.11602   0.06622  -0.11303
  21   33116.0    302.0   0.125276501   1.24540   0.52191  -0.24119  -0.95647
  22   33679.2    296.9   0.474722099   4.64037   0.93611  -1.20898   1.51738
  23   33777.1    296.1   0.067986663   0.66264  -0.14725   0.19813  -0.77570
  24   34199.5    292.4   0.523403841   5.03841   1.29519  -0.41919   1.78470
  25   34353.3    291.1   0.399815869   3.83148  -0.27634   1.04225  -1.63366
  26   34861.7    286.8   0.268155768   2.53229   0.69546  -0.19035   1.41859
  27   34923.9    286.3   0.101591125   0.95765  -0.13347  -0.10745   0.96348
  28   35497.6    281.7   0.115881392   1.07471   0.04209   0.38163  -0.96296
  29   35958.1    278.1   0.009650809   0.08836   0.02729   0.06684   0.28835
  30   36068.4    277.3   0.001336631   0.01220   0.04308   0.04956  -0.08881
  31   36177.3    276.4   0.030269748   0.27545  -0.20697   0.09900   0.47203
  32   36260.9    275.8   0.019281995   0.17506   0.05445   0.21656  -0.35383
  33   36437.3    274.4   0.107242134   0.96893  -0.51034  -0.11251   0.83417
  34   37070.3    269.8   0.066406226   0.58974  -0.23404   0.21528   0.69901
  35   37231.0    268.6   0.008060672   0.07128   0.07948   0.14205   0.21161
  36   37370.7    267.6   0.128889245   1.13543  -0.07534  -0.65977   0.83334
  37   37967.9    263.4   0.098497080   0.85405   0.51579  -0.71845   0.26802
  38   38310.4    261.0   0.115424414   0.99187  -0.97323  -0.21121  -0.00893
  39   38535.8    259.5   0.003147639   0.02689   0.11525  -0.02687   0.11351
  40   39070.8    255.9   0.011455979   0.09653   0.24503  -0.16142   0.10213
  41   39214.4    255.0   0.012357779   0.10375  -0.31168   0.02242   0.07811
  42   39518.6    253.0   0.075968137   0.63286   0.61445  -0.41470  -0.28867
  43   39690.6    251.9   0.152992662   1.26899  -0.88677   0.51483   0.46646
  44   40000.1    250.0   0.008838780   0.07275  -0.26295   0.05031  -0.03271
  45   40128.0    249.2   0.053443448   0.43845  -0.37644   0.12570   0.53004
  46   40184.9    248.8   0.046897962   0.38421   0.61509   0.06938  -0.03249
  47   40288.2    248.2   0.332363976   2.71589  -1.09740   0.06200   1.22791

FINAL SINGLE POINT ENERGY     -3891.783528658821

DIPOLE MOMENT
-------------
                                X             Y             Z
Electronic contribution:     -8.49902      -6.56207      -7.10994
Nuclear contribution   :     10.00326       5.72971      10.62022
                        -----------------------------------------
Total Dipole Moment    :      1.50424      -0.83235       3.51028
                        -----------------------------------------
Magnitude (a.u.)       :      3.90866
Magnitude (Debye)      :      9.93502

Rotational constants in cm-1:     0.001221     0.000260     0.000227
Rotational constants in MHz :    36.616871     7.804115     6.797795

                             ****ORCA TERMINATED NORMALLY****
TOTAL RUN TIME: 0 days 0 hours 12 minutes 6 seconds 450 msec
