                         Program Version 4.2.0 -  RELEASE  -
|  1> # ORCA input file
|  2> # SCF done       -177.071486720655          0.000644050633
|  3> ! CAM-B3LYP def2-SVP def2/J RIJCOSX Grid4 TightSCF
|  4> %maxcore 5000
|  5> %tddft
|  6>     Mode sTDDFT
|  7>     Ethresh 5.0
|  8>     maxcore 5000
|  9> end
| 10>
| 11> %pal
| 12>   nprocs 6
| 13>   end
| 14> * xyz 0 1
| 15>    C        4.63777         7.14158         4.11893
| 16>    C        3.91290         7.78821         5.08716
| 17>    C        4.07267         7.56130         6.46949
| 18>    N        4.15421         7.40087         7.60300
| 19>    C        2.99135         8.81640         4.81108
| 20>    N        2.25592         9.67744         4.62134
| 21>    C        5.78199         6.27002         4.36698
| 22>    C        6.55956         6.19137         3.17435
| 23>    C        7.71987         5.47439         3.11982
| 24>    C        8.15679         4.78217         4.27158
| 25>    C        7.37538         4.84284         5.46171
| 26>    C        6.18110         5.59949         5.49147
| 27>    C        7.81917         4.14233         6.60146
| 28>    C        8.98006         3.41849         6.57024
| 29>    C        9.74907         3.36011         5.39856
| 30>    C        9.34648         4.02779         4.27383
| 31>    C        5.89696         6.96276         2.11027
| 32>    O        6.28101         7.17162         0.98277
| 33>    C        4.59369         7.39939         2.69573
| 34>    C        3.62551         7.84975         1.85333
| 35>    C        2.23093         7.97064         2.05983
| 36>    S        1.29080         8.97516         0.98855
| 37>    C       -0.19009         8.57630         1.79595
| 38>    C        0.05583         7.66248         2.83239
| 39>    C        1.40995         7.33826         2.97342
| 40>    C       -0.92547         7.09640         3.66182
| 41>    N       -1.69931         6.60209         4.35082
| 42>    C       -1.39218         9.17204         1.36254
| 43>    C       -2.61702         8.99884         1.93716
| 44>    C       -3.79584         9.61188         1.48489
| 45>    S       -3.82709        10.65545         0.10024
| 46>    C       -5.52880        10.96001         0.24310
| 47>    C       -6.06457        10.26579         1.34520
| 48>    C       -5.08639         9.49927         2.04610
| 49>    C       -5.46035         8.74328         3.16649
| 50>    C       -6.77848         8.75916         3.57107
| 51>    C       -7.18558         8.00498         4.69650
| 52>    N       -7.53437         7.39962         5.60471
| 53>    C       -7.75038         9.52196         2.87807
| 54>    C       -7.40241        10.26159         1.78519
| 55>    C       -6.21414        11.79584        -0.65742
| 56>    C       -5.64431        12.41417        -1.72686
| 57>    C       -6.33549        13.25212        -2.63027
| 58>    S       -8.02981        13.63256        -2.45481
| 59>    C       -8.01460        14.62237        -3.88304
| 60>    C       -6.73492        14.63771        -4.45196
| 61>    C       -5.80149        13.87289        -3.74590
| 62>    C       -6.42834        15.36047        -5.61869
| 63>    N       -6.16762        15.94699        -6.56866
| 64>    C       -9.15505        15.29918        -4.36061
| 65>    C      -10.36982        15.27710        -3.74485
| 66>    C      -11.48190        15.97630        -4.25780
| 67>    C      -12.71427        16.01896        -3.66627
| 68>    C      -13.88517        16.72741        -4.14816
| 69>    C      -14.01147        17.40003        -5.33671
| 70>    C      -15.18250        18.07287        -5.74436
| 71>    N      -16.09873        18.64266        -6.13693
| 72>    C      -13.01734        17.51198        -6.33089
| 73>    N      -12.27008        17.64320        -7.19315
| 74>    C      -14.93741        16.57955        -3.14817
| 75>    C      -14.44869        15.76280        -2.08912
| 76>    C      -13.05879        15.36981        -2.37359
| 77>    O      -12.35082        14.66557        -1.68267
| 78>    C      -15.21888        15.44475        -1.00779
| 79>    C      -16.53968        15.93998        -0.93233
| 80>    C      -17.03570        16.76046        -1.98595
| 81>    C      -16.21449        17.07209        -3.09371
| 82>    C      -18.35460        17.25090        -1.90103
| 83>    C      -19.14715        16.94601        -0.82815
| 84>    C      -18.65772        16.13801         0.20875
| 85>    C      -17.38178        15.64579         0.15787
| 86>    H        8.29812         5.43529         2.20874
| 87>    H        5.60443         5.62084         6.40301
| 88>    H        7.22554         4.19281         7.50227
| 89>    H        9.31249         2.88697         7.44916
| 90>    H       10.66187         2.78353         5.39136
| 91>    H        9.93448         3.98684         3.36874
| 92>    H        3.97470         8.08765         0.85244
| 93>    H        1.76445         6.62567         3.69779
| 94>    H       -1.30759         9.82891         0.50545
| 95>    H       -2.71063         8.35835         2.80109
| 96>    H       -4.73356         8.15595         3.70638
| 97>    H       -8.77033         9.50593         3.23109
| 98>    H       -8.14587        10.84027         1.26021
| 99>    H       -7.27029        11.94373        -0.47442
|100>    H       -4.59041        12.26800        -1.92690
|101>    H       -4.77140        13.77297        -4.03875
|102>    H       -9.02292        15.86789        -5.27407
|103>    H      -10.49744        14.71431        -2.83048
|104>    H      -11.32394        16.51907        -5.18086
|105>    H      -14.82411        14.82239        -0.21852
|106>    H      -16.62036        17.69738        -3.87250
|107>    H      -18.72685        17.87233        -2.70204
|108>    H      -20.15623        17.32593        -0.77261
|109>    H      -19.29676        15.90761         1.04797
|110>    H      -16.99949        15.02335         0.95352
|111> *
|112>
|113>                          ****END OF INPUT****

CARTESIAN COORDINATES (ANGSTROEM)
---------------------------------
  C      4.637770    7.141580    4.118930
  C      3.912900    7.788210    5.087160
  C      4.072670    7.561300    6.469490
  N      4.154210    7.400870    7.603000
  C      2.991350    8.816400    4.811080
  N      2.255920    9.677440    4.621340
  C      5.781990    6.270020    4.366980
  C      6.559560    6.191370    3.174350
  C      7.719870    5.474390    3.119820
  C      8.156790    4.782170    4.271580
  C      7.375380    4.842840    5.461710
  C      6.181100    5.599490    5.491470
  C      7.819170    4.142330    6.601460
  C      8.980060    3.418490    6.570240
  C      9.749070    3.360110    5.398560
  C      9.346480    4.027790    4.273830
  C      5.896960    6.962760    2.110270
  O      6.281010    7.171620    0.982770
  C      4.593690    7.399390    2.695730
  C      3.625510    7.849750    1.853330
  C      2.230930    7.970640    2.059830
  S      1.290800    8.975160    0.988550
  C     -0.190090    8.576300    1.795950
  C      0.055830    7.662480    2.832390
  C      1.409950    7.338260    2.973420
  C     -0.925470    7.096400    3.661820
  N     -1.699310    6.602090    4.350820
  C     -1.392180    9.172040    1.362540
  C     -2.617020    8.998840    1.937160
  C     -3.795840    9.611880    1.484890
  S     -3.827090   10.655450    0.100240
  C     -5.528800   10.960010    0.243100
  C     -6.064570   10.265790    1.345200
  C     -5.086390    9.499270    2.046100
  C     -5.460350    8.743280    3.166490
  C     -6.778480    8.759160    3.571070
  C     -7.185580    8.004980    4.696500
  N     -7.534370    7.399620    5.604710
  C     -7.750380    9.521960    2.878070
  C     -7.402410   10.261590    1.785190
  C     -6.214140   11.795840   -0.657420
  C     -5.644310   12.414170   -1.726860
  C     -6.335490   13.252120   -2.630270
  S     -8.029810   13.632560   -2.454810
  C     -8.014600   14.622370   -3.883040
  C     -6.734920   14.637710   -4.451960
  C     -5.801490   13.872890   -3.745900
  C     -6.428340   15.360470   -5.618690
  N     -6.167620   15.946990   -6.568660
  C     -9.155050   15.299180   -4.360610
  C    -10.369820   15.277100   -3.744850
  C    -11.481900   15.976300   -4.257800
  C    -12.714270   16.018960   -3.666270
  C    -13.885170   16.727410   -4.148160
  C    -14.011470   17.400030   -5.336710
  C    -15.182500   18.072870   -5.744360
  N    -16.098730   18.642660   -6.136930
  C    -13.017340   17.511980   -6.330890
  N    -12.270080   17.643200   -7.193150
  C    -14.937410   16.579550   -3.148170
  C    -14.448690   15.762800   -2.089120
  C    -13.058790   15.369810   -2.373590
  O    -12.350820   14.665570   -1.682670
  C    -15.218880   15.444750   -1.007790
  C    -16.539680   15.939980   -0.932330
  C    -17.035700   16.760460   -1.985950
  C    -16.214490   17.072090   -3.093710
  C    -18.354600   17.250900   -1.901030
  C    -19.147150   16.946010   -0.828150
  C    -18.657720   16.138010    0.208750
  C    -17.381780   15.645790    0.157870
  H      8.298120    5.435290    2.208740
  H      5.604430    5.620840    6.403010
  H      7.225540    4.192810    7.502270
  H      9.312490    2.886970    7.449160
  H     10.661870    2.783530    5.391360
  H      9.934480    3.986840    3.368740
  H      3.974700    8.087650    0.852440
  H      1.764450    6.625670    3.697790
  H     -1.307590    9.828910    0.505450
  H     -2.710630    8.358350    2.801090
  H     -4.733560    8.155950    3.706380
  H     -8.770330    9.505930    3.231090
  H     -8.145870   10.840270    1.260210
  H     -7.270290   11.943730   -0.474420
  H     -4.590410   12.268000   -1.926900
  H     -4.771400   13.772970   -4.038750
  H     -9.022920   15.867890   -5.274070
  H    -10.497440   14.714310   -2.830480
  H    -11.323940   16.519070   -5.180860
  H    -14.824110   14.822390   -0.218520
  H    -16.620360   17.697380   -3.872500
  H    -18.726850   17.872330   -2.702040
  H    -20.156230   17.325930   -0.772610
  H    -19.296760   15.907610    1.047970
  H    -16.999490   15.023350    0.953520

 Total Charge           Charge          ....    0
 Multiplicity           Mult            ....    1
 Number of Electrons    NEL             ....  492
 Basis Dimension        Dim             .... 1131

ORBITAL ENERGIES
----------------

  NO   OCC          E(Eh)            E(eV)
   0   2.0000     -88.993966     -2421.6489
   1   2.0000     -88.989285     -2421.5215
   2   2.0000     -88.988888     -2421.5108
   3   2.0000     -19.220768      -523.0237
   4   2.0000     -19.219845      -522.9986
   5   2.0000     -14.421833      -392.4380
   6   2.0000     -14.420774      -392.4092
   7   2.0000     -14.420202      -392.3936
   8   2.0000     -14.419525      -392.3752
   9   2.0000     -14.417795      -392.3282
  10   2.0000     -14.415830      -392.2747
  11   2.0000     -14.407859      -392.0578
  12   2.0000     -10.371158      -282.2135
  13   2.0000     -10.370920      -282.2071
  14   2.0000     -10.349347      -281.6201
  15   2.0000     -10.348941      -281.6090
  16   2.0000     -10.347977      -281.5828
  17   2.0000     -10.344025      -281.4752
  18   2.0000     -10.342291      -281.4280
  19   2.0000     -10.342096      -281.4227
  20   2.0000     -10.338972      -281.3377
  21   2.0000     -10.336747      -281.2772
  22   2.0000     -10.335365      -281.2396
  23   2.0000     -10.335328      -281.2386
  24   2.0000     -10.331929      -281.1461
  25   2.0000     -10.330179      -281.0985
  26   2.0000     -10.328928      -281.0644
  27   2.0000     -10.326603      -281.0012
  28   2.0000     -10.322733      -280.8958
  29   2.0000     -10.322492      -280.8893
  30   2.0000     -10.321819      -280.8710
  31   2.0000     -10.320152      -280.8256
  32   2.0000     -10.319581      -280.8101
  33   2.0000     -10.319079      -280.7964
  34   2.0000     -10.318773      -280.7881
  35   2.0000     -10.318596      -280.7833
  36   2.0000     -10.317973      -280.7663
  37   2.0000     -10.317606      -280.7563
  38   2.0000     -10.316600      -280.7290
  39   2.0000     -10.314769      -280.6791
  40   2.0000     -10.313962      -280.6572
  41   2.0000     -10.313514      -280.6450
  42   2.0000     -10.313114      -280.6341
  43   2.0000     -10.312477      -280.6168
  44   2.0000     -10.312176      -280.6086
  45   2.0000     -10.308329      -280.5039
  46   2.0000     -10.306552      -280.4555
  47   2.0000     -10.306429      -280.4522
  48   2.0000     -10.305182      -280.4183
  49   2.0000     -10.304748      -280.4064
  50   2.0000     -10.304642      -280.4036
  51   2.0000     -10.303219      -280.3648
  52   2.0000     -10.301922      -280.3295
  53   2.0000     -10.301715      -280.3239
  54   2.0000     -10.301385      -280.3149
  55   2.0000     -10.301269      -280.3118
  56   2.0000     -10.299779      -280.2712
  57   2.0000     -10.299458      -280.2625
  58   2.0000     -10.299034      -280.2510
  59   2.0000     -10.298288      -280.2307
  60   2.0000     -10.297982      -280.2223
  61   2.0000     -10.293920      -280.1118
  62   2.0000     -10.290679      -280.0236
  63   2.0000     -10.290037      -280.0062
  64   2.0000     -10.289598      -279.9942
  65   2.0000     -10.289339      -279.9872
  66   2.0000     -10.288849      -279.9738
  67   2.0000     -10.288641      -279.9682
  68   2.0000     -10.288110      -279.9537
  69   2.0000     -10.287682      -279.9421
  70   2.0000     -10.287152      -279.9276
  71   2.0000      -8.088882      -220.1097
  72   2.0000      -8.084617      -219.9936
  73   2.0000      -8.084453      -219.9892
  74   2.0000      -6.057731      -164.8392
  75   2.0000      -6.053849      -164.7336
  76   2.0000      -6.053797      -164.7322
  77   2.0000      -6.053568      -164.7260
  78   2.0000      -6.051744      -164.6763
  79   2.0000      -6.049694      -164.6206
  80   2.0000      -6.049678      -164.6201
  81   2.0000      -6.046846      -164.5430
  82   2.0000      -6.046657      -164.5379
  83   2.0000      -1.135258       -30.8919
  84   2.0000      -1.134714       -30.8771
  85   2.0000      -1.030504       -28.0415
  86   2.0000      -1.028305       -27.9816
  87   2.0000      -1.025824       -27.9141
  88   2.0000      -1.021434       -27.7946
  89   2.0000      -1.019761       -27.7491
  90   2.0000      -1.003385       -27.3035
  91   2.0000      -1.000910       -27.2361
  92   2.0000      -1.000507       -27.2252
  93   2.0000      -0.998338       -27.1662
  94   2.0000      -0.998080       -27.1591
  95   2.0000      -0.995618       -27.0922
  96   2.0000      -0.994991       -27.0751
  97   2.0000      -0.976145       -26.5623
  98   2.0000      -0.973844       -26.4997
  99   2.0000      -0.962826       -26.1998
 100   2.0000      -0.949468       -25.8363
 101   2.0000      -0.939305       -25.5598
 102   2.0000      -0.931346       -25.3432
 103   2.0000      -0.925109       -25.1735
 104   2.0000      -0.920007       -25.0347
 105   2.0000      -0.910272       -24.7698
 106   2.0000      -0.897857       -24.4319
 107   2.0000      -0.892848       -24.2956
 108   2.0000      -0.887033       -24.1374
 109   2.0000      -0.884907       -24.0795
 110   2.0000      -0.883059       -24.0293
 111   2.0000      -0.877541       -23.8791
 112   2.0000      -0.873992       -23.7825
 113   2.0000      -0.872844       -23.7513
 114   2.0000      -0.862081       -23.4584
 115   2.0000      -0.846793       -23.0424
 116   2.0000      -0.835385       -22.7320
 117   2.0000      -0.832521       -22.6540
 118   2.0000      -0.830204       -22.5910
 119   2.0000      -0.813636       -22.1402
 120   2.0000      -0.799085       -21.7442
 121   2.0000      -0.789033       -21.4707
 122   2.0000      -0.769134       -20.9292
 123   2.0000      -0.764243       -20.7961
 124   2.0000      -0.763942       -20.7879
 125   2.0000      -0.754581       -20.5332
 126   2.0000      -0.742907       -20.2155
 127   2.0000      -0.736758       -20.0482
 128   2.0000      -0.730179       -19.8692
 129   2.0000      -0.711212       -19.3531
 130   2.0000      -0.707933       -19.2638
 131   2.0000      -0.705609       -19.2006
 132   2.0000      -0.705133       -19.1876
 133   2.0000      -0.698410       -19.0047
 134   2.0000      -0.694982       -18.9114
 135   2.0000      -0.691898       -18.8275
 136   2.0000      -0.684156       -18.6168
 137   2.0000      -0.681675       -18.5493
 138   2.0000      -0.676792       -18.4164
 139   2.0000      -0.668868       -18.2008
 140   2.0000      -0.664986       -18.0952
 141   2.0000      -0.658537       -17.9197
 142   2.0000      -0.646756       -17.5991
 143   2.0000      -0.638355       -17.3705
 144   2.0000      -0.634839       -17.2749
 145   2.0000      -0.628835       -17.1115
 146   2.0000      -0.624818       -17.0022
 147   2.0000      -0.614824       -16.7302
 148   2.0000      -0.611765       -16.6470
 149   2.0000      -0.610454       -16.6113
 150   2.0000      -0.608713       -16.5639
 151   2.0000      -0.604617       -16.4525
 152   2.0000      -0.594047       -16.1648
 153   2.0000      -0.592881       -16.1331
 154   2.0000      -0.587727       -15.9929
 155   2.0000      -0.569129       -15.4868
 156   2.0000      -0.566263       -15.4088
 157   2.0000      -0.563812       -15.3421
 158   2.0000      -0.559990       -15.2381
 159   2.0000      -0.555066       -15.1041
 160   2.0000      -0.552192       -15.0259
 161   2.0000      -0.550388       -14.9768
 162   2.0000      -0.548525       -14.9261
 163   2.0000      -0.546812       -14.8795
 164   2.0000      -0.541805       -14.7433
 165   2.0000      -0.541020       -14.7219
 166   2.0000      -0.539587       -14.6829
 167   2.0000      -0.537092       -14.6150
 168   2.0000      -0.534108       -14.5338
 169   2.0000      -0.532020       -14.4770
 170   2.0000      -0.530554       -14.4371
 171   2.0000      -0.527880       -14.3644
 172   2.0000      -0.525295       -14.2940
 173   2.0000      -0.523450       -14.2438
 174   2.0000      -0.522594       -14.2205
 175   2.0000      -0.521281       -14.1848
 176   2.0000      -0.517584       -14.0842
 177   2.0000      -0.516109       -14.0441
 178   2.0000      -0.515295       -14.0219
 179   2.0000      -0.512173       -13.9369
 180   2.0000      -0.510559       -13.8930
 181   2.0000      -0.501762       -13.6536
 182   2.0000      -0.500704       -13.6249
 183   2.0000      -0.498371       -13.5614
 184   2.0000      -0.494849       -13.4655
 185   2.0000      -0.494295       -13.4505
 186   2.0000      -0.490751       -13.3540
 187   2.0000      -0.489693       -13.3252
 188   2.0000      -0.488888       -13.3033
 189   2.0000      -0.487041       -13.2531
 190   2.0000      -0.480960       -13.0876
 191   2.0000      -0.476320       -12.9613
 192   2.0000      -0.474781       -12.9195
 193   2.0000      -0.469639       -12.7795
 194   2.0000      -0.466884       -12.7046
 195   2.0000      -0.462684       -12.5903
 196   2.0000      -0.459128       -12.4935
 197   2.0000      -0.458674       -12.4812
 198   2.0000      -0.455173       -12.3859
 199   2.0000      -0.453623       -12.3437
 200   2.0000      -0.451542       -12.2871
 201   2.0000      -0.449712       -12.2373
 202   2.0000      -0.448280       -12.1983
 203   2.0000      -0.447704       -12.1826
 204   2.0000      -0.447124       -12.1669
 205   2.0000      -0.445752       -12.1295
 206   2.0000      -0.444878       -12.1058
 207   2.0000      -0.443858       -12.0780
 208   2.0000      -0.443319       -12.0633
 209   2.0000      -0.441843       -12.0232
 210   2.0000      -0.438127       -11.9220
 211   2.0000      -0.437130       -11.8949
 212   2.0000      -0.435341       -11.8462
 213   2.0000      -0.435270       -11.8443
 214   2.0000      -0.434695       -11.8287
 215   2.0000      -0.434323       -11.8185
 216   2.0000      -0.431626       -11.7451
 217   2.0000      -0.427850       -11.6424
 218   2.0000      -0.424737       -11.5577
 219   2.0000      -0.421567       -11.4714
 220   2.0000      -0.421196       -11.4613
 221   2.0000      -0.420698       -11.4478
 222   2.0000      -0.418205       -11.3799
 223   2.0000      -0.416258       -11.3269
 224   2.0000      -0.412010       -11.2114
 225   2.0000      -0.410084       -11.1589
 226   2.0000      -0.407486       -11.0882
 227   2.0000      -0.402575       -10.9546
 228   2.0000      -0.390077       -10.6145
 229   2.0000      -0.382030       -10.3956
 230   2.0000      -0.377600       -10.2750
 231   2.0000      -0.370550       -10.0832
 232   2.0000      -0.357222        -9.7205
 233   2.0000      -0.351615        -9.5679
 234   2.0000      -0.347147        -9.4463
 235   2.0000      -0.343541        -9.3482
 236   2.0000      -0.340404        -9.2629
 237   2.0000      -0.339712        -9.2440
 238   2.0000      -0.337788        -9.1917
 239   2.0000      -0.321613        -8.7515
 240   2.0000      -0.319436        -8.6923
 241   2.0000      -0.310108        -8.4385
 242   2.0000      -0.299433        -8.1480
 243   2.0000      -0.296768        -8.0755
 244   2.0000      -0.284719        -7.7476
 245   2.0000      -0.245787        -6.6882
 246   0.0000      -0.123475        -3.3599
 247   0.0000      -0.103958        -2.8288
 248   0.0000      -0.086396        -2.3510
 249   0.0000      -0.063692        -1.7331
 250   0.0000      -0.059633        -1.6227

MULLIKEN ATOMIC CHARGES
-----------------------
   0 C :    0.267090
   1 C :   -0.335947
   2 C :   -0.171056
   3 N :    0.158226
   4 C :   -0.196903
   5 N :    0.167135
   6 C :    0.033972
   7 C :    0.014688
   8 C :   -0.082931
   9 C :    0.095881
  10 C :    0.095536
  11 C :   -0.081416
  12 C :   -0.019228
  13 C :    0.038389
  14 C :    0.036594
  15 C :   -0.016019
  16 C :    0.136330
  17 O :   -0.141153
  18 C :   -0.134500
  19 C :    0.098510
  20 C :   -0.110825
  21 S :    0.176510
  22 C :   -0.032052
  23 C :   -0.088654
  24 C :    0.058780
  25 C :   -0.178489
  26 N :    0.126048
  27 C :    0.029952
  28 C :   -0.003234
  29 C :   -0.082206
  30 S :    0.148226
  31 C :   -0.074642
  32 C :    0.114970
  33 C :    0.125561
  34 C :   -0.034981
  35 C :   -0.096564
  36 C :   -0.141045
  37 N :    0.113382
  38 C :    0.048123
  39 C :   -0.027628
  40 C :   -0.010434
  41 C :    0.013680
  42 C :   -0.022665
  43 S :    0.139151
  44 C :   -0.035741
  45 C :   -0.029838
  46 C :    0.006662
  47 C :   -0.192022
  48 N :    0.146863
  49 C :    0.015767
  50 C :   -0.008813
  51 C :   -0.041088
  52 C :   -0.062991
  53 C :    0.335873
  54 C :   -0.355764
  55 C :   -0.181332
  56 N :    0.149244
  57 C :   -0.191067
  58 N :    0.152853
  59 C :    0.046937
  60 C :    0.001036
  61 C :    0.148483
  62 O :   -0.156634
  63 C :   -0.083019
  64 C :    0.100847
  65 C :    0.096758
  66 C :   -0.087285
  67 C :   -0.020251
  68 C :    0.038701
  69 C :    0.037527
  70 C :   -0.017750
  71 H :   -0.010596
  72 H :   -0.003932
  73 H :   -0.008696
  74 H :   -0.003409
  75 H :   -0.003536
  76 H :   -0.016058
  77 H :    0.024935
  78 H :    0.013934
  79 H :   -0.010067
  80 H :    0.013115
  81 H :    0.016485
  82 H :    0.001694
  83 H :   -0.012727
  84 H :    0.007010
  85 H :    0.002291
  86 H :    0.000837
  87 H :    0.033058
  88 H :    0.030969
  89 H :    0.014365
  90 H :   -0.015254
  91 H :   -0.007623
  92 H :   -0.008346
  93 H :   -0.004439
  94 H :   -0.004199
  95 H :   -0.017927
Sum of atomic charges:   -0.0000000

LOEWDIN ATOMIC CHARGES
----------------------
   0 C :    0.065214
   1 C :   -0.139021
   2 C :   -0.020345
   3 N :   -0.046608
   4 C :   -0.017962
   5 N :   -0.042713
   6 C :   -0.024020
   7 C :   -0.058198
   8 C :    0.034230
   9 C :   -0.008719
  10 C :   -0.004960
  11 C :    0.017124
  12 C :   -0.005732
  13 C :   -0.011252
  14 C :   -0.011566
  15 C :   -0.008759
  16 C :    0.083534
  17 O :   -0.141858
  18 C :   -0.086315
  19 C :    0.044351
  20 C :   -0.183366
  21 S :    0.482809
  22 C :   -0.118412
  23 C :   -0.107156
  24 C :    0.016173
  25 C :   -0.026156
  26 N :   -0.055463
  27 C :   -0.057580
  28 C :   -0.007068
  29 C :   -0.164584
  30 S :    0.488608
  31 C :   -0.163043
  32 C :   -0.034952
  33 C :   -0.035641
  34 C :    0.029645
  35 C :   -0.062938
  36 C :   -0.030174
  37 N :   -0.046504
  38 C :    0.005009
  39 C :   -0.005950
  40 C :   -0.033169
  41 C :   -0.041556
  42 C :   -0.148005
  43 S :    0.468846
  44 C :   -0.145146
  45 C :   -0.085615
  46 C :   -0.026595
  47 C :   -0.034515
  48 N :   -0.038514
  49 C :    0.008643
  50 C :   -0.025945
  51 C :    0.064279
  52 C :   -0.085733
  53 C :    0.073535
  54 C :   -0.136210
  55 C :   -0.016769
  56 N :   -0.052322
  57 C :   -0.021727
  58 N :   -0.048450
  59 C :   -0.025304
  60 C :   -0.056258
  61 C :    0.085538
  62 O :   -0.149949
  63 C :    0.031931
  64 C :   -0.008325
  65 C :   -0.005672
  66 C :    0.019480
  67 C :   -0.005001
  68 C :   -0.012369
  69 C :   -0.011668
  70 C :   -0.009768
  71 H :    0.039929
  72 H :    0.039225
  73 H :    0.034969
  74 H :    0.033830
  75 H :    0.033454
  76 H :    0.032293
  77 H :    0.046765
  78 H :    0.043828
  79 H :    0.023905
  80 H :    0.044397
  81 H :    0.046475
  82 H :    0.042143
  83 H :    0.034284
  84 H :    0.031323
  85 H :    0.031625
  86 H :    0.041748
  87 H :    0.049718
  88 H :    0.027635
  89 H :    0.044103
  90 H :    0.038178
  91 H :    0.039262
  92 H :    0.035086
  93 H :    0.033594
  94 H :    0.033157
  95 H :    0.031728

  Mayer bond orders larger than 0.100000
B(  0-C ,  1-C ) :   1.6465 B(  0-C ,  6-C ) :   1.0006 B(  0-C , 18-C ) :   1.0335
B(  1-C ,  2-C ) :   1.1281 B(  1-C ,  4-C ) :   1.1702 B(  2-C ,  3-N ) :   2.9871
B(  4-C ,  5-N ) :   2.9883 B(  6-C ,  7-C ) :   1.2144 B(  6-C , 11-C ) :   1.4570
B(  7-C ,  8-C ) :   1.4740 B(  7-C , 16-C ) :   0.9221 B(  8-C ,  9-C ) :   1.1839
B(  8-C , 71-H ) :   1.0161 B(  9-C , 10-C ) :   1.2558 B(  9-C , 15-C ) :   1.2454
B( 10-C , 11-C ) :   1.2037 B( 10-C , 12-C ) :   1.2419 B( 11-C , 72-H ) :   0.9931
B( 12-C , 13-C ) :   1.4894 B( 12-C , 73-H ) :   0.9973 B( 13-C , 14-C ) :   1.2611
B( 13-C , 74-H ) :   0.9886 B( 14-C , 15-C ) :   1.4882 B( 14-C , 75-H ) :   0.9887
B( 15-C , 76-H ) :   0.9975 B( 16-C , 17-O ) :   2.2687 B( 16-C , 18-C ) :   0.9351
B( 18-C , 19-C ) :   1.6921 B( 19-C , 20-C ) :   1.1084 B( 19-C , 77-H ) :   0.9242
B( 20-C , 21-S ) :   1.1069 B( 20-C , 24-C ) :   1.4348 B( 21-S , 22-C ) :   1.1553
B( 22-C , 23-C ) :   1.4084 B( 22-C , 27-C ) :   1.1910 B( 23-C , 24-C ) :   1.3457
B( 23-C , 25-C ) :   1.1142 B( 24-C , 78-H ) :   0.9954 B( 25-C , 26-N ) :   2.9830
B( 27-C , 28-C ) :   1.5958 B( 27-C , 79-H ) :   0.9440 B( 28-C , 29-C ) :   1.2419
B( 28-C , 80-H ) :   0.9533 B( 29-C , 30-S ) :   1.1349 B( 29-C , 31-C ) :   0.1011
B( 29-C , 33-C ) :   1.2762 B( 30-S , 31-C ) :   1.1388 B( 31-C , 32-C ) :   1.3044
B( 31-C , 40-C ) :   1.2242 B( 32-C , 33-C ) :   1.2120 B( 32-C , 39-C ) :   1.2093
B( 33-C , 34-C ) :   1.2113 B( 34-C , 35-C ) :   1.5168 B( 34-C , 81-H ) :   0.9941
B( 35-C , 36-C ) :   1.0597 B( 35-C , 38-C ) :   1.2195 B( 36-C , 37-N ) :   3.0507
B( 38-C , 39-C ) :   1.5422 B( 38-C , 82-H ) :   0.9883 B( 39-C , 83-H ) :   0.9933
B( 40-C , 41-C ) :   1.5941 B( 40-C , 84-H ) :   0.9629 B( 41-C , 42-C ) :   1.1882
B( 41-C , 85-H ) :   0.9736 B( 42-C , 43-S ) :   1.1142 B( 42-C , 46-C ) :   1.4287
B( 43-S , 44-C ) :   1.1142 B( 44-C , 45-C ) :   1.4187 B( 44-C , 49-C ) :   1.1858
B( 45-C , 46-C ) :   1.2926 B( 45-C , 47-C ) :   1.1013 B( 46-C , 86-H ) :   1.0108
B( 47-C , 48-N ) :   3.0230 B( 49-C , 50-C ) :   1.5376 B( 49-C , 87-H ) :   0.9737
B( 50-C , 51-C ) :   1.1701 B( 50-C , 88-H ) :   0.9757 B( 51-C , 52-C ) :   1.5372
B( 51-C , 89-H ) :   0.9652 B( 52-C , 53-C ) :   1.0618 B( 52-C , 61-C ) :   0.9426
B( 53-C , 54-C ) :   1.6300 B( 53-C , 59-C ) :   0.9873 B( 54-C , 55-C ) :   1.1479
B( 54-C , 57-C ) :   1.1453 B( 55-C , 56-N ) :   2.9614 B( 57-C , 58-N ) :   2.9640
B( 59-C , 60-C ) :   1.2155 B( 59-C , 66-C ) :   1.4485 B( 60-C , 61-C ) :   0.9473
B( 60-C , 63-C ) :   1.4679 B( 61-C , 62-O ) :   2.1925 B( 63-C , 64-C ) :   1.1793
B( 63-C , 90-H ) :   1.0162 B( 64-C , 65-C ) :   1.2564 B( 64-C , 70-C ) :   1.2425
B( 65-C , 66-C ) :   1.2059 B( 65-C , 67-C ) :   1.2407 B( 66-C , 91-H ) :   0.9890
B( 67-C , 68-C ) :   1.4886 B( 67-C , 92-H ) :   0.9973 B( 68-C , 69-C ) :   1.2603
B( 68-C , 93-H ) :   0.9881 B( 69-C , 70-C ) :   1.4889 B( 69-C , 94-H ) :   0.9885
B( 70-C , 95-H ) :   0.9979

-----------------------------------------------------------------------------
         ABSORPTION SPECTRUM VIA TRANSITION ELECTRIC DIPOLE MOMENTS
-----------------------------------------------------------------------------
State   Energy  Wavelength   fosc         T2         TX        TY        TZ
        (cm-1)    (nm)                  (au**2)     (au)      (au)      (au)
-----------------------------------------------------------------------------
   0   12945.8    772.5   2.112284706  53.71554   5.98569  -3.25942   2.69504
   1   18086.8    552.9   0.026721999   0.48639  -0.34853  -0.60377   0.01926
   2   21505.3    465.0   0.032928748   0.50409   0.54885   0.44262  -0.08326
   3   22119.7    452.1   0.069657125   1.03672  -0.86662   0.52464  -0.10224
   4   24401.2    409.8   0.014719686   0.19859  -0.09468   0.14794   0.40956
   5   25464.6    392.7   0.035876463   0.46382   0.57724   0.36120   0.01211
   6   26128.9    382.7   0.220683410   2.78051   1.57186  -0.42370   0.36089
   7   26276.6    380.6   0.051051959   0.63961  -0.74461   0.20599  -0.20675
   8   27307.1    366.2   0.104512147   1.25999   1.06868   0.00426  -0.34335
   9   27687.9    361.2   0.062470233   0.74278   0.85897  -0.07013  -0.00599
  10   28114.8    355.7   0.131491578   1.53971  -1.14216   0.18465   0.44841
  11   28645.2    349.1   0.197831613   2.27363   1.38108  -0.01427  -0.60503
  12   28960.1    345.3   0.181973669   2.06864   1.34712  -0.37126  -0.34070
  13   29517.7    338.8   0.085465343   0.95320  -0.88696   0.40790  -0.01079
  14   29651.0    337.3   0.066817978   0.74187   0.04448   0.54818  -0.66286
  15   30209.0    331.0   0.144085758   1.57022  -0.41827  -0.11917   1.17519
  16   30506.2    327.8   0.148166635   1.59896   1.17316  -0.38506  -0.27272
  17   32188.4    310.7   0.547530572   5.59995  -1.78200  -0.08342   1.55482
  18   32428.1    308.4   0.287064367   2.91430   0.27881  -1.33314   1.02923
  19   32461.0    308.1   0.276457254   2.80377  -1.30835  -0.20350   1.02498
  20   32899.9    304.0   0.007088991   0.07094  -0.22167   0.14697   0.01417
  21   33249.5    300.8   0.159268734   1.57696  -1.13416   0.53596   0.05823
  22   33550.0    298.1   0.268809854   2.63771   1.35762  -0.61744  -0.64294
  23   33596.6    297.6   0.114709617   1.12404   0.08278   0.74478  -0.75000
  24   33747.7    296.3   0.003149870   0.03073   0.15583  -0.01769  -0.07829
  25   33897.7    295.0   0.242889313   2.35892   0.69013   0.50287  -1.27662
  26   34482.0    290.0   0.005534150   0.05284  -0.13585  -0.01076  -0.18511
  27   34938.5    286.2   0.032568509   0.30688   0.40226  -0.07401  -0.37362
  28   35148.5    284.5   0.006104511   0.05718   0.12731   0.02802  -0.20046
  29   35586.6    281.0   0.469513927   4.34347   1.53991   0.36626  -1.35573
  30   36007.4    277.7   0.228592783   2.09000   0.21115  -1.18654   0.79846
  31   36464.2    274.2   0.090956033   0.82118   0.85865  -0.20481  -0.20483
  32   36989.9    270.3   0.065660515   0.58438  -0.04555  -0.30298   0.70036
  33   37179.6    269.0   0.139505496   1.23527   0.40002   0.26817  -1.00167
  34   37652.5    265.6   0.168714489   1.47514   1.06853  -0.53919  -0.20653
  35   37869.0    264.1   0.090894766   0.79019   0.79360  -0.26212  -0.30278
  36   38101.3    262.5   0.023118440   0.19975  -0.05839  -0.36146  -0.25630
  37   38277.7    261.2   0.096163710   0.82707   0.60412   0.08762  -0.67411
  38   38593.1    259.1   0.032049142   0.27339   0.50501  -0.13517  -0.00893
  39   38723.1    258.2   0.015265420   0.12978  -0.24645  -0.06643   0.25422
  40   39113.7    255.7   0.001473200   0.01240   0.09115   0.05550  -0.03179
  41   39265.0    254.7   0.133671763   1.12075   0.42059  -0.59666   0.76671
  42   39372.9    254.0   0.027238123   0.22775   0.21341  -0.12894  -0.40691
  43   39430.2    253.6   0.020353291   0.16993   0.35216  -0.19630   0.08593
  44   39704.0    251.9   0.126775879   1.05118   0.68742  -0.51757   0.55745
  45   40061.2    249.6   0.024683038   0.20284  -0.18387   0.15680  -0.38006

FINAL SINGLE POINT ENERGY     -3987.549187681133

DIPOLE MOMENT
-------------
                                X             Y             Z
Electronic contribution:      9.55474       5.66427     -10.27467
Nuclear contribution   :     -8.29120      -7.45491      11.01912
                        -----------------------------------------
Total Dipole Moment    :      1.26354      -1.79063       0.74445
                        -----------------------------------------
Magnitude (a.u.)       :      2.31454
Magnitude (Debye)      :      5.88309

Rotational constants in cm-1:     0.002367     0.000188     0.000176
Rotational constants in MHz :    70.966224     5.635596     5.278100

                             ****ORCA TERMINATED NORMALLY****
TOTAL RUN TIME: 0 days 0 hours 8 minutes 25 seconds 435 msec
