                         Program Version 4.2.0 -  RELEASE  -
|  1> # ORCA input file
|  2> # SCF done       -132.665927666320          0.000374794953
|  3> ! CAM-B3LYP def2-SVP def2/J RIJCOSX Grid4 TightSCF
|  4> %maxcore 5000
|  5> %tddft
|  6>     Mode sTDDFT
|  7>     Ethresh 5.0
|  8>     maxcore 5000
|  9> end
| 10>
| 11> %pal
| 12>   nprocs 6
| 13>   end
| 14> * xyz 0 1
| 15>    C        2.46056         0.30944        -1.52531
| 16>    N        3.19241        -0.78540        -1.44617
| 17>    N        2.65945        -1.91942        -1.13314
| 18>    C        1.35610        -2.01404        -0.89604
| 19>    C        0.51093        -0.89654        -0.95635
| 20>    C        1.08830         0.31309        -1.27800
| 21>    C        0.82634        -3.34002        -0.55192
| 22>    N        1.19933        -4.36531        -1.31023
| 23>    N        0.77784        -5.55267        -1.06288
| 24>    C       -0.05148        -5.80701        -0.04923
| 25>    C       -0.50873        -4.77772         0.79142
| 26>    C       -0.05005        -3.50849         0.53231
| 27>    C       -0.42837        -7.18974         0.10040
| 28>    C       -1.20806        -7.78300         1.04660
| 29>    C       -1.34135        -9.18255         0.86392
| 30>    C       -2.08685       -10.08718         1.64382
| 31>    C       -2.90439        -9.62488         2.74830
| 32>    C       -3.73768        -8.54252         2.77814
| 33>    C       -4.37100        -8.38163         4.02799
| 34>    C       -4.03137        -9.32178         4.95777
| 35>    S       -2.90749       -10.44777         4.28209
| 36>    C       -4.50066        -9.43382         6.36293
| 37>   Cl       -5.48071        -7.10493         4.35512
| 38>    C       -2.00673       -11.42959         1.29036
| 39>    C       -1.26110       -11.88859         0.17394
| 40>    C       -0.55026       -10.97882        -0.63372
| 41>    C       -0.59461        -9.63935        -0.25131
| 42>    S        0.20062        -8.32061        -1.06722
| 43>    C        0.17613       -11.38708        -1.81903
| 44>    C        1.36755       -10.90546        -2.28349
| 45>    C        1.75054       -11.48587        -3.51048
| 46>    C        0.86481       -12.39851        -4.00661
| 47>    S       -0.47679       -12.56322        -2.93013
| 48>    C        0.95525       -13.17276        -5.27099
| 49>   Cl        3.21371       -11.07983        -4.31889
| 50>    C       -1.34212       -13.29748         0.04245
| 51>    C       -2.13395       -13.88275         0.98402
| 52>    S       -2.82223       -12.73684         2.10214
| 53>    C       -2.46796       -15.27186         1.16689
| 54>    N       -3.31743       -15.52051         2.16535
| 55>    N       -3.70796       -16.71751         2.43182
| 56>    C       -3.27451       -17.75093         1.71641
| 57>    C       -2.37325       -17.58598         0.65094
| 58>    C       -1.95629       -16.30940         0.36587
| 59>    C       -3.77807       -19.07476         2.08798
| 60>    N       -3.29606       -20.11163         1.41019
| 61>    N       -3.68887       -21.31670         1.67443
| 62>    C       -4.57671       -21.53988         2.62454
| 63>    C       -5.13853       -20.51565         3.38840
| 64>    C       -4.72537       -19.23121         3.11126
| 65>    H        2.99452         1.20928        -1.79456
| 66>    H       -0.54980        -0.99295        -0.77524
| 67>    H        0.50845         1.22138        -1.34399
| 68>    H       -1.18669        -4.98071         1.60575
| 69>    H       -0.33642        -2.66762         1.14700
| 70>    H       -1.65830        -7.25714         1.86811
| 71>    H       -3.93244        -7.91015         1.93162
| 72>    H       -4.09966        -8.61777         6.96513
| 73>    H       -4.17945       -10.37741         6.79464
| 74>    H       -5.58773        -9.37394         6.40203
| 75>    H        1.97306       -10.18877        -1.76204
| 76>    H        0.82076       -12.51286        -6.12877
| 77>    H        0.19144       -13.94507        -5.30206
| 78>    H        1.93806       -13.63452        -5.35801
| 79>    H       -0.82226       -13.84840        -0.71870
| 80>    H       -2.04207       -18.45105         0.09932
| 81>    H       -1.26581       -16.10219        -0.43649
| 82>    H       -4.84317       -22.57646         2.77385
| 83>    H       -5.86424       -20.72835         4.15879
| 84>    H       -5.09187       -18.36308         3.63528
| 85> *
| 86>
| 87>                          ****END OF INPUT****

CARTESIAN COORDINATES (ANGSTROEM)
---------------------------------
  C      2.460560    0.309440   -1.525310
  N      3.192410   -0.785400   -1.446170
  N      2.659450   -1.919420   -1.133140
  C      1.356100   -2.014040   -0.896040
  C      0.510930   -0.896540   -0.956350
  C      1.088300    0.313090   -1.278000
  C      0.826340   -3.340020   -0.551920
  N      1.199330   -4.365310   -1.310230
  N      0.777840   -5.552670   -1.062880
  C     -0.051480   -5.807010   -0.049230
  C     -0.508730   -4.777720    0.791420
  C     -0.050050   -3.508490    0.532310
  C     -0.428370   -7.189740    0.100400
  C     -1.208060   -7.783000    1.046600
  C     -1.341350   -9.182550    0.863920
  C     -2.086850  -10.087180    1.643820
  C     -2.904390   -9.624880    2.748300
  C     -3.737680   -8.542520    2.778140
  C     -4.371000   -8.381630    4.027990
  C     -4.031370   -9.321780    4.957770
  S     -2.907490  -10.447770    4.282090
  C     -4.500660   -9.433820    6.362930
  Cl    -5.480710   -7.104930    4.355120
  C     -2.006730  -11.429590    1.290360
  C     -1.261100  -11.888590    0.173940
  C     -0.550260  -10.978820   -0.633720
  C     -0.594610   -9.639350   -0.251310
  S      0.200620   -8.320610   -1.067220
  C      0.176130  -11.387080   -1.819030
  C      1.367550  -10.905460   -2.283490
  C      1.750540  -11.485870   -3.510480
  C      0.864810  -12.398510   -4.006610
  S     -0.476790  -12.563220   -2.930130
  C      0.955250  -13.172760   -5.270990
  Cl     3.213710  -11.079830   -4.318890
  C     -1.342120  -13.297480    0.042450
  C     -2.133950  -13.882750    0.984020
  S     -2.822230  -12.736840    2.102140
  C     -2.467960  -15.271860    1.166890
  N     -3.317430  -15.520510    2.165350
  N     -3.707960  -16.717510    2.431820
  C     -3.274510  -17.750930    1.716410
  C     -2.373250  -17.585980    0.650940
  C     -1.956290  -16.309400    0.365870
  C     -3.778070  -19.074760    2.087980
  N     -3.296060  -20.111630    1.410190
  N     -3.688870  -21.316700    1.674430
  C     -4.576710  -21.539880    2.624540
  C     -5.138530  -20.515650    3.388400
  C     -4.725370  -19.231210    3.111260
  H      2.994520    1.209280   -1.794560
  H     -0.549800   -0.992950   -0.775240
  H      0.508450    1.221380   -1.343990
  H     -1.186690   -4.980710    1.605750
  H     -0.336420   -2.667620    1.147000
  H     -1.658300   -7.257140    1.868110
  H     -3.932440   -7.910150    1.931620
  H     -4.099660   -8.617770    6.965130
  H     -4.179450  -10.377410    6.794640
  H     -5.587730   -9.373940    6.402030
  H      1.973060  -10.188770   -1.762040
  H      0.820760  -12.512860   -6.128770
  H      0.191440  -13.945070   -5.302060
  H      1.938060  -13.634520   -5.358010
  H     -0.822260  -13.848400   -0.718700
  H     -2.042070  -18.451050    0.099320
  H     -1.265810  -16.102190   -0.436490
  H     -4.843170  -22.576460    2.773850
  H     -5.864240  -20.728350    4.158790
  H     -5.091870  -18.363080    3.635280

 Total Charge           Charge          ....    0
 Multiplicity           Mult            ....    1
 Number of Electrons    NEL             ....  390
 Basis Dimension        Dim             ....  824

ORBITAL ENERGIES
----------------

  NO   OCC          E(Eh)            E(eV)
   0   2.0000    -101.583484     -2764.2271
   1   2.0000    -101.577482     -2764.0638
   2   2.0000     -88.956189     -2420.6210
   3   2.0000     -88.955870     -2420.6123
   4   2.0000     -88.945560     -2420.3317
   5   2.0000     -88.945222     -2420.3225
   6   2.0000     -14.443794      -393.0356
   7   2.0000     -14.441123      -392.9629
   8   2.0000     -14.439816      -392.9274
   9   2.0000     -14.439000      -392.9052
  10   2.0000     -14.438287      -392.8858
  11   2.0000     -14.435044      -392.7975
  12   2.0000     -14.433461      -392.7544
  13   2.0000     -14.433226      -392.7480
  14   2.0000     -10.328673      -281.0575
  15   2.0000     -10.328202      -281.0447
  16   2.0000     -10.321250      -280.8555
  17   2.0000     -10.320757      -280.8421
  18   2.0000     -10.320611      -280.8381
  19   2.0000     -10.320364      -280.8314
  20   2.0000     -10.315288      -280.6933
  21   2.0000     -10.311978      -280.6032
  22   2.0000     -10.311655      -280.5944
  23   2.0000     -10.311436      -280.5884
  24   2.0000     -10.308106      -280.4978
  25   2.0000     -10.307096      -280.4703
  26   2.0000     -10.305283      -280.4210
  27   2.0000     -10.303605      -280.3753
  28   2.0000     -10.303438      -280.3708
  29   2.0000     -10.303436      -280.3708
  30   2.0000     -10.303333      -280.3679
  31   2.0000     -10.303278      -280.3665
  32   2.0000     -10.301806      -280.3264
  33   2.0000     -10.301024      -280.3051
  34   2.0000     -10.300200      -280.2827
  35   2.0000     -10.299895      -280.2744
  36   2.0000     -10.299437      -280.2619
  37   2.0000     -10.299389      -280.2606
  38   2.0000     -10.298834      -280.2455
  39   2.0000     -10.296680      -280.1869
  40   2.0000     -10.295222      -280.1472
  41   2.0000     -10.294515      -280.1280
  42   2.0000     -10.286152      -279.9004
  43   2.0000     -10.285816      -279.8913
  44   2.0000     -10.279740      -279.7260
  45   2.0000     -10.279170      -279.7104
  46   2.0000     -10.277854      -279.6746
  47   2.0000     -10.275734      -279.6169
  48   2.0000     -10.274801      -279.5916
  49   2.0000     -10.273898      -279.5670
  50   2.0000      -9.538196      -259.5475
  51   2.0000      -9.532235      -259.3853
  52   2.0000      -8.051853      -219.1021
  53   2.0000      -8.051299      -219.0870
  54   2.0000      -8.040295      -218.7876
  55   2.0000      -8.039763      -218.7731
  56   2.0000      -7.308410      -198.8719
  57   2.0000      -7.302489      -198.7108
  58   2.0000      -7.298388      -198.5992
  59   2.0000      -7.298150      -198.5928
  60   2.0000      -7.292406      -198.4365
  61   2.0000      -7.292137      -198.4291
  62   2.0000      -6.021017      -163.8402
  63   2.0000      -6.020499      -163.8261
  64   2.0000      -6.016982      -163.7304
  65   2.0000      -6.016533      -163.7182
  66   2.0000      -6.014032      -163.6501
  67   2.0000      -6.013443      -163.6341
  68   2.0000      -6.009975      -163.5397
  69   2.0000      -6.009485      -163.5264
  70   2.0000      -6.005664      -163.4224
  71   2.0000      -6.005118      -163.4076
  72   2.0000      -6.001712      -163.3149
  73   2.0000      -6.001184      -163.3005
  74   2.0000      -1.127243       -30.6738
  75   2.0000      -1.126885       -30.6641
  76   2.0000      -1.117780       -30.4164
  77   2.0000      -1.116455       -30.3803
  78   2.0000      -1.009887       -27.4804
  79   2.0000      -0.998970       -27.1834
  80   2.0000      -0.992252       -27.0005
  81   2.0000      -0.982129       -26.7251
  82   2.0000      -0.956751       -26.0345
  83   2.0000      -0.949683       -25.8422
  84   2.0000      -0.942106       -25.6360
  85   2.0000      -0.938561       -25.5395
  86   2.0000      -0.930253       -25.3135
  87   2.0000      -0.922941       -25.1145
  88   2.0000      -0.913882       -24.8680
  89   2.0000      -0.911071       -24.7915
  90   2.0000      -0.902036       -24.5457
  91   2.0000      -0.896077       -24.3835
  92   2.0000      -0.893917       -24.3247
  93   2.0000      -0.883468       -24.0404
  94   2.0000      -0.856478       -23.3060
  95   2.0000      -0.847350       -23.0576
  96   2.0000      -0.835843       -22.7444
  97   2.0000      -0.818086       -22.2613
  98   2.0000      -0.807197       -21.9650
  99   2.0000      -0.803697       -21.8697
 100   2.0000      -0.795762       -21.6538
 101   2.0000      -0.789312       -21.4783
 102   2.0000      -0.774605       -21.0781
 103   2.0000      -0.768935       -20.9238
 104   2.0000      -0.764744       -20.8098
 105   2.0000      -0.755048       -20.5459
 106   2.0000      -0.742474       -20.2037
 107   2.0000      -0.737732       -20.0747
 108   2.0000      -0.726264       -19.7626
 109   2.0000      -0.724038       -19.7021
 110   2.0000      -0.720450       -19.6044
 111   2.0000      -0.699420       -19.0322
 112   2.0000      -0.677517       -18.4362
 113   2.0000      -0.658024       -17.9057
 114   2.0000      -0.648731       -17.6529
 115   2.0000      -0.643302       -17.5051
 116   2.0000      -0.637696       -17.3526
 117   2.0000      -0.630474       -17.1561
 118   2.0000      -0.626377       -17.0446
 119   2.0000      -0.622616       -16.9423
 120   2.0000      -0.619046       -16.8451
 121   2.0000      -0.614037       -16.7088
 122   2.0000      -0.604760       -16.4564
 123   2.0000      -0.599688       -16.3183
 124   2.0000      -0.594643       -16.1810
 125   2.0000      -0.587626       -15.9901
 126   2.0000      -0.586029       -15.9466
 127   2.0000      -0.580008       -15.7828
 128   2.0000      -0.577836       -15.7237
 129   2.0000      -0.573613       -15.6088
 130   2.0000      -0.556146       -15.1335
 131   2.0000      -0.542098       -14.7512
 132   2.0000      -0.538943       -14.6654
 133   2.0000      -0.536028       -14.5861
 134   2.0000      -0.535587       -14.5741
 135   2.0000      -0.529324       -14.4036
 136   2.0000      -0.521088       -14.1795
 137   2.0000      -0.519071       -14.1246
 138   2.0000      -0.517553       -14.0833
 139   2.0000      -0.516922       -14.0662
 140   2.0000      -0.515947       -14.0396
 141   2.0000      -0.515236       -14.0203
 142   2.0000      -0.513979       -13.9861
 143   2.0000      -0.509452       -13.8629
 144   2.0000      -0.507241       -13.8027
 145   2.0000      -0.505208       -13.7474
 146   2.0000      -0.501219       -13.6389
 147   2.0000      -0.499615       -13.5952
 148   2.0000      -0.498771       -13.5722
 149   2.0000      -0.496679       -13.5153
 150   2.0000      -0.490704       -13.3527
 151   2.0000      -0.485318       -13.2062
 152   2.0000      -0.476365       -12.9625
 153   2.0000      -0.474656       -12.9160
 154   2.0000      -0.466275       -12.6880
 155   2.0000      -0.464089       -12.6285
 156   2.0000      -0.461286       -12.5522
 157   2.0000      -0.458979       -12.4894
 158   2.0000      -0.457919       -12.4606
 159   2.0000      -0.453446       -12.3389
 160   2.0000      -0.444845       -12.1049
 161   2.0000      -0.437403       -11.9023
 162   2.0000      -0.428036       -11.6475
 163   2.0000      -0.424196       -11.5430
 164   2.0000      -0.421087       -11.4584
 165   2.0000      -0.417450       -11.3594
 166   2.0000      -0.416421       -11.3314
 167   2.0000      -0.412604       -11.2275
 168   2.0000      -0.408108       -11.1052
 169   2.0000      -0.403543       -10.9810
 170   2.0000      -0.398411       -10.8413
 171   2.0000      -0.393719       -10.7136
 172   2.0000      -0.389842       -10.6081
 173   2.0000      -0.388369       -10.5681
 174   2.0000      -0.387233       -10.5372
 175   2.0000      -0.384883       -10.4732
 176   2.0000      -0.380428       -10.3520
 177   2.0000      -0.378864       -10.3094
 178   2.0000      -0.377943       -10.2844
 179   2.0000      -0.373692       -10.1687
 180   2.0000      -0.370991       -10.0952
 181   2.0000      -0.365603        -9.9486
 182   2.0000      -0.344120        -9.3640
 183   2.0000      -0.329228        -8.9588
 184   2.0000      -0.317815        -8.6482
 185   2.0000      -0.313222        -8.5232
 186   2.0000      -0.309707        -8.4275
 187   2.0000      -0.304077        -8.2744
 188   2.0000      -0.298387        -8.1195
 189   2.0000      -0.296159        -8.0589
 190   2.0000      -0.295005        -8.0275
 191   2.0000      -0.288177        -7.8417
 192   2.0000      -0.286914        -7.8073
 193   2.0000      -0.275552        -7.4982
 194   2.0000      -0.242778        -6.6063
 195   0.0000      -0.063461        -1.7269
 196   0.0000      -0.036459        -0.9921
 197   0.0000      -0.018634        -0.5071
 198   0.0000      -0.016011        -0.4357
 199   0.0000      -0.013906        -0.3784

MULLIKEN ATOMIC CHARGES
-----------------------
   0 C :    0.038636
   1 N :   -0.062951
   2 N :   -0.035986
   3 C :   -0.028256
   4 C :    0.037320
   5 C :    0.026996
   6 C :    0.005532
   7 N :   -0.023483
   8 N :   -0.078369
   9 C :    0.045659
  10 C :   -0.008907
  11 C :    0.038821
  12 C :   -0.009624
  13 C :   -0.082154
  14 C :    0.092622
  15 C :    0.117950
  16 C :   -0.213309
  17 C :    0.033762
  18 C :    0.081897
  19 C :   -0.267967
  20 S :    0.158904
  21 C :    0.120282
  22 Cl:   -0.095962
  23 C :   -0.140933
  24 C :    0.077279
  25 C :    0.133251
  26 C :   -0.141868
  27 S :    0.168607
  28 C :   -0.212917
  29 C :    0.039357
  30 C :    0.089008
  31 C :   -0.270224
  32 S :    0.128019
  33 C :    0.120166
  34 Cl:   -0.085040
  35 C :   -0.072469
  36 C :   -0.017880
  37 S :    0.169844
  38 C :    0.044334
  39 N :   -0.074864
  40 N :   -0.050968
  41 C :    0.016249
  42 C :    0.016573
  43 C :    0.007354
  44 C :   -0.017522
  45 N :   -0.062212
  46 N :   -0.060425
  47 C :    0.038234
  48 C :    0.037571
  49 C :    0.022678
  50 H :    0.013328
  51 H :   -0.001119
  52 H :    0.009154
  53 H :   -0.004230
  54 H :   -0.002924
  55 H :   -0.018943
  56 H :   -0.013657
  57 H :    0.040517
  58 H :    0.016588
  59 H :    0.039154
  60 H :    0.000962
  61 H :    0.045384
  62 H :    0.013257
  63 H :    0.036804
  64 H :   -0.017875
  65 H :    0.016051
  66 H :   -0.003010
  67 H :    0.012064
  68 H :    0.009843
  69 H :    0.016035
Sum of atomic charges:   -0.0000000

LOEWDIN ATOMIC CHARGES
----------------------
   0 C :   -0.000681
   1 N :   -0.035583
   2 N :   -0.025026
   3 C :   -0.018998
   4 C :   -0.009268
   5 C :   -0.012406
   6 C :   -0.020973
   7 N :   -0.014837
   8 N :   -0.050724
   9 C :   -0.019994
  10 C :   -0.001104
  11 C :   -0.003041
  12 C :   -0.166360
  13 C :   -0.048874
  14 C :   -0.036317
  15 C :   -0.056856
  16 C :   -0.176647
  17 C :   -0.071053
  18 C :   -0.181615
  19 C :   -0.201683
  20 S :    0.450803
  21 C :   -0.059743
  22 Cl:    0.119710
  23 C :   -0.152762
  24 C :   -0.042222
  25 C :   -0.052931
  26 C :   -0.146425
  27 S :    0.458026
  28 C :   -0.175572
  29 C :   -0.070353
  30 C :   -0.177444
  31 C :   -0.202617
  32 S :    0.445672
  33 C :   -0.059996
  34 Cl:    0.129183
  35 C :   -0.055072
  36 C :   -0.166220
  37 S :    0.437621
  38 C :   -0.019124
  39 N :   -0.057193
  40 N :   -0.037259
  41 C :   -0.024204
  42 C :    0.019419
  43 C :    0.000452
  44 C :   -0.021177
  45 N :   -0.047515
  46 N :   -0.041831
  47 C :   -0.001087
  48 C :   -0.011327
  49 C :    0.013660
  50 H :    0.029352
  51 H :    0.034862
  52 H :    0.037829
  53 H :    0.037517
  54 H :    0.036754
  55 H :    0.028155
  56 H :    0.032052
  57 H :    0.041182
  58 H :    0.033277
  59 H :    0.040469
  60 H :    0.028826
  61 H :    0.043337
  62 H :    0.031396
  63 H :    0.039698
  64 H :    0.015015
  65 H :    0.043248
  66 H :    0.038218
  67 H :    0.028637
  68 H :    0.038395
  69 H :    0.041350

  Mayer bond orders larger than 0.100000
B(  0-C ,  1-N ) :   1.5738 B(  0-C ,  5-C ) :   1.3171 B(  0-C , 50-H ) :   0.9940
B(  1-N ,  2-N ) :   1.3193 B(  2-N ,  3-C ) :   1.5932 B(  3-C ,  4-C ) :   1.3384
B(  3-C ,  6-C ) :   0.9461 B(  4-C ,  5-C ) :   1.4428 B(  4-C , 51-H ) :   0.9857
B(  5-C , 52-H ) :   0.9841 B(  6-C ,  7-N ) :   1.5759 B(  6-C , 11-C ) :   1.3161
B(  7-N ,  8-N ) :   1.3421 B(  8-N ,  9-C ) :   1.5567 B(  9-C , 10-C ) :   1.3156
B(  9-C , 12-C ) :   1.0463 B( 10-C , 11-C ) :   1.4344 B( 10-C , 53-H ) :   0.9868
B( 11-C , 54-H ) :   0.9812 B( 12-C , 13-C ) :   1.5943 B( 12-C , 27-S ) :   1.0704
B( 13-C , 14-C ) :   1.1775 B( 13-C , 55-H ) :   0.9831 B( 14-C , 15-C ) :   1.3285
B( 14-C , 26-C ) :   1.2782 B( 15-C , 16-C ) :   0.9816 B( 15-C , 23-C ) :   1.3955
B( 16-C , 17-C ) :   1.5414 B( 16-C , 20-S ) :   1.1458 B( 17-C , 18-C ) :   1.2300
B( 17-C , 56-H ) :   1.0086 B( 18-C , 19-C ) :   1.5847 B( 18-C , 22-Cl) :   1.0259
B( 19-C , 20-S ) :   1.1413 B( 19-C , 21-C ) :   1.0909 B( 21-C , 57-H ) :   0.9515
B( 21-C , 58-H ) :   0.9436 B( 21-C , 59-H ) :   0.9497 B( 23-C , 24-C ) :   1.2811
B( 23-C , 37-S ) :   1.0478 B( 24-C , 25-C ) :   1.3041 B( 24-C , 35-C ) :   1.1804
B( 25-C , 26-C ) :   1.4154 B( 25-C , 28-C ) :   0.9883 B( 26-C , 27-S ) :   1.0454
B( 28-C , 29-C ) :   1.5513 B( 28-C , 32-S ) :   1.1259 B( 29-C , 30-C ) :   1.2334
B( 29-C , 60-H ) :   0.9943 B( 30-C , 31-C ) :   1.5880 B( 30-C , 34-Cl) :   1.0365
B( 31-C , 32-S ) :   1.1357 B( 31-C , 33-C ) :   1.0898 B( 33-C , 61-H ) :   0.9508
B( 33-C , 62-H ) :   0.9443 B( 33-C , 63-H ) :   0.9495 B( 35-C , 36-C ) :   1.6117
B( 35-C , 64-H ) :   0.9656 B( 36-C , 37-S ) :   1.0703 B( 36-C , 38-C ) :   1.0510
B( 38-C , 39-N ) :   1.5647 B( 38-C , 43-C ) :   1.2950 B( 39-N , 40-N ) :   1.3343
B( 40-N , 41-C ) :   1.6127 B( 41-C , 42-C ) :   1.3170 B( 41-C , 44-C ) :   0.9828
B( 42-C , 43-C ) :   1.3952 B( 42-C , 65-H ) :   0.9832 B( 43-C , 66-H ) :   0.9888
B( 44-C , 45-N ) :   1.6344 B( 44-C , 49-C ) :   1.3395 B( 45-N , 46-N ) :   1.3135
B( 46-N , 47-C ) :   1.5830 B( 47-C , 48-C ) :   1.2982 B( 47-C , 67-H ) :   0.9938
B( 48-C , 49-C ) :   1.4082 B( 48-C , 68-H ) :   0.9838 B( 49-C , 69-H ) :   0.9845

-----------------------------------------------------------------------------
         ABSORPTION SPECTRUM VIA TRANSITION ELECTRIC DIPOLE MOMENTS
-----------------------------------------------------------------------------
State   Energy  Wavelength   fosc         T2         TX        TY        TZ
        (cm-1)    (nm)                  (au**2)     (au)      (au)      (au)
-----------------------------------------------------------------------------
   0   23349.8    428.3   0.550302478   7.75878  -1.53131  -1.41319   1.84845
   1   27100.0    369.0   0.001534647   0.01864   0.05924   0.11581   0.04150
   2   27293.0    366.4   0.001375699   0.01659  -0.11192  -0.02380  -0.05917
   3   28304.4    353.3   0.021926390   0.25503  -0.10301  -0.36000   0.33885
   4   28792.1    347.3   0.005018499   0.05738   0.15318   0.14935   0.10776
   5   28954.1    345.4   0.161404889   1.83520  -0.56277  -1.22880  -0.09241
   6   29041.4    344.3   1.284858954  14.56512   0.80478   3.70410  -0.44393
   7   29904.8    334.4   0.028829033   0.31737   0.30919   0.32593  -0.33991
   8   29978.2    333.6   0.037871356   0.41589   0.24886   0.53590  -0.25841
   9   30320.2    329.8   0.002353294   0.02555   0.12141   0.00106   0.10397
  10   30943.5    323.2   0.015572326   0.16568   0.31321  -0.02618   0.25863
  11   32107.4    311.5   0.772029644   7.91598  -0.33501   2.51375   1.21853
  12   32779.0    305.1   0.020415076   0.20504   0.00292  -0.37813  -0.24909
  13   33662.6    297.1   0.145147793   1.41951   0.40990   1.09064  -0.24899
  14   33971.2    294.4   0.005040198   0.04884  -0.06519  -0.20884  -0.03132
  15   34360.9    291.0   0.061077028   0.58518   0.32610  -0.18168  -0.66770
  16   36654.6    272.8   0.009417351   0.08458  -0.11148  -0.14797   0.22418
  17   37129.2    269.3   0.005343710   0.04738  -0.10574  -0.17316   0.07884
  18   37704.9    265.2   0.010886690   0.09505  -0.28762   0.10717   0.02908
  19   38464.6    260.0   0.003531734   0.03023  -0.04555  -0.16181   0.04440
  20   38689.8    258.5   0.200934572   1.70976   0.44301   1.19521  -0.29150
  21   39016.8    256.3   0.050068255   0.42246  -0.01318   0.64918  -0.02914
  22   39591.0    252.6   0.013447845   0.11182  -0.04275  -0.33131   0.01524
  23   39659.3    252.1   0.004992071   0.04144   0.08110   0.18099  -0.04587
  24   39990.2    250.1   0.028769012   0.23684  -0.00451  -0.46162  -0.15403
  25   40079.4    249.5   0.005100160   0.04189  -0.17001   0.09315   0.06567

FINAL SINGLE POINT ENERGY     -4331.886873223413

DIPOLE MOMENT
-------------
                                X             Y             Z
Electronic contribution:      4.80647       4.87691      -3.69607
Nuclear contribution   :     -6.97862      -4.09914       4.94395
                        -----------------------------------------
Total Dipole Moment    :     -2.17215       0.77777       1.24787
                        -----------------------------------------
Magnitude (a.u.)       :      2.62304
Magnitude (Debye)      :      6.66725

Rotational constants in cm-1:     0.002155     0.000674     0.000522
Rotational constants in MHz :    64.613112    20.192165    15.656256

                             ****ORCA TERMINATED NORMALLY****
TOTAL RUN TIME: 0 days 0 hours 4 minutes 10 seconds 804 msec
