                         Program Version 4.2.0 -  RELEASE  -
|  1> # ORCA input file
|  2> # SCF done       -214.870420480353          0.000485204836
|  3> ! CAM-B3LYP def2-SVP def2/J RIJCOSX Grid4 TightSCF
|  4> %maxcore 5000
|  5> %tddft
|  6>     Mode sTDDFT
|  7>     Ethresh 5.0
|  8>     maxcore 5000
|  9> end
| 10>
| 11> %pal
| 12>   nprocs 6
| 13>   end
| 14> * xyz 0 1
| 15>    C        0.98090        -1.58296        -2.22886
| 16>    C        1.32388        -2.74981        -2.86857
| 17>    C        1.57029        -2.84841        -4.25186
| 18>    N        1.74479        -2.99970        -5.37677
| 19>    C        1.54355        -3.97470        -2.20959
| 20>    N        1.76701        -4.99052        -1.72277
| 21>    C        1.03874        -0.25326        -2.83973
| 22>    C        1.08887         0.71105        -1.81763
| 23>    C        1.18783         2.05785        -2.09669
| 24>    C        1.22381         2.45401        -3.42884
| 25>    C        1.16021         1.50185        -4.45049
| 26>    C        1.07304         0.14288        -4.16500
| 27>   Cl        1.18800         2.00694        -6.09236
| 28>   Cl        1.34344         4.12334        -3.81706
| 29>    C        0.99779         0.03573        -0.50218
| 30>    O        1.05339         0.54288         0.59514
| 31>    C        0.77049        -1.39514        -0.81659
| 32>    C        0.35864        -2.23127         0.19093
| 33>    C       -0.29547        -3.46681         0.11560
| 34>    S       -0.41043        -4.45249         1.57166
| 35>    C       -1.27821        -5.64545         0.71279
| 36>    C       -1.50795        -5.28664        -0.62624
| 37>    C       -0.95773        -4.06953        -0.95771
| 38>    C       -2.25274        -6.38005        -1.35350
| 39>    C       -3.61611        -5.90019        -1.85886
| 40>    C       -1.40789        -6.93528        -2.50418
| 41>    C       -2.40373        -7.39240        -0.24320
| 42>    C       -1.82906        -6.92021         0.94228
| 43>    S       -1.98404        -8.04149         2.23221
| 44>    C       -2.81868        -9.16501         1.17498
| 45>    C       -2.95683        -8.65394        -0.11161
| 46>    C       -3.23994       -10.41186         1.69711
| 47>    C       -3.81331       -11.39693         0.95812
| 48>    C       -4.23486       -12.65474         1.44859
| 49>    S       -4.85085       -13.82609         0.29243
| 50>    C       -5.09825       -14.95798         1.55295
| 51>    C       -4.73288       -14.45503         2.80461
| 52>    C       -4.24441       -13.15952         2.74358
| 53>    C       -4.97708       -15.48666         3.88312
| 54>    C       -3.67481       -15.87523         4.58816
| 55>    C       -6.01533       -14.99492         4.89565
| 56>    C       -5.51682       -16.63165         3.05560
| 57>    C       -5.56876       -16.27826         1.70456
| 58>    S       -6.16127       -17.54491         0.71679
| 59>    C       -6.35155       -18.57375         2.12888
| 60>    C       -5.96069       -17.92308         3.29309
| 61>    C       -6.85126       -19.88182         1.93065
| 62>    C       -7.10848       -20.79111         2.90662
| 63>    C       -7.60762       -22.09401         2.66579
| 64>    S       -7.98985       -23.12758         4.03170
| 65>    C       -8.49410       -24.37579         2.96583
| 66>    C       -8.36312       -24.00866         1.62194
| 67>    C       -7.86687       -22.72790         1.45523
| 68>    C       -8.81138       -25.12806         0.71313
| 69>    C       -9.99358       -24.70095        -0.16095
| 70>    C       -7.65493       -25.63867        -0.15165
| 71>    C       -9.22648       -26.16033         1.73444
| 72>    C       -9.01967       -25.68037         3.03823
| 73>    S       -9.48059       -26.81449         4.23320
| 74>    C       -9.96686       -27.95558         2.98228
| 75>    C       -9.75516       -27.43249         1.70459
| 76>    C      -10.50061       -29.20262         3.34484
| 77>    C      -10.92546       -30.14844         2.45051
| 78>    C      -11.46864       -31.37443         2.85708
| 79>    C      -11.92173       -32.34775         1.99592
| 80>    C      -12.50013       -33.62230         2.35617
| 81>    C      -12.71460       -34.11504         3.61951
| 82>    C      -13.28991       -35.37346         3.89146
| 83>    N      -13.74951       -36.38369         4.18589
| 84>    C      -12.40192       -33.45394         4.82486
| 85>    N      -12.18296       -32.98833         5.85209
| 86>    C      -12.83486       -34.32272         1.11524
| 87>    C      -12.47828       -33.51035         0.02612
| 88>    C      -11.89426       -32.24412         0.52263
| 89>    O      -11.48597       -31.32990        -0.16590
| 90>    C      -12.67869       -33.90948        -1.27869
| 91>    C      -13.25137       -35.15475        -1.50572
| 92>    C      -13.60924       -35.97109        -0.42886
| 93>    C      -13.40476       -35.56384         0.88548
| 94>   Cl      -14.31648       -37.50958        -0.72214
| 95>   Cl      -13.51920       -35.68912        -3.11666
| 96>    H        1.23606         2.78363        -1.30046
| 97>    H        1.02438        -0.56390        -4.97738
| 98>    H        0.50181        -1.82831         1.18920
| 99>    H       -1.05682        -3.59391        -1.91668
|100>    H       -3.48440        -5.11227        -2.59609
|101>    H       -4.21146        -5.51214        -1.03520
|102>    H       -4.15392        -6.72466        -2.32008
|103>    H       -1.28666        -6.17969        -3.27620
|104>    H       -1.89140        -7.80700        -2.93786
|105>    H       -0.42173        -7.21926        -2.14510
|106>    H       -3.44609        -9.19076        -0.90298
|107>    H       -3.06631       -10.56741         2.75226
|108>    H       -3.95854       -11.24199        -0.10180
|109>    H       -3.90984       -12.59001         3.59102
|110>    H       -3.26497       -15.01721         5.11512
|111>    H       -2.94149       -16.22258         3.86381
|112>    H       -3.86103       -16.67112         5.30492
|113>    H       -5.63755       -14.12367         5.42490
|114>    H       -6.23243       -15.77771         5.61814
|115>    H       -6.93837       -14.72214         4.38893
|116>    H       -6.00026       -18.38981         4.26009
|117>    H       -7.04277       -20.14960         0.90099
|118>    H       -6.94196       -20.52821         3.94144
|119>    H       -7.69155       -22.26197         0.50343
|120>    H       -9.69055       -23.90415        -0.83554
|121>    H      -10.81220       -24.34143         0.45844
|122>    H      -10.34571       -25.54434        -0.74918
|123>    H       -7.32141       -24.85664        -0.82914
|124>    H       -7.97771       -26.49627        -0.73619
|125>    H       -6.81750       -25.93844         0.47445
|126>    H       -9.98942       -27.98089         0.81109
|127>    H      -10.58106       -29.41119         4.40479
|128>    H      -10.85367       -29.95883         1.39161
|129>    H      -11.53500       -31.55189         3.92260
|130>    H      -12.39759       -33.26869        -2.09943
|131>    H      -13.69409       -36.22193         1.68806
|132> *
|133>
|134>                          ****END OF INPUT****

CARTESIAN COORDINATES (ANGSTROEM)
---------------------------------
  C      0.980900   -1.582960   -2.228860
  C      1.323880   -2.749810   -2.868570
  C      1.570290   -2.848410   -4.251860
  N      1.744790   -2.999700   -5.376770
  C      1.543550   -3.974700   -2.209590
  N      1.767010   -4.990520   -1.722770
  C      1.038740   -0.253260   -2.839730
  C      1.088870    0.711050   -1.817630
  C      1.187830    2.057850   -2.096690
  C      1.223810    2.454010   -3.428840
  C      1.160210    1.501850   -4.450490
  C      1.073040    0.142880   -4.165000
  Cl     1.188000    2.006940   -6.092360
  Cl     1.343440    4.123340   -3.817060
  C      0.997790    0.035730   -0.502180
  O      1.053390    0.542880    0.595140
  C      0.770490   -1.395140   -0.816590
  C      0.358640   -2.231270    0.190930
  C     -0.295470   -3.466810    0.115600
  S     -0.410430   -4.452490    1.571660
  C     -1.278210   -5.645450    0.712790
  C     -1.507950   -5.286640   -0.626240
  C     -0.957730   -4.069530   -0.957710
  C     -2.252740   -6.380050   -1.353500
  C     -3.616110   -5.900190   -1.858860
  C     -1.407890   -6.935280   -2.504180
  C     -2.403730   -7.392400   -0.243200
  C     -1.829060   -6.920210    0.942280
  S     -1.984040   -8.041490    2.232210
  C     -2.818680   -9.165010    1.174980
  C     -2.956830   -8.653940   -0.111610
  C     -3.239940  -10.411860    1.697110
  C     -3.813310  -11.396930    0.958120
  C     -4.234860  -12.654740    1.448590
  S     -4.850850  -13.826090    0.292430
  C     -5.098250  -14.957980    1.552950
  C     -4.732880  -14.455030    2.804610
  C     -4.244410  -13.159520    2.743580
  C     -4.977080  -15.486660    3.883120
  C     -3.674810  -15.875230    4.588160
  C     -6.015330  -14.994920    4.895650
  C     -5.516820  -16.631650    3.055600
  C     -5.568760  -16.278260    1.704560
  S     -6.161270  -17.544910    0.716790
  C     -6.351550  -18.573750    2.128880
  C     -5.960690  -17.923080    3.293090
  C     -6.851260  -19.881820    1.930650
  C     -7.108480  -20.791110    2.906620
  C     -7.607620  -22.094010    2.665790
  S     -7.989850  -23.127580    4.031700
  C     -8.494100  -24.375790    2.965830
  C     -8.363120  -24.008660    1.621940
  C     -7.866870  -22.727900    1.455230
  C     -8.811380  -25.128060    0.713130
  C     -9.993580  -24.700950   -0.160950
  C     -7.654930  -25.638670   -0.151650
  C     -9.226480  -26.160330    1.734440
  C     -9.019670  -25.680370    3.038230
  S     -9.480590  -26.814490    4.233200
  C     -9.966860  -27.955580    2.982280
  C     -9.755160  -27.432490    1.704590
  C    -10.500610  -29.202620    3.344840
  C    -10.925460  -30.148440    2.450510
  C    -11.468640  -31.374430    2.857080
  C    -11.921730  -32.347750    1.995920
  C    -12.500130  -33.622300    2.356170
  C    -12.714600  -34.115040    3.619510
  C    -13.289910  -35.373460    3.891460
  N    -13.749510  -36.383690    4.185890
  C    -12.401920  -33.453940    4.824860
  N    -12.182960  -32.988330    5.852090
  C    -12.834860  -34.322720    1.115240
  C    -12.478280  -33.510350    0.026120
  C    -11.894260  -32.244120    0.522630
  O    -11.485970  -31.329900   -0.165900
  C    -12.678690  -33.909480   -1.278690
  C    -13.251370  -35.154750   -1.505720
  C    -13.609240  -35.971090   -0.428860
  C    -13.404760  -35.563840    0.885480
  Cl   -14.316480  -37.509580   -0.722140
  Cl   -13.519200  -35.689120   -3.116660
  H      1.236060    2.783630   -1.300460
  H      1.024380   -0.563900   -4.977380
  H      0.501810   -1.828310    1.189200
  H     -1.056820   -3.593910   -1.916680
  H     -3.484400   -5.112270   -2.596090
  H     -4.211460   -5.512140   -1.035200
  H     -4.153920   -6.724660   -2.320080
  H     -1.286660   -6.179690   -3.276200
  H     -1.891400   -7.807000   -2.937860
  H     -0.421730   -7.219260   -2.145100
  H     -3.446090   -9.190760   -0.902980
  H     -3.066310  -10.567410    2.752260
  H     -3.958540  -11.241990   -0.101800
  H     -3.909840  -12.590010    3.591020
  H     -3.264970  -15.017210    5.115120
  H     -2.941490  -16.222580    3.863810
  H     -3.861030  -16.671120    5.304920
  H     -5.637550  -14.123670    5.424900
  H     -6.232430  -15.777710    5.618140
  H     -6.938370  -14.722140    4.388930
  H     -6.000260  -18.389810    4.260090
  H     -7.042770  -20.149600    0.900990
  H     -6.941960  -20.528210    3.941440
  H     -7.691550  -22.261970    0.503430
  H     -9.690550  -23.904150   -0.835540
  H    -10.812200  -24.341430    0.458440
  H    -10.345710  -25.544340   -0.749180
  H     -7.321410  -24.856640   -0.829140
  H     -7.977710  -26.496270   -0.736190
  H     -6.817500  -25.938440    0.474450
  H     -9.989420  -27.980890    0.811090
  H    -10.581060  -29.411190    4.404790
  H    -10.853670  -29.958830    1.391610
  H    -11.535000  -31.551890    3.922600
  H    -12.397590  -33.268690   -2.099430
  H    -13.694090  -36.221930    1.688060

 Total Charge           Charge          ....    0
 Multiplicity           Mult            ....    1
 Number of Electrons    NEL             ....  634
 Basis Dimension        Dim             .... 1354

ORBITAL ENERGIES
----------------

  NO   OCC          E(Eh)            E(eV)
   0   2.0000    -101.596075     -2764.5698
   1   2.0000    -101.595303     -2764.5488
   2   2.0000    -101.594795     -2764.5349
   3   2.0000    -101.592623     -2764.4758
   4   2.0000     -88.976729     -2421.1799
   5   2.0000     -88.975695     -2421.1517
   6   2.0000     -88.973425     -2421.0900
   7   2.0000     -88.973358     -2421.0881
   8   2.0000     -88.970655     -2421.0146
   9   2.0000     -88.970513     -2421.0107
  10   2.0000     -19.212554      -522.8002
  11   2.0000     -19.211502      -522.7715
  12   2.0000     -14.413827      -392.2202
  13   2.0000     -14.412748      -392.1908
  14   2.0000     -14.410766      -392.1369
  15   2.0000     -14.407636      -392.0517
  16   2.0000     -10.363365      -282.0015
  17   2.0000     -10.363299      -281.9997
  18   2.0000     -10.351593      -281.6812
  19   2.0000     -10.351006      -281.6652
  20   2.0000     -10.349362      -281.6205
  21   2.0000     -10.348715      -281.6028
  22   2.0000     -10.340525      -281.3800
  23   2.0000     -10.338597      -281.3275
  24   2.0000     -10.335565      -281.2450
  25   2.0000     -10.334685      -281.2211
  26   2.0000     -10.325670      -280.9758
  27   2.0000     -10.324066      -280.9321
  28   2.0000     -10.319825      -280.8167
  29   2.0000     -10.318892      -280.7913
  30   2.0000     -10.318515      -280.7811
  31   2.0000     -10.316056      -280.7142
  32   2.0000     -10.315433      -280.6972
  33   2.0000     -10.313996      -280.6581
  34   2.0000     -10.313969      -280.6574
  35   2.0000     -10.313663      -280.6490
  36   2.0000     -10.312665      -280.6219
  37   2.0000     -10.312388      -280.6144
  38   2.0000     -10.312244      -280.6104
  39   2.0000     -10.311593      -280.5927
  40   2.0000     -10.311262      -280.5837
  41   2.0000     -10.311026      -280.5773
  42   2.0000     -10.310976      -280.5759
  43   2.0000     -10.310916      -280.5743
  44   2.0000     -10.310564      -280.5647
  45   2.0000     -10.307656      -280.4856
  46   2.0000     -10.307556      -280.4829
  47   2.0000     -10.305822      -280.4357
  48   2.0000     -10.304855      -280.4094
  49   2.0000     -10.304696      -280.4050
  50   2.0000     -10.303757      -280.3795
  51   2.0000     -10.303522      -280.3731
  52   2.0000     -10.302233      -280.3380
  53   2.0000     -10.301246      -280.3112
  54   2.0000     -10.299279      -280.2576
  55   2.0000     -10.297681      -280.2141
  56   2.0000     -10.297062      -280.1973
  57   2.0000     -10.296273      -280.1758
  58   2.0000     -10.295900      -280.1657
  59   2.0000     -10.293680      -280.1053
  60   2.0000     -10.293412      -280.0980
  61   2.0000     -10.293205      -280.0923
  62   2.0000     -10.290477      -280.0181
  63   2.0000     -10.289881      -280.0019
  64   2.0000     -10.289133      -279.9815
  65   2.0000     -10.287614      -279.9402
  66   2.0000     -10.287506      -279.9373
  67   2.0000     -10.287202      -279.9290
  68   2.0000     -10.286963      -279.9225
  69   2.0000     -10.286558      -279.9115
  70   2.0000     -10.286189      -279.9014
  71   2.0000     -10.285812      -279.8912
  72   2.0000     -10.283556      -279.8298
  73   2.0000     -10.283445      -279.8268
  74   2.0000     -10.276562      -279.6395
  75   2.0000     -10.274890      -279.5940
  76   2.0000     -10.274875      -279.5936
  77   2.0000     -10.273830      -279.5651
  78   2.0000     -10.273782      -279.5638
  79   2.0000     -10.273640      -279.5599
  80   2.0000     -10.267758      -279.3999
  81   2.0000      -9.551160      -259.9003
  82   2.0000      -9.550379      -259.8790
  83   2.0000      -9.549830      -259.8641
  84   2.0000      -9.547672      -259.8054
  85   2.0000      -8.071906      -219.6477
  86   2.0000      -8.070796      -219.6175
  87   2.0000      -8.068618      -219.5583
  88   2.0000      -8.068394      -219.5522
  89   2.0000      -8.065866      -219.4834
  90   2.0000      -8.065753      -219.4803
  91   2.0000      -7.321539      -199.2292
  92   2.0000      -7.320781      -199.2086
  93   2.0000      -7.320187      -199.1924
  94   2.0000      -7.318058      -199.1345
  95   2.0000      -7.311400      -198.9533
  96   2.0000      -7.310707      -198.9345
  97   2.0000      -7.310608      -198.9318
  98   2.0000      -7.310097      -198.9179
  99   2.0000      -7.309915      -198.9129
 100   2.0000      -7.309395      -198.8988
 101   2.0000      -7.307920      -198.8586
 102   2.0000      -7.307221      -198.8396
 103   2.0000      -6.041157      -164.3882
 104   2.0000      -6.040054      -164.3582
 105   2.0000      -6.037920      -164.3002
 106   2.0000      -6.037698      -164.2941
 107   2.0000      -6.037155      -164.2794
 108   2.0000      -6.036057      -164.2495
 109   2.0000      -6.035117      -164.2239
 110   2.0000      -6.035022      -164.2213
 111   2.0000      -6.034004      -164.1936
 112   2.0000      -6.033933      -164.1917
 113   2.0000      -6.033695      -164.1852
 114   2.0000      -6.032884      -164.1631
 115   2.0000      -6.031158      -164.1161
 116   2.0000      -6.031052      -164.1133
 117   2.0000      -6.030624      -164.1016
 118   2.0000      -6.030469      -164.0974
 119   2.0000      -6.027950      -164.0289
 120   2.0000      -6.027841      -164.0259
 121   2.0000      -1.126908       -30.6647
 122   2.0000      -1.126456       -30.6524
 123   2.0000      -1.027298       -27.9542
 124   2.0000      -1.025361       -27.9015
 125   2.0000      -1.025148       -27.8957
 126   2.0000      -1.023897       -27.8617
 127   2.0000      -1.020614       -27.7723
 128   2.0000      -1.012190       -27.5431
 129   2.0000      -1.008827       -27.4516
 130   2.0000      -0.992729       -27.0135
 131   2.0000      -0.988760       -26.9055
 132   2.0000      -0.988212       -26.8906
 133   2.0000      -0.988039       -26.8859
 134   2.0000      -0.985098       -26.8059
 135   2.0000      -0.982953       -26.7475
 136   2.0000      -0.982588       -26.7376
 137   2.0000      -0.957602       -26.0577
 138   2.0000      -0.955401       -25.9978
 139   2.0000      -0.945283       -25.7225
 140   2.0000      -0.942229       -25.6393
 141   2.0000      -0.935794       -25.4643
 142   2.0000      -0.928697       -25.2711
 143   2.0000      -0.927169       -25.2296
 144   2.0000      -0.912496       -24.8303
 145   2.0000      -0.903019       -24.5724
 146   2.0000      -0.902151       -24.5488
 147   2.0000      -0.899372       -24.4732
 148   2.0000      -0.887639       -24.1539
 149   2.0000      -0.879728       -23.9386
 150   2.0000      -0.872048       -23.7296
 151   2.0000      -0.861067       -23.4308
 152   2.0000      -0.856248       -23.2997
 153   2.0000      -0.853474       -23.2242
 154   2.0000      -0.848356       -23.0850
 155   2.0000      -0.843715       -22.9587
 156   2.0000      -0.842860       -22.9354
 157   2.0000      -0.838903       -22.8277
 158   2.0000      -0.836333       -22.7578
 159   2.0000      -0.834659       -22.7122
 160   2.0000      -0.833712       -22.6865
 161   2.0000      -0.831567       -22.6281
 162   2.0000      -0.809321       -22.0228
 163   2.0000      -0.795710       -21.6524
 164   2.0000      -0.786724       -21.4079
 165   2.0000      -0.785366       -21.3709
 166   2.0000      -0.784870       -21.3574
 167   2.0000      -0.782764       -21.3001
 168   2.0000      -0.774071       -21.0635
 169   2.0000      -0.762530       -20.7495
 170   2.0000      -0.759156       -20.6577
 171   2.0000      -0.744371       -20.2554
 172   2.0000      -0.738187       -20.0871
 173   2.0000      -0.724647       -19.7187
 174   2.0000      -0.716394       -19.4941
 175   2.0000      -0.712557       -19.3897
 176   2.0000      -0.709563       -19.3082
 177   2.0000      -0.705836       -19.2068
 178   2.0000      -0.701391       -19.0858
 179   2.0000      -0.688521       -18.7356
 180   2.0000      -0.687488       -18.7075
 181   2.0000      -0.684427       -18.6242
 182   2.0000      -0.678174       -18.4541
 183   2.0000      -0.663568       -18.0566
 184   2.0000      -0.659603       -17.9487
 185   2.0000      -0.655705       -17.8426
 186   2.0000      -0.650730       -17.7073
 187   2.0000      -0.643259       -17.5040
 188   2.0000      -0.640579       -17.4310
 189   2.0000      -0.639293       -17.3961
 190   2.0000      -0.637614       -17.3504
 191   2.0000      -0.636408       -17.3175
 192   2.0000      -0.633425       -17.2364
 193   2.0000      -0.629021       -17.1165
 194   2.0000      -0.624437       -16.9918
 195   2.0000      -0.618100       -16.8194
 196   2.0000      -0.612989       -16.6803
 197   2.0000      -0.609782       -16.5930
 198   2.0000      -0.600478       -16.3398
 199   2.0000      -0.594137       -16.1673
 200   2.0000      -0.590327       -16.0636
 201   2.0000      -0.586171       -15.9505
 202   2.0000      -0.582946       -15.8628
 203   2.0000      -0.576072       -15.6757
 204   2.0000      -0.573627       -15.6092
 205   2.0000      -0.565978       -15.4010
 206   2.0000      -0.565573       -15.3900
 207   2.0000      -0.561227       -15.2718
 208   2.0000      -0.558436       -15.1958
 209   2.0000      -0.551778       -15.0146
 210   2.0000      -0.548035       -14.9128
 211   2.0000      -0.545442       -14.8422
 212   2.0000      -0.542993       -14.7756
 213   2.0000      -0.542402       -14.7595
 214   2.0000      -0.539560       -14.6822
 215   2.0000      -0.539492       -14.6803
 216   2.0000      -0.537708       -14.6318
 217   2.0000      -0.537274       -14.6200
 218   2.0000      -0.536606       -14.6018
 219   2.0000      -0.536168       -14.5899
 220   2.0000      -0.535612       -14.5747
 221   2.0000      -0.530636       -14.4393
 222   2.0000      -0.527608       -14.3570
 223   2.0000      -0.522445       -14.2164
 224   2.0000      -0.518473       -14.1084
 225   2.0000      -0.516242       -14.0477
 226   2.0000      -0.515473       -14.0267
 227   2.0000      -0.513440       -13.9714
 228   2.0000      -0.510293       -13.8858
 229   2.0000      -0.508636       -13.8407
 230   2.0000      -0.506766       -13.7898
 231   2.0000      -0.502143       -13.6640
 232   2.0000      -0.501134       -13.6366
 233   2.0000      -0.497072       -13.5260
 234   2.0000      -0.495261       -13.4767
 235   2.0000      -0.494964       -13.4687
 236   2.0000      -0.491255       -13.3677
 237   2.0000      -0.489169       -13.3110
 238   2.0000      -0.488788       -13.3006
 239   2.0000      -0.487938       -13.2775
 240   2.0000      -0.486701       -13.2438
 241   2.0000      -0.486285       -13.2325
 242   2.0000      -0.483908       -13.1678
 243   2.0000      -0.481722       -13.1083
 244   2.0000      -0.480961       -13.0876
 245   2.0000      -0.480190       -13.0666
 246   2.0000      -0.476551       -12.9676
 247   2.0000      -0.475990       -12.9523
 248   2.0000      -0.474086       -12.9005
 249   2.0000      -0.473135       -12.8747
 250   2.0000      -0.472509       -12.8576
 251   2.0000      -0.469954       -12.7881
 252   2.0000      -0.469767       -12.7830
 253   2.0000      -0.465510       -12.6672
 254   2.0000      -0.464191       -12.6313
 255   2.0000      -0.462508       -12.5855
 256   2.0000      -0.459772       -12.5110
 257   2.0000      -0.458838       -12.4856
 258   2.0000      -0.454101       -12.3567
 259   2.0000      -0.448209       -12.1964
 260   2.0000      -0.448009       -12.1910
 261   2.0000      -0.444890       -12.1061
 262   2.0000      -0.443607       -12.0712
 263   2.0000      -0.443152       -12.0588
 264   2.0000      -0.440693       -11.9919
 265   2.0000      -0.440519       -11.9871
 266   2.0000      -0.439131       -11.9494
 267   2.0000      -0.436715       -11.8836
 268   2.0000      -0.435806       -11.8589
 269   2.0000      -0.434952       -11.8356
 270   2.0000      -0.433629       -11.7996
 271   2.0000      -0.433420       -11.7940
 272   2.0000      -0.431217       -11.7340
 273   2.0000      -0.430981       -11.7276
 274   2.0000      -0.427198       -11.6246
 275   2.0000      -0.426558       -11.6072
 276   2.0000      -0.424864       -11.5611
 277   2.0000      -0.423387       -11.5209
 278   2.0000      -0.421755       -11.4765
 279   2.0000      -0.420788       -11.4502
 280   2.0000      -0.420414       -11.4400
 281   2.0000      -0.417988       -11.3740
 282   2.0000      -0.416296       -11.3280
 283   2.0000      -0.414823       -11.2879
 284   2.0000      -0.414143       -11.2694
 285   2.0000      -0.413570       -11.2538
 286   2.0000      -0.412124       -11.2145
 287   2.0000      -0.411546       -11.1987
 288   2.0000      -0.410834       -11.1794
 289   2.0000      -0.405815       -11.0428
 290   2.0000      -0.405547       -11.0355
 291   2.0000      -0.402906       -10.9636
 292   2.0000      -0.400461       -10.8971
 293   2.0000      -0.395265       -10.7557
 294   2.0000      -0.384023       -10.4498
 295   2.0000      -0.377975       -10.2852
 296   2.0000      -0.375884       -10.2283
 297   2.0000      -0.370313       -10.0767
 298   2.0000      -0.358058        -9.7432
 299   2.0000      -0.343449        -9.3457
 300   2.0000      -0.339366        -9.2346
 301   2.0000      -0.337699        -9.1893
 302   2.0000      -0.336774        -9.1641
 303   2.0000      -0.335650        -9.1335
 304   2.0000      -0.334420        -9.1000
 305   2.0000      -0.333399        -9.0722
 306   2.0000      -0.332054        -9.0356
 307   2.0000      -0.331922        -9.0321
 308   2.0000      -0.330749        -9.0001
 309   2.0000      -0.329173        -8.9572
 310   2.0000      -0.316705        -8.6180
 311   2.0000      -0.307388        -8.3645
 312   2.0000      -0.304534        -8.2868
 313   2.0000      -0.292796        -7.9674
 314   2.0000      -0.267212        -7.2712
 315   2.0000      -0.243273        -6.6198
 316   2.0000      -0.220538        -6.0011
 317   0.0000      -0.100162        -2.7255
 318   0.0000      -0.093450        -2.5429
 319   0.0000      -0.069434        -1.8894
 320   0.0000      -0.062927        -1.7123
 321   0.0000      -0.055503        -1.5103

MULLIKEN ATOMIC CHARGES
-----------------------
   0 C :    0.272421
   1 C :   -0.349915
   2 C :   -0.180200
   3 N :    0.151551
   4 C :   -0.205413
   5 N :    0.169248
   6 C :    0.015425
   7 C :    0.002076
   8 C :   -0.032636
   9 C :    0.057723
  10 C :    0.048899
  11 C :   -0.018264
  12 Cl:   -0.042032
  13 Cl:   -0.048340
  14 C :    0.136209
  15 O :   -0.146603
  16 C :   -0.155283
  17 C :    0.079890
  18 C :   -0.118523
  19 S :    0.174416
  20 C :   -0.051813
  21 C :   -0.005214
  22 C :    0.009783
  23 C :   -0.119254
  24 C :    0.106693
  25 C :    0.106208
  26 C :    0.021905
  27 C :   -0.099678
  28 S :    0.157480
  29 C :   -0.065753
  30 C :   -0.045475
  31 C :    0.031216
  32 C :    0.049171
  33 C :   -0.079622
  34 S :    0.147505
  35 C :   -0.091135
  36 C :    0.007974
  37 C :   -0.036527
  38 C :   -0.108101
  39 C :    0.103656
  40 C :    0.106490
  41 C :    0.009921
  42 C :   -0.086588
  43 S :    0.145789
  44 C :   -0.073452
  45 C :   -0.042745
  46 C :    0.044700
  47 C :    0.030580
  48 C :   -0.064430
  49 S :    0.154445
  50 C :   -0.098101
  51 C :    0.020608
  52 C :   -0.051715
  53 C :   -0.102397
  54 C :    0.101992
  55 C :    0.105526
  56 C :    0.003343
  57 C :   -0.076115
  58 S :    0.169590
  59 C :   -0.090547
  60 C :   -0.021576
  61 C :    0.078707
  62 C :   -0.031574
  63 C :   -0.021724
  64 C :   -0.091622
  65 C :    0.330873
  66 C :   -0.357912
  67 C :   -0.192290
  68 N :    0.152779
  69 C :   -0.189305
  70 N :    0.140479
  71 C :    0.028835
  72 C :   -0.012519
  73 C :    0.147186
  74 O :   -0.161493
  75 C :   -0.032928
  76 C :    0.059701
  77 C :    0.048637
  78 C :   -0.014490
  79 Cl:   -0.040785
  80 Cl:   -0.049137
  81 H :   -0.000921
  82 H :    0.000761
  83 H :    0.019572
  84 H :   -0.002029
  85 H :    0.015690
  86 H :    0.020992
  87 H :    0.012925
  88 H :    0.015974
  89 H :    0.008683
  90 H :    0.037788
  91 H :   -0.021919
  92 H :   -0.019711
  93 H :   -0.017556
  94 H :   -0.023898
  95 H :    0.011332
  96 H :    0.023094
  97 H :    0.011961
  98 H :    0.010749
  99 H :    0.010627
 100 H :    0.021826
 101 H :   -0.024648
 102 H :   -0.018290
 103 H :   -0.019293
 104 H :   -0.023956
 105 H :    0.012077
 106 H :    0.023143
 107 H :    0.017085
 108 H :    0.012052
 109 H :    0.016803
 110 H :    0.022666
 111 H :   -0.002701
 112 H :    0.004957
 113 H :    0.022483
 114 H :    0.004843
 115 H :   -0.006679
 116 H :   -0.002885
Sum of atomic charges:   -0.0000000

LOEWDIN ATOMIC CHARGES
----------------------
   0 C :    0.066136
   1 C :   -0.153118
   2 C :   -0.024216
   3 N :   -0.057077
   4 C :   -0.016497
   5 N :   -0.048558
   6 C :   -0.011380
   7 C :   -0.044210
   8 C :   -0.000744
   9 C :   -0.137041
  10 C :   -0.132071
  11 C :   -0.017346
  12 Cl:    0.157429
  13 Cl:    0.154153
  14 C :    0.080991
  15 O :   -0.147332
  16 C :   -0.118196
  17 C :    0.049215
  18 C :   -0.186894
  19 S :    0.461498
  20 C :   -0.158050
  21 C :   -0.037420
  22 C :   -0.003111
  23 C :   -0.035620
  24 C :   -0.024092
  25 C :   -0.021867
  26 C :   -0.013164
  27 C :   -0.211289
  28 S :    0.442964
  29 C :   -0.145129
  30 C :   -0.061121
  31 C :   -0.052729
  32 C :   -0.030849
  33 C :   -0.167418
  34 S :    0.438336
  35 C :   -0.196564
  36 C :   -0.034879
  37 C :   -0.049218
  38 C :   -0.034425
  39 C :   -0.024179
  40 C :   -0.023596
  41 C :   -0.034466
  42 C :   -0.197137
  43 S :    0.437352
  44 C :   -0.166297
  45 C :   -0.050482
  46 C :   -0.033881
  47 C :   -0.051800
  48 C :   -0.149045
  49 S :    0.439623
  50 C :   -0.210168
  51 C :   -0.020055
  52 C :   -0.061109
  53 C :   -0.035457
  54 C :   -0.023397
  55 C :   -0.022678
  56 C :   -0.040205
  57 C :   -0.171500
  58 S :    0.450747
  59 C :   -0.184687
  60 C :   -0.017790
  61 C :    0.021766
  62 C :   -0.049683
  63 C :    0.068370
  64 C :   -0.114837
  65 C :    0.074394
  66 C :   -0.145876
  67 C :   -0.020754
  68 N :   -0.055992
  69 C :   -0.019154
  70 N :   -0.058533
  71 C :   -0.012602
  72 C :   -0.042296
  73 C :    0.083988
  74 O :   -0.154804
  75 C :   -0.002845
  76 C :   -0.136231
  77 C :   -0.132213
  78 C :   -0.013805
  79 Cl:    0.156992
  80 Cl:    0.153295
  81 H :    0.045348
  82 H :    0.043334
  83 H :    0.044921
  84 H :    0.035587
  85 H :    0.025738
  86 H :    0.029825
  87 H :    0.024986
  88 H :    0.026283
  89 H :    0.023149
  90 H :    0.036002
  91 H :    0.029103
  92 H :    0.026603
  93 H :    0.027307
  94 H :    0.028914
  95 H :    0.024007
  96 H :    0.030915
  97 H :    0.024075
  98 H :    0.023852
  99 H :    0.023830
 100 H :    0.030570
 101 H :    0.028751
 102 H :    0.026676
 103 H :    0.026674
 104 H :    0.028536
 105 H :    0.024445
 106 H :    0.030907
 107 H :    0.026474
 108 H :    0.024483
 109 H :    0.026371
 110 H :    0.030896
 111 H :    0.038910
 112 H :    0.036797
 113 H :    0.029619
 114 H :    0.040765
 115 H :    0.043548
 116 H :    0.043731

  Mayer bond orders larger than 0.100000
B(  0-C ,  1-C ) :   1.6127 B(  0-C ,  6-C ) :   0.9985 B(  0-C , 16-C ) :   1.0809
B(  1-C ,  2-C ) :   1.1283 B(  1-C ,  4-C ) :   1.1777 B(  2-C ,  3-N ) :   2.9861
B(  4-C ,  5-N ) :   2.9810 B(  6-C ,  7-C ) :   1.3308 B(  6-C , 11-C ) :   1.3542
B(  7-C ,  8-C ) :   1.3574 B(  7-C , 14-C ) :   0.9155 B(  8-C ,  9-C ) :   1.3391
B(  8-C , 81-H ) :   1.0159 B(  9-C , 10-C ) :   1.4162 B(  9-C , 13-Cl) :   1.0416
B( 10-C , 11-C ) :   1.3536 B( 10-C , 12-Cl) :   1.0649 B( 11-C , 82-H ) :   0.9889
B( 14-C , 15-O ) :   2.2603 B( 14-C , 16-C ) :   0.9660 B( 16-C , 17-C ) :   1.5658
B( 17-C , 18-C ) :   1.2205 B( 17-C , 83-H ) :   0.9288 B( 18-C , 19-S ) :   1.0712
B( 18-C , 22-C ) :   1.3335 B( 19-S , 20-C ) :   1.1288 B( 20-C , 21-C ) :   1.4535
B( 20-C , 27-C ) :   1.2097 B( 21-C , 22-C ) :   1.4300 B( 21-C , 23-C ) :   0.9352
B( 22-C , 84-H ) :   0.9876 B( 23-C , 24-C ) :   1.0354 B( 23-C , 25-C ) :   1.0388
B( 23-C , 26-C ) :   0.9415 B( 24-C , 85-H ) :   0.9648 B( 24-C , 86-H ) :   0.9637
B( 24-C , 87-H ) :   0.9644 B( 25-C , 88-H ) :   0.9631 B( 25-C , 89-H ) :   0.9629
B( 25-C , 90-H ) :   0.9620 B( 26-C , 27-C ) :   1.4954 B( 26-C , 30-C ) :   1.3409
B( 27-C , 28-S ) :   1.0669 B( 28-S , 29-C ) :   1.1214 B( 29-C , 30-C ) :   1.4323
B( 29-C , 31-C ) :   1.1377 B( 30-C , 91-H ) :   0.9984 B( 31-C , 32-C ) :   1.6824
B( 31-C , 92-H ) :   0.9604 B( 32-C , 33-C ) :   1.1428 B( 32-C , 93-H ) :   0.9557
B( 33-C , 34-S ) :   1.1026 B( 33-C , 37-C ) :   1.4400 B( 34-S , 35-C ) :   1.0892
B( 35-C , 36-C ) :   1.5122 B( 35-C , 42-C ) :   1.1849 B( 36-C , 37-C ) :   1.3347
B( 36-C , 38-C ) :   0.9410 B( 37-C , 94-H ) :   0.9986 B( 38-C , 39-C ) :   1.0355
B( 38-C , 40-C ) :   1.0326 B( 38-C , 41-C ) :   0.9409 B( 39-C , 95-H ) :   0.9646
B( 39-C , 96-H ) :   0.9645 B( 39-C , 97-H ) :   0.9645 B( 40-C , 98-H ) :   0.9649
B( 40-C , 99-H ) :   0.9647 B( 40-C ,100-H ) :   0.9647 B( 41-C , 42-C ) :   1.5120
B( 41-C , 45-C ) :   1.3322 B( 42-C , 43-S ) :   1.0879 B( 43-S , 44-C ) :   1.1032
B( 44-C , 45-C ) :   1.4380 B( 44-C , 46-C ) :   1.1434 B( 45-C ,101-H ) :   1.0004
B( 46-C , 47-C ) :   1.6818 B( 46-C ,102-H ) :   0.9549 B( 47-C , 48-C ) :   1.1388
B( 47-C ,103-H ) :   0.9608 B( 48-C , 49-S ) :   1.1161 B( 48-C , 52-C ) :   1.4345
B( 49-S , 50-C ) :   1.0702 B( 50-C , 51-C ) :   1.4997 B( 50-C , 57-C ) :   1.2070
B( 51-C , 52-C ) :   1.3364 B( 51-C , 53-C ) :   0.9423 B( 52-C ,104-H ) :   0.9998
B( 53-C , 54-C ) :   1.0354 B( 53-C , 55-C ) :   1.0327 B( 53-C , 56-C ) :   0.9345
B( 54-C ,105-H ) :   0.9645 B( 54-C ,106-H ) :   0.9648 B( 54-C ,107-H ) :   0.9650
B( 55-C ,108-H ) :   0.9647 B( 55-C ,109-H ) :   0.9651 B( 55-C ,110-H ) :   0.9643
B( 56-C , 57-C ) :   1.4641 B( 56-C , 60-C ) :   1.3786 B( 57-C , 58-S ) :   1.1174
B( 58-S , 59-C ) :   1.0761 B( 59-C , 60-C ) :   1.3805 B( 59-C , 61-C ) :   1.1809
B( 60-C ,111-H ) :   1.0011 B( 61-C , 62-C ) :   1.5068 B( 61-C ,112-H ) :   0.9738
B( 62-C , 63-C ) :   1.2342 B( 62-C ,113-H ) :   0.9745 B( 63-C , 64-C ) :   1.4582
B( 63-C ,114-H ) :   0.9634 B( 64-C , 65-C ) :   1.0932 B( 64-C , 73-C ) :   0.9673
B( 65-C , 66-C ) :   1.6120 B( 65-C , 71-C ) :   0.9824 B( 66-C , 67-C ) :   1.1436
B( 66-C , 69-C ) :   1.1524 B( 67-C , 68-N ) :   2.9693 B( 69-C , 70-N ) :   2.9577
B( 71-C , 72-C ) :   1.3345 B( 71-C , 78-C ) :   1.3450 B( 72-C , 73-C ) :   0.9429
B( 72-C , 75-C ) :   1.3512 B( 73-C , 74-O ) :   2.1815 B( 75-C , 76-C ) :   1.3349
B( 75-C ,115-H ) :   1.0164 B( 76-C , 77-C ) :   1.4171 B( 76-C , 80-Cl) :   1.0408
B( 77-C , 78-C ) :   1.3531 B( 77-C , 79-Cl) :   1.0717 B( 78-C ,116-H ) :   0.9862

-----------------------------------------------------------------------------
         ABSORPTION SPECTRUM VIA TRANSITION ELECTRIC DIPOLE MOMENTS
-----------------------------------------------------------------------------
State   Energy  Wavelength   fosc         T2         TX        TY        TZ
        (cm-1)    (nm)                  (au**2)     (au)      (au)      (au)
-----------------------------------------------------------------------------
   0   13603.8    735.1   4.323438919 104.62721   3.99492   9.33258  -1.25333
   1   15953.0    626.8   0.109566585   2.26106   0.01983  -0.79535  -1.27596
   2   20627.7    484.8   0.134042695   2.13928  -0.02937  -1.41308  -0.37631
   3   21317.6    469.1   0.030384737   0.46924  -0.13531  -0.56020  -0.37028
   4   22999.1    434.8   0.052307323   0.74873  -0.24024  -0.63509   0.53636
   5   23257.7    430.0   0.371874382   5.26387   1.02257   2.04819  -0.15214
   6   24235.3    412.6   0.036342993   0.49368  -0.13881  -0.47128   0.50230
   7   27032.1    369.9   0.004566343   0.05561  -0.08368   0.20394   0.08378
   8   27219.2    367.4   0.067723768   0.81911   0.05555   0.70518   0.56457
   9   27745.7    360.4   0.002355375   0.02795  -0.05240  -0.14763  -0.05836
  10   28769.6    347.6   0.002395798   0.02742   0.11708  -0.11081   0.03779
  11   29345.7    340.8   0.000056060   0.00063  -0.00031   0.00922   0.02332
  12   29729.2    336.4   0.092304251   1.02215   0.07198   0.74491   0.67976
  13   29958.3    333.8   0.121381703   1.33387  -0.19298  -0.21190  -1.11880
  14   30243.9    330.6   0.210111251   2.28711   0.01839   1.49081   0.25348
  15   31466.4    317.8   0.089723360   0.93871   0.06298  -0.58064   0.77305
  16   31968.7    312.8   0.000017173   0.00018  -0.01312  -0.00216   0.00021
  17   32208.1    310.5   0.028236139   0.28861  -0.21733  -0.49116  -0.01201
  18   32313.8    309.5   0.030270591   0.30840  -0.09300  -0.27260  -0.47480
  19   32678.1    306.0   0.050066708   0.50439  -0.20452  -0.43058  -0.52646
  20   33150.8    301.7   0.043970674   0.43666  -0.09533  -0.44097   0.48282
  21   33653.4    297.1   0.044671021   0.43699  -0.16214   0.63465  -0.08899
  22   34314.6    291.4   0.016680788   0.16003  -0.04085   0.28470   0.27805
  23   34670.1    288.4   0.007471457   0.07095   0.01243  -0.01800  -0.26546
  24   35096.2    284.9   0.034404470   0.32272  -0.29350   0.25344  -0.41515
  25   35354.7    282.8   0.317615437   2.95753   0.12062  -0.27102   1.69397
  26   35608.3    280.8   0.041328790   0.38210  -0.03095  -0.47768   0.39110
  27   35915.0    278.4   0.064642790   0.59254   0.17073   0.54053   0.52079
  28   36450.3    274.3   0.022769661   0.20565   0.07649   0.41255   0.17205
  29   36632.6    273.0   0.644924943   5.79585  -0.12794   1.86578   1.51602
  30   36950.3    270.6   0.047570164   0.42383   0.21249   0.55073   0.27455
  31   37020.4    270.1   0.345269400   3.07038  -0.09656  -0.94221   1.47421
  32   37341.1    267.8   0.234336248   2.06599   0.06366   1.13801  -0.87571
  33   37544.6    266.3   0.058782951   0.51544   0.00402  -0.08465   0.71292
  34   37937.1    263.6   0.009002544   0.07812  -0.19638  -0.14144  -0.13984
  35   38450.4    260.1   0.046366514   0.39699  -0.13526  -0.26804   0.55394
  36   38593.8    259.1   0.022630914   0.19305   0.32485   0.25806   0.14465
  37   38738.8    258.1   0.103864711   0.88267  -0.04483  -0.29675   0.89028
  38   39256.8    254.7   0.010313101   0.08649   0.17501   0.07353   0.22462
  39   39460.4    253.4   0.149839622   1.25009   0.09481  -0.25108  -1.08538
  40   39957.9    250.3   0.078828342   0.64946   0.08090   0.41892  -0.68369
  41   40065.8    249.6   0.056378238   0.46325  -0.25566  -0.17135  -0.60706

FINAL SINGLE POINT ENERGY     -7092.925026488819

DIPOLE MOMENT
-------------
                                X             Y             Z
Electronic contribution:     -0.40317       1.43619     -34.36781
Nuclear contribution   :      0.08365       1.00379      34.36491
                        -----------------------------------------
Total Dipole Moment    :     -0.31952       2.43998      -0.00290
                        -----------------------------------------
Magnitude (a.u.)       :      2.46082
Magnitude (Debye)      :      6.25490

Rotational constants in cm-1:     0.002245     0.000068     0.000066
Rotational constants in MHz :    67.296431     2.041188     1.989501

                             ****ORCA TERMINATED NORMALLY****
TOTAL RUN TIME: 0 days 0 hours 12 minutes 40 seconds 698 msec
