                         Program Version 4.2.0 -  RELEASE  -
|  1> # ORCA input file
|  2> # SCF done       -181.518280568207          0.000624323112
|  3> ! CAM-B3LYP def2-SVP def2/J RIJCOSX Grid4 TightSCF
|  4> %maxcore 5000
|  5> %tddft
|  6>     Mode sTDDFT
|  7>     Ethresh 5.0
|  8>     maxcore 5000
|  9> end
| 10>
| 11> %pal
| 12>   nprocs 6
| 13>   end
| 14> * xyz 0 1
| 15>    C       -1.94880        -1.51883        -5.18255
| 16>    C       -3.06352        -0.79982        -5.48715
| 17>    C       -3.03472         0.47175        -4.88165
| 18>    C       -1.87551         0.67683        -4.12403
| 19>    S       -0.83499        -0.67486        -4.15501
| 20>    C       -1.93041         1.98021        -3.55094
| 21>    C       -3.12626         2.58873        -3.94989
| 22>    C       -3.86033         1.66118        -4.80364
| 23>    C       -5.06632         1.87922        -5.40385
| 24>    C       -5.77193         3.09102        -5.25380
| 25>    N       -6.34944         4.07502        -5.13618
| 26>    C       -5.68767         0.91031        -6.21887
| 27>    N       -6.19933         0.12749        -6.88276
| 28>    C       -3.27887         3.87869        -3.43799
| 29>    C       -2.20355         4.25307        -2.65504
| 30>    S       -0.98634         2.99106        -2.54755
| 31>    C       -2.01366         5.48832        -1.98289
| 32>    C       -0.92599         5.89263        -1.23474
| 33>    C       -1.08797         7.18558        -0.73282
| 34>    C       -2.31329         7.76379        -1.09874
| 35>    S       -3.26376         6.72479        -2.06255
| 36>    C       -2.38499         9.06796        -0.53849
| 37>    C       -1.19632         9.31748         0.15705
| 38>    C       -0.34666         8.14095         0.07607
| 39>    C        0.87060         7.96105         0.66399
| 40>    C        1.49762         8.95926         1.43653
| 41>    N        2.02442         9.75812         2.07026
| 42>    C        1.59279         6.75473         0.54834
| 43>    N        2.19183         5.78186         0.45143
| 44>    C       -1.16784        10.58460         0.74921
| 45>    C       -2.33406        11.28806         0.53905
| 46>    S       -3.47189        10.38500        -0.44998
| 47>    C       -2.66999        12.57458         1.07629
| 48>    C       -3.47169        13.55244         0.52103
| 49>    C       -4.25236        13.56373        -0.74224
| 50>    N       -3.44733        14.62283         1.36293
| 51>    C       -2.65861        14.37848         2.44730
| 52>    C       -2.50236        15.37904         3.53404
| 53>    C       -2.15294        13.09939         2.31517
| 54>    C       -1.33507        12.33172         3.20723
| 55>    C       -0.39361        12.78417         4.05795
| 56>    C        0.47127        11.90619         4.77750
| 57>    C        0.58441        10.53146         4.67196
| 58>    C        1.63128        10.02688         5.44090
| 59>    C        2.31306        11.01899         6.16100
| 60>    S        1.67010        12.57452         5.87198
| 61>    C        3.36174        10.40332         6.89187
| 62>    C        3.34905         9.02447         6.62160
| 63>    C        2.26952         8.74407         5.68971
| 64>    C        1.94820         7.54053         5.13178
| 65>    C        2.65353         6.35934         5.44459
| 66>    N        3.21747         5.39550         5.70501
| 67>    C        0.90385         7.39350         4.19873
| 68>    N        0.06195         7.26257         3.42924
| 69>    C        4.36108         8.33112         7.28864
| 70>    C        5.13806         9.16839         8.06434
| 71>    S        4.61087        10.84551         7.96710
| 72>    C        6.25226         8.82479         8.87253
| 73>    C        7.01509         9.66755         9.65850
| 74>    C        8.04037         8.98266        10.31339
| 75>    C        8.05661         7.61349        10.02183
| 76>    S        6.81047         7.16041         8.94417
| 77>    C        9.13547         7.01408        10.73316
| 78>    C        9.79232         8.00689        11.46993
| 79>    C        9.13070         9.27594        11.23739
| 80>    C        9.44984        10.49137        11.76938
| 81>    C       10.52704        10.66194        12.66363
| 82>    N       11.40043        10.80789        13.39252
| 83>    C        8.72174        11.65987        11.46381
| 84>    N        8.13288        12.61305        11.21841
| 85>    C       10.88115         7.49885        12.20529
| 86>    C       11.02519         6.15890        12.01534
| 87>    S        9.84614         5.47702        10.94136
| 88>    H       -1.69954        -2.51162        -5.49926
| 89>    H       -3.85855        -1.16547        -6.11098
| 90>    H       -4.12047         4.52323        -3.61827
| 91>    H       -0.06577         5.26831        -1.07157
| 92>    H       -0.32285        10.99139         1.27298
| 93>    H       -5.21852        13.07556        -0.60579
| 94>    H       -3.71860        13.02731        -1.52406
| 95>    H       -4.42713        14.58552        -1.07314
| 96>    H       -3.94997        15.48188         1.20581
| 97>    H       -3.37446        16.02900         3.58151
| 98>    H       -1.62245        16.00254         3.36791
| 99>    H       -2.38593        14.87599         4.49101
|100>    H       -1.48261        11.26345         3.13148
|101>    H       -0.20612        13.84191         4.16760
|102>    H       -0.04934         9.92900         4.04965
|103>    H        4.53482         7.27201         7.22121
|104>    H        6.82173        10.72222         9.73898
|105>    H       11.52248         8.08498        12.83775
|106>    H       11.76198         5.50928        12.44339
|107> *
|108>
|109>                          ****END OF INPUT****

CARTESIAN COORDINATES (ANGSTROEM)
---------------------------------
  C     -1.948800   -1.518830   -5.182550
  C     -3.063520   -0.799820   -5.487150
  C     -3.034720    0.471750   -4.881650
  C     -1.875510    0.676830   -4.124030
  S     -0.834990   -0.674860   -4.155010
  C     -1.930410    1.980210   -3.550940
  C     -3.126260    2.588730   -3.949890
  C     -3.860330    1.661180   -4.803640
  C     -5.066320    1.879220   -5.403850
  C     -5.771930    3.091020   -5.253800
  N     -6.349440    4.075020   -5.136180
  C     -5.687670    0.910310   -6.218870
  N     -6.199330    0.127490   -6.882760
  C     -3.278870    3.878690   -3.437990
  C     -2.203550    4.253070   -2.655040
  S     -0.986340    2.991060   -2.547550
  C     -2.013660    5.488320   -1.982890
  C     -0.925990    5.892630   -1.234740
  C     -1.087970    7.185580   -0.732820
  C     -2.313290    7.763790   -1.098740
  S     -3.263760    6.724790   -2.062550
  C     -2.384990    9.067960   -0.538490
  C     -1.196320    9.317480    0.157050
  C     -0.346660    8.140950    0.076070
  C      0.870600    7.961050    0.663990
  C      1.497620    8.959260    1.436530
  N      2.024420    9.758120    2.070260
  C      1.592790    6.754730    0.548340
  N      2.191830    5.781860    0.451430
  C     -1.167840   10.584600    0.749210
  C     -2.334060   11.288060    0.539050
  S     -3.471890   10.385000   -0.449980
  C     -2.669990   12.574580    1.076290
  C     -3.471690   13.552440    0.521030
  C     -4.252360   13.563730   -0.742240
  N     -3.447330   14.622830    1.362930
  C     -2.658610   14.378480    2.447300
  C     -2.502360   15.379040    3.534040
  C     -2.152940   13.099390    2.315170
  C     -1.335070   12.331720    3.207230
  C     -0.393610   12.784170    4.057950
  C      0.471270   11.906190    4.777500
  C      0.584410   10.531460    4.671960
  C      1.631280   10.026880    5.440900
  C      2.313060   11.018990    6.161000
  S      1.670100   12.574520    5.871980
  C      3.361740   10.403320    6.891870
  C      3.349050    9.024470    6.621600
  C      2.269520    8.744070    5.689710
  C      1.948200    7.540530    5.131780
  C      2.653530    6.359340    5.444590
  N      3.217470    5.395500    5.705010
  C      0.903850    7.393500    4.198730
  N      0.061950    7.262570    3.429240
  C      4.361080    8.331120    7.288640
  C      5.138060    9.168390    8.064340
  S      4.610870   10.845510    7.967100
  C      6.252260    8.824790    8.872530
  C      7.015090    9.667550    9.658500
  C      8.040370    8.982660   10.313390
  C      8.056610    7.613490   10.021830
  S      6.810470    7.160410    8.944170
  C      9.135470    7.014080   10.733160
  C      9.792320    8.006890   11.469930
  C      9.130700    9.275940   11.237390
  C      9.449840   10.491370   11.769380
  C     10.527040   10.661940   12.663630
  N     11.400430   10.807890   13.392520
  C      8.721740   11.659870   11.463810
  N      8.132880   12.613050   11.218410
  C     10.881150    7.498850   12.205290
  C     11.025190    6.158900   12.015340
  S      9.846140    5.477020   10.941360
  H     -1.699540   -2.511620   -5.499260
  H     -3.858550   -1.165470   -6.110980
  H     -4.120470    4.523230   -3.618270
  H     -0.065770    5.268310   -1.071570
  H     -0.322850   10.991390    1.272980
  H     -5.218520   13.075560   -0.605790
  H     -3.718600   13.027310   -1.524060
  H     -4.427130   14.585520   -1.073140
  H     -3.949970   15.481880    1.205810
  H     -3.374460   16.029000    3.581510
  H     -1.622450   16.002540    3.367910
  H     -2.385930   14.875990    4.491010
  H     -1.482610   11.263450    3.131480
  H     -0.206120   13.841910    4.167600
  H     -0.049340    9.929000    4.049650
  H      4.534820    7.272010    7.221210
  H      6.821730   10.722220    9.738980
  H     11.522480    8.084980   12.837750
  H     11.761980    5.509280   12.443390

 Total Charge           Charge          ....    0
 Multiplicity           Mult            ....    1
 Number of Electrons    NEL             ....  546
 Basis Dimension        Dim             .... 1149

ORBITAL ENERGIES
----------------

  NO   OCC          E(Eh)            E(eV)
   0   2.0000     -88.984064     -2421.3795
   1   2.0000     -88.984039     -2421.3788
   2   2.0000     -88.982699     -2421.3423
   3   2.0000     -88.981870     -2421.3198
   4   2.0000     -88.981796     -2421.3178
   5   2.0000     -88.981655     -2421.3139
   6   2.0000     -88.977625     -2421.2043
   7   2.0000     -88.975941     -2421.1584
   8   2.0000     -14.467736      -393.6871
   9   2.0000     -14.427048      -392.5799
  10   2.0000     -14.425123      -392.5276
  11   2.0000     -14.424978      -392.5236
  12   2.0000     -14.424237      -392.5034
  13   2.0000     -14.424035      -392.4979
  14   2.0000     -14.423206      -392.4754
  15   2.0000     -14.422262      -392.4497
  16   2.0000     -14.419958      -392.3870
  17   2.0000     -10.357646      -281.8459
  18   2.0000     -10.357336      -281.8374
  19   2.0000     -10.355020      -281.7744
  20   2.0000     -10.352603      -281.7087
  21   2.0000     -10.345637      -281.5191
  22   2.0000     -10.345400      -281.5126
  23   2.0000     -10.343859      -281.4707
  24   2.0000     -10.339200      -281.3439
  25   2.0000     -10.329489      -281.0797
  26   2.0000     -10.325893      -280.9818
  27   2.0000     -10.325758      -280.9782
  28   2.0000     -10.325031      -280.9584
  29   2.0000     -10.324785      -280.9517
  30   2.0000     -10.324722      -280.9500
  31   2.0000     -10.324610      -280.9469
  32   2.0000     -10.324144      -280.9342
  33   2.0000     -10.324020      -280.9309
  34   2.0000     -10.323401      -280.9140
  35   2.0000     -10.323135      -280.9068
  36   2.0000     -10.323100      -280.9058
  37   2.0000     -10.322974      -280.9024
  38   2.0000     -10.322846      -280.8989
  39   2.0000     -10.322602      -280.8923
  40   2.0000     -10.320618      -280.8383
  41   2.0000     -10.319780      -280.8155
  42   2.0000     -10.319052      -280.7957
  43   2.0000     -10.316166      -280.7171
  44   2.0000     -10.315827      -280.7079
  45   2.0000     -10.313434      -280.6428
  46   2.0000     -10.309156      -280.5264
  47   2.0000     -10.306809      -280.4625
  48   2.0000     -10.305570      -280.4288
  49   2.0000     -10.305370      -280.4234
  50   2.0000     -10.305180      -280.4182
  51   2.0000     -10.296232      -280.1747
  52   2.0000     -10.295830      -280.1638
  53   2.0000     -10.294573      -280.1296
  54   2.0000     -10.294509      -280.1278
  55   2.0000     -10.294047      -280.1152
  56   2.0000     -10.293039      -280.0878
  57   2.0000     -10.292681      -280.0781
  58   2.0000     -10.292583      -280.0754
  59   2.0000     -10.292385      -280.0700
  60   2.0000     -10.292049      -280.0609
  61   2.0000     -10.291763      -280.0531
  62   2.0000     -10.291159      -280.0367
  63   2.0000     -10.289764      -279.9987
  64   2.0000     -10.289567      -279.9934
  65   2.0000     -10.284451      -279.8541
  66   2.0000     -10.283646      -279.8322
  67   2.0000     -10.283352      -279.8242
  68   2.0000     -10.283171      -279.8193
  69   2.0000     -10.279975      -279.7323
  70   2.0000     -10.278157      -279.6829
  71   2.0000     -10.269378      -279.4440
  72   2.0000     -10.264822      -279.3200
  73   2.0000      -8.078533      -219.8281
  74   2.0000      -8.078331      -219.8226
  75   2.0000      -8.077218      -219.7923
  76   2.0000      -8.076870      -219.7828
  77   2.0000      -8.076770      -219.7801
  78   2.0000      -8.075968      -219.7583
  79   2.0000      -8.071864      -219.6466
  80   2.0000      -8.070673      -219.6142
  81   2.0000      -6.047834      -164.5699
  82   2.0000      -6.047631      -164.5644
  83   2.0000      -6.046518      -164.5341
  84   2.0000      -6.046102      -164.5228
  85   2.0000      -6.046013      -164.5204
  86   2.0000      -6.045273      -164.5002
  87   2.0000      -6.043670      -164.4566
  88   2.0000      -6.043473      -164.4513
  89   2.0000      -6.042349      -164.4207
  90   2.0000      -6.041689      -164.4027
  91   2.0000      -6.041585      -164.3999
  92   2.0000      -6.041157      -164.3882
  93   2.0000      -6.041124      -164.3873
  94   2.0000      -6.040779      -164.3779
  95   2.0000      -6.040664      -164.3748
  96   2.0000      -6.039854      -164.3528
  97   2.0000      -6.039476      -164.3425
  98   2.0000      -6.039469      -164.3423
  99   2.0000      -6.039435      -164.3414
 100   2.0000      -6.038285      -164.3101
 101   2.0000      -6.036905      -164.2725
 102   2.0000      -6.035761      -164.2414
 103   2.0000      -6.034350      -164.2030
 104   2.0000      -6.033134      -164.1699
 105   2.0000      -1.084980       -29.5238
 106   2.0000      -1.037746       -28.2385
 107   2.0000      -1.037267       -28.2255
 108   2.0000      -1.033989       -28.1363
 109   2.0000      -1.032311       -28.0906
 110   2.0000      -1.017632       -27.6912
 111   2.0000      -1.016021       -27.6473
 112   2.0000      -1.015661       -27.6375
 113   2.0000      -1.012542       -27.5527
 114   2.0000      -1.002338       -27.2750
 115   2.0000      -1.002312       -27.2743
 116   2.0000      -1.002133       -27.2694
 117   2.0000      -0.999254       -27.1911
 118   2.0000      -0.994768       -27.0690
 119   2.0000      -0.994467       -27.0608
 120   2.0000      -0.980589       -26.6832
 121   2.0000      -0.980146       -26.6711
 122   2.0000      -0.953606       -25.9489
 123   2.0000      -0.952633       -25.9225
 124   2.0000      -0.946520       -25.7561
 125   2.0000      -0.945040       -25.7158
 126   2.0000      -0.917800       -24.9746
 127   2.0000      -0.911439       -24.8015
 128   2.0000      -0.905247       -24.6330
 129   2.0000      -0.897995       -24.4357
 130   2.0000      -0.891826       -24.2678
 131   2.0000      -0.880951       -23.9719
 132   2.0000      -0.866233       -23.5714
 133   2.0000      -0.860534       -23.4163
 134   2.0000      -0.860143       -23.4057
 135   2.0000      -0.858416       -23.3587
 136   2.0000      -0.853813       -23.2334
 137   2.0000      -0.846331       -23.0298
 138   2.0000      -0.844821       -22.9887
 139   2.0000      -0.840949       -22.8834
 140   2.0000      -0.840504       -22.8713
 141   2.0000      -0.825579       -22.4652
 142   2.0000      -0.819361       -22.2959
 143   2.0000      -0.813297       -22.1309
 144   2.0000      -0.783246       -21.3132
 145   2.0000      -0.776336       -21.1252
 146   2.0000      -0.769891       -20.9498
 147   2.0000      -0.768344       -20.9077
 148   2.0000      -0.765266       -20.8240
 149   2.0000      -0.763826       -20.7848
 150   2.0000      -0.746956       -20.3257
 151   2.0000      -0.737527       -20.0691
 152   2.0000      -0.720618       -19.6090
 153   2.0000      -0.707464       -19.2511
 154   2.0000      -0.698848       -19.0166
 155   2.0000      -0.697133       -18.9700
 156   2.0000      -0.696042       -18.9403
 157   2.0000      -0.688659       -18.7394
 158   2.0000      -0.680757       -18.5244
 159   2.0000      -0.678214       -18.4551
 160   2.0000      -0.676141       -18.3987
 161   2.0000      -0.668409       -18.1883
 162   2.0000      -0.666464       -18.1354
 163   2.0000      -0.658180       -17.9100
 164   2.0000      -0.651193       -17.7199
 165   2.0000      -0.643888       -17.5211
 166   2.0000      -0.631934       -17.1958
 167   2.0000      -0.623405       -16.9637
 168   2.0000      -0.621089       -16.9007
 169   2.0000      -0.619192       -16.8491
 170   2.0000      -0.616264       -16.7694
 171   2.0000      -0.614020       -16.7083
 172   2.0000      -0.611450       -16.6384
 173   2.0000      -0.610116       -16.6021
 174   2.0000      -0.608108       -16.5475
 175   2.0000      -0.602341       -16.3905
 176   2.0000      -0.599775       -16.3207
 177   2.0000      -0.599278       -16.3072
 178   2.0000      -0.586653       -15.9636
 179   2.0000      -0.566882       -15.4256
 180   2.0000      -0.563081       -15.3222
 181   2.0000      -0.557389       -15.1673
 182   2.0000      -0.552382       -15.0311
 183   2.0000      -0.545614       -14.8469
 184   2.0000      -0.541607       -14.7379
 185   2.0000      -0.540190       -14.6993
 186   2.0000      -0.539380       -14.6773
 187   2.0000      -0.537819       -14.6348
 188   2.0000      -0.534281       -14.5385
 189   2.0000      -0.531150       -14.4533
 190   2.0000      -0.527435       -14.3522
 191   2.0000      -0.523559       -14.2468
 192   2.0000      -0.514833       -14.0093
 193   2.0000      -0.511924       -13.9302
 194   2.0000      -0.510690       -13.8966
 195   2.0000      -0.507554       -13.8112
 196   2.0000      -0.505648       -13.7594
 197   2.0000      -0.501370       -13.6430
 198   2.0000      -0.500401       -13.6166
 199   2.0000      -0.499497       -13.5920
 200   2.0000      -0.497302       -13.5323
 201   2.0000      -0.494118       -13.4456
 202   2.0000      -0.492694       -13.4069
 203   2.0000      -0.489786       -13.3278
 204   2.0000      -0.489277       -13.3139
 205   2.0000      -0.487221       -13.2580
 206   2.0000      -0.485613       -13.2142
 207   2.0000      -0.484328       -13.1792
 208   2.0000      -0.483294       -13.1511
 209   2.0000      -0.481031       -13.0895
 210   2.0000      -0.478093       -13.0096
 211   2.0000      -0.476455       -12.9650
 212   2.0000      -0.474477       -12.9112
 213   2.0000      -0.473150       -12.8751
 214   2.0000      -0.469095       -12.7647
 215   2.0000      -0.465806       -12.6752
 216   2.0000      -0.465075       -12.6553
 217   2.0000      -0.464723       -12.6458
 218   2.0000      -0.460534       -12.5318
 219   2.0000      -0.459514       -12.5040
 220   2.0000      -0.457395       -12.4464
 221   2.0000      -0.456488       -12.4217
 222   2.0000      -0.456357       -12.4181
 223   2.0000      -0.454051       -12.3554
 224   2.0000      -0.452676       -12.3179
 225   2.0000      -0.452285       -12.3073
 226   2.0000      -0.452053       -12.3010
 227   2.0000      -0.451399       -12.2832
 228   2.0000      -0.449409       -12.2290
 229   2.0000      -0.446153       -12.1404
 230   2.0000      -0.443591       -12.0707
 231   2.0000      -0.440514       -11.9870
 232   2.0000      -0.438168       -11.9232
 233   2.0000      -0.437116       -11.8945
 234   2.0000      -0.435240       -11.8435
 235   2.0000      -0.435092       -11.8394
 236   2.0000      -0.434990       -11.8367
 237   2.0000      -0.434201       -11.8152
 238   2.0000      -0.433774       -11.8036
 239   2.0000      -0.433151       -11.7866
 240   2.0000      -0.431335       -11.7372
 241   2.0000      -0.430773       -11.7219
 242   2.0000      -0.430010       -11.7012
 243   2.0000      -0.428845       -11.6695
 244   2.0000      -0.427001       -11.6193
 245   2.0000      -0.425256       -11.5718
 246   2.0000      -0.420743       -11.4490
 247   2.0000      -0.420350       -11.4383
 248   2.0000      -0.419527       -11.4159
 249   2.0000      -0.417785       -11.3685
 250   2.0000      -0.415740       -11.3129
 251   2.0000      -0.413488       -11.2516
 252   2.0000      -0.401990       -10.9387
 253   2.0000      -0.398914       -10.8550
 254   2.0000      -0.388854       -10.5813
 255   2.0000      -0.379396       -10.3239
 256   2.0000      -0.375771       -10.2253
 257   2.0000      -0.359359        -9.7786
 258   2.0000      -0.345327        -9.3968
 259   2.0000      -0.341982        -9.3058
 260   2.0000      -0.341733        -9.2990
 261   2.0000      -0.337305        -9.1785
 262   2.0000      -0.336371        -9.1531
 263   2.0000      -0.321004        -8.7350
 264   2.0000      -0.315542        -8.5863
 265   2.0000      -0.314192        -8.5496
 266   2.0000      -0.313438        -8.5291
 267   2.0000      -0.310124        -8.4389
 268   2.0000      -0.300975        -8.1900
 269   2.0000      -0.274694        -7.4748
 270   2.0000      -0.266077        -7.2403
 271   2.0000      -0.235636        -6.4120
 272   2.0000      -0.230275        -6.2661
 273   0.0000      -0.098822        -2.6891
 274   0.0000      -0.096675        -2.6307
 275   0.0000      -0.095225        -2.5912
 276   0.0000      -0.089143        -2.4257
 277   0.0000      -0.036625        -0.9966

MULLIKEN ATOMIC CHARGES
-----------------------
   0 C :   -0.083048
   1 C :    0.037687
   2 C :   -0.033905
   3 C :   -0.115974
   4 S :    0.181561
   5 C :   -0.103504
   6 C :    0.014811
   7 C :    0.298410
   8 C :   -0.300894
   9 C :   -0.186812
  10 N :    0.166291
  11 C :   -0.190506
  12 N :    0.171268
  13 C :   -0.069659
  14 C :   -0.048796
  15 S :    0.192390
  16 C :   -0.054934
  17 C :   -0.064171
  18 C :    0.012829
  19 C :   -0.098021
  20 S :    0.181523
  21 C :   -0.098546
  22 C :    0.016694
  23 C :    0.323836
  24 C :   -0.299448
  25 C :   -0.193288
  26 N :    0.167439
  27 C :   -0.196958
  28 N :    0.175859
  29 C :   -0.074648
  30 C :   -0.140924
  31 S :    0.162848
  32 C :    0.093731
  33 C :   -0.183170
  34 C :    0.122777
  35 N :   -0.031707
  36 C :   -0.168473
  37 C :    0.120335
  38 C :    0.062979
  39 C :   -0.067151
  40 C :    0.032743
  41 C :   -0.084845
  42 C :   -0.008434
  43 C :    0.009960
  44 C :   -0.106028
  45 S :    0.178173
  46 C :   -0.096230
  47 C :    0.006761
  48 C :    0.315864
  49 C :   -0.312883
  50 C :   -0.192045
  51 N :    0.171742
  52 C :   -0.149674
  53 N :    0.143532
  54 C :   -0.064925
  55 C :   -0.054137
  56 S :    0.186363
  57 C :   -0.047983
  58 C :   -0.071072
  59 C :    0.015333
  60 C :   -0.102335
  61 S :    0.190280
  62 C :   -0.115190
  63 C :   -0.037909
  64 C :    0.298818
  65 C :   -0.299753
  66 C :   -0.190437
  67 N :    0.172236
  68 C :   -0.188135
  69 N :    0.168264
  70 C :    0.039884
  71 C :   -0.086263
  72 S :    0.180961
  73 H :    0.033651
  74 H :    0.010606
  75 H :    0.009187
  76 H :    0.008675
  77 H :    0.018549
  78 H :    0.038137
  79 H :    0.033789
  80 H :    0.006862
  81 H :    0.115095
  82 H :    0.005659
  83 H :    0.037772
  84 H :    0.033808
  85 H :    0.019969
  86 H :   -0.029624
  87 H :   -0.008838
  88 H :    0.009418
  89 H :    0.009686
  90 H :    0.011248
  91 H :    0.034983
Sum of atomic charges:   -0.0000000

LOEWDIN ATOMIC CHARGES
----------------------
   0 C :   -0.180668
   1 C :   -0.034277
   2 C :   -0.081002
   3 C :   -0.180972
   4 S :    0.477465
   5 C :   -0.184898
   6 C :   -0.068955
   7 C :    0.085465
   8 C :   -0.106840
   9 C :   -0.015544
  10 N :   -0.038870
  11 C :   -0.016779
  12 N :   -0.035853
  13 C :   -0.044832
  14 C :   -0.177311
  15 S :    0.482969
  16 C :   -0.185565
  17 C :   -0.036545
  18 C :   -0.071671
  19 C :   -0.174259
  20 S :    0.476475
  21 C :   -0.194389
  22 C :   -0.065885
  23 C :    0.088215
  24 C :   -0.099784
  25 C :   -0.009659
  26 N :   -0.045419
  27 C :   -0.014563
  28 N :   -0.038917
  29 C :   -0.047068
  30 C :   -0.146913
  31 S :    0.468835
  32 C :   -0.098209
  33 C :   -0.018676
  34 C :   -0.060923
  35 N :    0.094799
  36 C :   -0.011473
  37 C :   -0.054849
  38 C :   -0.075372
  39 C :   -0.003140
  40 C :   -0.063929
  41 C :   -0.156918
  42 C :   -0.026877
  43 C :   -0.060743
  44 C :   -0.194743
  45 S :    0.469284
  46 C :   -0.168908
  47 C :   -0.076737
  48 C :    0.093402
  49 C :   -0.109096
  50 C :   -0.015758
  51 N :   -0.037436
  52 C :    0.000885
  53 N :   -0.050590
  54 C :   -0.037445
  55 C :   -0.186393
  56 S :    0.479713
  57 C :   -0.177532
  58 C :   -0.044717
  59 C :   -0.068711
  60 C :   -0.184493
  61 S :    0.481772
  62 C :   -0.181279
  63 C :   -0.080917
  64 C :    0.085377
  65 C :   -0.106274
  66 C :   -0.016765
  67 N :   -0.035546
  68 C :   -0.015745
  69 N :   -0.038103
  70 C :   -0.034105
  71 C :   -0.180809
  72 S :    0.477092
  73 H :    0.026662
  74 H :    0.042019
  75 H :    0.033939
  76 H :    0.035312
  77 H :    0.039661
  78 H :    0.037016
  79 H :    0.036400
  80 H :    0.032356
  81 H :    0.087604
  82 H :    0.030886
  83 H :    0.037339
  84 H :    0.042280
  85 H :    0.033241
  86 H :    0.023313
  87 H :    0.032590
  88 H :    0.035045
  89 H :    0.034211
  90 H :    0.042074
  91 H :    0.026955

  Mayer bond orders larger than 0.100000
B(  0-C ,  1-C ) :   1.5515 B(  0-C ,  4-S ) :   1.1461 B(  0-C , 73-H ) :   0.9642
B(  1-C ,  2-C ) :   1.2758 B(  1-C , 74-H ) :   0.9956 B(  2-C ,  3-C ) :   1.4581
B(  2-C ,  7-C ) :   1.0173 B(  3-C ,  4-S ) :   1.1400 B(  3-C ,  5-C ) :   1.1782
B(  5-C ,  6-C ) :   1.4694 B(  5-C , 15-S ) :   1.1171 B(  6-C ,  7-C ) :   0.9902
B(  6-C , 13-C ) :   1.2932 B(  7-C ,  8-C ) :   1.7087 B(  8-C ,  9-C ) :   1.1330
B(  8-C , 11-C ) :   1.1300 B(  9-C , 10-N ) :   2.9902 B( 11-C , 12-N ) :   3.0031
B( 13-C , 14-C ) :   1.4674 B( 13-C , 75-H ) :   0.9867 B( 14-C , 15-S ) :   1.1137
B( 14-C , 16-C ) :   1.1603 B( 16-C , 17-C ) :   1.4723 B( 16-C , 20-S ) :   1.1006
B( 17-C , 18-C ) :   1.2935 B( 17-C , 76-H ) :   0.9866 B( 18-C , 19-C ) :   1.4552
B( 18-C , 23-C ) :   0.9938 B( 19-C , 20-S ) :   1.1211 B( 19-C , 21-C ) :   1.1724
B( 21-C , 22-C ) :   1.4671 B( 21-C , 31-S ) :   1.1005 B( 22-C , 23-C ) :   0.9941
B( 22-C , 29-C ) :   1.2498 B( 23-C , 24-C ) :   1.7172 B( 24-C , 25-C ) :   1.1425
B( 24-C , 27-C ) :   1.1347 B( 25-C , 26-N ) :   2.9540 B( 27-C , 28-N ) :   2.9990
B( 29-C , 30-C ) :   1.4890 B( 29-C , 77-H ) :   1.0011 B( 30-C , 31-S ) :   1.1166
B( 30-C , 32-C ) :   1.0370 B( 32-C , 33-C ) :   1.4626 B( 32-C , 38-C ) :   1.2492
B( 33-C , 34-C ) :   1.1123 B( 33-C , 35-N ) :   1.2273 B( 34-C , 78-H ) :   0.9444
B( 34-C , 79-H ) :   0.9377 B( 34-C , 80-H ) :   0.9350 B( 35-N , 36-C ) :   1.2238
B( 35-N , 81-H ) :   0.9348 B( 36-C , 37-C ) :   1.1108 B( 36-C , 38-C ) :   1.4630
B( 37-C , 82-H ) :   0.9391 B( 37-C , 83-H ) :   0.9407 B( 37-C , 84-H ) :   0.9397
B( 38-C , 39-C ) :   1.0732 B( 39-C , 40-C ) :   1.7350 B( 39-C , 85-H ) :   0.9523
B( 40-C , 41-C ) :   1.0953 B( 40-C , 86-H ) :   0.9656 B( 41-C , 42-C ) :   1.4730
B( 41-C , 45-S ) :   1.1095 B( 42-C , 43-C ) :   1.2996 B( 42-C , 87-H ) :   0.9834
B( 43-C , 44-C ) :   1.4498 B( 43-C , 48-C ) :   1.0007 B( 44-C , 45-S ) :   1.1105
B( 44-C , 46-C ) :   1.1849 B( 46-C , 47-C ) :   1.4471 B( 46-C , 56-S ) :   1.1270
B( 47-C , 48-C ) :   1.0001 B( 47-C , 54-C ) :   1.2913 B( 48-C , 49-C ) :   1.7010
B( 49-C , 50-C ) :   1.1313 B( 49-C , 52-C ) :   1.1532 B( 50-C , 51-N ) :   2.9939
B( 52-C , 53-N ) :   2.9170 B( 54-C , 55-C ) :   1.4726 B( 54-C , 88-H ) :   0.9865
B( 55-C , 56-S ) :   1.0978 B( 55-C , 57-C ) :   1.1628 B( 57-C , 58-C ) :   1.4677
B( 57-C , 61-S ) :   1.1126 B( 58-C , 59-C ) :   1.2922 B( 58-C , 89-H ) :   0.9871
B( 59-C , 60-C ) :   1.4672 B( 59-C , 64-C ) :   0.9931 B( 60-C , 61-S ) :   1.1169
B( 60-C , 62-C ) :   1.1799 B( 62-C , 63-C ) :   1.4565 B( 62-C , 72-S ) :   1.1395
B( 63-C , 64-C ) :   1.0187 B( 63-C , 70-C ) :   1.2749 B( 64-C , 65-C ) :   1.7079
B( 65-C , 66-C ) :   1.1297 B( 65-C , 68-C ) :   1.1345 B( 66-C , 67-N ) :   3.0036
B( 68-C , 69-N ) :   2.9906 B( 70-C , 71-C ) :   1.5508 B( 70-C , 90-H ) :   0.9959
B( 71-C , 72-S ) :   1.1462 B( 71-C , 91-H ) :   0.9646

-----------------------------------------------------------------------------
         ABSORPTION SPECTRUM VIA TRANSITION ELECTRIC DIPOLE MOMENTS
-----------------------------------------------------------------------------
State   Energy  Wavelength   fosc         T2         TX        TY        TZ
        (cm-1)    (nm)                  (au**2)     (au)      (au)      (au)
-----------------------------------------------------------------------------
   0   10689.4    935.5   0.108672814   3.34689  -1.34413   0.25496  -1.21457
   1   12162.0    822.2   0.115981594   3.13949  -0.12218   1.63789   0.66474
   2   12842.8    778.6   0.089468414   2.29343   1.17593  -0.30797   0.90321
   3   13047.0    766.5   0.058931488   1.48701  -0.06671   1.13811   0.43273
   4   16442.5    608.2   0.000977480   0.01957   0.12271  -0.06697   0.00527
   5   18434.1    542.5   0.000089350   0.00160   0.02790   0.02425  -0.01513
   6   21799.9    458.7   0.029263885   0.44193   0.46210  -0.13732   0.45776
   7   22001.0    454.5   0.017767051   0.26586  -0.30454  -0.14753  -0.38904
   8   22641.9    441.7   0.084365903   1.22667  -0.83245   0.17592  -0.70905
   9   23042.2    434.0   0.015445385   0.22067  -0.13874   0.43499   0.11050
  10   23675.9    422.4   0.023301618   0.32401  -0.37239   0.40707  -0.14008
  11   23957.8    417.4   0.109257833   1.50135  -0.36942  -0.90714  -0.73619
  12   26043.7    384.0   0.446247385   5.64089   1.78629  -0.57739   1.45488
  13   26108.0    383.0   1.251248266  15.77778  -2.82811  -0.12552  -2.78636
  14   27340.2    365.8   0.303623229   3.65602  -0.61180  -1.38918  -1.16272
  15   28300.0    353.4   1.103594069  12.83803  -0.68766   3.42478   0.79750
  16   29498.8    339.0   0.012355318   0.13789   0.02727   0.36981   0.01957
  17   30097.5    332.3   0.187256783   2.04825  -1.03686  -0.65910  -0.73401
  18   30158.5    331.6   0.621268084   6.78180  -1.87627  -1.19635  -1.35284
  19   30563.5    327.2   0.034779628   0.37463   0.22556   0.53387   0.19682
  20   30851.2    324.1   0.026465600   0.28241   0.40989  -0.18849   0.28085
  21   31185.2    320.7   0.033930870   0.35820  -0.19626   0.55687   0.09786
  22   31356.2    318.9   0.081212057   0.85265   0.28150  -0.87905  -0.02623
  23   31913.9    313.3   0.195422019   2.01590   1.11150   0.65730   0.59027
  24   32060.6    311.9   0.142554835   1.46382  -0.87199   0.69613  -0.46781
  25   32332.3    309.3   0.361891565   3.68483   0.18414   1.77456   0.70843
  26   32706.6    305.7   0.119603470   1.20388  -0.51040   0.95060  -0.19934
  27   32758.1    305.3   0.341553862   3.43254  -0.67609   1.72109   0.11535
  28   32965.8    303.3   1.035318761  10.33918  -2.62725   1.66703  -0.81100
  29   33172.5    301.5   0.386118906   3.83193  -0.36504  -1.84329  -0.54861
  30   33370.9    299.7   0.026426731   0.26071  -0.31310  -0.14865  -0.37494
  31   33921.1    294.8   0.333003007   3.23187   1.44149  -0.38325   1.00355
  32   34249.1    292.0   0.088837427   0.85393   0.30234   0.66204   0.56941
  33   34278.8    291.7   0.090163237   0.86592  -0.72201  -0.16357  -0.56380
  34   34353.3    291.1   0.154871385   1.48415  -0.66122  -0.66999  -0.77334
  35   34856.4    286.9   0.161751582   1.52771   0.22538  -1.17466  -0.31159
  36   34907.6    286.5   0.092825535   0.87543   0.55740   0.44456   0.60589
  37   35183.4    284.2   0.021668930   0.20276  -0.32960   0.29876  -0.06972
  38   35293.3    283.3   0.058941029   0.54980  -0.56974  -0.06496  -0.47008
  39   35876.3    278.7   0.006785740   0.06227  -0.19931  -0.05225  -0.14076
  40   36228.3    276.0   0.026359833   0.23954   0.16657   0.31933   0.33139
  41   36604.2    273.2   0.090513094   0.81406   0.20686  -0.86757  -0.13634
  42   37666.3    265.5   0.079817805   0.69762   0.64620  -0.49593   0.18468
  43   38183.9    261.9   0.069894860   0.60262   0.00898   0.69229   0.35109
  44   38271.9    261.3   0.036650664   0.31527  -0.17979   0.52409   0.09094
  45   38533.6    259.5   0.064055448   0.54726   0.21231  -0.69891  -0.11711
  46   38746.2    258.1   0.016595159   0.14100   0.19625  -0.30012   0.11142
  47   38870.9    257.3   0.048832678   0.41358   0.51507  -0.32538   0.20594
  48   39116.8    255.6   0.000044736   0.00038   0.00622  -0.01353   0.01244
  49   39223.3    255.0   0.012864286   0.10797  -0.14589   0.29159  -0.04083
  50   39524.5    253.0   0.013819459   0.11511   0.13991  -0.30885  -0.01202
  51   39627.7    252.3   0.018391411   0.15279  -0.24192   0.30595  -0.02570
  52   39737.7    251.6   0.024820289   0.20563   0.41457  -0.09624   0.15651
  53   39760.8    251.5   0.008129813   0.06731   0.23298  -0.06610   0.09309
  54   39993.3    250.0   0.003345478   0.02754  -0.03373  -0.07461   0.14434

FINAL SINGLE POINT ENERGY     -5819.122366484404

DIPOLE MOMENT
-------------
                                X             Y             Z
Electronic contribution:     24.32917     -36.80059       6.91718
Nuclear contribution   :    -25.38064      38.45142      -7.24546
                        -----------------------------------------
Total Dipole Moment    :     -1.05146       1.65083      -0.32828
                        -----------------------------------------
Magnitude (a.u.)       :      1.98459
Magnitude (Debye)      :      5.04442

Rotational constants in cm-1:     0.001045     0.000271     0.000218
Rotational constants in MHz :    31.323136     8.115391     6.522582

                             ****ORCA TERMINATED NORMALLY****
TOTAL RUN TIME: 0 days 0 hours 9 minutes 27 seconds 811 msec
