                         Program Version 4.2.0 -  RELEASE  -
|  1> # ORCA input file
|  2> # SCF done       -171.480333405834          0.000740780117
|  3> ! CAM-B3LYP def2-SVP def2/J RIJCOSX Grid4 TightSCF
|  4> %maxcore 5000
|  5> %tddft
|  6>     Mode sTDDFT
|  7>     Ethresh 5.0
|  8>     maxcore 5000
|  9> end
| 10>
| 11> %pal
| 12>   nprocs 6
| 13>   end
| 14> * xyz 0 1
| 15>    C       -1.01993        -2.12456        -4.40868
| 16>    C       -1.51478        -1.15463        -5.22537
| 17>    C       -1.51654         0.10112        -4.58726
| 18>    C       -1.01266         0.03805        -3.28258
| 19>    S       -0.54309        -1.54318        -2.84591
| 20>    C       -1.05183         1.34404        -2.71569
| 21>    C       -1.58125         2.22449        -3.66727
| 22>    C       -1.89090         1.47149        -4.87786
| 23>    C       -2.42103         1.96235        -6.03551
| 24>    C       -2.74443         3.32583        -6.19434
| 25>    N       -3.01333         4.43271        -6.32796
| 26>    C       -2.68095         1.14043        -7.15169
| 27>    N       -2.89450         0.47793        -8.06307
| 28>    C       -1.66383         3.53972        -3.20673
| 29>    C       -1.19947         3.66216        -1.91073
| 30>    S       -0.65195         2.12792        -1.25156
| 31>    C       -1.13778         4.83755        -1.11903
| 32>    C       -0.67788         4.95990         0.17766
| 33>    C       -0.77498         6.27086         0.64622
| 34>    C       -1.31601         7.15285        -0.30520
| 35>    S       -1.70054         6.37060        -1.77470
| 36>    C       -1.38419         8.44767         0.26536
| 37>    C       -0.89414         8.38312         1.57946
| 38>    C       -0.50505         7.01097         1.86738
| 39>    C       -0.02081         6.52216         3.04445
| 40>    C        0.11115         7.32017         4.20159
| 41>    N        0.17498         7.94493         5.16058
| 42>    C        0.33653         5.16606         3.19757
| 43>    N        0.62411         4.06315         3.32402
| 44>    C       -0.91193         9.61251         2.23327
| 45>    C       -1.40814        10.62052         1.42510
| 46>    S       -1.88062        10.02638        -0.16286
| 47>    C       -1.60025        11.98282         1.78549
| 48>    S       -2.96631        12.86763         1.18904
| 49>    C       -2.71217        14.20038         2.27868
| 50>    C       -1.58336        13.95539         3.08033
| 51>    C       -0.90683        12.73500         2.73769
| 52>    C        0.34561        12.41957         3.33775
| 53>    C        1.29557        11.40570         2.80500
| 54>    O        2.00363        10.72328         3.49017
| 55>    O        1.40012        11.36084         1.45685
| 56>    C        0.78038        13.18164         4.39383
| 57>    C        0.05339        14.29219         4.83193
| 58>    C       -1.08373        14.70479         4.17855
| 59>    O       -1.75781        15.80567         4.57982
| 60>    C       -3.62354        15.28036         2.15620
| 61>    C       -4.68657        15.29266         1.26517
| 62>    C       -5.40314        16.48247         1.29078
| 63>    C       -4.90051        17.41336         2.20811
| 64>    S       -3.52447        16.79569         3.04300
| 65>    C       -5.65627        18.59008         2.21345
| 66>    C       -6.72387        18.55203         1.29964
| 67>    S       -6.80460        17.05411         0.41484
| 68>    C       -7.41638        19.75853         1.41018
| 69>    C       -6.74639        20.50475         2.37061
| 70>    N       -5.68512        19.78589         2.86133
| 71>    C       -4.79724        20.15061         3.92738
| 72>    C       -7.12898        21.81712         2.85820
| 73>    C       -8.46119        22.06838         3.26781
| 74>    C       -8.65469        23.33110         3.74552
| 75>    S      -10.16494        23.95846         4.35628
| 76>    C       -9.70825        25.67648         4.71982
| 77>    S       -7.18856        24.25597         3.70049
| 78>    C       -6.30837        22.91887         3.00317
| 79>    C       -4.95232        23.16666         2.59362
| 80>    C       -4.26082        22.45300         1.70710
| 81>    H       -0.89976        -3.16729        -4.62401
| 82>    H       -1.85749        -1.33511        -6.22777
| 83>    H       -2.03960         4.37395        -3.77155
| 84>    H       -0.29433         4.12778         0.74048
| 85>    H       -0.61197         9.76969         3.25297
| 86>    H        0.80739        11.98764         1.02087
| 87>    H        1.71494        12.92753         4.86850
| 88>    H        0.41160        14.86099         5.67840
| 89>    H       -1.31363        16.21691         5.33258
| 90>    H       -4.92386        14.46335         0.62340
| 91>    H       -8.27632        20.07530         0.85643
| 92>    H       -5.29490        20.84996         4.59805
| 93>    H       -3.89161        20.62518         3.53862
| 94>    H       -4.51642        19.25308         4.47878
| 95>    H       -9.24128        21.33089         3.22589
| 96>    H      -10.60604        26.15775         5.09379
| 97>    H       -9.37105        26.16355         3.80940
| 98>    H       -8.92872        25.69410         5.47618
| 99>    H       -4.50512        24.05024         3.03267
|100>    H       -4.68001        21.59883         1.20439
|101>    H       -3.25498        22.72584         1.44030
|102> *
|103>
|104>                          ****END OF INPUT****

CARTESIAN COORDINATES (ANGSTROEM)
---------------------------------
  C     -1.019930   -2.124560   -4.408680
  C     -1.514780   -1.154630   -5.225370
  C     -1.516540    0.101120   -4.587260
  C     -1.012660    0.038050   -3.282580
  S     -0.543090   -1.543180   -2.845910
  C     -1.051830    1.344040   -2.715690
  C     -1.581250    2.224490   -3.667270
  C     -1.890900    1.471490   -4.877860
  C     -2.421030    1.962350   -6.035510
  C     -2.744430    3.325830   -6.194340
  N     -3.013330    4.432710   -6.327960
  C     -2.680950    1.140430   -7.151690
  N     -2.894500    0.477930   -8.063070
  C     -1.663830    3.539720   -3.206730
  C     -1.199470    3.662160   -1.910730
  S     -0.651950    2.127920   -1.251560
  C     -1.137780    4.837550   -1.119030
  C     -0.677880    4.959900    0.177660
  C     -0.774980    6.270860    0.646220
  C     -1.316010    7.152850   -0.305200
  S     -1.700540    6.370600   -1.774700
  C     -1.384190    8.447670    0.265360
  C     -0.894140    8.383120    1.579460
  C     -0.505050    7.010970    1.867380
  C     -0.020810    6.522160    3.044450
  C      0.111150    7.320170    4.201590
  N      0.174980    7.944930    5.160580
  C      0.336530    5.166060    3.197570
  N      0.624110    4.063150    3.324020
  C     -0.911930    9.612510    2.233270
  C     -1.408140   10.620520    1.425100
  S     -1.880620   10.026380   -0.162860
  C     -1.600250   11.982820    1.785490
  S     -2.966310   12.867630    1.189040
  C     -2.712170   14.200380    2.278680
  C     -1.583360   13.955390    3.080330
  C     -0.906830   12.735000    2.737690
  C      0.345610   12.419570    3.337750
  C      1.295570   11.405700    2.805000
  O      2.003630   10.723280    3.490170
  O      1.400120   11.360840    1.456850
  C      0.780380   13.181640    4.393830
  C      0.053390   14.292190    4.831930
  C     -1.083730   14.704790    4.178550
  O     -1.757810   15.805670    4.579820
  C     -3.623540   15.280360    2.156200
  C     -4.686570   15.292660    1.265170
  C     -5.403140   16.482470    1.290780
  C     -4.900510   17.413360    2.208110
  S     -3.524470   16.795690    3.043000
  C     -5.656270   18.590080    2.213450
  C     -6.723870   18.552030    1.299640
  S     -6.804600   17.054110    0.414840
  C     -7.416380   19.758530    1.410180
  C     -6.746390   20.504750    2.370610
  N     -5.685120   19.785890    2.861330
  C     -4.797240   20.150610    3.927380
  C     -7.128980   21.817120    2.858200
  C     -8.461190   22.068380    3.267810
  C     -8.654690   23.331100    3.745520
  S    -10.164940   23.958460    4.356280
  C     -9.708250   25.676480    4.719820
  S     -7.188560   24.255970    3.700490
  C     -6.308370   22.918870    3.003170
  C     -4.952320   23.166660    2.593620
  C     -4.260820   22.453000    1.707100
  H     -0.899760   -3.167290   -4.624010
  H     -1.857490   -1.335110   -6.227770
  H     -2.039600    4.373950   -3.771550
  H     -0.294330    4.127780    0.740480
  H     -0.611970    9.769690    3.252970
  H      0.807390   11.987640    1.020870
  H      1.714940   12.927530    4.868500
  H      0.411600   14.860990    5.678400
  H     -1.313630   16.216910    5.332580
  H     -4.923860   14.463350    0.623400
  H     -8.276320   20.075300    0.856430
  H     -5.294900   20.849960    4.598050
  H     -3.891610   20.625180    3.538620
  H     -4.516420   19.253080    4.478780
  H     -9.241280   21.330890    3.225890
  H    -10.606040   26.157750    5.093790
  H     -9.371050   26.163550    3.809400
  H     -8.928720   25.694100    5.476180
  H     -4.505120   24.050240    3.032670
  H     -4.680010   21.598830    1.204390
  H     -3.254980   22.725840    1.440300

 Total Charge           Charge          ....    0
 Multiplicity           Mult            ....    1
 Number of Electrons    NEL             ....  518
 Basis Dimension        Dim             .... 1065

ORBITAL ENERGIES
----------------

  NO   OCC          E(Eh)            E(eV)
   0   2.0000     -88.985345     -2421.4143
   1   2.0000     -88.983875     -2421.3743
   2   2.0000     -88.982877     -2421.3472
   3   2.0000     -88.982522     -2421.3375
   4   2.0000     -88.973726     -2421.0982
   5   2.0000     -88.962183     -2420.7841
   6   2.0000     -88.959533     -2420.7120
   7   2.0000     -88.946661     -2420.3617
   8   2.0000     -88.938835     -2420.1487
   9   2.0000     -19.273648      -524.4626
  10   2.0000     -19.245385      -523.6936
  11   2.0000     -19.186641      -522.0950
  12   2.0000     -14.467545      -393.6819
  13   2.0000     -14.425577      -392.5399
  14   2.0000     -14.424695      -392.5159
  15   2.0000     -14.422815      -392.4647
  16   2.0000     -14.418010      -392.3340
  17   2.0000     -10.390849      -282.7494
  18   2.0000     -10.359786      -281.9041
  19   2.0000     -10.358270      -281.8628
  20   2.0000     -10.355840      -281.7967
  21   2.0000     -10.346220      -281.5350
  22   2.0000     -10.341885      -281.4170
  23   2.0000     -10.330691      -281.1124
  24   2.0000     -10.326255      -280.9917
  25   2.0000     -10.325333      -280.9666
  26   2.0000     -10.325195      -280.9628
  27   2.0000     -10.324943      -280.9560
  28   2.0000     -10.324734      -280.9503
  29   2.0000     -10.324009      -280.9306
  30   2.0000     -10.323236      -280.9095
  31   2.0000     -10.322142      -280.8798
  32   2.0000     -10.322017      -280.8764
  33   2.0000     -10.321743      -280.8689
  34   2.0000     -10.320918      -280.8465
  35   2.0000     -10.317629      -280.7570
  36   2.0000     -10.313934      -280.6564
  37   2.0000     -10.312664      -280.6219
  38   2.0000     -10.311981      -280.6033
  39   2.0000     -10.306418      -280.4519
  40   2.0000     -10.306231      -280.4468
  41   2.0000     -10.303716      -280.3784
  42   2.0000     -10.301488      -280.3177
  43   2.0000     -10.301088      -280.3068
  44   2.0000     -10.300809      -280.2993
  45   2.0000     -10.300079      -280.2794
  46   2.0000     -10.298862      -280.2463
  47   2.0000     -10.297237      -280.2021
  48   2.0000     -10.295968      -280.1675
  49   2.0000     -10.295411      -280.1524
  50   2.0000     -10.294822      -280.1364
  51   2.0000     -10.294686      -280.1326
  52   2.0000     -10.293578      -280.1025
  53   2.0000     -10.293483      -280.0999
  54   2.0000     -10.292675      -280.0779
  55   2.0000     -10.289644      -279.9954
  56   2.0000     -10.288730      -279.9706
  57   2.0000     -10.288169      -279.9553
  58   2.0000     -10.286160      -279.9007
  59   2.0000     -10.286042      -279.8974
  60   2.0000     -10.283818      -279.8369
  61   2.0000     -10.281753      -279.7807
  62   2.0000     -10.277517      -279.6655
  63   2.0000     -10.272271      -279.5227
  64   2.0000     -10.268031      -279.4073
  65   2.0000     -10.261556      -279.2311
  66   2.0000      -8.079699      -219.8598
  67   2.0000      -8.078240      -219.8201
  68   2.0000      -8.077733      -219.8063
  69   2.0000      -8.077038      -219.7874
  70   2.0000      -8.069125      -219.5721
  71   2.0000      -8.057687      -219.2608
  72   2.0000      -8.053068      -219.1351
  73   2.0000      -8.041607      -218.8233
  74   2.0000      -8.034392      -218.6269
  75   2.0000      -6.048981      -164.6011
  76   2.0000      -6.047552      -164.5623
  77   2.0000      -6.046966      -164.5463
  78   2.0000      -6.046302      -164.5282
  79   2.0000      -6.044848      -164.4887
  80   2.0000      -6.043413      -164.4496
  81   2.0000      -6.042562      -164.4265
  82   2.0000      -6.042187      -164.4163
  83   2.0000      -6.042001      -164.4112
  84   2.0000      -6.040488      -164.3700
  85   2.0000      -6.040416      -164.3681
  86   2.0000      -6.039400      -164.3404
  87   2.0000      -6.038361      -164.3121
  88   2.0000      -6.034100      -164.1962
  89   2.0000      -6.031437      -164.1237
  90   2.0000      -6.027105      -164.0059
  91   2.0000      -6.022891      -163.8912
  92   2.0000      -6.022815      -163.8891
  93   2.0000      -6.019643      -163.8028
  94   2.0000      -6.018472      -163.7709
  95   2.0000      -6.014558      -163.6645
  96   2.0000      -6.011530      -163.5821
  97   2.0000      -6.007649      -163.4764
  98   2.0000      -6.004856      -163.4005
  99   2.0000      -6.002311      -163.3312
 100   2.0000      -6.000784      -163.2896
 101   2.0000      -5.993964      -163.1040
 102   2.0000      -1.171726       -31.8843
 103   2.0000      -1.168148       -31.7869
 104   2.0000      -1.092474       -29.7277
 105   2.0000      -1.084012       -29.4975
 106   2.0000      -1.038815       -28.2676
 107   2.0000      -1.035404       -28.1748
 108   2.0000      -1.016741       -27.6669
 109   2.0000      -1.014184       -27.5973
 110   2.0000      -1.011212       -27.5165
 111   2.0000      -1.002803       -27.2876
 112   2.0000      -0.998318       -27.1656
 113   2.0000      -0.996751       -27.1230
 114   2.0000      -0.993433       -27.0327
 115   2.0000      -0.989995       -26.9391
 116   2.0000      -0.980931       -26.6925
 117   2.0000      -0.954136       -25.9634
 118   2.0000      -0.946824       -25.7644
 119   2.0000      -0.945099       -25.7175
 120   2.0000      -0.931554       -25.3489
 121   2.0000      -0.911931       -24.8149
 122   2.0000      -0.911437       -24.8015
 123   2.0000      -0.899656       -24.4809
 124   2.0000      -0.890807       -24.2401
 125   2.0000      -0.877632       -23.8816
 126   2.0000      -0.870964       -23.7001
 127   2.0000      -0.862166       -23.4607
 128   2.0000      -0.860928       -23.4270
 129   2.0000      -0.860585       -23.4177
 130   2.0000      -0.851243       -23.1635
 131   2.0000      -0.848258       -23.0823
 132   2.0000      -0.844343       -22.9757
 133   2.0000      -0.837803       -22.7978
 134   2.0000      -0.829761       -22.5790
 135   2.0000      -0.816844       -22.2275
 136   2.0000      -0.809490       -22.0273
 137   2.0000      -0.802177       -21.8283
 138   2.0000      -0.782604       -21.2958
 139   2.0000      -0.772102       -21.0100
 140   2.0000      -0.768742       -20.9185
 141   2.0000      -0.766964       -20.8701
 142   2.0000      -0.758098       -20.6289
 143   2.0000      -0.744137       -20.2490
 144   2.0000      -0.739407       -20.1203
 145   2.0000      -0.732227       -19.9249
 146   2.0000      -0.718924       -19.5629
 147   2.0000      -0.704864       -19.1803
 148   2.0000      -0.697779       -18.9875
 149   2.0000      -0.694764       -18.9055
 150   2.0000      -0.687122       -18.6975
 151   2.0000      -0.684587       -18.6286
 152   2.0000      -0.679268       -18.4838
 153   2.0000      -0.670421       -18.2431
 154   2.0000      -0.667364       -18.1599
 155   2.0000      -0.666094       -18.1253
 156   2.0000      -0.661933       -18.0121
 157   2.0000      -0.648976       -17.6595
 158   2.0000      -0.639429       -17.3998
 159   2.0000      -0.630810       -17.1652
 160   2.0000      -0.627279       -17.0691
 161   2.0000      -0.622460       -16.9380
 162   2.0000      -0.620390       -16.8817
 163   2.0000      -0.615946       -16.7607
 164   2.0000      -0.612401       -16.6643
 165   2.0000      -0.608018       -16.5450
 166   2.0000      -0.606299       -16.4982
 167   2.0000      -0.600557       -16.3420
 168   2.0000      -0.595122       -16.1941
 169   2.0000      -0.587802       -15.9949
 170   2.0000      -0.580119       -15.7858
 171   2.0000      -0.572753       -15.5854
 172   2.0000      -0.566732       -15.4216
 173   2.0000      -0.558897       -15.2084
 174   2.0000      -0.556231       -15.1358
 175   2.0000      -0.544776       -14.8241
 176   2.0000      -0.542349       -14.7581
 177   2.0000      -0.539657       -14.6848
 178   2.0000      -0.537791       -14.6340
 179   2.0000      -0.536744       -14.6056
 180   2.0000      -0.534528       -14.5453
 181   2.0000      -0.529158       -14.3991
 182   2.0000      -0.525452       -14.2983
 183   2.0000      -0.523983       -14.2583
 184   2.0000      -0.521728       -14.1969
 185   2.0000      -0.520614       -14.1666
 186   2.0000      -0.515171       -14.0185
 187   2.0000      -0.513551       -13.9744
 188   2.0000      -0.508973       -13.8499
 189   2.0000      -0.507088       -13.7986
 190   2.0000      -0.501821       -13.6553
 191   2.0000      -0.501564       -13.6483
 192   2.0000      -0.499610       -13.5951
 193   2.0000      -0.497968       -13.5504
 194   2.0000      -0.496882       -13.5208
 195   2.0000      -0.493660       -13.4332
 196   2.0000      -0.492085       -13.3903
 197   2.0000      -0.491518       -13.3749
 198   2.0000      -0.489279       -13.3139
 199   2.0000      -0.486718       -13.2443
 200   2.0000      -0.483270       -13.1505
 201   2.0000      -0.479847       -13.0573
 202   2.0000      -0.478627       -13.0241
 203   2.0000      -0.477008       -12.9800
 204   2.0000      -0.474599       -12.9145
 205   2.0000      -0.473922       -12.8961
 206   2.0000      -0.466735       -12.7005
 207   2.0000      -0.465646       -12.6709
 208   2.0000      -0.464156       -12.6303
 209   2.0000      -0.463175       -12.6036
 210   2.0000      -0.458137       -12.4665
 211   2.0000      -0.456859       -12.4318
 212   2.0000      -0.455803       -12.4030
 213   2.0000      -0.453115       -12.3299
 214   2.0000      -0.452590       -12.3156
 215   2.0000      -0.450500       -12.2587
 216   2.0000      -0.447148       -12.1675
 217   2.0000      -0.442575       -12.0431
 218   2.0000      -0.441539       -12.0149
 219   2.0000      -0.439095       -11.9484
 220   2.0000      -0.436703       -11.8833
 221   2.0000      -0.436405       -11.8752
 222   2.0000      -0.435542       -11.8517
 223   2.0000      -0.434653       -11.8275
 224   2.0000      -0.431330       -11.7371
 225   2.0000      -0.430030       -11.7017
 226   2.0000      -0.428230       -11.6527
 227   2.0000      -0.424728       -11.5574
 228   2.0000      -0.423833       -11.5331
 229   2.0000      -0.420663       -11.4468
 230   2.0000      -0.419790       -11.4231
 231   2.0000      -0.416628       -11.3370
 232   2.0000      -0.416106       -11.3228
 233   2.0000      -0.413879       -11.2622
 234   2.0000      -0.401365       -10.9217
 235   2.0000      -0.398759       -10.8508
 236   2.0000      -0.395387       -10.7590
 237   2.0000      -0.393974       -10.7206
 238   2.0000      -0.390212       -10.6182
 239   2.0000      -0.384387       -10.4597
 240   2.0000      -0.377613       -10.2754
 241   2.0000      -0.370509       -10.0821
 242   2.0000      -0.350369        -9.5340
 243   2.0000      -0.344919        -9.3857
 244   2.0000      -0.342032        -9.3072
 245   2.0000      -0.339405        -9.2357
 246   2.0000      -0.337599        -9.1865
 247   2.0000      -0.332997        -9.0613
 248   2.0000      -0.331731        -9.0269
 249   2.0000      -0.327195        -8.9034
 250   2.0000      -0.319489        -8.6937
 251   2.0000      -0.316185        -8.6038
 252   2.0000      -0.313668        -8.5353
 253   2.0000      -0.299562        -8.1515
 254   2.0000      -0.275933        -7.5085
 255   2.0000      -0.270990        -7.3740
 256   2.0000      -0.258723        -7.0402
 257   2.0000      -0.245880        -6.6907
 258   2.0000      -0.217872        -5.9286
 259   0.0000      -0.099479        -2.7070
 260   0.0000      -0.094885        -2.5819
 261   0.0000      -0.064159        -1.7459
 262   0.0000      -0.030242        -0.8229
 263   0.0000      -0.017354        -0.4722

MULLIKEN ATOMIC CHARGES
-----------------------
   0 C :   -0.084255
   1 C :    0.039448
   2 C :   -0.035063
   3 C :   -0.116118
   4 S :    0.182726
   5 C :   -0.103292
   6 C :    0.014844
   7 C :    0.298402
   8 C :   -0.300203
   9 C :   -0.187686
  10 N :    0.170140
  11 C :   -0.191677
  12 N :    0.172761
  13 C :   -0.065845
  14 C :   -0.051648
  15 S :    0.191290
  16 C :   -0.051412
  17 C :   -0.065691
  18 C :    0.014029
  19 C :   -0.101162
  20 S :    0.187195
  21 C :   -0.093493
  22 C :   -0.011809
  23 C :    0.304704
  24 C :   -0.292147
  25 C :   -0.184542
  26 N :    0.181963
  27 C :   -0.192240
  28 N :    0.169251
  29 C :    0.034833
  30 C :   -0.156254
  31 S :    0.181101
  32 C :   -0.188361
  33 S :    0.147611
  34 C :   -0.112019
  35 C :    0.069197
  36 C :    0.113371
  37 C :   -0.075558
  38 C :    0.104657
  39 O :   -0.173575
  40 O :   -0.165865
  41 C :    0.014801
  42 C :   -0.070638
  43 C :    0.128677
  44 O :   -0.179878
  45 C :   -0.053220
  46 C :   -0.073486
  47 C :   -0.037864
  48 C :   -0.050349
  49 S :    0.150377
  50 C :    0.020303
  51 C :   -0.022283
  52 S :    0.135728
  53 C :   -0.119825
  54 C :    0.046622
  55 N :   -0.162091
  56 C :    0.125491
  57 C :    0.055503
  58 C :    0.013036
  59 C :   -0.127886
  60 S :    0.006639
  61 C :   -0.098683
  62 S :    0.094347
  63 C :   -0.140608
  64 C :    0.009740
  65 C :   -0.030371
  66 H :    0.035457
  67 H :    0.010653
  68 H :    0.009267
  69 H :    0.009189
  70 H :    0.029541
  71 H :    0.186729
  72 H :    0.006514
  73 H :   -0.037318
  74 H :    0.191747
  75 H :   -0.002168
  76 H :   -0.030420
  77 H :    0.052793
  78 H :    0.040414
  79 H :    0.030657
  80 H :   -0.016917
  81 H :    0.069077
  82 H :    0.072109
  83 H :    0.071618
  84 H :   -0.008679
  85 H :    0.045201
  86 H :    0.022847
Sum of atomic charges:   -0.0000000

LOEWDIN ATOMIC CHARGES
----------------------
   0 C :   -0.179890
   1 C :   -0.033879
   2 C :   -0.080035
   3 C :   -0.181878
   4 S :    0.477978
   5 C :   -0.183126
   6 C :   -0.068874
   7 C :    0.084912
   8 C :   -0.105767
   9 C :   -0.015955
  10 N :   -0.037383
  11 C :   -0.016842
  12 N :   -0.034812
  13 C :   -0.042478
  14 C :   -0.178517
  15 S :    0.483053
  16 C :   -0.182888
  17 C :   -0.038799
  18 C :   -0.070456
  19 C :   -0.176036
  20 S :    0.477699
  21 C :   -0.186407
  22 C :   -0.061297
  23 C :    0.082357
  24 C :   -0.095796
  25 C :   -0.017343
  26 N :   -0.022618
  27 C :   -0.014148
  28 N :   -0.037229
  29 C :   -0.021834
  30 C :   -0.194183
  31 S :    0.458204
  32 C :   -0.238331
  33 S :    0.474547
  34 C :   -0.150893
  35 C :   -0.078919
  36 C :   -0.036143
  37 C :   -0.108490
  38 C :    0.074970
  39 O :   -0.155467
  40 O :   -0.036007
  41 C :    0.032873
  42 C :   -0.103597
  43 C :    0.076695
  44 O :   -0.041255
  45 C :   -0.202778
  46 C :   -0.064205
  47 C :   -0.196472
  48 C :   -0.212420
  49 S :    0.446068
  50 C :   -0.057590
  51 C :   -0.188678
  52 S :    0.383058
  53 C :   -0.089019
  54 C :    0.000201
  55 N :    0.056085
  56 C :    0.034241
  57 C :   -0.060441
  58 C :   -0.086145
  59 C :   -0.315790
  60 S :    0.295568
  61 C :   -0.161347
  62 S :    0.421190
  63 C :   -0.190998
  64 C :   -0.046457
  65 C :   -0.045118
  66 H :    0.027155
  67 H :    0.042109
  68 H :    0.034543
  69 H :    0.034897
  70 H :    0.045290
  71 H :    0.088589
  72 H :    0.042518
  73 H :    0.026952
  74 H :    0.102235
  75 H :    0.025102
  76 H :    0.027576
  77 H :    0.038643
  78 H :    0.026037
  79 H :    0.025909
  80 H :    0.030749
  81 H :    0.036349
  82 H :    0.025300
  83 H :    0.023782
  84 H :    0.027357
  85 H :    0.028685
  86 H :    0.025550

  Mayer bond orders larger than 0.100000
B(  0-C ,  1-C ) :   1.5516 B(  0-C ,  4-S ) :   1.1469 B(  0-C , 66-H ) :   0.9641
B(  1-C ,  2-C ) :   1.2776 B(  1-C , 67-H ) :   0.9950 B(  2-C ,  3-C ) :   1.4565
B(  2-C ,  7-C ) :   1.0169 B(  3-C ,  4-S ) :   1.1398 B(  3-C ,  5-C ) :   1.1798
B(  5-C ,  6-C ) :   1.4689 B(  5-C , 15-S ) :   1.1182 B(  6-C ,  7-C ) :   0.9900
B(  6-C , 13-C ) :   1.2939 B(  7-C ,  8-C ) :   1.7101 B(  8-C ,  9-C ) :   1.1333
B(  8-C , 11-C ) :   1.1310 B(  9-C , 10-N ) :   2.9916 B( 11-C , 12-N ) :   3.0029
B( 13-C , 14-C ) :   1.4662 B( 13-C , 68-H ) :   0.9869 B( 14-C , 15-S ) :   1.1125
B( 14-C , 16-C ) :   1.1639 B( 16-C , 17-C ) :   1.4673 B( 16-C , 20-S ) :   1.1024
B( 17-C , 18-C ) :   1.2952 B( 17-C , 69-H ) :   0.9859 B( 18-C , 19-C ) :   1.4494
B( 18-C , 23-C ) :   0.9938 B( 19-C , 20-S ) :   1.1171 B( 19-C , 21-C ) :   1.1911
B( 21-C , 22-C ) :   1.4510 B( 21-C , 31-S ) :   1.1031 B( 22-C , 23-C ) :   0.9896
B( 22-C , 29-C ) :   1.3339 B( 23-C , 24-C ) :   1.7180 B( 24-C , 25-C ) :   1.1321
B( 24-C , 27-C ) :   1.1366 B( 25-C , 26-N ) :   2.9887 B( 27-C , 28-N ) :   2.9911
B( 29-C , 30-C ) :   1.4814 B( 29-C , 70-H ) :   0.9624 B( 30-C , 31-S ) :   1.1021
B( 30-C , 32-C ) :   1.0916 B( 32-C , 33-S ) :   1.1130 B( 32-C , 34-C ) :   0.1146
B( 32-C , 36-C ) :   1.4278 B( 33-S , 34-C ) :   1.1802 B( 34-C , 35-C ) :   1.3420
B( 34-C , 45-C ) :   1.2010 B( 35-C , 36-C ) :   1.2083 B( 35-C , 43-C ) :   1.1683
B( 36-C , 37-C ) :   1.1536 B( 37-C , 38-C ) :   0.9135 B( 37-C , 41-C ) :   1.5635
B( 38-C , 39-O ) :   2.1881 B( 38-C , 40-O ) :   1.1994 B( 40-O , 71-H ) :   0.9485
B( 41-C , 42-C ) :   1.1965 B( 41-C , 72-H ) :   0.9882 B( 42-C , 43-C ) :   1.4630
B( 42-C , 73-H ) :   0.9825 B( 43-C , 44-O ) :   1.2243 B( 44-O , 74-H ) :   0.9461
B( 45-C , 46-C ) :   1.4551 B( 45-C , 49-S ) :   1.0775 B( 46-C , 47-C ) :   1.3216
B( 46-C , 75-H ) :   0.9851 B( 47-C , 48-C ) :   1.4225 B( 47-C , 52-S ) :   1.0465
B( 48-C , 49-S ) :   1.0301 B( 48-C , 50-C ) :   1.2611 B( 50-C , 51-C ) :   1.4019
B( 50-C , 54-C ) :   0.1019 B( 50-C , 55-N ) :   1.1843 B( 51-C , 52-S ) :   1.0154
B( 51-C , 53-C ) :   1.2922 B( 53-C , 54-C ) :   1.4722 B( 53-C , 76-H ) :   1.0231
B( 54-C , 55-N ) :   1.2030 B( 54-C , 57-C ) :   0.9756 B( 55-N , 56-C ) :   0.9719
B( 56-C , 77-H ) :   0.9658 B( 56-C , 78-H ) :   0.9595 B( 56-C , 79-H ) :   0.9674
B( 57-C , 58-C ) :   1.2818 B( 57-C , 63-C ) :   1.5136 B( 58-C , 59-C ) :   1.5406
B( 58-C , 80-H ) :   1.0013 B( 59-C , 60-S ) :   1.0205 B( 59-C , 62-S ) :   1.1193
B( 60-S , 61-C ) :   1.0141 B( 61-C , 81-H ) :   0.9728 B( 61-C , 82-H ) :   0.9657
B( 61-C , 83-H ) :   0.9647 B( 62-S , 63-C ) :   1.0859 B( 63-C , 64-C ) :   1.1033
B( 64-C , 65-C ) :   1.9353 B( 64-C , 84-H ) :   0.9479 B( 65-C , 85-H ) :   0.9560
B( 65-C , 86-H ) :   0.9463

-----------------------------------------------------------------------------
         ABSORPTION SPECTRUM VIA TRANSITION ELECTRIC DIPOLE MOMENTS
-----------------------------------------------------------------------------
State   Energy  Wavelength   fosc         T2         TX        TY        TZ
        (cm-1)    (nm)                  (au**2)     (au)      (au)      (au)
-----------------------------------------------------------------------------
   0   10300.5    970.8   0.288371445   9.21660  -0.51581   2.81742   1.00634
   1   12796.4    781.5   0.092537340   2.38071   0.08774  -1.37406  -0.69639
   2   17160.3    582.7   0.670823294  12.86941  -1.60551   3.19414   0.29869
   3   18330.8    545.5   0.613172570  11.01228   1.27235  -3.01840  -0.53166
   4   19809.1    504.8   0.009956529   0.16547   0.30533  -0.23464   0.13110
   5   24555.3    407.2   0.038368771   0.51441   0.42558   0.19737   0.54253
   6   25774.1    388.0   0.445056060   5.68469   0.90733   1.41152   1.69382
   7   26554.2    376.6   0.023510739   0.29148   0.07108  -0.49156  -0.21165
   8   27056.0    369.6   0.010475131   0.12746   0.03702   0.30114   0.18816
   9   27183.7    367.9   0.246245189   2.98219  -0.16043  -1.38845  -1.01423
  10   27962.2    357.6   0.111412680   1.31172   0.45785   0.70192   0.78063
  11   28725.6    348.1   0.007347960   0.08421  -0.13572  -0.24784   0.06609
  12   28952.8    345.4   0.186373168   2.11918  -0.30801   1.42278  -0.00268
  13   29765.9    336.0   0.181938317   2.01224  -0.31680  -0.92610  -1.02675
  14   30248.5    330.6   0.002002584   0.02180   0.13970  -0.03882   0.02777
  15   30798.9    324.7   0.152017051   1.62493   0.49102   0.50024   1.06470
  16   31066.0    321.9   0.226128258   2.39632  -0.32468   0.36277  -1.46946
  17   31573.9    316.7   0.028519317   0.29736   0.26299   0.04612  -0.47547
  18   31777.2    314.7   0.260845312   2.70236  -0.22236   0.46658  -1.56052
  19   31931.4    313.2   0.018310982   0.18879  -0.04897   0.27611  -0.33189
  20   32403.6    308.6   0.697978978   7.09129   1.10944  -1.62376   1.79550
  21   32712.3    305.7   0.298424693   3.00331   1.17733  -1.23490   0.30367
  22   32873.8    304.2   0.032673265   0.32720   0.47116   0.32160   0.04217
  23   33596.2    297.7   0.064273642   0.62982   0.22783   0.64791   0.39765
  24   33617.3    297.5   0.299813387   2.93605  -0.28192  -1.07604  -1.30334
  25   34038.7    293.8   0.037335368   0.36110   0.22748   0.45457   0.32050
  26   34185.3    292.5   0.014178689   0.13654   0.08109   0.16585   0.32010
  27   34578.3    289.2   0.165230618   1.57312  -0.05946  -1.04876  -0.68534
  28   34970.1    286.0   0.004307930   0.04056  -0.10127   0.15414  -0.08087
  29   35541.3    281.4   0.008539493   0.07910   0.17851  -0.06507   0.20737
  30   35796.3    279.4   0.067364556   0.61954  -0.59569  -0.07205  -0.50941
  31   36646.8    272.9   0.008746529   0.07857   0.21621  -0.12526  -0.12702
  32   37151.6    269.2   0.170155547   1.50780   0.04755  -1.15374   0.41765
  33   37400.2    267.4   0.026463451   0.23294  -0.22771  -0.08996   0.41593
  34   37704.5    265.2   0.486349600   4.24649  -1.94896   0.42366   0.51823
  35   38195.9    261.8   0.039543341   0.34083   0.40771  -0.23165   0.34776
  36   38834.5    257.5   0.083357971   0.70665   0.13650  -0.61632  -0.55513
  37   39368.8    254.0   0.047831097   0.39998   0.25924  -0.36100  -0.44994
  38   39474.0    253.3   0.177616059   1.48131   0.93301  -0.78100  -0.02924
  39   39576.6    252.7   0.045587498   0.37921   0.10252  -0.21172   0.56910
  40   40024.3    249.8   0.017892030   0.14717   0.31962  -0.15943   0.13999
  41   40110.7    249.3   0.062684890   0.51449   0.33408  -0.59319   0.22584
  42   40277.1    248.3   0.138222961   1.12979  -0.97113   0.43132  -0.02576

FINAL SINGLE POINT ENERGY     -5958.785339884322

DIPOLE MOMENT
-------------
                                X             Y             Z
Electronic contribution:     17.95615     -83.66987     -24.75154
Nuclear contribution   :    -18.91866      87.36515      26.11726
                        -----------------------------------------
Total Dipole Moment    :     -0.96251       3.69529       1.36573
                        -----------------------------------------
Magnitude (a.u.)       :      4.05546
Magnitude (Debye)      :     10.30817

Rotational constants in cm-1:     0.001984     0.000223     0.000206
Rotational constants in MHz :    59.480042     6.697311     6.177433

                             ****ORCA TERMINATED NORMALLY****
TOTAL RUN TIME: 0 days 0 hours 7 minutes 37 seconds 762 msec
