                         Program Version 4.2.0 -  RELEASE  -
|  1> # ORCA input file
|  2> # SCF done       -183.159436386943          0.000163553168
|  3> ! CAM-B3LYP def2-SVP def2/J RIJCOSX Grid4 TightSCF
|  4> %maxcore 5000
|  5> %tddft
|  6>     Mode sTDDFT
|  7>     Ethresh 5.0
|  8>     maxcore 5000
|  9> end
| 10>
| 11> %pal
| 12>   nprocs 6
| 13>   end
| 14> * xyz 0 1
| 15>    C       -1.75250         3.61341         5.07982
| 16>    C       -3.02073         4.00437         4.73122
| 17>    C       -3.99356         4.42237         5.65951
| 18>    N       -4.81551         4.78201         6.37615
| 19>    C       -3.51437         3.92987         3.41342
| 20>    N       -3.95805         3.83967         2.35803
| 21>    C       -1.28787         3.38442         6.44352
| 22>    C       -0.17477         2.49499         6.39491
| 23>    C        0.44880         2.06746         7.53087
| 24>    C       -0.01231         2.52820         8.78548
| 25>    C       -1.11339         3.43076         8.83813
| 26>    C       -1.74671         3.84988         7.64508
| 27>    C       -1.55676         3.88864        10.09520
| 28>    C       -0.94580         3.47389        11.24716
| 29>    C        0.13723         2.58410        11.19479
| 30>    C        0.59345         2.12118         9.99041
| 31>    C        0.13988         2.18469         4.98666
| 32>    O        0.98010         1.42600         4.55891
| 33>    C       -0.75629         3.06498         4.18785
| 34>    C       -0.47861         3.29596         2.87301
| 35>    C       -0.86579         4.38038         2.05901
| 36>    C       -0.77562         4.43351         0.67389
| 37>    C       -1.17880         5.65991         0.16304
| 38>    C       -1.54575         6.57937         1.17312
| 39>    S       -1.41168         5.91937         2.73438
| 40>    C       -1.93448         7.79354         0.57236
| 41>    C       -1.82832         7.64650        -0.82703
| 42>    C       -1.34301         6.30691        -1.12623
| 43>    C       -1.08891         5.77902        -2.35848
| 44>    C       -1.28550         6.51057        -3.54858
| 45>    N       -1.43504         7.09281        -4.52525
| 46>    C       -0.59778         4.46745        -2.52772
| 47>    N       -0.18920         3.40607        -2.67435
| 48>    C       -2.21185         8.78667        -1.51697
| 49>    C       -2.60761         9.80801        -0.65791
| 50>    S       -2.49355         9.34661         1.02879
| 51>    C       -3.07637        11.09667        -1.02655
| 52>    C       -3.42822        12.05819        -0.05798
| 53>    C       -3.93502        13.35388        -0.40082
| 54>    N       -4.25412        14.20618         0.58486
| 55>    C       -4.11461        13.85303         1.82538
| 56>    C       -3.62132        12.57332         2.16375
| 57>    N       -3.29292        11.72473         1.24175
| 58>    F       -3.47150        12.20345         3.43310
| 59>    F       -4.44568        14.74164         2.76256
| 60>    C       -4.09580        13.79005        -1.74723
| 61>    C       -3.76831        12.81042        -2.72364
| 62>    C       -3.27304        11.49660        -2.37020
| 63>    N       -3.08503        10.73665        -3.44691
| 64>    S       -3.50395        11.55687        -4.76200
| 65>    N       -3.93584        12.92371        -4.03931
| 66>    C       -4.62965        15.07094        -2.02044
| 67>    C       -4.56136        15.89234        -3.17477
| 68>    C       -5.36118        17.06713        -3.06183
| 69>    C       -5.40814        17.99419        -4.11412
| 70>    C       -4.64577        17.78442        -5.23327
| 71>    C       -3.80505        16.66683        -5.31876
| 72>    C       -3.75552        15.73526        -4.31326
| 73>    C       -6.02256        17.16513        -1.81687
| 74>    S       -5.58751        15.84243        -0.79190
| 75>    C       -6.88721        18.18458        -1.38505
| 76>    C       -7.44397        18.22694        -0.14197
| 77>    C       -8.32584        19.22399         0.31676
| 78>    C       -8.90162        19.29706         1.58188
| 79>    C       -9.74178        20.42667         1.73178
| 80>    S      -10.66069        20.89695         3.15784
| 81>    C       -9.80346        19.90810         4.42789
| 82>    C       -9.78257        18.44236         4.05849
| 83>    S       -8.52892        18.08131         2.78463
| 84>    C       -9.80775        21.18009         0.59305
| 85>    S       -8.85641        20.55345        -0.68429
| 86>    H        1.28479         1.38609         7.47565
| 87>    H       -2.57316         4.54064         7.70944
| 88>    H       -2.39329         4.57113        10.13006
| 89>    H       -1.29434         3.82898        12.20550
| 90>    H        0.60860         2.26755        12.11329
| 91>    H        1.42735         1.43599         9.94418
| 92>    H        0.20922         2.59177         2.41406
| 93>    H       -0.45625         3.59164         0.08616
| 94>    H       -2.22357         8.90552        -2.58448
| 95>    H       -6.02982        18.87191        -4.02940
| 96>    H       -4.67329        18.49241        -6.04767
| 97>    H       -3.18207        16.54209        -6.19150
| 98>    H       -3.09951        14.88710        -4.39368
| 99>    H       -7.12041        18.97492        -2.08626
|100>    H       -7.20330        17.44805         0.57111
|101>    H      -10.37804        20.07049         5.33970
|102>    H       -8.79489        20.30162         4.55933
|103>    H      -10.75590        18.11208         3.69384
|104>    H       -9.48704        17.82860         4.90968
|105>    H      -10.37840        22.07586         0.45335
|106> *
|107>
|108>                          ****END OF INPUT****

CARTESIAN COORDINATES (ANGSTROEM)
---------------------------------
  C     -1.752500    3.613410    5.079820
  C     -3.020730    4.004370    4.731220
  C     -3.993560    4.422370    5.659510
  N     -4.815510    4.782010    6.376150
  C     -3.514370    3.929870    3.413420
  N     -3.958050    3.839670    2.358030
  C     -1.287870    3.384420    6.443520
  C     -0.174770    2.494990    6.394910
  C      0.448800    2.067460    7.530870
  C     -0.012310    2.528200    8.785480
  C     -1.113390    3.430760    8.838130
  C     -1.746710    3.849880    7.645080
  C     -1.556760    3.888640   10.095200
  C     -0.945800    3.473890   11.247160
  C      0.137230    2.584100   11.194790
  C      0.593450    2.121180    9.990410
  C      0.139880    2.184690    4.986660
  O      0.980100    1.426000    4.558910
  C     -0.756290    3.064980    4.187850
  C     -0.478610    3.295960    2.873010
  C     -0.865790    4.380380    2.059010
  C     -0.775620    4.433510    0.673890
  C     -1.178800    5.659910    0.163040
  C     -1.545750    6.579370    1.173120
  S     -1.411680    5.919370    2.734380
  C     -1.934480    7.793540    0.572360
  C     -1.828320    7.646500   -0.827030
  C     -1.343010    6.306910   -1.126230
  C     -1.088910    5.779020   -2.358480
  C     -1.285500    6.510570   -3.548580
  N     -1.435040    7.092810   -4.525250
  C     -0.597780    4.467450   -2.527720
  N     -0.189200    3.406070   -2.674350
  C     -2.211850    8.786670   -1.516970
  C     -2.607610    9.808010   -0.657910
  S     -2.493550    9.346610    1.028790
  C     -3.076370   11.096670   -1.026550
  C     -3.428220   12.058190   -0.057980
  C     -3.935020   13.353880   -0.400820
  N     -4.254120   14.206180    0.584860
  C     -4.114610   13.853030    1.825380
  C     -3.621320   12.573320    2.163750
  N     -3.292920   11.724730    1.241750
  F     -3.471500   12.203450    3.433100
  F     -4.445680   14.741640    2.762560
  C     -4.095800   13.790050   -1.747230
  C     -3.768310   12.810420   -2.723640
  C     -3.273040   11.496600   -2.370200
  N     -3.085030   10.736650   -3.446910
  S     -3.503950   11.556870   -4.762000
  N     -3.935840   12.923710   -4.039310
  C     -4.629650   15.070940   -2.020440
  C     -4.561360   15.892340   -3.174770
  C     -5.361180   17.067130   -3.061830
  C     -5.408140   17.994190   -4.114120
  C     -4.645770   17.784420   -5.233270
  C     -3.805050   16.666830   -5.318760
  C     -3.755520   15.735260   -4.313260
  C     -6.022560   17.165130   -1.816870
  S     -5.587510   15.842430   -0.791900
  C     -6.887210   18.184580   -1.385050
  C     -7.443970   18.226940   -0.141970
  C     -8.325840   19.223990    0.316760
  C     -8.901620   19.297060    1.581880
  C     -9.741780   20.426670    1.731780
  S    -10.660690   20.896950    3.157840
  C     -9.803460   19.908100    4.427890
  C     -9.782570   18.442360    4.058490
  S     -8.528920   18.081310    2.784630
  C     -9.807750   21.180090    0.593050
  S     -8.856410   20.553450   -0.684290
  H      1.284790    1.386090    7.475650
  H     -2.573160    4.540640    7.709440
  H     -2.393290    4.571130   10.130060
  H     -1.294340    3.828980   12.205500
  H      0.608600    2.267550   12.113290
  H      1.427350    1.435990    9.944180
  H      0.209220    2.591770    2.414060
  H     -0.456250    3.591640    0.086160
  H     -2.223570    8.905520   -2.584480
  H     -6.029820   18.871910   -4.029400
  H     -4.673290   18.492410   -6.047670
  H     -3.182070   16.542090   -6.191500
  H     -3.099510   14.887100   -4.393680
  H     -7.120410   18.974920   -2.086260
  H     -7.203300   17.448050    0.571110
  H    -10.378040   20.070490    5.339700
  H     -8.794890   20.301620    4.559330
  H    -10.755900   18.112080    3.693840
  H     -9.487040   17.828600    4.909680
  H    -10.378400   22.075860    0.453350

 Total Charge           Charge          ....    0
 Multiplicity           Mult            ....    1
 Number of Electrons    NEL             ....  532
 Basis Dimension        Dim             .... 1122

ORBITAL ENERGIES
----------------

  NO   OCC          E(Eh)            E(eV)
   0   2.0000     -89.035337     -2422.7747
   1   2.0000     -88.981914     -2421.3210
   2   2.0000     -88.973500     -2421.0920
   3   2.0000     -88.968428     -2420.9540
   4   2.0000     -88.966431     -2420.8997
   5   2.0000     -88.943248     -2420.2688
   6   2.0000     -88.936899     -2420.0961
   7   2.0000     -24.818879      -675.3560
   8   2.0000     -24.814571      -675.2388
   9   2.0000     -19.203176      -522.5450
  10   2.0000     -14.458692      -393.4410
  11   2.0000     -14.456873      -393.3915
  12   2.0000     -14.447766      -393.1437
  13   2.0000     -14.442420      -392.9982
  14   2.0000     -14.420200      -392.3936
  15   2.0000     -14.419387      -392.3715
  16   2.0000     -14.406762      -392.0279
  17   2.0000     -14.404606      -391.9693
  18   2.0000     -10.434934      -283.9490
  19   2.0000     -10.428455      -283.7727
  20   2.0000     -10.355592      -281.7900
  21   2.0000     -10.353213      -281.7252
  22   2.0000     -10.345168      -281.5063
  23   2.0000     -10.343781      -281.4686
  24   2.0000     -10.341702      -281.4120
  25   2.0000     -10.339205      -281.3441
  26   2.0000     -10.337254      -281.2910
  27   2.0000     -10.332738      -281.1681
  28   2.0000     -10.332618      -281.1648
  29   2.0000     -10.331991      -281.1478
  30   2.0000     -10.321850      -280.8718
  31   2.0000     -10.320705      -280.8407
  32   2.0000     -10.320036      -280.8225
  33   2.0000     -10.318614      -280.7838
  34   2.0000     -10.317975      -280.7664
  35   2.0000     -10.317550      -280.7548
  36   2.0000     -10.316547      -280.7275
  37   2.0000     -10.316120      -280.7159
  38   2.0000     -10.314875      -280.6820
  39   2.0000     -10.314221      -280.6642
  40   2.0000     -10.313813      -280.6531
  41   2.0000     -10.313713      -280.6504
  42   2.0000     -10.311496      -280.5901
  43   2.0000     -10.309820      -280.5445
  44   2.0000     -10.308449      -280.5072
  45   2.0000     -10.307290      -280.4756
  46   2.0000     -10.306835      -280.4632
  47   2.0000     -10.303459      -280.3714
  48   2.0000     -10.303028      -280.3596
  49   2.0000     -10.300372      -280.2874
  50   2.0000     -10.295181      -280.1461
  51   2.0000     -10.294177      -280.1188
  52   2.0000     -10.293019      -280.0873
  53   2.0000     -10.292743      -280.0798
  54   2.0000     -10.291975      -280.0589
  55   2.0000     -10.290645      -280.0227
  56   2.0000     -10.290265      -280.0123
  57   2.0000     -10.289065      -279.9797
  58   2.0000     -10.288904      -279.9753
  59   2.0000     -10.286600      -279.9126
  60   2.0000     -10.285928      -279.8943
  61   2.0000     -10.282374      -279.7976
  62   2.0000     -10.281160      -279.7646
  63   2.0000     -10.280806      -279.7550
  64   2.0000     -10.280127      -279.7365
  65   2.0000     -10.279782      -279.7271
  66   2.0000     -10.279531      -279.7202
  67   2.0000     -10.279059      -279.7074
  68   2.0000     -10.275913      -279.6218
  69   2.0000     -10.275538      -279.6116
  70   2.0000     -10.272704      -279.5345
  71   2.0000      -8.126642      -221.1372
  72   2.0000      -8.076194      -219.7644
  73   2.0000      -8.066168      -219.4916
  74   2.0000      -8.062257      -219.3852
  75   2.0000      -8.062134      -219.3818
  76   2.0000      -8.038813      -218.7472
  77   2.0000      -8.032723      -218.5815
  78   2.0000      -6.097821      -165.9301
  79   2.0000      -6.089961      -165.7163
  80   2.0000      -6.089282      -165.6978
  81   2.0000      -6.045444      -164.5049
  82   2.0000      -6.041229      -164.3902
  83   2.0000      -6.038579      -164.3181
  84   2.0000      -6.035665      -164.2388
  85   2.0000      -6.031459      -164.1243
  86   2.0000      -6.031419      -164.1233
  87   2.0000      -6.030950      -164.1105
  88   2.0000      -6.028648      -164.0479
  89   2.0000      -6.027400      -164.0139
  90   2.0000      -6.026952      -164.0017
  91   2.0000      -6.024963      -163.9476
  92   2.0000      -6.024117      -163.9246
  93   2.0000      -6.009234      -163.5196
  94   2.0000      -6.005136      -163.4080
  95   2.0000      -6.003249      -163.3567
  96   2.0000      -5.999299      -163.2492
  97   2.0000      -5.998464      -163.2265
  98   2.0000      -5.991970      -163.0498
  99   2.0000      -1.344641       -36.5895
 100   2.0000      -1.329960       -36.1901
 101   2.0000      -1.134725       -30.8774
 102   2.0000      -1.118459       -30.4348
 103   2.0000      -1.117259       -30.4022
 104   2.0000      -1.044310       -28.4171
 105   2.0000      -1.033990       -28.1363
 106   2.0000      -1.012245       -27.5446
 107   2.0000      -1.009003       -27.4564
 108   2.0000      -1.007366       -27.4118
 109   2.0000      -1.002951       -27.2917
 110   2.0000      -0.997398       -27.1406
 111   2.0000      -0.992823       -27.0161
 112   2.0000      -0.989639       -26.9295
 113   2.0000      -0.985441       -26.8152
 114   2.0000      -0.982073       -26.7236
 115   2.0000      -0.968640       -26.3580
 116   2.0000      -0.962941       -26.2030
 117   2.0000      -0.946359       -25.7517
 118   2.0000      -0.942816       -25.6553
 119   2.0000      -0.934322       -25.4242
 120   2.0000      -0.918596       -24.9963
 121   2.0000      -0.915886       -24.9225
 122   2.0000      -0.906826       -24.6760
 123   2.0000      -0.894619       -24.3438
 124   2.0000      -0.887304       -24.1448
 125   2.0000      -0.884352       -24.0644
 126   2.0000      -0.875073       -23.8120
 127   2.0000      -0.873629       -23.7727
 128   2.0000      -0.865120       -23.5411
 129   2.0000      -0.858749       -23.3677
 130   2.0000      -0.852758       -23.2047
 131   2.0000      -0.849324       -23.1113
 132   2.0000      -0.841708       -22.9040
 133   2.0000      -0.832568       -22.6553
 134   2.0000      -0.821331       -22.3496
 135   2.0000      -0.820900       -22.3378
 136   2.0000      -0.814126       -22.1535
 137   2.0000      -0.806136       -21.9361
 138   2.0000      -0.789296       -21.4778
 139   2.0000      -0.775802       -21.1106
 140   2.0000      -0.768474       -20.9112
 141   2.0000      -0.759583       -20.6693
 142   2.0000      -0.753506       -20.5039
 143   2.0000      -0.749536       -20.3959
 144   2.0000      -0.747715       -20.3464
 145   2.0000      -0.735437       -20.0123
 146   2.0000      -0.718370       -19.5478
 147   2.0000      -0.710193       -19.3253
 148   2.0000      -0.704703       -19.1759
 149   2.0000      -0.701661       -19.0932
 150   2.0000      -0.698186       -18.9986
 151   2.0000      -0.693892       -18.8818
 152   2.0000      -0.692782       -18.8516
 153   2.0000      -0.681681       -18.5495
 154   2.0000      -0.678128       -18.4528
 155   2.0000      -0.673432       -18.3250
 156   2.0000      -0.668184       -18.1822
 157   2.0000      -0.665856       -18.1189
 158   2.0000      -0.663620       -18.0580
 159   2.0000      -0.653397       -17.7798
 160   2.0000      -0.645608       -17.5679
 161   2.0000      -0.636875       -17.3302
 162   2.0000      -0.625047       -17.0084
 163   2.0000      -0.623939       -16.9782
 164   2.0000      -0.622786       -16.9469
 165   2.0000      -0.620100       -16.8738
 166   2.0000      -0.619326       -16.8527
 167   2.0000      -0.618394       -16.8274
 168   2.0000      -0.607850       -16.5404
 169   2.0000      -0.600638       -16.3442
 170   2.0000      -0.599638       -16.3170
 171   2.0000      -0.596744       -16.2382
 172   2.0000      -0.592518       -16.1232
 173   2.0000      -0.580536       -15.7972
 174   2.0000      -0.577706       -15.7202
 175   2.0000      -0.572046       -15.5662
 176   2.0000      -0.563567       -15.3354
 177   2.0000      -0.561844       -15.2886
 178   2.0000      -0.557929       -15.1820
 179   2.0000      -0.556192       -15.1347
 180   2.0000      -0.553596       -15.0641
 181   2.0000      -0.546457       -14.8699
 182   2.0000      -0.542849       -14.7717
 183   2.0000      -0.541581       -14.7372
 184   2.0000      -0.539654       -14.6847
 185   2.0000      -0.537744       -14.6328
 186   2.0000      -0.534604       -14.5473
 187   2.0000      -0.532564       -14.4918
 188   2.0000      -0.529506       -14.4086
 189   2.0000      -0.525932       -14.3113
 190   2.0000      -0.524844       -14.2817
 191   2.0000      -0.520891       -14.1742
 192   2.0000      -0.518385       -14.1060
 193   2.0000      -0.514785       -14.0080
 194   2.0000      -0.513654       -13.9772
 195   2.0000      -0.512274       -13.9397
 196   2.0000      -0.509081       -13.8528
 197   2.0000      -0.507348       -13.8056
 198   2.0000      -0.504387       -13.7251
 199   2.0000      -0.500004       -13.6058
 200   2.0000      -0.499539       -13.5932
 201   2.0000      -0.498784       -13.5726
 202   2.0000      -0.498245       -13.5579
 203   2.0000      -0.492721       -13.4076
 204   2.0000      -0.490457       -13.3460
 205   2.0000      -0.488684       -13.2978
 206   2.0000      -0.487682       -13.2705
 207   2.0000      -0.485176       -13.2023
 208   2.0000      -0.482306       -13.1242
 209   2.0000      -0.480255       -13.0684
 210   2.0000      -0.476750       -12.9730
 211   2.0000      -0.473099       -12.8737
 212   2.0000      -0.471092       -12.8191
 213   2.0000      -0.462934       -12.5971
 214   2.0000      -0.457289       -12.4435
 215   2.0000      -0.456949       -12.4342
 216   2.0000      -0.454565       -12.3694
 217   2.0000      -0.451564       -12.2877
 218   2.0000      -0.449868       -12.2415
 219   2.0000      -0.446271       -12.1437
 220   2.0000      -0.441529       -12.0146
 221   2.0000      -0.439974       -11.9723
 222   2.0000      -0.438940       -11.9442
 223   2.0000      -0.436642       -11.8816
 224   2.0000      -0.435712       -11.8563
 225   2.0000      -0.432969       -11.7817
 226   2.0000      -0.431794       -11.7497
 227   2.0000      -0.430535       -11.7154
 228   2.0000      -0.430266       -11.7081
 229   2.0000      -0.428803       -11.6683
 230   2.0000      -0.427350       -11.6288
 231   2.0000      -0.426139       -11.5958
 232   2.0000      -0.425419       -11.5763
 233   2.0000      -0.422299       -11.4913
 234   2.0000      -0.420329       -11.4377
 235   2.0000      -0.418170       -11.3790
 236   2.0000      -0.417143       -11.3511
 237   2.0000      -0.416391       -11.3306
 238   2.0000      -0.411461       -11.1964
 239   2.0000      -0.407010       -11.0753
 240   2.0000      -0.404374       -11.0036
 241   2.0000      -0.400163       -10.8890
 242   2.0000      -0.396782       -10.7970
 243   2.0000      -0.392826       -10.6893
 244   2.0000      -0.387892       -10.5551
 245   2.0000      -0.379478       -10.3261
 246   2.0000      -0.376213       -10.2373
 247   2.0000      -0.375273       -10.2117
 248   2.0000      -0.373865       -10.1734
 249   2.0000      -0.366821        -9.9817
 250   2.0000      -0.363057        -9.8793
 251   2.0000      -0.359468        -9.7816
 252   2.0000      -0.342654        -9.3241
 253   2.0000      -0.339130        -9.2282
 254   2.0000      -0.335760        -9.1365
 255   2.0000      -0.335381        -9.1262
 256   2.0000      -0.325188        -8.8488
 257   2.0000      -0.316902        -8.6233
 258   2.0000      -0.312154        -8.4941
 259   2.0000      -0.309624        -8.4253
 260   2.0000      -0.303231        -8.2513
 261   2.0000      -0.288984        -7.8637
 262   2.0000      -0.283662        -7.7188
 263   2.0000      -0.277307        -7.5459
 264   2.0000      -0.257789        -7.0148
 265   2.0000      -0.218517        -5.9462
 266   0.0000      -0.119936        -3.2636
 267   0.0000      -0.093644        -2.5482
 268   0.0000      -0.078568        -2.1379
 269   0.0000      -0.058161        -1.5827
 270   0.0000      -0.046352        -1.2613

MULLIKEN ATOMIC CHARGES
-----------------------
   0 C :    0.249588
   1 C :   -0.329567
   2 C :   -0.172949
   3 N :    0.146828
   4 C :   -0.208945
   5 N :    0.165918
   6 C :    0.034531
   7 C :    0.013335
   8 C :   -0.084319
   9 C :    0.094423
  10 C :    0.095195
  11 C :   -0.079906
  12 C :   -0.020205
  13 C :    0.035726
  14 C :    0.034369
  15 C :   -0.017838
  16 C :    0.139370
  17 O :   -0.146297
  18 C :   -0.145610
  19 C :    0.044146
  20 C :   -0.092681
  21 C :    0.007993
  22 C :    0.014889
  23 C :   -0.076205
  24 S :    0.197915
  25 C :   -0.079494
  26 C :    0.051899
  27 C :    0.308448
  28 C :   -0.304764
  29 C :   -0.186295
  30 N :    0.168012
  31 C :   -0.195284
  32 N :    0.175209
  33 C :   -0.080469
  34 C :   -0.166760
  35 S :    0.203438
  36 C :    0.163402
  37 C :   -0.049277
  38 C :   -0.062501
  39 N :   -0.036654
  40 C :    0.137533
  41 C :    0.157264
  42 N :   -0.060175
  43 F :   -0.138961
  44 F :   -0.144795
  45 C :    0.164187
  46 C :   -0.022184
  47 C :   -0.006898
  48 N :   -0.291901
  49 S :    0.543721
  50 N :   -0.289035
  51 C :   -0.226243
  52 C :    0.149132
  53 C :    0.080102
  54 C :   -0.036121
  55 C :    0.028318
  56 C :    0.022247
  57 C :   -0.004463
  58 C :   -0.038971
  59 S :    0.171853
  60 C :   -0.028811
  61 C :    0.008292
  62 C :   -0.132148
  63 C :    0.007403
  64 C :   -0.025755
  65 S :    0.006425
  66 C :   -0.065778
  67 C :   -0.044017
  68 S :    0.000972
  69 C :   -0.090297
  70 S :    0.124842
  71 H :   -0.012583
  72 H :   -0.007344
  73 H :   -0.011831
  74 H :   -0.007818
  75 H :   -0.007743
  76 H :   -0.017734
  77 H :    0.030650
  78 H :    0.016870
  79 H :    0.019228
  80 H :   -0.026891
  81 H :   -0.012590
  82 H :   -0.012734
  83 H :   -0.024193
  84 H :   -0.007606
  85 H :    0.016100
  86 H :    0.063188
  87 H :    0.073464
  88 H :    0.074578
  89 H :    0.063323
  90 H :    0.027313
Sum of atomic charges:   -0.0000000

LOEWDIN ATOMIC CHARGES
----------------------
   0 C :    0.060267
   1 C :   -0.151199
   2 C :   -0.019446
   3 N :   -0.058610
   4 C :   -0.037077
   5 N :   -0.052347
   6 C :   -0.021813
   7 C :   -0.055069
   8 C :    0.029847
   9 C :   -0.009878
  10 C :   -0.006300
  11 C :    0.013208
  12 C :   -0.007795
  13 C :   -0.015220
  14 C :   -0.015517
  15 C :   -0.010086
  16 C :    0.082031
  17 O :   -0.148462
  18 C :   -0.109861
  19 C :    0.052223
  20 C :   -0.183632
  21 C :    0.017811
  22 C :   -0.079434
  23 C :   -0.140122
  24 S :    0.503658
  25 C :   -0.206899
  26 C :   -0.055560
  27 C :    0.082744
  28 C :   -0.104744
  29 C :   -0.015687
  30 N :   -0.036676
  31 C :   -0.017317
  32 N :   -0.035413
  33 C :   -0.027027
  34 C :   -0.146287
  35 S :    0.508676
  36 C :   -0.078391
  37 C :   -0.006813
  38 C :   -0.024936
  39 N :   -0.051081
  40 C :    0.047984
  41 C :    0.067769
  42 N :   -0.065956
  43 F :   -0.027299
  44 F :   -0.034828
  45 C :   -0.034403
  46 C :   -0.047266
  47 C :   -0.032890
  48 N :   -0.282967
  49 S :    0.666913
  50 N :   -0.266118
  51 C :   -0.174790
  52 C :   -0.023313
  53 C :   -0.050218
  54 C :   -0.013517
  55 C :   -0.025088
  56 C :   -0.018688
  57 C :   -0.004576
  58 C :   -0.145373
  59 S :    0.520750
  60 C :   -0.057229
  61 C :   -0.018022
  62 C :   -0.202428
  63 C :   -0.198368
  64 C :   -0.217056
  65 S :    0.287298
  66 C :   -0.142596
  67 C :   -0.141033
  68 S :    0.308016
  69 C :   -0.194515
  70 S :    0.441004
  71 H :    0.038714
  72 H :    0.037826
  73 H :    0.033472
  74 H :    0.031849
  75 H :    0.031649
  76 H :    0.031347
  77 H :    0.053768
  78 H :    0.046637
  79 H :    0.036581
  80 H :    0.027733
  81 H :    0.029647
  82 H :    0.030041
  83 H :    0.023221
  84 H :    0.026401
  85 H :    0.024588
  86 H :    0.035080
  87 H :    0.028077
  88 H :    0.028392
  89 H :    0.035323
  90 H :    0.026686

  Mayer bond orders larger than 0.100000
B(  0-C ,  1-C ) :   1.6375 B(  0-C ,  6-C ) :   0.9993 B(  0-C , 18-C ) :   1.0505
B(  1-C ,  2-C ) :   1.1391 B(  1-C ,  4-C ) :   1.1527 B(  2-C ,  3-N ) :   2.9876
B(  4-C ,  5-N ) :   3.0208 B(  6-C ,  7-C ) :   1.2175 B(  6-C , 11-C ) :   1.4636
B(  7-C ,  8-C ) :   1.4799 B(  7-C , 16-C ) :   0.9195 B(  8-C ,  9-C ) :   1.1820
B(  8-C , 71-H ) :   1.0159 B(  9-C , 10-C ) :   1.2601 B(  9-C , 15-C ) :   1.2463
B( 10-C , 11-C ) :   1.2008 B( 10-C , 12-C ) :   1.2418 B( 11-C , 72-H ) :   0.9942
B( 12-C , 13-C ) :   1.4880 B( 12-C , 73-H ) :   0.9978 B( 13-C , 14-C ) :   1.2618
B( 13-C , 74-H ) :   0.9890 B( 14-C , 15-C ) :   1.4879 B( 14-C , 75-H ) :   0.9890
B( 15-C , 76-H ) :   0.9978 B( 16-C , 17-O ) :   2.2701 B( 16-C , 18-C ) :   0.9451
B( 18-C , 19-C ) :   1.5941 B( 19-C , 20-C ) :   1.1764 B( 19-C , 77-H ) :   0.9490
B( 20-C , 21-C ) :   1.3765 B( 20-C , 24-S ) :   1.0698 B( 21-C , 22-C ) :   1.3189
B( 21-C , 78-H ) :   1.0001 B( 22-C , 23-C ) :   1.3691 B( 22-C , 27-C ) :   0.9940
B( 23-C , 24-S ) :   1.1601 B( 23-C , 25-C ) :   1.2331 B( 25-C , 26-C ) :   1.3961
B( 25-C , 35-S ) :   1.0588 B( 26-C , 27-C ) :   0.9884 B( 26-C , 33-C ) :   1.2801
B( 27-C , 28-C ) :   1.7081 B( 28-C , 29-C ) :   1.1428 B( 28-C , 31-C ) :   1.1325
B( 29-C , 30-N ) :   2.9844 B( 31-C , 32-N ) :   2.9964 B( 33-C , 34-C ) :   1.4112
B( 33-C , 79-H ) :   0.9845 B( 34-C , 35-S ) :   1.1120 B( 34-C , 36-C ) :   1.1814
B( 36-C , 37-C ) :   1.2929 B( 36-C , 45-C ) :   0.1121 B( 36-C , 47-C ) :   1.1902
B( 37-C , 38-C ) :   1.1328 B( 37-C , 42-N ) :   1.3802 B( 38-C , 39-N ) :   1.4043
B( 38-C , 45-C ) :   1.2368 B( 39-N , 40-C ) :   1.6293 B( 40-C , 41-C ) :   1.1331
B( 40-C , 44-F ) :   1.1764 B( 41-C , 42-N ) :   1.6318 B( 41-C , 43-F ) :   1.1837
B( 45-C , 46-C ) :   1.1678 B( 45-C , 51-C ) :   1.2542 B( 46-C , 47-C ) :   1.0960
B( 46-C , 50-N ) :   1.5167 B( 47-C , 48-N ) :   1.5309 B( 48-N , 49-S ) :   1.2543
B( 48-N , 50-N ) :   0.1434 B( 49-S , 50-N ) :   1.2751 B( 51-C , 52-C ) :   1.2573
B( 51-C , 59-S ) :   1.1284 B( 52-C , 53-C ) :   1.2310 B( 52-C , 57-C ) :   1.2609
B( 53-C , 54-C ) :   1.2432 B( 53-C , 58-C ) :   1.2463 B( 54-C , 55-C ) :   1.5165
B( 54-C , 80-H ) :   0.9911 B( 55-C , 56-C ) :   1.2453 B( 55-C , 81-H ) :   0.9849
B( 56-C , 57-C ) :   1.5125 B( 56-C , 82-H ) :   0.9857 B( 57-C , 83-H ) :   0.9742
B( 58-C , 59-S ) :   1.1524 B( 58-C , 60-C ) :   1.2325 B( 60-C , 61-C ) :   1.5940
B( 60-C , 84-H ) :   0.9704 B( 61-C , 62-C ) :   1.2066 B( 61-C , 85-H ) :   0.9592
B( 62-C , 63-C ) :   1.5033 B( 62-C , 70-S ) :   1.1101 B( 63-C , 64-C ) :   1.2714
B( 63-C , 68-S ) :   1.0202 B( 64-C , 65-S ) :   0.9850 B( 64-C , 69-C ) :   1.5813
B( 65-S , 66-C ) :   1.0210 B( 66-C , 67-C ) :   1.0131 B( 66-C , 86-H ) :   0.9481
B( 66-C , 87-H ) :   0.9491 B( 67-C , 68-S ) :   1.0128 B( 67-C , 88-H ) :   0.9483
B( 67-C , 89-H ) :   0.9464 B( 69-C , 70-S ) :   1.1643 B( 69-C , 90-H ) :   0.9680

-----------------------------------------------------------------------------
         ABSORPTION SPECTRUM VIA TRANSITION ELECTRIC DIPOLE MOMENTS
-----------------------------------------------------------------------------
State   Energy  Wavelength   fosc         T2         TX        TY        TZ
        (cm-1)    (nm)                  (au**2)     (au)      (au)      (au)
-----------------------------------------------------------------------------
   0    6987.5   1431.1   0.659388191  31.06674  -2.19487   4.97801  -1.21190
   1   11827.9    845.5   0.034715448   0.96625   0.26483   0.38109  -0.86654
   2   16120.9    620.3   0.065117427   1.32979  -0.56124  -0.07587   1.00451
   3   17524.5    570.6   0.503160801   9.45230   0.18293  -2.15008   2.18998
   4   19980.6    500.5   0.436699042   7.19532  -1.69602   1.51144   1.42631
   5   20653.6    484.2   0.005135957   0.08187  -0.04804  -0.04441   0.27854
   6   21894.1    456.7   0.042235953   0.63508   0.27021   0.05224  -0.74789
   7   22602.4    442.4   0.094362849   1.37443  -0.70609   0.80096   0.48407
   8   23866.5    419.0   0.028446721   0.39239   0.10171  -0.57049  -0.23788
   9   24594.1    406.6   0.039919100   0.53435  -0.57834  -0.11614   0.43173
  10   25048.5    399.2   0.091617139   1.20412  -0.47594  -0.05648   0.98713
  11   25211.0    396.7   0.007639779   0.09976   0.22000   0.00511  -0.22658
  12   25828.0    387.2   0.030654304   0.39073  -0.28586   0.55158   0.06911
  13   26394.4    378.9   0.277229711   3.45783   0.56933  -1.08796   1.39644
  14   26953.1    371.0   0.089960632   1.09880  -0.33108   0.40226   0.90960
  15   27688.8    361.2   0.039363482   0.46802  -0.43172   0.36089  -0.38910
  16   28972.1    345.2   0.024693584   0.28060   0.09448  -0.34024   0.39485
  17   29230.4    342.1   0.000708950   0.00798   0.04050  -0.07756   0.01812
  18   29521.9    338.7   0.037303182   0.41598  -0.46002   0.35011  -0.28598
  19   29797.6    335.6   0.075256461   0.83145  -0.01067  -0.36559   0.83528
  20   30201.2    331.1   0.173490190   1.89115   0.11405   0.94707  -0.99056
  21   30367.6    329.3   0.283353827   3.07181  -0.25397  -0.20072  -1.72250
  22   30756.1    325.1   0.192299254   2.05836  -0.51135   0.19514   1.32620
  23   30935.9    323.2   0.012145205   0.12925   0.27728   0.12348  -0.19265
  24   31173.3    320.8   0.033387361   0.35259  -0.28983   0.51788   0.01974
  25   31382.3    318.7   0.309357819   3.24528   0.44356  -1.26953  -1.19867
  26   31817.8    314.3   0.088622925   0.91696   0.29365  -0.88137   0.23220
  27   31864.1    313.8   0.115880815   1.19725   0.59459  -0.88659  -0.24012
  28   32137.9    311.2   0.120854930   1.23801   0.24085  -0.77221   0.76399
  29   32436.1    308.3   0.021588748   0.21912   0.35678   0.13463   0.27147
  30   33009.8    302.9   0.361117356   3.60148   0.33441  -0.06347   1.86698
  31   33232.0    300.9   0.058735727   0.58186   0.67917  -0.32390  -0.12522
  32   33236.1    300.9   0.009793881   0.09701  -0.07170  -0.08493   0.29096
  33   33447.8    299.0   0.070889152   0.69773  -0.45033   0.65754   0.25016
  34   33685.9    296.9   0.213882825   2.09028   0.50071  -0.70816  -1.15675
  35   33810.1    295.8   0.358325296   3.48904  -0.15929   0.16454  -1.85381
  36   34147.9    292.8   0.128431033   1.23817  -0.39302   0.38401  -0.96760
  37   34284.3    291.7   0.072753678   0.69861   0.02401   0.32243   0.77076
  38   34691.5    288.3   0.163390230   1.55052   0.25594   0.23759   1.19523
  39   34894.1    286.6   0.106220067   1.00214  -0.55670   0.26731   0.78789
  40   35225.0    283.9   0.019951337   0.18646   0.10412   0.16053   0.38711
  41   35637.9    280.6   0.008096779   0.07480   0.12532  -0.11648  -0.21336
  42   35756.7    279.7   0.295019402   2.71624   0.81529  -0.46967   1.35313
  43   35797.0    279.4   0.113996519   1.04839  -0.32603   0.20240  -0.94927
  44   36078.0    277.2   0.052209860   0.47642   0.13774   0.07114  -0.67259
  45   36151.5    276.6   0.070786036   0.64461  -0.36447   0.30276  -0.64816
  46   36910.0    270.9   0.060266187   0.53753   0.58710  -0.15988   0.40900
  47   37187.0    268.9   0.000103695   0.00092   0.01891  -0.02357   0.00220
  48   37714.1    265.2   0.021532083   0.18796   0.03293   0.29078  -0.31987
  49   37936.2    263.6   0.049867625   0.43275  -0.09543   0.27953   0.58780
  50   38229.4    261.6   0.032806988   0.28252   0.15696  -0.44370   0.24700
  51   38687.5    258.5   0.155010987   1.31907   0.10765   0.62029  -0.96058
  52   39011.4    256.3   0.026303115   0.22197   0.15208  -0.28102   0.34622
  53   39063.5    256.0   0.007990327   0.06734  -0.06289  -0.16119   0.19340
  54   39244.1    254.8   0.172217540   1.44470  -0.08174  -0.01347   1.19910
  55   39571.6    252.7   0.087074688   0.72441  -0.40745   0.71120   0.22933
  56   39747.1    251.6   0.014590280   0.12085   0.04966  -0.23660  -0.24980
  57   39938.0    250.4   0.010413424   0.08584  -0.07416   0.28036   0.04168
  58   40089.3    249.4   0.032091474   0.26353  -0.46686  -0.06085  -0.20463

FINAL SINGLE POINT ENERGY     -5527.543414044190

DIPOLE MOMENT
-------------
                                X             Y             Z
Electronic contribution:      8.19670      -8.86680     -23.42637
Nuclear contribution   :     -8.98844      13.97283      25.07304
                        -----------------------------------------
Total Dipole Moment    :     -0.79173       5.10604       1.64667
                        -----------------------------------------
Magnitude (a.u.)       :      5.42310
Magnitude (Debye)      :     13.78442

Rotational constants in cm-1:     0.001173     0.000311     0.000253
Rotational constants in MHz :    35.152078     9.337120     7.582813

                             ****ORCA TERMINATED NORMALLY****
TOTAL RUN TIME: 0 days 0 hours 9 minutes 57 seconds 554 msec
