                         Program Version 4.2.0 -  RELEASE  -
|  1> # ORCA input file
|  2> # SCF done       -149.400261492554          0.000664679698
|  3> ! CAM-B3LYP def2-SVP def2/J RIJCOSX Grid4 TightSCF
|  4> %maxcore 5000
|  5> %tddft
|  6>     Mode sTDDFT
|  7>     Ethresh 5.0
|  8>     maxcore 5000
|  9> end
| 10>
| 11> %pal
| 12>   nprocs 6
| 13>   end
| 14> * xyz 0 1
| 15>    C       -0.85768         0.04989        -4.51313
| 16>    C       -0.19740        -0.26763        -3.33088
| 17>    N       -0.50504        -1.34105        -2.62955
| 18>    C       -1.48303        -2.12593        -3.09815
| 19>    C       -2.13722        -1.79914        -4.29514
| 20>    N       -1.82486        -0.72310        -4.98816
| 21>    C       -1.81751        -3.28586        -2.31284
| 22>    C       -1.22278        -3.66255        -1.12717
| 23>    C       -1.79726        -4.82267        -0.60425
| 24>    C       -2.83609        -5.32524        -1.40940
| 25>    S       -3.09875        -4.37661        -2.80132
| 26>    C       -3.38086        -6.47996        -0.79239
| 27>    C       -2.68171        -6.70375         0.41181
| 28>    C       -1.65764        -5.67926         0.56055
| 29>    C       -0.75820        -5.55891         1.57857
| 30>    C       -0.72598        -6.46858         2.65668
| 31>    N       -0.69831        -7.20818         3.53258
| 32>    C        0.20101        -4.52487         1.62556
| 33>    N        0.98822        -3.69315         1.67638
| 34>    C       -3.16336        -7.79934         1.11669
| 35>    C       -4.21965        -8.40803         0.45061
| 36>    S       -4.61792        -7.62419        -1.07184
| 37>    C       -4.98246        -9.51585         0.85537
| 38>    C       -6.01802       -10.08925         0.11012
| 39>    C       -6.66431       -11.18838         0.77211
| 40>    N       -7.71311       -11.79486         0.21074
| 41>    C       -8.09337       -11.36170        -0.97128
| 42>    C       -9.30032       -11.99581        -1.56178
| 43>    O      -10.00397       -12.76321        -0.94261
| 44>    C       -9.59450       -11.59520        -2.94965
| 45>    C       -8.92345       -10.64173        -3.60408
| 46>    C       -7.80406        -9.88339        -3.02003
| 47>    O       -7.24536        -8.98478        -3.61415
| 48>    C       -7.40561       -10.30864        -1.65589
| 49>    N       -6.39090        -9.68070        -1.10148
| 50>    C       -6.10537       -11.46376         2.02782
| 51>    S       -4.80852       -10.35119         2.36492
| 52>    C       -6.51488       -12.46240         2.93102
| 53>    C       -7.42703       -13.47971         2.67379
| 54>    C       -7.62420       -14.28371         3.78949
| 55>    C       -6.87846       -13.86872         4.91080
| 56>    S       -5.90004       -12.51054         4.57890
| 57>    C       -7.19497       -14.71393         6.00128
| 58>    C       -8.13703       -15.66797         5.57481
| 59>    C       -8.41307       -15.45095         4.16445
| 60>    C       -9.19391       -16.21345         3.34877
| 61>    C       -9.92037       -17.32510         3.82871
| 62>    N      -10.52245       -18.22256         4.21072
| 63>    C       -9.29063       -15.99306         1.95646
| 64>    N       -9.34606       -15.87075         0.81851
| 65>    C       -8.51556       -16.54241         6.59572
| 66>    C       -7.87592       -16.25560         7.78265
| 67>    S       -6.78191       -14.89378         7.64726
| 68>    C       -8.04742       -16.95300         9.03064
| 69>    C       -7.37157       -16.59376        10.20593
| 70>    N       -7.54753       -17.24504        11.33759
| 71>    C       -8.39532       -18.26473        11.32964
| 72>    C       -9.07098       -18.63039        10.17009
| 73>    N       -8.90104       -17.98424         9.03341
| 74>    H       -0.61654         0.92953        -5.09212
| 75>    H        0.59558         0.34929        -2.93126
| 76>    H       -2.92813        -2.41995        -4.69595
| 77>    H       -0.41965        -3.09807        -0.69047
| 78>    H       -2.79105        -8.15407         2.06110
| 79>    H      -10.42324       -12.11683        -3.40896
| 80>    H       -9.18530       -10.36274        -4.61588
| 81>    H       -7.90814       -13.58365         1.71780
| 82>    H       -9.21935       -17.34986         6.51227
| 83>    H       -6.67703       -15.76373        10.22883
| 84>    H       -8.52800       -18.78743        12.26575
| 85>    H       -9.76531       -19.45888        10.14585
| 86> *
| 87>
| 88>                          ****END OF INPUT****

CARTESIAN COORDINATES (ANGSTROEM)
---------------------------------
  C     -0.857680    0.049890   -4.513130
  C     -0.197400   -0.267630   -3.330880
  N     -0.505040   -1.341050   -2.629550
  C     -1.483030   -2.125930   -3.098150
  C     -2.137220   -1.799140   -4.295140
  N     -1.824860   -0.723100   -4.988160
  C     -1.817510   -3.285860   -2.312840
  C     -1.222780   -3.662550   -1.127170
  C     -1.797260   -4.822670   -0.604250
  C     -2.836090   -5.325240   -1.409400
  S     -3.098750   -4.376610   -2.801320
  C     -3.380860   -6.479960   -0.792390
  C     -2.681710   -6.703750    0.411810
  C     -1.657640   -5.679260    0.560550
  C     -0.758200   -5.558910    1.578570
  C     -0.725980   -6.468580    2.656680
  N     -0.698310   -7.208180    3.532580
  C      0.201010   -4.524870    1.625560
  N      0.988220   -3.693150    1.676380
  C     -3.163360   -7.799340    1.116690
  C     -4.219650   -8.408030    0.450610
  S     -4.617920   -7.624190   -1.071840
  C     -4.982460   -9.515850    0.855370
  C     -6.018020  -10.089250    0.110120
  C     -6.664310  -11.188380    0.772110
  N     -7.713110  -11.794860    0.210740
  C     -8.093370  -11.361700   -0.971280
  C     -9.300320  -11.995810   -1.561780
  O    -10.003970  -12.763210   -0.942610
  C     -9.594500  -11.595200   -2.949650
  C     -8.923450  -10.641730   -3.604080
  C     -7.804060   -9.883390   -3.020030
  O     -7.245360   -8.984780   -3.614150
  C     -7.405610  -10.308640   -1.655890
  N     -6.390900   -9.680700   -1.101480
  C     -6.105370  -11.463760    2.027820
  S     -4.808520  -10.351190    2.364920
  C     -6.514880  -12.462400    2.931020
  C     -7.427030  -13.479710    2.673790
  C     -7.624200  -14.283710    3.789490
  C     -6.878460  -13.868720    4.910800
  S     -5.900040  -12.510540    4.578900
  C     -7.194970  -14.713930    6.001280
  C     -8.137030  -15.667970    5.574810
  C     -8.413070  -15.450950    4.164450
  C     -9.193910  -16.213450    3.348770
  C     -9.920370  -17.325100    3.828710
  N    -10.522450  -18.222560    4.210720
  C     -9.290630  -15.993060    1.956460
  N     -9.346060  -15.870750    0.818510
  C     -8.515560  -16.542410    6.595720
  C     -7.875920  -16.255600    7.782650
  S     -6.781910  -14.893780    7.647260
  C     -8.047420  -16.953000    9.030640
  C     -7.371570  -16.593760   10.205930
  N     -7.547530  -17.245040   11.337590
  C     -8.395320  -18.264730   11.329640
  C     -9.070980  -18.630390   10.170090
  N     -8.901040  -17.984240    9.033410
  H     -0.616540    0.929530   -5.092120
  H      0.595580    0.349290   -2.931260
  H     -2.928130   -2.419950   -4.695950
  H     -0.419650   -3.098070   -0.690470
  H     -2.791050   -8.154070    2.061100
  H    -10.423240  -12.116830   -3.408960
  H     -9.185300  -10.362740   -4.615880
  H     -7.908140  -13.583650    1.717800
  H     -9.219350  -17.349860    6.512270
  H     -6.677030  -15.763730   10.228830
  H     -8.528000  -18.787430   12.265750
  H     -9.765310  -19.458880   10.145850

 Total Charge           Charge          ....    0
 Multiplicity           Mult            ....    1
 Number of Electrons    NEL             ....  430
 Basis Dimension        Dim             ....  906

ORBITAL ENERGIES
----------------

  NO   OCC          E(Eh)            E(eV)
   0   2.0000     -89.004181     -2421.9269
   1   2.0000     -88.994099     -2421.6525
   2   2.0000     -88.991357     -2421.5779
   3   2.0000     -88.990257     -2421.5480
   4   2.0000     -88.987062     -2421.4611
   5   2.0000     -19.230779      -523.2961
   6   2.0000     -19.228292      -523.2284
   7   2.0000     -14.457338      -393.4042
   8   2.0000     -14.453732      -393.3060
   9   2.0000     -14.430537      -392.6749
  10   2.0000     -14.427464      -392.5912
  11   2.0000     -14.427246      -392.5853
  12   2.0000     -14.427107      -392.5815
  13   2.0000     -14.427080      -392.5808
  14   2.0000     -14.426539      -392.5661
  15   2.0000     -14.426322      -392.5602
  16   2.0000     -14.424661      -392.5150
  17   2.0000     -10.380597      -282.4704
  18   2.0000     -10.377120      -282.3758
  19   2.0000     -10.363695      -282.0105
  20   2.0000     -10.363239      -281.9981
  21   2.0000     -10.351019      -281.6655
  22   2.0000     -10.349248      -281.6174
  23   2.0000     -10.347179      -281.5610
  24   2.0000     -10.345191      -281.5070
  25   2.0000     -10.340901      -281.3902
  26   2.0000     -10.339545      -281.3533
  27   2.0000     -10.338566      -281.3267
  28   2.0000     -10.336985      -281.2837
  29   2.0000     -10.335152      -281.2338
  30   2.0000     -10.335106      -281.2325
  31   2.0000     -10.334345      -281.2118
  32   2.0000     -10.334181      -281.2074
  33   2.0000     -10.332772      -281.1690
  34   2.0000     -10.332675      -281.1664
  35   2.0000     -10.331152      -281.1249
  36   2.0000     -10.330955      -281.1196
  37   2.0000     -10.327621      -281.0289
  38   2.0000     -10.327561      -281.0272
  39   2.0000     -10.326820      -281.0071
  40   2.0000     -10.323744      -280.9234
  41   2.0000     -10.320752      -280.8419
  42   2.0000     -10.319801      -280.8161
  43   2.0000     -10.319114      -280.7974
  44   2.0000     -10.318943      -280.7927
  45   2.0000     -10.318436      -280.7789
  46   2.0000     -10.317702      -280.7589
  47   2.0000     -10.314818      -280.6805
  48   2.0000     -10.314229      -280.6644
  49   2.0000     -10.311734      -280.5966
  50   2.0000     -10.310943      -280.5750
  51   2.0000     -10.306200      -280.4460
  52   2.0000     -10.304749      -280.4065
  53   2.0000     -10.303155      -280.3631
  54   2.0000     -10.302808      -280.3537
  55   2.0000     -10.301707      -280.3237
  56   2.0000     -10.299903      -280.2746
  57   2.0000     -10.297988      -280.2225
  58   2.0000     -10.297475      -280.2086
  59   2.0000      -8.098553      -220.3728
  60   2.0000      -8.088911      -220.1105
  61   2.0000      -8.085862      -220.0275
  62   2.0000      -8.084738      -219.9969
  63   2.0000      -8.080187      -219.8731
  64   2.0000      -6.067673      -165.1098
  65   2.0000      -6.063540      -164.9973
  66   2.0000      -6.061172      -164.9329
  67   2.0000      -6.058191      -164.8518
  68   2.0000      -6.055071      -164.7669
  69   2.0000      -6.054059      -164.7393
  70   2.0000      -6.053913      -164.7354
  71   2.0000      -6.051141      -164.6599
  72   2.0000      -6.050925      -164.6540
  73   2.0000      -6.049743      -164.6219
  74   2.0000      -6.049611      -164.6183
  75   2.0000      -6.048327      -164.5834
  76   2.0000      -6.047283      -164.5549
  77   2.0000      -6.045096      -164.4954
  78   2.0000      -6.042526      -164.4255
  79   2.0000      -1.147372       -31.2216
  80   2.0000      -1.142037       -31.0764
  81   2.0000      -1.106493       -30.1092
  82   2.0000      -1.083997       -29.4971
  83   2.0000      -1.083129       -29.4734
  84   2.0000      -1.044991       -28.4357
  85   2.0000      -1.043755       -28.4020
  86   2.0000      -1.033980       -28.1360
  87   2.0000      -1.021486       -27.7960
  88   2.0000      -1.019179       -27.7333
  89   2.0000      -1.015555       -27.6347
  90   2.0000      -1.006701       -27.3937
  91   2.0000      -1.005948       -27.3732
  92   2.0000      -1.004061       -27.3219
  93   2.0000      -1.002701       -27.2849
  94   2.0000      -0.994555       -27.0632
  95   2.0000      -0.987421       -26.8691
  96   2.0000      -0.959042       -26.0969
  97   2.0000      -0.955366       -25.9968
  98   2.0000      -0.942488       -25.6464
  99   2.0000      -0.920423       -25.0460
 100   2.0000      -0.913144       -24.8479
 101   2.0000      -0.889474       -24.2038
 102   2.0000      -0.881754       -23.9937
 103   2.0000      -0.880230       -23.9523
 104   2.0000      -0.874805       -23.8047
 105   2.0000      -0.865953       -23.5638
 106   2.0000      -0.856427       -23.3046
 107   2.0000      -0.854439       -23.2505
 108   2.0000      -0.852743       -23.2043
 109   2.0000      -0.815208       -22.1829
 110   2.0000      -0.807105       -21.9624
 111   2.0000      -0.796428       -21.6719
 112   2.0000      -0.788958       -21.4686
 113   2.0000      -0.782477       -21.2923
 114   2.0000      -0.777003       -21.1433
 115   2.0000      -0.767148       -20.8752
 116   2.0000      -0.757716       -20.6185
 117   2.0000      -0.748950       -20.3800
 118   2.0000      -0.748190       -20.3593
 119   2.0000      -0.732735       -19.9387
 120   2.0000      -0.721435       -19.6312
 121   2.0000      -0.698164       -18.9980
 122   2.0000      -0.696535       -18.9537
 123   2.0000      -0.687653       -18.7120
 124   2.0000      -0.683064       -18.5871
 125   2.0000      -0.680499       -18.5173
 126   2.0000      -0.678046       -18.4506
 127   2.0000      -0.671333       -18.2679
 128   2.0000      -0.655370       -17.8335
 129   2.0000      -0.648862       -17.6564
 130   2.0000      -0.633578       -17.2405
 131   2.0000      -0.631297       -17.1785
 132   2.0000      -0.623638       -16.9700
 133   2.0000      -0.621618       -16.9151
 134   2.0000      -0.617479       -16.8025
 135   2.0000      -0.617154       -16.7936
 136   2.0000      -0.607594       -16.5335
 137   2.0000      -0.606959       -16.5162
 138   2.0000      -0.603121       -16.4118
 139   2.0000      -0.600665       -16.3449
 140   2.0000      -0.595518       -16.2049
 141   2.0000      -0.580169       -15.7872
 142   2.0000      -0.575362       -15.6564
 143   2.0000      -0.572988       -15.5918
 144   2.0000      -0.563942       -15.3456
 145   2.0000      -0.561227       -15.2718
 146   2.0000      -0.555731       -15.1222
 147   2.0000      -0.547984       -14.9114
 148   2.0000      -0.547294       -14.8926
 149   2.0000      -0.546974       -14.8839
 150   2.0000      -0.536708       -14.6046
 151   2.0000      -0.531416       -14.4606
 152   2.0000      -0.529001       -14.3949
 153   2.0000      -0.527359       -14.3502
 154   2.0000      -0.526302       -14.3214
 155   2.0000      -0.524457       -14.2712
 156   2.0000      -0.518583       -14.1114
 157   2.0000      -0.514370       -13.9967
 158   2.0000      -0.509355       -13.8603
 159   2.0000      -0.505276       -13.7493
 160   2.0000      -0.500636       -13.6230
 161   2.0000      -0.500259       -13.6127
 162   2.0000      -0.498635       -13.5685
 163   2.0000      -0.497585       -13.5400
 164   2.0000      -0.496016       -13.4973
 165   2.0000      -0.493928       -13.4405
 166   2.0000      -0.491766       -13.3816
 167   2.0000      -0.486383       -13.2352
 168   2.0000      -0.484339       -13.1795
 169   2.0000      -0.482010       -13.1162
 170   2.0000      -0.480952       -13.0874
 171   2.0000      -0.475989       -12.9523
 172   2.0000      -0.470542       -12.8041
 173   2.0000      -0.465365       -12.6632
 174   2.0000      -0.461095       -12.5470
 175   2.0000      -0.457397       -12.4464
 176   2.0000      -0.456490       -12.4217
 177   2.0000      -0.456385       -12.4189
 178   2.0000      -0.451953       -12.2983
 179   2.0000      -0.450687       -12.2638
 180   2.0000      -0.447505       -12.1772
 181   2.0000      -0.445405       -12.1201
 182   2.0000      -0.442578       -12.0432
 183   2.0000      -0.439806       -11.9677
 184   2.0000      -0.439393       -11.9565
 185   2.0000      -0.437224       -11.8975
 186   2.0000      -0.435559       -11.8522
 187   2.0000      -0.434378       -11.8200
 188   2.0000      -0.425794       -11.5865
 189   2.0000      -0.421934       -11.4814
 190   2.0000      -0.421557       -11.4711
 191   2.0000      -0.417755       -11.3677
 192   2.0000      -0.407693       -11.0939
 193   2.0000      -0.406105       -11.0507
 194   2.0000      -0.404311       -11.0019
 195   2.0000      -0.389600       -10.6016
 196   2.0000      -0.388275       -10.5655
 197   2.0000      -0.387565       -10.5462
 198   2.0000      -0.381714       -10.3870
 199   2.0000      -0.375669       -10.2225
 200   2.0000      -0.367519       -10.0007
 201   2.0000      -0.363381        -9.8881
 202   2.0000      -0.355282        -9.6677
 203   2.0000      -0.350023        -9.5246
 204   2.0000      -0.349356        -9.5065
 205   2.0000      -0.346550        -9.4301
 206   2.0000      -0.342754        -9.3268
 207   2.0000      -0.339585        -9.2406
 208   2.0000      -0.326758        -8.8915
 209   2.0000      -0.326021        -8.8715
 210   2.0000      -0.322481        -8.7751
 211   2.0000      -0.320858        -8.7310
 212   2.0000      -0.307524        -8.3682
 213   2.0000      -0.275999        -7.5103
 214   2.0000      -0.236933        -6.4473
 215   0.0000      -0.116341        -3.1658
 216   0.0000      -0.103183        -2.8078
 217   0.0000      -0.092368        -2.5135
 218   0.0000      -0.089224        -2.4279
 219   0.0000      -0.043124        -1.1735

MULLIKEN ATOMIC CHARGES
-----------------------
   0 C :    0.019132
   1 C :    0.040813
   2 N :   -0.050993
   3 C :   -0.012480
   4 C :   -0.023824
   5 N :   -0.042834
   6 C :   -0.043736
   7 C :   -0.043104
   8 C :    0.024709
   9 C :   -0.097764
  10 S :    0.188559
  11 C :   -0.087140
  12 C :    0.030137
  13 C :    0.297464
  14 C :   -0.299140
  15 C :   -0.191107
  16 N :    0.169822
  17 C :   -0.194182
  18 N :    0.185160
  19 C :   -0.082084
  20 C :   -0.078339
  21 S :    0.239684
  22 C :   -0.109785
  23 C :    0.009106
  24 C :    0.045604
  25 N :    0.067969
  26 C :   -0.114785
  27 C :    0.136936
  28 O :   -0.094817
  29 C :   -0.010185
  30 C :   -0.019223
  31 C :    0.139976
  32 O :   -0.110564
  33 C :   -0.113607
  34 N :    0.030816
  35 C :   -0.132082
  36 S :    0.217152
  37 C :   -0.094019
  38 C :   -0.055292
  39 C :    0.028602
  40 C :   -0.095366
  41 S :    0.182464
  42 C :   -0.096193
  43 C :    0.023464
  44 C :    0.300690
  45 C :   -0.289876
  46 C :   -0.192642
  47 N :    0.179933
  48 C :   -0.195233
  49 N :    0.191771
  50 C :   -0.046453
  51 C :   -0.040175
  52 S :    0.180075
  53 C :   -0.012684
  54 C :   -0.024650
  55 N :   -0.043051
  56 C :    0.019685
  57 C :    0.039411
  58 N :   -0.048304
  59 H :    0.014658
  60 H :    0.016300
  61 H :    0.008421
  62 H :    0.019621
  63 H :    0.006617
  64 H :    0.022869
  65 H :    0.017790
  66 H :    0.028533
  67 H :    0.020775
  68 H :    0.007904
  69 H :    0.015510
  70 H :    0.017583
Sum of atomic charges:    0.0000000

LOEWDIN ATOMIC CHARGES
----------------------
   0 C :   -0.005275
   1 C :    0.009543
   2 N :   -0.048644
   3 C :   -0.023791
   4 C :   -0.007780
   5 N :   -0.036944
   6 C :   -0.179870
   7 C :   -0.003975
   8 C :   -0.070566
   9 C :   -0.174616
  10 S :    0.485431
  11 C :   -0.182263
  12 C :   -0.069537
  13 C :    0.081597
  14 C :   -0.103142
  15 C :   -0.014945
  16 N :   -0.037854
  17 C :   -0.019418
  18 N :   -0.027944
  19 C :   -0.029328
  20 C :   -0.182990
  21 S :    0.529719
  22 C :   -0.191186
  23 C :   -0.056163
  24 C :   -0.043943
  25 N :    0.010887
  26 C :   -0.039481
  27 C :    0.054455
  28 O :   -0.089315
  29 C :   -0.008166
  30 C :   -0.015577
  31 C :    0.055823
  32 O :   -0.106520
  33 C :   -0.039175
  34 N :   -0.011532
  35 C :   -0.190630
  36 S :    0.503656
  37 C :   -0.186145
  38 C :   -0.007292
  39 C :   -0.064011
  40 C :   -0.178929
  41 S :    0.462839
  42 C :   -0.177712
  43 C :   -0.067758
  44 C :    0.076415
  45 C :   -0.091599
  46 C :   -0.017314
  47 N :   -0.026723
  48 C :   -0.022397
  49 N :   -0.016437
  50 C :   -0.003949
  51 C :   -0.178752
  52 S :    0.477468
  53 C :   -0.024062
  54 C :   -0.008197
  55 N :   -0.036798
  56 C :   -0.005081
  57 C :    0.009861
  58 N :   -0.047782
  59 H :    0.026646
  60 H :    0.028971
  61 H :    0.018283
  62 H :    0.045853
  63 H :    0.036498
  64 H :    0.047347
  65 H :    0.045660
  66 H :    0.044235
  67 H :    0.046227
  68 H :    0.017870
  69 H :    0.026888
  70 H :    0.029335

  Mayer bond orders larger than 0.100000
B(  0-C ,  1-C ) :   1.3473 B(  0-C ,  5-N ) :   1.5365 B(  0-C , 59-H ) :   0.9790
B(  1-C ,  2-N ) :   1.5505 B(  1-C , 60-H ) :   0.9769 B(  2-N ,  3-C ) :   1.5738
B(  3-C ,  4-C ) :   1.3168 B(  3-C ,  6-C ) :   1.0520 B(  4-C ,  5-N ) :   1.5980
B(  4-C , 61-H ) :   0.9760 B(  6-C ,  7-C ) :   1.4830 B(  6-C , 10-S ) :   1.1082
B(  7-C ,  8-C ) :   1.2462 B(  7-C , 62-H ) :   1.0100 B(  8-C ,  9-C ) :   1.4296
B(  8-C , 13-C ) :   0.9965 B(  9-C , 10-S ) :   1.1373 B(  9-C , 11-C ) :   1.1973
B( 11-C , 12-C ) :   1.4111 B( 11-C , 21-S ) :   1.1015 B( 12-C , 13-C ) :   0.9912
B( 12-C , 19-C ) :   1.3223 B( 13-C , 14-C ) :   1.7158 B( 14-C , 15-C ) :   1.1356
B( 14-C , 17-C ) :   1.1329 B( 15-C , 16-N ) :   2.9930 B( 17-C , 18-N ) :   3.0039
B( 19-C , 20-C ) :   1.3938 B( 19-C , 63-H ) :   0.9939 B( 20-C , 21-S ) :   1.1131
B( 20-C , 22-C ) :   1.2353 B( 22-C , 23-C ) :   1.3232 B( 22-C , 35-C ) :   0.1329
B( 22-C , 36-S ) :   1.1538 B( 23-C , 24-C ) :   1.1846 B( 23-C , 34-N ) :   1.4162
B( 24-C , 25-N ) :   1.4372 B( 24-C , 35-C ) :   1.3687 B( 25-N , 26-C ) :   1.7176
B( 26-C , 27-C ) :   0.8922 B( 26-C , 33-C ) :   1.0978 B( 27-C , 28-O ) :   2.2434
B( 27-C , 29-C ) :   1.0186 B( 29-C , 30-C ) :   1.6836 B( 29-C , 64-H ) :   0.9968
B( 30-C , 31-C ) :   1.0259 B( 30-C , 65-H ) :   0.9967 B( 31-C , 32-O ) :   2.2438
B( 31-C , 33-C ) :   0.8962 B( 33-C , 34-N ) :   1.6968 B( 35-C , 36-S ) :   1.1512
B( 35-C , 37-C ) :   1.1908 B( 37-C , 38-C ) :   1.4534 B( 37-C , 41-S ) :   1.0816
B( 38-C , 39-C ) :   1.2762 B( 38-C , 66-H ) :   0.9872 B( 39-C , 40-C ) :   1.4255
B( 39-C , 44-C ) :   0.9860 B( 40-C , 41-S ) :   1.1225 B( 40-C , 42-C ) :   1.2012
B( 42-C , 43-C ) :   1.4317 B( 42-C , 52-S ) :   1.1297 B( 43-C , 44-C ) :   0.9963
B( 43-C , 50-C ) :   1.2436 B( 44-C , 45-C ) :   1.7219 B( 45-C , 46-C ) :   1.1324
B( 45-C , 48-C ) :   1.1317 B( 46-C , 47-N ) :   2.9998 B( 48-C , 49-N ) :   3.0010
B( 50-C , 51-C ) :   1.4834 B( 50-C , 67-H ) :   1.0103 B( 51-C , 52-S ) :   1.1071
B( 51-C , 53-C ) :   1.0526 B( 53-C , 54-C ) :   1.3165 B( 53-C , 58-N ) :   1.5740
B( 54-C , 55-N ) :   1.5990 B( 54-C , 68-H ) :   0.9761 B( 55-N , 56-C ) :   1.5360
B( 56-C , 57-C ) :   1.3477 B( 56-C , 69-H ) :   0.9786 B( 57-C , 58-N ) :   1.5514
B( 57-C , 70-H ) :   0.9769

-----------------------------------------------------------------------------
         ABSORPTION SPECTRUM VIA TRANSITION ELECTRIC DIPOLE MOMENTS
-----------------------------------------------------------------------------
State   Energy  Wavelength   fosc         T2         TX        TY        TZ
        (cm-1)    (nm)                  (au**2)     (au)      (au)      (au)
-----------------------------------------------------------------------------
   0   10428.6    958.9   0.637657295  20.12975   1.81540   3.43443  -2.24471
   1   12424.4    804.9   0.029055772   0.76990  -0.15331   0.21572  -0.83657
   2   13930.1    717.9   0.072995480   1.72512  -0.72017  -1.03635   0.36393
   3   16816.3    594.7   0.123777051   2.42318  -0.80638   0.05364  -1.33043
   4   20194.9    495.2   0.034570713   0.56356   0.44994   0.33988   0.49558
   5   22575.5    443.0   0.052990552   0.77275   0.35450   0.67835  -0.43234
   6   24795.1    403.3   0.002986841   0.03966   0.17140  -0.09271   0.04105
   7   25017.8    399.7   0.055916938   0.73582  -0.29558   0.05863  -0.80313
   8   25707.1    389.0   0.000424903   0.00544  -0.01035  -0.05421   0.04894
   9   26146.4    382.5   1.654267026  20.82901   1.66378   3.42933  -2.51009
  10   26648.0    375.3   0.002743124   0.03389   0.08894  -0.00760  -0.16100
  11   27483.3    363.9   0.000715367   0.00857   0.06688   0.06351  -0.00790
  12   28387.6    352.3   0.078890245   0.91489   0.21513   0.66096  -0.65707
  13   29318.2    341.1   0.029460008   0.33080   0.54253   0.04071   0.18656
  14   29600.8    337.8   0.310534978   3.45369   1.04911   1.01922   1.14641
  15   29738.4    336.3   0.022861700   0.25309   0.29469   0.40476   0.04909
  16   30704.4    325.7   0.000091928   0.00099   0.02691  -0.00231  -0.01600
  17   30926.3    323.3   0.000905862   0.00964  -0.07050   0.06554   0.01942
  18   30952.4    323.1   0.001004790   0.01069  -0.06342   0.07511   0.03200
  19   31149.8    321.0   0.001525743   0.01613   0.00631  -0.12253   0.03275
  20   32176.5    310.8   0.275935641   2.82322   1.16196   1.14860   0.39215
  21   32465.9    308.0   0.728861885   7.39083  -1.09674   0.69099  -2.38967
  22   32745.2    305.4   0.334782569   3.36581  -0.48926  -0.15358  -1.76149
  23   33313.6    300.2   0.121123499   1.19697  -0.61993  -0.02851  -0.90102
  24   33473.8    298.7   0.010992413   0.10811   0.02895  -0.32689  -0.02034
  25   33612.8    297.5   0.001421487   0.01392  -0.05366  -0.04686   0.09406
  26   33697.3    296.8   0.177324126   1.73240  -0.84988  -0.36835  -0.93511
  27   34366.3    291.0   0.063747739   0.61067  -0.45393  -0.62857   0.09759
  28   34594.5    289.1   0.181324752   1.72554  -0.63098  -1.08710   0.38163
  29   34963.4    286.0   0.004171841   0.03928  -0.14500  -0.10192  -0.08871
  30   35054.1    285.3   0.035465026   0.33307  -0.41595  -0.40006   0.00236
  31   35541.3    281.4   0.107971852   1.00012  -0.71634  -0.51757  -0.46808
  32   35955.0    278.1   0.048607457   0.44506  -0.43360   0.03237  -0.50597
  33   36198.2    276.3   0.013882298   0.12626   0.30682   0.04540   0.17336
  34   36255.7    275.8   0.086300539   0.78363  -0.59342  -0.50409  -0.42116
  35   36606.2    273.2   0.047281169   0.42522   0.42845   0.49153   0.00657
  36   36854.1    271.3   0.002604624   0.02327  -0.07128   0.08472   0.10492
  37   36916.7    270.9   0.079766883   0.71134  -0.35147   0.11799  -0.75755
  38   37018.1    270.1   0.007639091   0.06794   0.21747  -0.00840   0.14344
  39   37135.9    269.3   0.002783955   0.02468   0.10861  -0.10609  -0.04035
  40   37387.3    267.5   0.128505420   1.13155  -0.08882   0.49676  -0.93643
  41   37483.1    266.8   0.006354909   0.05581  -0.14675  -0.12216   0.13913
  42   37719.0    265.1   0.015702163   0.13705   0.11177   0.35272   0.01208
  43   37788.4    264.6   0.156989464   1.36769   0.75716  -0.05515   0.88958
  44   37850.4    264.2   0.048035771   0.41780  -0.31217  -0.04832  -0.56393
  45   38304.0    261.1   0.053135446   0.45668   0.13182   0.29682  -0.59263
  46   38922.5    256.9   0.008751482   0.07402  -0.06615   0.18892  -0.18427
  47   39222.6    255.0   0.004332690   0.03637  -0.10915  -0.15531  -0.01825
  48   39330.4    254.3   0.039991326   0.33474   0.17513   0.39686  -0.38285
  49   39477.4    253.3   0.002356723   0.01965  -0.08237   0.02628   0.11035
  50   39505.4    253.1   0.433174715   3.60980  -0.18933  -1.15167   1.49920
  51   39616.7    252.4   0.000908382   0.00755  -0.06460   0.05755   0.00797
  52   40117.2    249.3   0.003817105   0.03132   0.14546  -0.04445   0.09050
  53   40310.9    248.1   0.028108150   0.22955  -0.31861  -0.09625  -0.34464

FINAL SINGLE POINT ENERGY     -4292.972355072246

DIPOLE MOMENT
-------------
                                X             Y             Z
Electronic contribution:      1.37468      -2.57626      -0.82890
Nuclear contribution   :     -1.59489       3.23282       0.68903
                        -----------------------------------------
Total Dipole Moment    :     -0.22021       0.65657      -0.13987
                        -----------------------------------------
Magnitude (a.u.)       :      0.70650
Magnitude (Debye)      :      1.79577

Rotational constants in cm-1:     0.002398     0.000431     0.000367
Rotational constants in MHz :    71.889792    12.912655    11.011446

                             ****ORCA TERMINATED NORMALLY****
TOTAL RUN TIME: 0 days 0 hours 5 minutes 39 seconds 69 msec
