                         Program Version 4.2.0 -  RELEASE  -
|  1> # ORCA input file
|  2> # SCF done       -208.852677295804          0.000612086679
|  3> ! CAM-B3LYP def2-SVP def2/J RIJCOSX Grid4 TightSCF
|  4> %maxcore 5000
|  5> %tddft
|  6>     Mode sTDDFT
|  7>     Ethresh 5.0
|  8>     maxcore 5000
|  9> end
| 10>
| 11> %pal
| 12>   nprocs 6
| 13>   end
| 14> * xyz 0 1
| 15>    C        1.18527        -0.14307        -0.19908
| 16>    C        0.97110         0.83457        -1.15765
| 17>    C       -0.04134         1.79007        -0.81982
| 18>    C       -0.46413         2.85434        -1.57268
| 19>    C        0.04265         3.19956        -2.84216
| 20>    N        0.39809         3.54776        -3.87524
| 21>    C       -1.48183         3.71386        -1.10366
| 22>    N       -2.30746         4.41549        -0.72958
| 23>    S       -0.74183         1.45317         0.75053
| 24>    C        0.30893         0.02021         0.98385
| 25>    O        0.25371        -0.64644         1.97530
| 26>    C        1.66234         0.90861        -2.37795
| 27>    N        2.24127         0.94227        -3.36870
| 28>    C        2.10611        -1.21358        -0.24429
| 29>    C        2.26453        -2.22269         0.70686
| 30>    C        3.25723        -3.12122         0.35803
| 31>    C        3.87623        -2.80138        -0.87688
| 32>    S        3.22742        -1.40519        -1.60050
| 33>    C        4.86666        -3.76301        -1.14421
| 34>    C        4.89019        -4.70276        -0.08697
| 35>    C        3.85659        -4.34189         0.87495
| 36>    C        3.48909        -5.03755         1.98659
| 37>    C        4.06138        -6.28351         2.33079
| 38>    N        4.47757        -7.31655         2.59918
| 39>    C        2.46498        -4.59607         2.85462
| 40>    N        1.63946        -4.25442         3.57177
| 41>    C        5.86351        -5.67721        -0.24711
| 42>    C        6.57411        -5.49945        -1.43336
| 43>    S        6.02818        -4.10273        -2.34921
| 44>    C        7.61725        -6.31123        -1.91118
| 45>    C        8.23726        -7.37947        -1.24437
| 46>    C        9.25436        -8.00764        -2.03773
| 47>    N        9.94069        -9.06022        -1.59817
| 48>    C        9.66955        -9.47952        -0.38024
| 49>    C       10.40417       -10.67635         0.10554
| 50>    O       11.22876       -11.25151        -0.57128
| 51>    C       10.04464       -11.11630         1.46506
| 52>    C        9.17498       -10.47000         2.24812
| 53>    C        8.47913        -9.23232         1.84981
| 54>    O        7.79936        -8.58916         2.61603
| 55>    C        8.70369        -8.81445         0.43808
| 56>    N        7.99470        -7.79687         0.00100
| 57>    C        9.43029        -7.41375        -3.29544
| 58>    S        8.32788        -6.09211        -3.48612
| 59>    C       10.36051        -7.82334        -4.26209
| 60>    C       10.57333        -7.27348        -5.52247
| 61>    C       11.57732        -7.94240        -6.20379
| 62>    C       12.13440        -9.00708        -5.45614
| 63>    S       11.41857        -9.18269        -3.91457
| 64>    C       13.14688        -9.61349        -6.23729
| 65>    C       13.22415        -8.93807        -7.47552
| 66>    C       12.25280        -7.86054        -7.48800
| 67>    C       12.05680        -6.94604        -8.48072
| 68>    C       12.82370        -6.97577        -9.66492
| 69>    N       13.45760        -7.01919       -10.61932
| 70>    C       11.08807        -5.92559        -8.37753
| 71>    N       10.29351        -5.10442        -8.28675
| 72>    C       14.21049        -9.44255        -8.30847
| 73>    C       14.90429       -10.49333        -7.72239
| 74>    S       14.28241       -10.87642        -6.12248
| 75>    C       15.95705       -11.25725        -8.27381
| 76>    C       16.76343       -10.93999        -9.32441
| 77>    C       17.48985       -12.03755       -10.03044
| 78>    O       17.64138       -13.16872        -9.63521
| 79>    C       17.91078       -11.45407       -11.31879
| 80>    C       18.48568       -12.06856       -12.39416
| 81>    C       18.76148       -11.30798       -13.55266
| 82>    C       18.42747        -9.92214       -13.57737
| 83>    C       18.69159        -9.17327       -14.74168
| 84>    C       19.26457        -9.77064       -15.82921
| 85>    C       19.59754       -11.14045       -15.80288
| 86>    C       19.35200       -11.89405       -14.68931
| 87>    F       20.15691       -11.69942       -16.88323
| 88>    F       19.51568        -9.05875       -16.93422
| 89>    C       17.84188        -9.31062       -12.44550
| 90>    C       17.59684       -10.06486       -11.32962
| 91>    C       17.03132        -9.70452       -10.03210
| 92>    C       17.01832        -8.43667        -9.51284
| 93>    C       16.66628        -8.13177        -8.18353
| 94>    N       16.40403        -7.83924        -7.10469
| 95>    C       17.44157        -7.29402       -10.22548
| 96>    N       17.77994        -6.33569       -10.75722
| 97>    H        1.66805        -2.26883         1.60058
| 98>    H        6.08492        -6.48152         0.43187
| 99>    H       10.55015       -12.01059         1.80376
|100>    H        8.95025       -10.81758         3.24735
|101>    H       10.01280        -6.43383        -5.89315
|102>    H       14.39859        -9.10224        -9.31022
|103>    H       16.10554       -12.25044        -7.86165
|104>    H       18.72341       -13.12092       -12.36358
|105>    H       18.44582        -8.12344       -14.77671
|106>    H       19.61201       -12.94098       -14.68608
|107>    H       17.58672        -8.26402       -12.49349
|108> *
|109>
|110>                          ****END OF INPUT****

CARTESIAN COORDINATES (ANGSTROEM)
---------------------------------
  C      1.185270   -0.143070   -0.199080
  C      0.971100    0.834570   -1.157650
  C     -0.041340    1.790070   -0.819820
  C     -0.464130    2.854340   -1.572680
  C      0.042650    3.199560   -2.842160
  N      0.398090    3.547760   -3.875240
  C     -1.481830    3.713860   -1.103660
  N     -2.307460    4.415490   -0.729580
  S     -0.741830    1.453170    0.750530
  C      0.308930    0.020210    0.983850
  O      0.253710   -0.646440    1.975300
  C      1.662340    0.908610   -2.377950
  N      2.241270    0.942270   -3.368700
  C      2.106110   -1.213580   -0.244290
  C      2.264530   -2.222690    0.706860
  C      3.257230   -3.121220    0.358030
  C      3.876230   -2.801380   -0.876880
  S      3.227420   -1.405190   -1.600500
  C      4.866660   -3.763010   -1.144210
  C      4.890190   -4.702760   -0.086970
  C      3.856590   -4.341890    0.874950
  C      3.489090   -5.037550    1.986590
  C      4.061380   -6.283510    2.330790
  N      4.477570   -7.316550    2.599180
  C      2.464980   -4.596070    2.854620
  N      1.639460   -4.254420    3.571770
  C      5.863510   -5.677210   -0.247110
  C      6.574110   -5.499450   -1.433360
  S      6.028180   -4.102730   -2.349210
  C      7.617250   -6.311230   -1.911180
  C      8.237260   -7.379470   -1.244370
  C      9.254360   -8.007640   -2.037730
  N      9.940690   -9.060220   -1.598170
  C      9.669550   -9.479520   -0.380240
  C     10.404170  -10.676350    0.105540
  O     11.228760  -11.251510   -0.571280
  C     10.044640  -11.116300    1.465060
  C      9.174980  -10.470000    2.248120
  C      8.479130   -9.232320    1.849810
  O      7.799360   -8.589160    2.616030
  C      8.703690   -8.814450    0.438080
  N      7.994700   -7.796870    0.001000
  C      9.430290   -7.413750   -3.295440
  S      8.327880   -6.092110   -3.486120
  C     10.360510   -7.823340   -4.262090
  C     10.573330   -7.273480   -5.522470
  C     11.577320   -7.942400   -6.203790
  C     12.134400   -9.007080   -5.456140
  S     11.418570   -9.182690   -3.914570
  C     13.146880   -9.613490   -6.237290
  C     13.224150   -8.938070   -7.475520
  C     12.252800   -7.860540   -7.488000
  C     12.056800   -6.946040   -8.480720
  C     12.823700   -6.975770   -9.664920
  N     13.457600   -7.019190  -10.619320
  C     11.088070   -5.925590   -8.377530
  N     10.293510   -5.104420   -8.286750
  C     14.210490   -9.442550   -8.308470
  C     14.904290  -10.493330   -7.722390
  S     14.282410  -10.876420   -6.122480
  C     15.957050  -11.257250   -8.273810
  C     16.763430  -10.939990   -9.324410
  C     17.489850  -12.037550  -10.030440
  O     17.641380  -13.168720   -9.635210
  C     17.910780  -11.454070  -11.318790
  C     18.485680  -12.068560  -12.394160
  C     18.761480  -11.307980  -13.552660
  C     18.427470   -9.922140  -13.577370
  C     18.691590   -9.173270  -14.741680
  C     19.264570   -9.770640  -15.829210
  C     19.597540  -11.140450  -15.802880
  C     19.352000  -11.894050  -14.689310
  F     20.156910  -11.699420  -16.883230
  F     19.515680   -9.058750  -16.934220
  C     17.841880   -9.310620  -12.445500
  C     17.596840  -10.064860  -11.329620
  C     17.031320   -9.704520  -10.032100
  C     17.018320   -8.436670   -9.512840
  C     16.666280   -8.131770   -8.183530
  N     16.404030   -7.839240   -7.104690
  C     17.441570   -7.294020  -10.225480
  N     17.779940   -6.335690  -10.757220
  H      1.668050   -2.268830    1.600580
  H      6.084920   -6.481520    0.431870
  H     10.550150  -12.010590    1.803760
  H      8.950250  -10.817580    3.247350
  H     10.012800   -6.433830   -5.893150
  H     14.398590   -9.102240   -9.310220
  H     16.105540  -12.250440   -7.861650
  H     18.723410  -13.120920  -12.363580
  H     18.445820   -8.123440  -14.776710
  H     19.612010  -12.940980  -14.686080
  H     17.586720   -8.264020  -12.493490

 Total Charge           Charge          ....    0
 Multiplicity           Mult            ....    1
 Number of Electrons    NEL             ....  588
 Basis Dimension        Dim             .... 1227

ORBITAL ENERGIES
----------------

  NO   OCC          E(Eh)            E(eV)
   0   2.0000     -89.021383     -2422.3950
   1   2.0000     -89.011886     -2422.1366
   2   2.0000     -89.010911     -2422.1100
   3   2.0000     -89.006330     -2421.9854
   4   2.0000     -89.004587     -2421.9379
   5   2.0000     -88.985874     -2421.4287
   6   2.0000     -24.801734      -674.8895
   7   2.0000     -24.800967      -674.8686
   8   2.0000     -19.264744      -524.2203
   9   2.0000     -19.243638      -523.6460
  10   2.0000     -19.242226      -523.6076
  11   2.0000     -19.223968      -523.1108
  12   2.0000     -14.473284      -393.8381
  13   2.0000     -14.469120      -393.7248
  14   2.0000     -14.442883      -393.0108
  15   2.0000     -14.442801      -393.0086
  16   2.0000     -14.441919      -392.9846
  17   2.0000     -14.439954      -392.9311
  18   2.0000     -14.439136      -392.9089
  19   2.0000     -14.427865      -392.6022
  20   2.0000     -14.426204      -392.5570
  21   2.0000     -14.424213      -392.5028
  22   2.0000     -14.420914      -392.4130
  23   2.0000     -10.428383      -283.7707
  24   2.0000     -10.393422      -282.8194
  25   2.0000     -10.390695      -282.7452
  26   2.0000     -10.385207      -282.5959
  27   2.0000     -10.384719      -282.5826
  28   2.0000     -10.382037      -282.5096
  29   2.0000     -10.381924      -282.5065
  30   2.0000     -10.378082      -282.4020
  31   2.0000     -10.375602      -282.3345
  32   2.0000     -10.369275      -282.1623
  33   2.0000     -10.367165      -282.1049
  34   2.0000     -10.365313      -282.0545
  35   2.0000     -10.363862      -282.0150
  36   2.0000     -10.362298      -281.9725
  37   2.0000     -10.361861      -281.9606
  38   2.0000     -10.361338      -281.9463
  39   2.0000     -10.359919      -281.9077
  40   2.0000     -10.359670      -281.9010
  41   2.0000     -10.357518      -281.8424
  42   2.0000     -10.356597      -281.8173
  43   2.0000     -10.356266      -281.8083
  44   2.0000     -10.354849      -281.7698
  45   2.0000     -10.352902      -281.7168
  46   2.0000     -10.352505      -281.7060
  47   2.0000     -10.351485      -281.6782
  48   2.0000     -10.351203      -281.6706
  49   2.0000     -10.351144      -281.6689
  50   2.0000     -10.349406      -281.6217
  51   2.0000     -10.346050      -281.5303
  52   2.0000     -10.343029      -281.4481
  53   2.0000     -10.342964      -281.4464
  54   2.0000     -10.340625      -281.3827
  55   2.0000     -10.338471      -281.3241
  56   2.0000     -10.338352      -281.3209
  57   2.0000     -10.336288      -281.2647
  58   2.0000     -10.334259      -281.2095
  59   2.0000     -10.329411      -281.0776
  60   2.0000     -10.327984      -281.0387
  61   2.0000     -10.327538      -281.0266
  62   2.0000     -10.327349      -281.0214
  63   2.0000     -10.324507      -280.9441
  64   2.0000     -10.324502      -280.9440
  65   2.0000     -10.323693      -280.9220
  66   2.0000     -10.323459      -280.9156
  67   2.0000     -10.323175      -280.9079
  68   2.0000     -10.322676      -280.8943
  69   2.0000     -10.321998      -280.8758
  70   2.0000     -10.321679      -280.8672
  71   2.0000     -10.318731      -280.7870
  72   2.0000     -10.318100      -280.7698
  73   2.0000     -10.315187      -280.6905
  74   2.0000     -10.314929      -280.6835
  75   2.0000     -10.313498      -280.6445
  76   2.0000     -10.310299      -280.5575
  77   2.0000     -10.308432      -280.5067
  78   2.0000     -10.307339      -280.4770
  79   2.0000     -10.305025      -280.4140
  80   2.0000     -10.303918      -280.3839
  81   2.0000     -10.299951      -280.2759
  82   2.0000      -8.115739      -220.8405
  83   2.0000      -8.106743      -220.5957
  84   2.0000      -8.104983      -220.5478
  85   2.0000      -8.100820      -220.4345
  86   2.0000      -8.097772      -220.3516
  87   2.0000      -8.083247      -219.9563
  88   2.0000      -6.084840      -165.5769
  89   2.0000      -6.080692      -165.4640
  90   2.0000      -6.078395      -165.4015
  91   2.0000      -6.076033      -165.3373
  92   2.0000      -6.074291      -165.2899
  93   2.0000      -6.071872      -165.2240
  94   2.0000      -6.069972      -165.1723
  95   2.0000      -6.069885      -165.1700
  96   2.0000      -6.068925      -165.1438
  97   2.0000      -6.067305      -165.0998
  98   2.0000      -6.067167      -165.0960
  99   2.0000      -6.065779      -165.0582
 100   2.0000      -6.063407      -164.9937
 101   2.0000      -6.062687      -164.9741
 102   2.0000      -6.060092      -164.9035
 103   2.0000      -6.052803      -164.7051
 104   2.0000      -6.048806      -164.5964
 105   2.0000      -6.043936      -164.4638
 106   2.0000      -1.324702       -36.0470
 107   2.0000      -1.309813       -35.6418
 108   2.0000      -1.188536       -32.3417
 109   2.0000      -1.161362       -31.6023
 110   2.0000      -1.156236       -31.4628
 111   2.0000      -1.140070       -31.0229
 112   2.0000      -1.122658       -30.5491
 113   2.0000      -1.066180       -29.0122
 114   2.0000      -1.061241       -28.8778
 115   2.0000      -1.050195       -28.5772
 116   2.0000      -1.046932       -28.4885
 117   2.0000      -1.036815       -28.2132
 118   2.0000      -1.034431       -28.1483
 119   2.0000      -1.032434       -28.0940
 120   2.0000      -1.027982       -27.9728
 121   2.0000      -1.021152       -27.7870
 122   2.0000      -1.020434       -27.7674
 123   2.0000      -1.017813       -27.6961
 124   2.0000      -1.016079       -27.6489
 125   2.0000      -1.010803       -27.5053
 126   2.0000      -1.009507       -27.4701
 127   2.0000      -1.005355       -27.3571
 128   2.0000      -1.001898       -27.2630
 129   2.0000      -1.000950       -27.2372
 130   2.0000      -0.987702       -26.8767
 131   2.0000      -0.977602       -26.6019
 132   2.0000      -0.972514       -26.4635
 133   2.0000      -0.955544       -26.0017
 134   2.0000      -0.945422       -25.7262
 135   2.0000      -0.941092       -25.6084
 136   2.0000      -0.932770       -25.3820
 137   2.0000      -0.924990       -25.1702
 138   2.0000      -0.911133       -24.7932
 139   2.0000      -0.901200       -24.5229
 140   2.0000      -0.898332       -24.4449
 141   2.0000      -0.897452       -24.4209
 142   2.0000      -0.894143       -24.3309
 143   2.0000      -0.888654       -24.1815
 144   2.0000      -0.887484       -24.1497
 145   2.0000      -0.877355       -23.8740
 146   2.0000      -0.872468       -23.7411
 147   2.0000      -0.871302       -23.7093
 148   2.0000      -0.852072       -23.1860
 149   2.0000      -0.845644       -23.0112
 150   2.0000      -0.830031       -22.5863
 151   2.0000      -0.818847       -22.2820
 152   2.0000      -0.812958       -22.1217
 153   2.0000      -0.810892       -22.0655
 154   2.0000      -0.796916       -21.6852
 155   2.0000      -0.791188       -21.5293
 156   2.0000      -0.785361       -21.3708
 157   2.0000      -0.773604       -21.0508
 158   2.0000      -0.765285       -20.8245
 159   2.0000      -0.760507       -20.6944
 160   2.0000      -0.744576       -20.2610
 161   2.0000      -0.741468       -20.1764
 162   2.0000      -0.727799       -19.8044
 163   2.0000      -0.724773       -19.7221
 164   2.0000      -0.721344       -19.6288
 165   2.0000      -0.711938       -19.3728
 166   2.0000      -0.707511       -19.2524
 167   2.0000      -0.702786       -19.1238
 168   2.0000      -0.700590       -19.0640
 169   2.0000      -0.697866       -18.9899
 170   2.0000      -0.695592       -18.9280
 171   2.0000      -0.688495       -18.7349
 172   2.0000      -0.687835       -18.7169
 173   2.0000      -0.680565       -18.5191
 174   2.0000      -0.669364       -18.2143
 175   2.0000      -0.666216       -18.1287
 176   2.0000      -0.659560       -17.9475
 177   2.0000      -0.652258       -17.7488
 178   2.0000      -0.647832       -17.6284
 179   2.0000      -0.647691       -17.6246
 180   2.0000      -0.643224       -17.5030
 181   2.0000      -0.641454       -17.4549
 182   2.0000      -0.635585       -17.2952
 183   2.0000      -0.631271       -17.1778
 184   2.0000      -0.625935       -17.0325
 185   2.0000      -0.622403       -16.9364
 186   2.0000      -0.619153       -16.8480
 187   2.0000      -0.616683       -16.7808
 188   2.0000      -0.603307       -16.4168
 189   2.0000      -0.601487       -16.3673
 190   2.0000      -0.594142       -16.1674
 191   2.0000      -0.589486       -16.0407
 192   2.0000      -0.588988       -16.0272
 193   2.0000      -0.586199       -15.9513
 194   2.0000      -0.579042       -15.7565
 195   2.0000      -0.576134       -15.6774
 196   2.0000      -0.575631       -15.6637
 197   2.0000      -0.574309       -15.6277
 198   2.0000      -0.573134       -15.5958
 199   2.0000      -0.563733       -15.3400
 200   2.0000      -0.563070       -15.3219
 201   2.0000      -0.561782       -15.2869
 202   2.0000      -0.558621       -15.2008
 203   2.0000      -0.554203       -15.0806
 204   2.0000      -0.550502       -14.9799
 205   2.0000      -0.547945       -14.9104
 206   2.0000      -0.547389       -14.8952
 207   2.0000      -0.544364       -14.8129
 208   2.0000      -0.542449       -14.7608
 209   2.0000      -0.541106       -14.7242
 210   2.0000      -0.537061       -14.6142
 211   2.0000      -0.535534       -14.5726
 212   2.0000      -0.527970       -14.3668
 213   2.0000      -0.527539       -14.3551
 214   2.0000      -0.524613       -14.2754
 215   2.0000      -0.522948       -14.2301
 216   2.0000      -0.520474       -14.1628
 217   2.0000      -0.519305       -14.1310
 218   2.0000      -0.518014       -14.0959
 219   2.0000      -0.517306       -14.0766
 220   2.0000      -0.516300       -14.0492
 221   2.0000      -0.515502       -14.0275
 222   2.0000      -0.511614       -13.9217
 223   2.0000      -0.509657       -13.8685
 224   2.0000      -0.509039       -13.8517
 225   2.0000      -0.507757       -13.8168
 226   2.0000      -0.506232       -13.7753
 227   2.0000      -0.500492       -13.6191
 228   2.0000      -0.497769       -13.5450
 229   2.0000      -0.493246       -13.4219
 230   2.0000      -0.491484       -13.3740
 231   2.0000      -0.488965       -13.3054
 232   2.0000      -0.488743       -13.2994
 233   2.0000      -0.487471       -13.2648
 234   2.0000      -0.484131       -13.1739
 235   2.0000      -0.480796       -13.0831
 236   2.0000      -0.474322       -12.9070
 237   2.0000      -0.473394       -12.8817
 238   2.0000      -0.472838       -12.8666
 239   2.0000      -0.471226       -12.8227
 240   2.0000      -0.469783       -12.7835
 241   2.0000      -0.467683       -12.7263
 242   2.0000      -0.467305       -12.7160
 243   2.0000      -0.464938       -12.6516
 244   2.0000      -0.463908       -12.6236
 245   2.0000      -0.461266       -12.5517
 246   2.0000      -0.459553       -12.5051
 247   2.0000      -0.459077       -12.4921
 248   2.0000      -0.458785       -12.4842
 249   2.0000      -0.456530       -12.4228
 250   2.0000      -0.453128       -12.3303
 251   2.0000      -0.451726       -12.2921
 252   2.0000      -0.451415       -12.2836
 253   2.0000      -0.450877       -12.2690
 254   2.0000      -0.450295       -12.2531
 255   2.0000      -0.449108       -12.2208
 256   2.0000      -0.448697       -12.2097
 257   2.0000      -0.445711       -12.1284
 258   2.0000      -0.440015       -11.9734
 259   2.0000      -0.438972       -11.9450
 260   2.0000      -0.437790       -11.9129
 261   2.0000      -0.436858       -11.8875
 262   2.0000      -0.436714       -11.8836
 263   2.0000      -0.433013       -11.7829
 264   2.0000      -0.432756       -11.7759
 265   2.0000      -0.431272       -11.7355
 266   2.0000      -0.430109       -11.7039
 267   2.0000      -0.426783       -11.6134
 268   2.0000      -0.421223       -11.4621
 269   2.0000      -0.418687       -11.3931
 270   2.0000      -0.412761       -11.2318
 271   2.0000      -0.411014       -11.1843
 272   2.0000      -0.409017       -11.1299
 273   2.0000      -0.394959       -10.7474
 274   2.0000      -0.388294       -10.5660
 275   2.0000      -0.387752       -10.5513
 276   2.0000      -0.381883       -10.3916
 277   2.0000      -0.377775       -10.2798
 278   2.0000      -0.375243       -10.2109
 279   2.0000      -0.372454       -10.1350
 280   2.0000      -0.367934       -10.0120
 281   2.0000      -0.362490        -9.8639
 282   2.0000      -0.361838        -9.8461
 283   2.0000      -0.357986        -9.7413
 284   2.0000      -0.354912        -9.6577
 285   2.0000      -0.345010        -9.3882
 286   2.0000      -0.339915        -9.2496
 287   2.0000      -0.338947        -9.2232
 288   2.0000      -0.335264        -9.1230
 289   2.0000      -0.322844        -8.7850
 290   2.0000      -0.318439        -8.6652
 291   2.0000      -0.306281        -8.3343
 292   2.0000      -0.289733        -7.8840
 293   2.0000      -0.254248        -6.9184
 294   0.0000      -0.144484        -3.9316
 295   0.0000      -0.125820        -3.4237
 296   0.0000      -0.114562        -3.1174
 297   0.0000      -0.107926        -2.9368
 298   0.0000      -0.101776        -2.7695

MULLIKEN ATOMIC CHARGES
-----------------------
   0 C :    0.168740
   1 C :   -0.074669
   2 C :    0.076553
   3 C :   -0.291230
   4 C :   -0.191020
   5 N :    0.224923
   6 C :   -0.208610
   7 N :    0.173063
   8 S :    0.127655
   9 C :    0.044189
  10 O :   -0.114955
  11 C :   -0.290673
  12 N :    0.211127
  13 C :   -0.172123
  14 C :   -0.037678
  15 C :    0.034046
  16 C :   -0.061519
  17 S :    0.218991
  18 C :   -0.100219
  19 C :    0.039485
  20 C :    0.306327
  21 C :   -0.287130
  22 C :   -0.196003
  23 N :    0.204064
  24 C :   -0.194635
  25 N :    0.191194
  26 C :   -0.064124
  27 C :   -0.077384
  28 S :    0.200545
  29 C :   -0.129577
  30 C :    0.041348
  31 C :    0.017148
  32 N :    0.033698
  33 C :   -0.112137
  34 C :    0.143490
  35 O :   -0.105795
  36 C :   -0.020354
  37 C :   -0.007926
  38 C :    0.138488
  39 O :   -0.087264
  40 C :   -0.110516
  41 N :    0.065537
  42 C :   -0.114248
  43 S :    0.226977
  44 C :   -0.074136
  45 C :   -0.076141
  46 C :    0.033812
  47 C :   -0.089025
  48 S :    0.255625
  49 C :   -0.073352
  50 C :   -0.001088
  51 C :    0.304215
  52 C :   -0.281986
  53 C :   -0.182888
  54 N :    0.170967
  55 C :   -0.190306
  56 N :    0.176892
  57 C :   -0.006239
  58 C :   -0.114184
  59 S :    0.230430
  60 C :    0.086957
  61 C :   -0.137030
  62 C :    0.136424
  63 O :   -0.138616
  64 C :    0.018311
  65 C :   -0.083613
  66 C :    0.113232
  67 C :    0.110599
  68 C :   -0.105787
  69 C :    0.241707
  70 C :    0.240486
  71 C :   -0.103963
  72 F :   -0.170641
  73 F :   -0.168908
  74 C :   -0.078004
  75 C :    0.031703
  76 C :    0.264690
  77 C :   -0.334551
  78 C :   -0.197351
  79 N :    0.169707
  80 C :   -0.172521
  81 N :    0.164867
  82 H :    0.042092
  83 H :    0.032195
  84 H :    0.022662
  85 H :    0.025835
  86 H :    0.012343
  87 H :    0.027537
  88 H :    0.023115
  89 H :   -0.007694
  90 H :    0.008857
  91 H :    0.000574
  92 H :    0.004393
Sum of atomic charges:   -0.0000000

LOEWDIN ATOMIC CHARGES
----------------------
   0 C :   -0.028976
   1 C :   -0.107338
   2 C :   -0.073629
   3 C :   -0.129467
   4 C :   -0.034475
   5 N :   -0.009768
   6 C :   -0.036932
   7 N :   -0.019686
   8 S :    0.397846
   9 C :   -0.036010
  10 O :   -0.102501
  11 C :   -0.059109
  12 N :   -0.009211
  13 C :   -0.179015
  14 C :    0.015888
  15 C :   -0.071262
  16 C :   -0.150419
  17 S :    0.521448
  18 C :   -0.192555
  19 C :   -0.042917
  20 C :    0.069703
  21 C :   -0.082638
  22 C :   -0.023456
  23 N :   -0.007659
  24 C :   -0.020847
  25 N :   -0.013273
  26 C :   -0.012905
  27 C :   -0.166198
  28 S :    0.475140
  29 C :   -0.198703
  30 C :   -0.036129
  31 C :   -0.053879
  32 N :   -0.009163
  33 C :   -0.036885
  34 C :    0.056389
  35 O :   -0.100958
  36 C :   -0.013380
  37 C :   -0.007262
  38 C :    0.055083
  39 O :   -0.082180
  40 C :   -0.031584
  41 N :    0.007782
  42 C :   -0.181545
  43 S :    0.513821
  44 C :   -0.180453
  45 C :   -0.022885
  46 C :   -0.059265
  47 C :   -0.178625
  48 S :    0.538792
  49 C :   -0.160507
  50 C :   -0.062168
  51 C :    0.081163
  52 C :   -0.096830
  53 C :   -0.012731
  54 N :   -0.029995
  55 C :   -0.016411
  56 N :   -0.029316
  57 C :    0.007393
  58 C :   -0.178831
  59 S :    0.509577
  60 C :    0.043421
  61 C :   -0.087484
  62 C :    0.083187
  63 O :   -0.139756
  64 C :   -0.055372
  65 C :    0.031597
  66 C :   -0.009018
  67 C :   -0.004952
  68 C :   -0.028814
  69 C :    0.067752
  70 C :    0.067850
  71 C :   -0.032807
  72 F :   -0.047970
  73 F :   -0.046667
  74 C :    0.018307
  75 C :   -0.020567
  76 C :    0.064380
  77 C :   -0.134186
  78 C :   -0.015729
  79 N :   -0.045876
  80 C :   -0.019257
  81 N :   -0.043281
  82 H :    0.047408
  83 H :    0.045857
  84 H :    0.047643
  85 H :    0.048915
  86 H :    0.038521
  87 H :    0.042828
  88 H :    0.047020
  89 H :    0.041146
  90 H :    0.048487
  91 H :    0.045137
  92 H :    0.042183

  Mayer bond orders larger than 0.100000
B(  0-C ,  1-C ) :   1.5309 B(  0-C ,  9-C ) :   0.8504 B(  0-C , 13-C ) :   1.2612
B(  1-C ,  2-C ) :   1.1232 B(  1-C , 11-C ) :   1.1624 B(  2-C ,  3-C ) :   1.6679
B(  2-C ,  8-S ) :   1.0525 B(  3-C ,  4-C ) :   1.1668 B(  3-C ,  6-C ) :   1.1313
B(  4-C ,  5-N ) :   3.0255 B(  6-C ,  7-N ) :   3.0329 B(  8-S ,  9-C ) :   1.0244
B(  8-S , 10-O ) :   0.1082 B(  9-C , 10-O ) :   2.1520 B( 11-C , 12-N ) :   2.9585
B( 13-C , 14-C ) :   1.3709 B( 13-C , 17-S ) :   1.0613 B( 14-C , 15-C ) :   1.3232
B( 14-C , 82-H ) :   0.9860 B( 15-C , 16-C ) :   1.3530 B( 15-C , 20-C ) :   0.9888
B( 16-C , 17-S ) :   1.1574 B( 16-C , 18-C ) :   1.2370 B( 18-C , 19-C ) :   1.3949
B( 18-C , 28-S ) :   1.1057 B( 19-C , 20-C ) :   0.9882 B( 19-C , 26-C ) :   1.2928
B( 20-C , 21-C ) :   1.7256 B( 21-C , 22-C ) :   1.1336 B( 21-C , 24-C ) :   1.1364
B( 22-C , 23-N ) :   3.0009 B( 24-C , 25-N ) :   2.9920 B( 26-C , 27-C ) :   1.4297
B( 26-C , 83-H ) :   0.9884 B( 27-C , 28-S ) :   1.0995 B( 27-C , 29-C ) :   1.1993
B( 29-C , 30-C ) :   1.3650 B( 29-C , 42-C ) :   0.1347 B( 29-C , 43-S ) :   1.1425
B( 30-C , 31-C ) :   1.1947 B( 30-C , 41-N ) :   1.4394 B( 31-C , 32-N ) :   1.4255
B( 31-C , 42-C ) :   1.3012 B( 32-N , 33-C ) :   1.6941 B( 33-C , 34-C ) :   0.8910
B( 33-C , 40-C ) :   1.1020 B( 34-C , 35-O ) :   2.2483 B( 34-C , 36-C ) :   1.0240
B( 36-C , 37-C ) :   1.6849 B( 36-C , 84-H ) :   0.9976 B( 37-C , 38-C ) :   1.0212
B( 37-C , 85-H ) :   0.9961 B( 38-C , 39-O ) :   2.2481 B( 38-C , 40-C ) :   0.8856
B( 40-C , 41-N ) :   1.7179 B( 42-C , 43-S ) :   1.1731 B( 42-C , 44-C ) :   1.2528
B( 44-C , 45-C ) :   1.3709 B( 44-C , 48-S ) :   1.1180 B( 45-C , 46-C ) :   1.3380
B( 45-C , 86-H ) :   0.9943 B( 46-C , 47-C ) :   1.3978 B( 46-C , 51-C ) :   0.9898
B( 47-C , 48-S ) :   1.1022 B( 47-C , 49-C ) :   1.2102 B( 49-C , 50-C ) :   1.3986
B( 49-C , 59-S ) :   1.1549 B( 50-C , 51-C ) :   1.0005 B( 50-C , 57-C ) :   1.3639
B( 51-C , 52-C ) :   1.7201 B( 52-C , 53-C ) :   1.1338 B( 52-C , 55-C ) :   1.1314
B( 53-C , 54-N ) :   2.9801 B( 55-C , 56-N ) :   2.9938 B( 57-C , 58-C ) :   1.3937
B( 57-C , 87-H ) :   0.9791 B( 58-C , 59-S ) :   1.0937 B( 58-C , 60-C ) :   1.1339
B( 60-C , 61-C ) :   1.6700 B( 60-C , 88-H ) :   0.9312 B( 61-C , 62-C ) :   0.9399
B( 61-C , 76-C ) :   1.0349 B( 62-C , 63-O ) :   2.2730 B( 62-C , 64-C ) :   0.9172
B( 64-C , 65-C ) :   1.4728 B( 64-C , 75-C ) :   1.2214 B( 65-C , 66-C ) :   1.1943
B( 65-C , 89-H ) :   1.0160 B( 66-C , 67-C ) :   1.2564 B( 66-C , 71-C ) :   1.1939
B( 67-C , 68-C ) :   1.1895 B( 67-C , 74-C ) :   1.2176 B( 68-C , 69-C ) :   1.4421
B( 68-C , 71-C ) :   0.1084 B( 68-C , 90-H ) :   1.0067 B( 69-C , 70-C ) :   1.1907
B( 69-C , 73-F ) :   1.1368 B( 70-C , 71-C ) :   1.4433 B( 70-C , 72-F ) :   1.1336
B( 71-C , 91-H ) :   1.0065 B( 74-C , 75-C ) :   1.4569 B( 74-C , 92-H ) :   0.9942
B( 75-C , 76-C ) :   0.9954 B( 76-C , 77-C ) :   1.6571 B( 77-C , 78-C ) :   1.1706
B( 77-C , 80-C ) :   1.1294 B( 78-C , 79-N ) :   2.9974 B( 80-C , 81-N ) :   2.9939

-----------------------------------------------------------------------------
         ABSORPTION SPECTRUM VIA TRANSITION ELECTRIC DIPOLE MOMENTS
-----------------------------------------------------------------------------
State   Energy  Wavelength   fosc         T2         TX        TY        TZ
        (cm-1)    (nm)                  (au**2)     (au)      (au)      (au)
-----------------------------------------------------------------------------
   0    9733.1   1027.4   1.204687172  40.74710  -4.74922   3.41265   2.55848
   1   12612.7    792.8   0.092210566   2.40684  -0.15510   1.09181  -1.09120
   2   14771.3    677.0   0.113633482   2.53257  -1.07851   0.40696   1.09717
   3   16705.3    598.6   0.396564210   7.81513   1.30225  -2.27304   0.97599
   4   18440.1    542.3   0.144703536   2.58340  -1.02742   0.20506   1.21891
   5   18794.7    532.1   0.212235045   3.71756   0.09246   1.27786  -1.44086
   6   19842.9    504.0   0.306128273   5.07896   1.88632  -0.38202  -1.17253
   7   22138.7    451.7   0.032999424   0.49071  -0.55905   0.36028  -0.21994
   8   24500.6    408.2   0.001973288   0.02651  -0.15391  -0.04090  -0.03396
   9   24705.9    404.8   0.007640576   0.10181  -0.14286  -0.17822  -0.22281
  10   24782.6    403.5   0.047169690   0.62660  -0.40541   0.53814  -0.41552
  11   25438.3    393.1   0.006738504   0.08721   0.14204  -0.16417  -0.20019
  12   25689.7    389.3   0.027495286   0.35235  -0.40217   0.43075   0.07115
  13   25765.4    388.1   0.204678017   2.61523  -1.06263   1.19022   0.26347
  14   26476.1    377.7   0.082964399   1.03161   0.18050  -0.74089   0.67090
  15   26586.0    376.1   0.001081806   0.01340   0.06879   0.09228   0.01216
  16   27101.4    369.0   0.149685698   1.81830  -0.16511   1.04337  -0.83810
  17   27376.0    365.3   0.027367851   0.32911  -0.12971  -0.43211   0.35436
  18   27735.8    360.5   0.170786362   2.02716  -0.76605   1.01186   0.64534
  19   28059.2    356.4   0.421521576   4.94562   1.10245  -0.32280  -1.90421
  20   28166.4    355.0   0.000130652   0.00153  -0.01895  -0.02240   0.02581
  21   28288.6    353.5   0.045546903   0.53006   0.56887  -0.34947   0.29036
  22   28604.8    349.6   0.024511882   0.28211   0.46871  -0.17567  -0.17765
  23   28933.9    345.6   0.174301736   1.98322   0.39826   0.01021  -1.35074
  24   29437.7    339.7   0.114684653   1.28256   0.95856  -0.13079  -0.58874
  25   30094.2    332.3   0.021302876   0.23304  -0.03491   0.42712   0.22224
  26   30177.0    331.4   0.224509477   2.44926  -0.81607   0.15214   1.32670
  27   30272.6    330.3   0.088320801   0.96048   0.55639  -0.57713  -0.56377
  28   30368.8    329.3   0.000078508   0.00085   0.00770  -0.02364  -0.01525
  29   30859.2    324.1   0.082208679   0.87702   0.65947  -0.25615  -0.61360
  30   31344.3    319.0   0.151858333   1.59498  -0.94486   0.79612   0.26157
  31   31500.3    317.5   0.011021258   0.11518   0.27546  -0.09782   0.17245
  32   32062.1    311.9   0.051117577   0.52487  -0.07356   0.37763  -0.61389
  33   32470.9    308.0   0.045539473   0.46171  -0.34602   0.57581  -0.10212
  34   32842.1    304.5   0.474123499   4.75265  -0.02311   1.34202  -1.71788
  35   33089.8    302.2   0.005759905   0.05731  -0.11347   0.06363  -0.20095
  36   33376.5    299.6   0.013823694   0.13635  -0.24360   0.21744   0.17243
  37   33491.5    298.6   0.001270807   0.01249  -0.08318   0.07424   0.00774
  38   33819.7    295.7   0.096771017   0.94200   0.11357  -0.84062  -0.47165
  39   33921.5    294.8   0.122801888   1.19181  -0.39857   0.38790   0.93940
  40   33985.8    294.2   0.113900865   1.10333   0.30650   0.06494  -1.00258
  41   34028.9    293.9   0.112090057   1.08441   0.08662   0.60213  -0.84519
  42   34064.2    293.6   0.006621408   0.06399  -0.01979   0.25122   0.02208
  43   34288.6    291.6   0.085554602   0.82143   0.32763  -0.10071  -0.83901
  44   34686.9    288.3   0.319081763   3.02839   0.34734  -1.07489   1.32377
  45   34743.3    287.8   0.013152504   0.12463   0.01518  -0.33018   0.12401
  46   34841.1    287.0   0.197856487   1.86954  -0.50368   1.23059   0.31860
  47   34947.4    286.1   0.097680024   0.92017   0.47226  -0.35723  -0.75466
  48   35078.9    285.1   0.202270609   1.89829   0.17911   0.37214  -1.31443
  49   35232.0    283.8   0.092925145   0.86830   0.31905  -0.33409  -0.80926
  50   35369.5    282.7   0.297877092   2.77258   0.05286  -1.10539   1.24414
  51   35627.1    280.7   0.083391496   0.77058   0.26559  -0.46235  -0.69733
  52   35906.0    278.5   0.007688654   0.07050   0.06085  -0.05473   0.25258
  53   36081.8    277.1   0.064830304   0.59151  -0.46030   0.58785   0.18458
  54   36616.4    273.1   0.023178667   0.20840   0.29429  -0.32969  -0.11443
  55   36770.2    272.0   0.004336469   0.03883   0.09920  -0.06276   0.15826
  56   36912.3    270.9   0.069058015   0.61591   0.53023  -0.14898  -0.55908
  57   36932.8    270.8   0.032983887   0.29401   0.43079  -0.25180  -0.21220
  58   37019.1    270.1   0.008610736   0.07658  -0.09719  -0.13102  -0.22352
  59   37102.1    269.5   0.000805143   0.00714  -0.07865   0.01670   0.02607
  60   37472.5    266.9   0.065873791   0.57873  -0.55388   0.36821   0.36928
  61   37530.4    266.5   0.009226825   0.08094  -0.21246   0.12111   0.14535
  62   37689.1    265.3   0.041045954   0.35853   0.44812  -0.39527   0.03853
  63   37836.9    264.3   0.007877773   0.06854   0.20615   0.01960   0.16019
  64   37885.8    264.0   0.006983259   0.06068   0.12969  -0.19986   0.06259
  65   38083.7    262.6   0.032906926   0.28446  -0.13352  -0.25193   0.45074
  66   38109.8    262.4   0.073839310   0.63786  -0.41591   0.60562  -0.31323
  67   38208.0    261.7   0.014399509   0.12407  -0.13252   0.08192   0.31591
  68   38275.8    261.3   0.000510471   0.00439  -0.05956   0.02868   0.00453
  69   38444.3    260.1   0.041153416   0.35241   0.00283  -0.58650  -0.09179
  70   38664.7    258.6   0.051035533   0.43454   0.30861  -0.48595   0.32118
  71   38830.6    257.5   0.006381837   0.05411   0.00456  -0.20211   0.11505
  72   38908.2    257.0   0.006198660   0.05245   0.09358  -0.15620   0.13890
  73   39004.4    256.4   0.023598515   0.19918  -0.14952   0.26371  -0.32754
  74   39218.8    255.0   0.012716096   0.10674   0.02834  -0.27614   0.17229
  75   39508.5    253.1   0.027918792   0.23264   0.21398   0.12715  -0.41314
  76   39676.2    252.0   0.148302582   1.23054  -0.55206   0.96119   0.04334
  77   39772.4    251.4   0.049475668   0.40953   0.25438   0.24422  -0.53402
  78   39959.1    250.3   0.138689011   1.14262  -0.06774   0.70093  -0.80420
  79   40075.7    249.5   0.007521806   0.06179   0.01587  -0.07587   0.23618
  80   40196.0    248.8   0.031619618   0.25897   0.33862  -0.33533  -0.17849

FINAL SINGLE POINT ENERGY     -5741.751966376190

DIPOLE MOMENT
-------------
                                X             Y             Z
Electronic contribution:    -14.30790      18.20090      -4.05886
Nuclear contribution   :     16.18835     -22.75632       4.62019
                        -----------------------------------------
Total Dipole Moment    :      1.88044      -4.55543       0.56133
                        -----------------------------------------
Magnitude (a.u.)       :      4.96015
Magnitude (Debye)      :     12.60770

Rotational constants in cm-1:     0.001180     0.000182     0.000159
Rotational constants in MHz :    35.378691     5.442985     4.764188

                             ****ORCA TERMINATED NORMALLY****
TOTAL RUN TIME: 0 days 0 hours 10 minutes 57 seconds 830 msec
