                         Program Version 4.2.0 -  RELEASE  -
|  1> # ORCA input file
|  2> # SCF done       -186.481995075223          0.000903426611
|  3> ! CAM-B3LYP def2-SVP def2/J RIJCOSX Grid4 TightSCF
|  4> %maxcore 5000
|  5> %tddft
|  6>     Mode sTDDFT
|  7>     Ethresh 5.0
|  8>     maxcore 5000
|  9> end
| 10>
| 11> %pal
| 12>   nprocs 6
| 13>   end
| 14> * xyz 0 1
| 15>    C        3.50053        -2.33208         3.36076
| 16>    O        3.02457        -3.19436         4.07024
| 17>    C        4.70256        -1.53783         3.69920
| 18>    C        4.96139        -0.60195         2.68552
| 19>    C        6.05609         0.24043         2.79607
| 20>    C        6.86732         0.13335         3.91989
| 21>    C        6.59610        -0.79628         4.92564
| 22>    C        5.50250        -1.64471         4.81774
| 23>   Br        7.71464        -0.91455         6.44532
| 24>   Br        8.36575         1.27775         4.06916
| 25>    C        3.93255        -0.73666         1.65802
| 26>    C        3.77882         0.10957         0.59250
| 27>    C        4.64508         1.19077         0.31883
| 28>    N        5.31470         2.08072         0.04193
| 29>    C        2.73785         0.07999        -0.36278
| 30>    N        1.93075         0.17187        -1.17443
| 31>    C        3.07631        -1.85923         2.02432
| 32>    C        2.17187        -2.39322         1.14629
| 33>    C        1.19000        -3.42005         1.24531
| 34>    C        0.59042        -3.86121         0.03030
| 35>    O        1.07693        -3.33564        -1.11390
| 36>    C        0.48196        -3.68456        -2.34334
| 37>    C       -0.43199        -4.79564         0.08223
| 38>    C       -0.88119        -5.31782         1.28847
| 39>    C       -0.25468        -4.93006         2.49462
| 40>    C        0.74612        -3.98004         2.45138
| 41>    O       -0.64759        -5.56848         3.62304
| 42>    C       -0.04917        -5.19679         4.84472
| 43>    C       -1.97336        -6.28509         1.29663
| 44>    C       -3.06042        -6.17017         2.17869
| 45>    C       -4.07653        -7.18485         2.26339
| 46>    N       -5.08325        -7.05129         3.16372
| 47>    C       -5.10638        -5.98971         3.91084
| 48>    C       -4.14972        -4.95435         3.76723
| 49>    N       -3.16750        -5.04443         2.92481
| 50>    C       -4.07261        -8.30711         1.41719
| 51>    C       -3.01926        -8.39457         0.49985
| 52>    C       -1.98057        -7.38780         0.43536
| 53>    N       -1.05510        -7.69206        -0.48696
| 54>    S       -1.44904        -9.08540        -1.16896
| 55>    N       -2.78953        -9.39221        -0.36380
| 56>    C       -5.10181        -9.33933         1.49930
| 57>    C       -5.75342        -9.79412         0.33013
| 58>    O       -5.44487        -9.15643        -0.82493
| 59>    C       -6.00610        -9.62915        -2.02654
| 60>    C       -6.69215       -10.79728         0.44616
| 61>    C       -7.00895       -11.39440         1.67853
| 62>    C       -6.40008       -10.88072         2.84779
| 63>    C       -5.45875        -9.86714         2.72931
| 64>    O       -6.80515       -11.39135         4.03472
| 65>    C       -6.30877       -10.82321         5.22715
| 66>    C       -8.00641       -12.41798         1.66591
| 67>    C       -8.33000       -13.42328         2.52570
| 68>    C       -9.66658       -14.06207         2.36806
| 69>    O      -10.43498       -13.92670         1.44504
| 70>    C       -9.86567       -14.85830         3.59920
| 71>    C       -8.69853       -14.80215         4.38221
| 72>    C       -7.68647       -14.02339         3.66966
| 73>    C       -6.34365       -14.04156         3.93996
| 74>    C       -5.36873       -13.50540         3.07617
| 75>    N       -4.54247       -13.10209         2.38949
| 76>    C       -5.77455       -14.64915         5.07707
| 77>    N       -5.26990       -15.09341         6.00751
| 78>    C       -8.65835       -15.45504         5.60237
| 79>    C       -9.78417       -16.15723         6.01848
| 80>    C      -10.93321       -16.21901         5.22858
| 81>    C      -10.97936       -15.56329         4.00462
| 82>   Br      -12.44516       -17.19206         5.81425
| 83>   Br       -9.73572       -17.03646         7.69221
| 84>    H        6.30113         0.96847         2.04004
| 85>    H        5.28192        -2.36983         5.58585
| 86>    H        2.20648        -1.97102         0.14862
| 87>    H        1.02103        -3.11216        -3.09637
| 88>    H       -0.57568        -3.40776        -2.36691
| 89>    H        0.58856        -4.75392        -2.54804
| 90>    H       -0.91514        -5.13287        -0.81943
| 91>    H        1.21779        -3.65119         3.35895
| 92>    H       -0.48616        -5.85373         5.59519
| 93>    H       -0.27517        -4.15675         5.09686
| 94>    H        1.03512        -5.33681         4.82308
| 95>    H       -5.91288        -5.91583         4.62865
| 96>    H       -4.22298        -4.03873         4.33879
| 97>    H       -7.09509        -9.51675        -2.03421
| 98>    H       -5.74252       -10.67562        -2.20488
| 99>    H       -5.57728        -9.01055        -2.81330
|100>    H       -7.19396       -11.17866        -0.42869
|101>    H       -4.95699        -9.48540         3.60157
|102>    H       -6.82725       -11.33846         6.03487
|103>    H       -6.52466        -9.75286         5.27758
|104>    H       -5.23182       -10.98693         5.32835
|105>    H       -8.68944       -12.35891         0.82090
|106>    H       -7.78852       -15.42814         6.23886
|107>    H      -11.86277       -15.60353         3.38644
|108> *
|109>
|110>                          ****END OF INPUT****

CARTESIAN COORDINATES (ANGSTROEM)
---------------------------------
  C      3.500530   -2.332080    3.360760
  O      3.024570   -3.194360    4.070240
  C      4.702560   -1.537830    3.699200
  C      4.961390   -0.601950    2.685520
  C      6.056090    0.240430    2.796070
  C      6.867320    0.133350    3.919890
  C      6.596100   -0.796280    4.925640
  C      5.502500   -1.644710    4.817740
  Br     7.714640   -0.914550    6.445320
  Br     8.365750    1.277750    4.069160
  C      3.932550   -0.736660    1.658020
  C      3.778820    0.109570    0.592500
  C      4.645080    1.190770    0.318830
  N      5.314700    2.080720    0.041930
  C      2.737850    0.079990   -0.362780
  N      1.930750    0.171870   -1.174430
  C      3.076310   -1.859230    2.024320
  C      2.171870   -2.393220    1.146290
  C      1.190000   -3.420050    1.245310
  C      0.590420   -3.861210    0.030300
  O      1.076930   -3.335640   -1.113900
  C      0.481960   -3.684560   -2.343340
  C     -0.431990   -4.795640    0.082230
  C     -0.881190   -5.317820    1.288470
  C     -0.254680   -4.930060    2.494620
  C      0.746120   -3.980040    2.451380
  O     -0.647590   -5.568480    3.623040
  C     -0.049170   -5.196790    4.844720
  C     -1.973360   -6.285090    1.296630
  C     -3.060420   -6.170170    2.178690
  C     -4.076530   -7.184850    2.263390
  N     -5.083250   -7.051290    3.163720
  C     -5.106380   -5.989710    3.910840
  C     -4.149720   -4.954350    3.767230
  N     -3.167500   -5.044430    2.924810
  C     -4.072610   -8.307110    1.417190
  C     -3.019260   -8.394570    0.499850
  C     -1.980570   -7.387800    0.435360
  N     -1.055100   -7.692060   -0.486960
  S     -1.449040   -9.085400   -1.168960
  N     -2.789530   -9.392210   -0.363800
  C     -5.101810   -9.339330    1.499300
  C     -5.753420   -9.794120    0.330130
  O     -5.444870   -9.156430   -0.824930
  C     -6.006100   -9.629150   -2.026540
  C     -6.692150  -10.797280    0.446160
  C     -7.008950  -11.394400    1.678530
  C     -6.400080  -10.880720    2.847790
  C     -5.458750   -9.867140    2.729310
  O     -6.805150  -11.391350    4.034720
  C     -6.308770  -10.823210    5.227150
  C     -8.006410  -12.417980    1.665910
  C     -8.330000  -13.423280    2.525700
  C     -9.666580  -14.062070    2.368060
  O    -10.434980  -13.926700    1.445040
  C     -9.865670  -14.858300    3.599200
  C     -8.698530  -14.802150    4.382210
  C     -7.686470  -14.023390    3.669660
  C     -6.343650  -14.041560    3.939960
  C     -5.368730  -13.505400    3.076170
  N     -4.542470  -13.102090    2.389490
  C     -5.774550  -14.649150    5.077070
  N     -5.269900  -15.093410    6.007510
  C     -8.658350  -15.455040    5.602370
  C     -9.784170  -16.157230    6.018480
  C    -10.933210  -16.219010    5.228580
  C    -10.979360  -15.563290    4.004620
  Br   -12.445160  -17.192060    5.814250
  Br    -9.735720  -17.036460    7.692210
  H      6.301130    0.968470    2.040040
  H      5.281920   -2.369830    5.585850
  H      2.206480   -1.971020    0.148620
  H      1.021030   -3.112160   -3.096370
  H     -0.575680   -3.407760   -2.366910
  H      0.588560   -4.753920   -2.548040
  H     -0.915140   -5.132870   -0.819430
  H      1.217790   -3.651190    3.358950
  H     -0.486160   -5.853730    5.595190
  H     -0.275170   -4.156750    5.096860
  H      1.035120   -5.336810    4.823080
  H     -5.912880   -5.915830    4.628650
  H     -4.222980   -4.038730    4.338790
  H     -7.095090   -9.516750   -2.034210
  H     -5.742520  -10.675620   -2.204880
  H     -5.577280   -9.010550   -2.813300
  H     -7.193960  -11.178660   -0.428690
  H     -4.956990   -9.485400    3.601570
  H     -6.827250  -11.338460    6.034870
  H     -6.524660   -9.752860    5.277580
  H     -5.231820  -10.986930    5.328350
  H     -8.689440  -12.358910    0.820900
  H     -7.788520  -15.428140    6.238860
  H    -11.862770  -15.603530    3.386440

 Total Charge           Charge          ....    0
 Multiplicity           Mult            ....    1
 Number of Electrons    NEL             ....  584
 Basis Dimension        Dim             .... 1162

ORBITAL ENERGIES
----------------

  NO   OCC          E(Eh)            E(eV)
   0   2.0000    -482.875705    -13139.7160
   1   2.0000    -482.873970    -13139.6687
   2   2.0000    -482.873555    -13139.6575
   3   2.0000    -482.873389    -13139.6529
   4   2.0000     -89.036767     -2422.8136
   5   2.0000     -62.553289     -1702.1615
   6   2.0000     -62.551581     -1702.1150
   7   2.0000     -62.551150     -1702.1033
   8   2.0000     -62.551021     -1702.0998
   9   2.0000     -56.387235     -1534.3747
  10   2.0000     -56.385525     -1534.3281
  11   2.0000     -56.385110     -1534.3168
  12   2.0000     -56.384976     -1534.3132
  13   2.0000     -56.384592     -1534.3027
  14   2.0000     -56.384495     -1534.3001
  15   2.0000     -56.382875     -1534.2560
  16   2.0000     -56.382793     -1534.2538
  17   2.0000     -56.382445     -1534.2443
  18   2.0000     -56.382350     -1534.2417
  19   2.0000     -56.382319     -1534.2409
  20   2.0000     -56.382221     -1534.2382
  21   2.0000     -19.264165      -524.2046
  22   2.0000     -19.257579      -524.0254
  23   2.0000     -19.247854      -523.7607
  24   2.0000     -19.242681      -523.6200
  25   2.0000     -19.223372      -523.0945
  26   2.0000     -19.217989      -522.9481
  27   2.0000     -14.441061      -392.9612
  28   2.0000     -14.440632      -392.9496
  29   2.0000     -14.432733      -392.7346
  30   2.0000     -14.430079      -392.6624
  31   2.0000     -14.417230      -392.3128
  32   2.0000     -14.414717      -392.2444
  33   2.0000     -14.414585      -392.2408
  34   2.0000     -14.412296      -392.1785
  35   2.0000     -10.375083      -282.3204
  36   2.0000     -10.367691      -282.1192
  37   2.0000     -10.351846      -281.6881
  38   2.0000     -10.351451      -281.6773
  39   2.0000     -10.350886      -281.6619
  40   2.0000     -10.349473      -281.6235
  41   2.0000     -10.345560      -281.5170
  42   2.0000     -10.345148      -281.5058
  43   2.0000     -10.343614      -281.4640
  44   2.0000     -10.342146      -281.4241
  45   2.0000     -10.341845      -281.4159
  46   2.0000     -10.337472      -281.2969
  47   2.0000     -10.336549      -281.2718
  48   2.0000     -10.334069      -281.2043
  49   2.0000     -10.332718      -281.1675
  50   2.0000     -10.330577      -281.1093
  51   2.0000     -10.329769      -281.0873
  52   2.0000     -10.328906      -281.0638
  53   2.0000     -10.328401      -281.0501
  54   2.0000     -10.328035      -281.0401
  55   2.0000     -10.327130      -281.0155
  56   2.0000     -10.327113      -281.0150
  57   2.0000     -10.326847      -281.0078
  58   2.0000     -10.319579      -280.8100
  59   2.0000     -10.318910      -280.7918
  60   2.0000     -10.317418      -280.7512
  61   2.0000     -10.317347      -280.7493
  62   2.0000     -10.314621      -280.6751
  63   2.0000     -10.313973      -280.6575
  64   2.0000     -10.313698      -280.6500
  65   2.0000     -10.313074      -280.6330
  66   2.0000     -10.312444      -280.6159
  67   2.0000     -10.309462      -280.5347
  68   2.0000     -10.308722      -280.5146
  69   2.0000     -10.308672      -280.5132
  70   2.0000     -10.307405      -280.4788
  71   2.0000     -10.304792      -280.4076
  72   2.0000     -10.302655      -280.3495
  73   2.0000     -10.300467      -280.2899
  74   2.0000     -10.298930      -280.2481
  75   2.0000     -10.298321      -280.2315
  76   2.0000     -10.298098      -280.2255
  77   2.0000     -10.296023      -280.1690
  78   2.0000     -10.294034      -280.1149
  79   2.0000     -10.293876      -280.1106
  80   2.0000     -10.290122      -280.0085
  81   2.0000     -10.281608      -279.7768
  82   2.0000     -10.279677      -279.7242
  83   2.0000     -10.278416      -279.6899
  84   2.0000     -10.271684      -279.5067
  85   2.0000      -8.782585      -238.9863
  86   2.0000      -8.780895      -238.9403
  87   2.0000      -8.780450      -238.9282
  88   2.0000      -8.780347      -238.9254
  89   2.0000      -8.128118      -221.1773
  90   2.0000      -6.618675      -180.1033
  91   2.0000      -6.617003      -180.0578
  92   2.0000      -6.616594      -180.0467
  93   2.0000      -6.616489      -180.0438
  94   2.0000      -6.604727      -179.7238
  95   2.0000      -6.603951      -179.7026
  96   2.0000      -6.602999      -179.6767
  97   2.0000      -6.602563      -179.6649
  98   2.0000      -6.602452      -179.6619
  99   2.0000      -6.602282      -179.6572
 100   2.0000      -6.601785      -179.6437
 101   2.0000      -6.601699      -179.6413
 102   2.0000      -6.098969      -165.9614
 103   2.0000      -6.091408      -165.7556
 104   2.0000      -6.091185      -165.7496
 105   2.0000      -2.734612       -74.4126
 106   2.0000      -2.732891       -74.3657
 107   2.0000      -2.732514       -74.3555
 108   2.0000      -2.732342       -74.3508
 109   2.0000      -2.730814       -74.3092
 110   2.0000      -2.730245       -74.2938
 111   2.0000      -2.729145       -74.2638
 112   2.0000      -2.728705       -74.2518
 113   2.0000      -2.728629       -74.2498
 114   2.0000      -2.728588       -74.2487
 115   2.0000      -2.728133       -74.2363
 116   2.0000      -2.728056       -74.2342
 117   2.0000      -2.719137       -73.9915
 118   2.0000      -2.719120       -73.9910
 119   2.0000      -2.717445       -73.9454
 120   2.0000      -2.717434       -73.9451
 121   2.0000      -2.716954       -73.9321
 122   2.0000      -2.716944       -73.9318
 123   2.0000      -2.716866       -73.9297
 124   2.0000      -2.716860       -73.9295
 125   2.0000      -1.168620       -31.7998
 126   2.0000      -1.163607       -31.6633
 127   2.0000      -1.155090       -31.4316
 128   2.0000      -1.149429       -31.2775
 129   2.0000      -1.138191       -30.9717
 130   2.0000      -1.133249       -30.8373
 131   2.0000      -1.131104       -30.7789
 132   2.0000      -1.088100       -29.6087
 133   2.0000      -1.022129       -27.8135
 134   2.0000      -1.020197       -27.7610
 135   2.0000      -1.013491       -27.5785
 136   2.0000      -1.006297       -27.3827
 137   2.0000      -1.005260       -27.3545
 138   2.0000      -0.993644       -27.0384
 139   2.0000      -0.993029       -27.0217
 140   2.0000      -0.984940       -26.8016
 141   2.0000      -0.975852       -26.5543
 142   2.0000      -0.974048       -26.5052
 143   2.0000      -0.971846       -26.4453
 144   2.0000      -0.960652       -26.1407
 145   2.0000      -0.950816       -25.8730
 146   2.0000      -0.919161       -25.0116
 147   2.0000      -0.917007       -24.9530
 148   2.0000      -0.913111       -24.8470
 149   2.0000      -0.910606       -24.7788
 150   2.0000      -0.907449       -24.6929
 151   2.0000      -0.901166       -24.5220
 152   2.0000      -0.884806       -24.0768
 153   2.0000      -0.875653       -23.8277
 154   2.0000      -0.872141       -23.7322
 155   2.0000      -0.854935       -23.2640
 156   2.0000      -0.853634       -23.2286
 157   2.0000      -0.850731       -23.1496
 158   2.0000      -0.849512       -23.1164
 159   2.0000      -0.849020       -23.1030
 160   2.0000      -0.834454       -22.7066
 161   2.0000      -0.820247       -22.3200
 162   2.0000      -0.815998       -22.2044
 163   2.0000      -0.809510       -22.0279
 164   2.0000      -0.792905       -21.5760
 165   2.0000      -0.780835       -21.2476
 166   2.0000      -0.779173       -21.2024
 167   2.0000      -0.766752       -20.8644
 168   2.0000      -0.765270       -20.8240
 169   2.0000      -0.762690       -20.7539
 170   2.0000      -0.756139       -20.5756
 171   2.0000      -0.745875       -20.2963
 172   2.0000      -0.736300       -20.0357
 173   2.0000      -0.720478       -19.6052
 174   2.0000      -0.707519       -19.2526
 175   2.0000      -0.705184       -19.1890
 176   2.0000      -0.698651       -19.0113
 177   2.0000      -0.693737       -18.8775
 178   2.0000      -0.689889       -18.7728
 179   2.0000      -0.683863       -18.6089
 180   2.0000      -0.677655       -18.4399
 181   2.0000      -0.670210       -18.2373
 182   2.0000      -0.664221       -18.0744
 183   2.0000      -0.659053       -17.9337
 184   2.0000      -0.654431       -17.8080
 185   2.0000      -0.640936       -17.4408
 186   2.0000      -0.638566       -17.3763
 187   2.0000      -0.630305       -17.1515
 188   2.0000      -0.619693       -16.8627
 189   2.0000      -0.616784       -16.7835
 190   2.0000      -0.615762       -16.7557
 191   2.0000      -0.613491       -16.6939
 192   2.0000      -0.608815       -16.5667
 193   2.0000      -0.607945       -16.5430
 194   2.0000      -0.602889       -16.4054
 195   2.0000      -0.596925       -16.2431
 196   2.0000      -0.592235       -16.1155
 197   2.0000      -0.579080       -15.7576
 198   2.0000      -0.576264       -15.6809
 199   2.0000      -0.573425       -15.6037
 200   2.0000      -0.567724       -15.4486
 201   2.0000      -0.564414       -15.3585
 202   2.0000      -0.562560       -15.3080
 203   2.0000      -0.560259       -15.2454
 204   2.0000      -0.557974       -15.1833
 205   2.0000      -0.557202       -15.1622
 206   2.0000      -0.553069       -15.0498
 207   2.0000      -0.550742       -14.9864
 208   2.0000      -0.548128       -14.9153
 209   2.0000      -0.546669       -14.8756
 210   2.0000      -0.542779       -14.7698
 211   2.0000      -0.542348       -14.7580
 212   2.0000      -0.539705       -14.6861
 213   2.0000      -0.538032       -14.6406
 214   2.0000      -0.536757       -14.6059
 215   2.0000      -0.533257       -14.5106
 216   2.0000      -0.531090       -14.4517
 217   2.0000      -0.529577       -14.4105
 218   2.0000      -0.523629       -14.2487
 219   2.0000      -0.522081       -14.2065
 220   2.0000      -0.520475       -14.1629
 221   2.0000      -0.513633       -13.9767
 222   2.0000      -0.508094       -13.8259
 223   2.0000      -0.502369       -13.6702
 224   2.0000      -0.500686       -13.6244
 225   2.0000      -0.498050       -13.5526
 226   2.0000      -0.496383       -13.5073
 227   2.0000      -0.494019       -13.4429
 228   2.0000      -0.492066       -13.3898
 229   2.0000      -0.491203       -13.3663
 230   2.0000      -0.489020       -13.3069
 231   2.0000      -0.488465       -13.2918
 232   2.0000      -0.484561       -13.1856
 233   2.0000      -0.482582       -13.1317
 234   2.0000      -0.478414       -13.0183
 235   2.0000      -0.476822       -12.9750
 236   2.0000      -0.472242       -12.8504
 237   2.0000      -0.461534       -12.5590
 238   2.0000      -0.461152       -12.5486
 239   2.0000      -0.459196       -12.4953
 240   2.0000      -0.459108       -12.4930
 241   2.0000      -0.453993       -12.3538
 242   2.0000      -0.450488       -12.2584
 243   2.0000      -0.449096       -12.2205
 244   2.0000      -0.446503       -12.1500
 245   2.0000      -0.443784       -12.0760
 246   2.0000      -0.442379       -12.0377
 247   2.0000      -0.441214       -12.0060
 248   2.0000      -0.439138       -11.9496
 249   2.0000      -0.434640       -11.8271
 250   2.0000      -0.432269       -11.7626
 251   2.0000      -0.428445       -11.6586
 252   2.0000      -0.426474       -11.6049
 253   2.0000      -0.426220       -11.5980
 254   2.0000      -0.423240       -11.5170
 255   2.0000      -0.422880       -11.5072
 256   2.0000      -0.421453       -11.4683
 257   2.0000      -0.420568       -11.4442
 258   2.0000      -0.418066       -11.3762
 259   2.0000      -0.414705       -11.2847
 260   2.0000      -0.410389       -11.1672
 261   2.0000      -0.408948       -11.1280
 262   2.0000      -0.406374       -11.0580
 263   2.0000      -0.401837       -10.9345
 264   2.0000      -0.399563       -10.8727
 265   2.0000      -0.398861       -10.8536
 266   2.0000      -0.397695       -10.8218
 267   2.0000      -0.397406       -10.8140
 268   2.0000      -0.394145       -10.7252
 269   2.0000      -0.391666       -10.6578
 270   2.0000      -0.388375       -10.5682
 271   2.0000      -0.387705       -10.5500
 272   2.0000      -0.375331       -10.2133
 273   2.0000      -0.372672       -10.1409
 274   2.0000      -0.365589        -9.9482
 275   2.0000      -0.357534        -9.7290
 276   2.0000      -0.354245        -9.6395
 277   2.0000      -0.347478        -9.4553
 278   2.0000      -0.346143        -9.4190
 279   2.0000      -0.341260        -9.2862
 280   2.0000      -0.338919        -9.2224
 281   2.0000      -0.336274        -9.1505
 282   2.0000      -0.335318        -9.1245
 283   2.0000      -0.333661        -9.0794
 284   2.0000      -0.327412        -8.9093
 285   2.0000      -0.315404        -8.5826
 286   2.0000      -0.312548        -8.5049
 287   2.0000      -0.305711        -8.3188
 288   2.0000      -0.301016        -8.1911
 289   2.0000      -0.286019        -7.7830
 290   2.0000      -0.273325        -7.4376
 291   2.0000      -0.259922        -7.0728
 292   0.0000      -0.102078        -2.7777
 293   0.0000      -0.083573        -2.2741
 294   0.0000      -0.078478        -2.1355
 295   0.0000      -0.065153        -1.7729
 296   0.0000      -0.060335        -1.6418

MULLIKEN ATOMIC CHARGES
-----------------------
   0 C :    0.159785
   1 O :   -0.158861
   2 C :   -0.004866
   3 C :    0.032998
   4 C :   -0.008801
   5 C :   -0.026209
   6 C :   -0.013866
   7 C :   -0.025671
   8 Br:    0.010958
   9 Br:    0.019607
  10 C :    0.296890
  11 C :   -0.343927
  12 C :   -0.194759
  13 N :    0.152594
  14 C :   -0.201845
  15 N :    0.167258
  16 C :   -0.060596
  17 C :   -0.020585
  18 C :    0.027259
  19 C :    0.237267
  20 O :   -0.303765
  21 C :    0.178725
  22 C :   -0.107288
  23 C :   -0.024898
  24 C :    0.249984
  25 C :   -0.154579
  26 O :   -0.310983
  27 C :    0.182466
  28 C :    0.075804
  29 C :   -0.055891
  30 C :   -0.062920
  31 N :   -0.016623
  32 C :    0.022885
  33 C :    0.019588
  34 N :    0.005597
  35 C :    0.080879
  36 C :    0.009082
  37 C :    0.001184
  38 N :   -0.283653
  39 S :    0.532733
  40 N :   -0.256539
  41 C :   -0.019351
  42 C :    0.263367
  43 O :   -0.305042
  44 C :    0.179598
  45 C :   -0.170540
  46 C :    0.093885
  47 C :    0.194649
  48 C :   -0.070193
  49 O :   -0.312931
  50 C :    0.172853
  51 C :   -0.003011
  52 C :   -0.100999
  53 C :    0.130804
  54 O :   -0.139815
  55 C :    0.003284
  56 C :    0.026606
  57 C :    0.305874
  58 C :   -0.328250
  59 C :   -0.212789
  60 N :    0.179107
  61 C :   -0.192561
  62 N :    0.153980
  63 C :   -0.023051
  64 C :   -0.019849
  65 C :   -0.017359
  66 C :   -0.025624
  67 Br:    0.007884
  68 Br:    0.015370
  69 H :    0.008666
  70 H :    0.003604
  71 H :    0.035129
  72 H :    0.048857
  73 H :    0.028804
  74 H :    0.030955
  75 H :   -0.032061
  76 H :   -0.022287
  77 H :    0.028144
  78 H :    0.023384
  79 H :    0.039400
  80 H :    0.013422
  81 H :    0.014057
  82 H :    0.024327
  83 H :    0.029255
  84 H :    0.033289
  85 H :   -0.033219
  86 H :   -0.035982
  87 H :    0.042552
  88 H :    0.036291
  89 H :    0.038844
  90 H :    0.020659
  91 H :    0.006122
  92 H :    0.005470
Sum of atomic charges:    0.0000000

LOEWDIN ATOMIC CHARGES
----------------------
   0 C :    0.089269
   1 O :   -0.143459
   2 C :   -0.041071
   3 C :   -0.012000
   4 C :   -0.007430
   5 C :   -0.119218
   6 C :   -0.123464
   7 C :    0.004522
   8 Br:    0.134671
   9 Br:    0.139189
  10 C :    0.076366
  11 C :   -0.135716
  12 C :   -0.018634
  13 N :   -0.050118
  14 C :   -0.026638
  15 N :   -0.045917
  16 C :   -0.105986
  17 C :    0.095321
  18 C :   -0.063304
  19 C :    0.071967
  20 O :   -0.086387
  21 C :    0.082036
  22 C :   -0.048524
  23 C :    0.004750
  24 C :    0.048999
  25 C :   -0.028454
  26 O :   -0.098733
  27 C :    0.078059
  28 C :   -0.013458
  29 C :   -0.003588
  30 C :   -0.008395
  31 N :   -0.035279
  32 C :    0.006091
  33 C :    0.004882
  34 N :   -0.019840
  35 C :   -0.007540
  36 C :   -0.042162
  37 C :   -0.042523
  38 N :   -0.301015
  39 S :    0.677897
  40 N :   -0.275106
  41 C :   -0.002417
  42 C :    0.055674
  43 O :   -0.094507
  44 C :    0.077443
  45 C :   -0.042405
  46 C :   -0.050860
  47 C :    0.060853
  48 C :   -0.027243
  49 O :   -0.077134
  50 C :    0.079265
  51 C :    0.077738
  52 C :   -0.092756
  53 C :    0.085765
  54 O :   -0.138212
  55 C :   -0.046020
  56 C :   -0.005770
  57 C :    0.065304
  58 C :   -0.129273
  59 C :   -0.020441
  60 N :   -0.044563
  61 C :   -0.021688
  62 N :   -0.053196
  63 C :   -0.014570
  64 C :   -0.118331
  65 C :   -0.126982
  66 C :    0.006743
  67 Br:    0.132188
  68 Br:    0.136827
  69 H :    0.044710
  70 H :    0.044762
  71 H :    0.046217
  72 H :    0.034490
  73 H :    0.019143
  74 H :    0.019038
  75 H :    0.031262
  76 H :    0.028571
  77 H :    0.025862
  78 H :    0.016726
  79 H :    0.022178
  80 H :    0.025849
  81 H :    0.026843
  82 H :    0.015233
  83 H :    0.018335
  84 H :    0.028108
  85 H :    0.031348
  86 H :    0.031371
  87 H :    0.031045
  88 H :    0.021721
  89 H :    0.021341
  90 H :    0.045624
  91 H :    0.042984
  92 H :    0.045747

  Mayer bond orders larger than 0.100000
B(  0-C ,  1-O ) :   2.1587 B(  0-C ,  2-C ) :   0.9558 B(  0-C , 16-C ) :   0.9426
B(  2-C ,  3-C ) :   1.3329 B(  2-C ,  7-C ) :   1.3682 B(  3-C ,  4-C ) :   1.3633
B(  3-C , 10-C ) :   0.9867 B(  4-C ,  5-C ) :   1.3715 B(  4-C , 69-H ) :   0.9793
B(  5-C ,  6-C ) :   1.4224 B(  5-C ,  9-Br) :   1.0564 B(  6-C ,  7-C ) :   1.3513
B(  6-C ,  8-Br) :   1.0317 B(  7-C , 70-H ) :   1.0086 B( 10-C , 11-C ) :   1.6380
B( 10-C , 16-C ) :   1.0793 B( 11-C , 12-C ) :   1.1459 B( 11-C , 14-C ) :   1.1343
B( 12-C , 13-N ) :   2.9717 B( 14-C , 15-N ) :   2.9976 B( 16-C , 17-C ) :   1.5262
B( 17-C , 18-C ) :   1.2072 B( 17-C , 71-H ) :   0.9263 B( 18-C , 19-C ) :   1.2743
B( 18-C , 25-C ) :   1.2722 B( 19-C , 20-O ) :   1.1701 B( 19-C , 22-C ) :   1.2840
B( 20-O , 21-C ) :   0.9477 B( 21-C , 72-H ) :   0.9771 B( 21-C , 73-H ) :   0.9697
B( 21-C , 74-H ) :   0.9699 B( 22-C , 23-C ) :   1.3751 B( 22-C , 75-H ) :   0.9976
B( 23-C , 24-C ) :   1.3510 B( 23-C , 28-C ) :   0.9393 B( 24-C , 25-C ) :   1.3132
B( 24-C , 26-O ) :   1.1648 B( 25-C , 76-H ) :   0.9760 B( 26-O , 27-C ) :   0.9568
B( 27-C , 77-H ) :   0.9761 B( 27-C , 78-H ) :   0.9679 B( 27-C , 79-H ) :   0.9681
B( 28-C , 29-C ) :   1.3633 B( 28-C , 35-C ) :   0.1480 B( 28-C , 37-C ) :   1.2909
B( 29-C , 30-C ) :   1.0981 B( 29-C , 34-N ) :   1.4259 B( 30-C , 31-N ) :   1.4195
B( 30-C , 35-C ) :   1.3684 B( 31-N , 32-C ) :   1.7256 B( 32-C , 33-C ) :   1.1531
B( 32-C , 80-H ) :   0.9723 B( 33-C , 34-N ) :   1.7330 B( 33-C , 81-H ) :   0.9730
B( 35-C , 36-C ) :   1.2787 B( 35-C , 41-C ) :   0.9395 B( 36-C , 37-C ) :   1.1052
B( 36-C , 40-N ) :   1.4859 B( 37-C , 38-N ) :   1.4780 B( 38-N , 39-S ) :   1.2917
B( 38-N , 40-N ) :   0.1659 B( 39-S , 40-N ) :   1.3160 B( 41-C , 42-C ) :   1.3425
B( 41-C , 48-C ) :   1.4044 B( 42-C , 43-O ) :   1.1706 B( 42-C , 45-C ) :   1.3036
B( 43-O , 44-C ) :   0.9627 B( 44-C , 82-H ) :   0.9684 B( 44-C , 83-H ) :   0.9681
B( 44-C , 84-H ) :   0.9780 B( 45-C , 46-C ) :   1.2604 B( 45-C , 85-H ) :   1.0052
B( 46-C , 47-C ) :   1.3153 B( 46-C , 51-C ) :   1.1044 B( 47-C , 48-C ) :   1.2743
B( 47-C , 49-O ) :   1.1600 B( 48-C , 86-H ) :   0.9897 B( 49-O , 50-C ) :   0.9411
B( 50-C , 87-H ) :   0.9761 B( 50-C , 88-H ) :   0.9706 B( 50-C , 89-H ) :   0.9689
B( 51-C , 52-C ) :   1.6436 B( 51-C , 90-H ) :   0.9337 B( 52-C , 53-C ) :   0.9460
B( 52-C , 57-C ) :   1.0473 B( 53-C , 54-O ) :   2.2558 B( 53-C , 55-C ) :   0.9239
B( 55-C , 56-C ) :   1.3257 B( 55-C , 66-C ) :   1.3749 B( 56-C , 57-C ) :   1.0034
B( 56-C , 63-C ) :   1.3691 B( 57-C , 58-C ) :   1.6466 B( 58-C , 59-C ) :   1.1706
B( 58-C , 61-C ) :   1.1365 B( 59-C , 60-N ) :   3.0013 B( 61-C , 62-N ) :   2.9800
B( 63-C , 64-C ) :   1.3657 B( 63-C , 91-H ) :   0.9821 B( 64-C , 65-C ) :   1.4269
B( 64-C , 68-Br) :   1.0497 B( 65-C , 66-C ) :   1.3535 B( 65-C , 67-Br) :   1.0292
B( 66-C , 92-H ) :   1.0077

-----------------------------------------------------------------------------
         ABSORPTION SPECTRUM VIA TRANSITION ELECTRIC DIPOLE MOMENTS
-----------------------------------------------------------------------------
State   Energy  Wavelength   fosc         T2         TX        TY        TZ
        (cm-1)    (nm)                  (au**2)     (au)      (au)      (au)
-----------------------------------------------------------------------------
   0   16940.5    590.3   0.666316745  12.94879   2.50111   2.58417   0.12381
   1   19453.2    514.1   0.037109318   0.62801   0.29604   0.64404  -0.35437
   2   22060.1    453.3   0.434517556   6.48448   1.72397   1.86887   0.14051
   3   22631.5    441.9   0.254125792   3.69667   1.02301   1.41833  -0.79903
   4   23062.7    433.6   0.126673230   1.80822  -0.31463  -1.20730   0.50165
   5   25033.2    399.5   0.068056246   0.89501   0.73133   0.60000   0.01323
   6   25605.6    390.5   0.072742004   0.93525   0.60677   0.12536   0.74254
   7   27016.5    370.1   0.044026796   0.53649   0.52177  -0.26137   0.44264
   8   27420.0    364.7   0.098226749   1.17934   0.73018   0.77352  -0.21874
   9   27884.4    358.6   0.037713084   0.44525   0.51561   0.32470   0.27197
  10   28282.0    353.6   0.001529983   0.01781   0.04547   0.11060   0.05923
  11   29343.6    340.8   0.059001487   0.66195  -0.14968   0.73206  -0.32193
  12   30186.4    331.3   0.014701380   0.16033  -0.21560  -0.31308  -0.12581
  13   30515.5    327.7   0.047911154   0.51688  -0.10901   0.63075  -0.32734
  14   30788.4    324.8   0.077252892   0.82604   0.64715   0.00993   0.63808
  15   31237.7    320.1   0.025953266   0.27352  -0.32303  -0.14450   0.38509
  16   31343.9    319.0   0.083632953   0.87841  -0.46006   0.17577  -0.79741
  17   31643.8    316.0   0.041837801   0.43527   0.61317   0.24147  -0.03137
  18   32406.2    308.6   0.248839434   2.52794  -0.53622   1.08424   1.03191
  19   32636.3    306.4   0.092675972   0.93485  -0.91537  -0.18132  -0.25311
  20   32851.2    304.4   0.101900015   1.02117   0.57565  -0.26591  -0.78682
  21   32978.6    303.2   0.376341349   3.75686   1.67467   0.90911  -0.35475
  22   33160.9    301.6   0.007108302   0.07057  -0.07033   0.18468  -0.17753
  23   33459.3    298.9   0.036778059   0.36187  -0.30398  -0.44666   0.26450
  24   33847.2    295.4   0.057048993   0.55488  -0.24537  -0.58431   0.39148
  25   34393.0    290.8   0.051635778   0.49426   0.17857   0.58392  -0.34844
  26   34562.9    289.3   0.011670528   0.11116  -0.26995  -0.01272  -0.19526
  27   35042.0    285.4   0.582725304   5.47457  -1.22798   0.46339  -1.93698
  28   35154.1    284.5   0.097721843   0.91515   0.49426  -0.00546   0.81904
  29   35421.7    282.3   0.017018717   0.15817   0.24297   0.30647   0.07223
  30   35694.9    280.2   0.585592154   5.40088  -2.15556  -0.85180   0.16997
  31   35899.1    278.6   0.167441873   1.53552  -0.24109  -0.94961   0.75871
  32   36132.7    276.8   0.056523651   0.51500   0.61548   0.29591  -0.22051
  33   37335.1    267.8   0.065964822   0.58166  -0.23273   0.39029  -0.61251
  34   37671.9    265.4   0.073865274   0.64550   0.58785   0.52912   0.14131
  35   37719.0    265.1   0.058367092   0.50943   0.04413   0.33182  -0.63038
  36   38134.5    262.2   0.015898281   0.13725  -0.05242   0.21284  -0.29866
  37   38408.8    260.4   0.016749888   0.14357   0.32239   0.13781   0.14367
  38   38549.4    259.4   0.029169734   0.24911   0.28179  -0.01083   0.41181
  39   38983.1    256.5   0.074078533   0.62559  -0.55664  -0.54926  -0.11858
  40   39086.0    255.8   0.009417882   0.07932  -0.24269  -0.14233  -0.01296
  41   39096.2    255.8   0.169350512   1.42603  -1.02235  -0.61705   0.00825
  42   39156.5    255.4   0.049084421   0.41268   0.46690   0.28487  -0.33695
  43   39481.2    253.3   0.024644972   0.20550   0.14951   0.12206  -0.41018
  44   39705.3    251.9   0.063413280   0.52578  -0.67289  -0.26453   0.05504
  45   40132.6    249.2   0.085998409   0.70545   0.03021   0.65749  -0.52177
  46   40203.4    248.7   0.013416774   0.10987  -0.08722   0.23312  -0.21889

FINAL SINGLE POINT ENERGY    -13499.410663332608

DIPOLE MOMENT
-------------
                                X             Y             Z
Electronic contribution:     42.21462     -38.44377     130.19660
Nuclear contribution   :    -43.77075      38.18177    -129.96192
                        -----------------------------------------
Total Dipole Moment    :     -1.55613      -0.26200       0.23468
                        -----------------------------------------
Magnitude (a.u.)       :      1.59539
Magnitude (Debye)      :      4.05515

Rotational constants in cm-1:     0.001742     0.000174     0.000162
Rotational constants in MHz :    52.216295     5.213871     4.870668

                             ****ORCA TERMINATED NORMALLY****
TOTAL RUN TIME: 0 days 0 hours 10 minutes 26 seconds 431 msec
