                         Program Version 4.2.0 -  RELEASE  -
|  1> # ORCA input file
|  2> # SCF done       -205.427724461724          0.000327779485
|  3> ! CAM-B3LYP def2-SVP def2/J RIJCOSX Grid4 TightSCF
|  4> %maxcore 5000
|  5> %tddft
|  6>     Mode sTDDFT
|  7>     Ethresh 5.0
|  8>     maxcore 5000
|  9> end
| 10>
| 11> %pal
| 12>   nprocs 6
| 13>   end
| 14> * xyz 0 1
| 15>    C       10.42013         2.52917        12.02833
| 16>    C        9.70082         2.99200        13.09487
| 17>    F       10.33852         3.61200        14.10494
| 18>    C        8.30978         2.84770        13.18253
| 19>    C        7.64454         2.22168        12.16513
| 20>    C        8.33608         1.72601        11.04104
| 21>    C        9.75134         1.88043        10.97248
| 22>    C       10.46893         1.38209         9.85956
| 23>    C        9.78946         0.75741         8.85053
| 24>    C        8.37232         0.62199         8.91463
| 25>    C        7.65666         1.08437         9.98053
| 26>    C        7.89172        -0.04470         7.68767
| 27>    O        6.75867        -0.37030         7.41045
| 28>    C        9.09230        -0.17792         6.82336
| 29>    C       10.25603         0.12162         7.62077
| 30>    C       11.52559        -0.35976         7.41435
| 31>    C       11.84967        -1.23450         6.35886
| 32>    N       12.12496        -1.98464         5.53383
| 33>    C       12.60596        -0.11782         8.28393
| 34>    N       13.51896         0.06706         8.95521
| 35>    C        8.93683        -0.45991         5.49268
| 36>    C        9.80690        -0.19502         4.42553
| 37>    S       11.09324         0.96631         4.51531
| 38>    C       11.57501         0.72716         2.87058
| 39>    C       10.71684        -0.19614         2.23509
| 40>    C        9.71999        -0.71254         3.11608
| 41>    C        8.78986        -1.65910         2.65574
| 42>    C        8.83014        -2.04041         1.34348
| 43>    F        7.94698        -2.93394         0.87822
| 44>    C        9.77609        -1.48685         0.45568
| 45>    F        9.75184        -1.85321        -0.83532
| 46>    C       10.70508        -0.57855         0.88202
| 47>    C       12.70887         1.43847         2.42764
| 48>    C       13.50527         1.09360         1.37646
| 49>    C       14.64348         1.76168         0.87388
| 50>    S       15.48156         0.93804        -0.41240
| 51>    C       16.61255         2.24674        -0.61653
| 52>    C       16.30297         3.29571         0.25894
| 53>    C       15.24325         3.00445         1.12494
| 54>    C       14.83299         3.93607         2.21869
| 55>    S       15.17394         3.09371         3.84869
| 56>    C       15.58938         5.26474         2.20583
| 57>    C       15.94767         5.68246         0.78810
| 58>    C       16.91580         4.65824         0.20261
| 59>    C       17.65083         2.07324        -1.54870
| 60>    C       18.75545         2.87008        -1.70262
| 61>    C       19.77399         2.62756        -2.62646
| 62>    C       20.86481         3.46161        -2.76280
| 63>    C       21.97477         3.31965        -3.62248
| 64>    C       22.88993         4.33047        -3.52632
| 65>    C       22.53892         5.32506        -2.59192
| 66>    S       21.02614         4.93569        -1.82344
| 67>    C       23.21231         6.49486        -2.26467
| 68>    C       24.44003         6.97779        -2.75374
| 69>    C       24.80225         8.18568        -2.22364
| 70>    C       23.87491         8.71096        -1.29931
| 71>    S       22.52853         7.61274        -1.10920
| 72>    C       23.95155         9.91598        -0.62152
| 73>    C       22.95402        10.34341         0.24536
| 74>    C       22.95190        11.53735         0.94120
| 75>    C       21.92201        12.00746         1.82824
| 76>    C       20.73791        11.37746         2.14238
| 77>    C       19.77131        11.90372         3.02119
| 78>    N       18.93948        12.26972         3.72464
| 79>    C       20.29907        10.13545         1.64473
| 80>    N       19.84755         9.13695         1.29566
| 81>    C       22.34332        13.30739         2.34863
| 82>    C       23.60125        13.63436         1.78660
| 83>    C       24.02891        12.54285         0.88467
| 84>    O       25.05957        12.50474         0.24047
| 85>    C       24.26279        14.80087         2.07817
| 86>    C       23.65393        15.69150         2.97000
| 87>    C       22.39872        15.35634         3.52718
| 88>    C       21.72909        14.17442         3.23120
| 89>    S       21.82549        16.59516         4.60326
| 90>    C       23.26179        17.53359         4.29277
| 91>    C       24.12679        16.95161         3.42913
| 92>   Br       23.48333        19.19366         5.13866
| 93>    H       11.49123         2.65389        11.99614
| 94>    H        7.79542         3.23276        14.04869
| 95>    H        6.57286         2.09877        12.21012
| 96>    H       11.53876         1.51611         9.82830
| 97>    H        6.58438         0.96315        10.01622
| 98>    H        7.96307        -0.85858         5.22568
| 99>    H        8.04788        -2.08251         3.31216
|100>    H       11.38876        -0.15624         0.16599
|101>    H       12.99397         2.25711         3.06916
|102>    H       13.28836         0.16831         0.86088
|103>    H       13.75146         4.09759         2.17427
|104>    H       14.74860         4.11281         4.59428
|105>    H       16.51481         5.15637         2.77592
|106>    H       14.98251         6.02928         2.69408
|107>    H       15.04664         5.73589         0.17274
|108>    H       16.41576         6.66667         0.79914
|109>    H       17.85000         4.68098         0.77167
|110>    H       17.14201         4.91393        -0.83397
|111>    H       17.57533         1.18794        -2.16847
|112>    H       18.88942         3.72907        -1.06414
|113>    H       19.71821         1.75579        -3.26439
|114>    H       22.06924         2.47723        -4.28478
|115>    H       23.79466         4.38542        -4.10447
|116>    H       25.02362         6.43328        -3.47435
|117>    H       25.70452         8.71471        -2.47374
|118>    H       24.81508        10.54365        -0.78628
|119>    H       22.10780         9.67932         0.37574
|120>    H       25.22027        15.02160         1.63294
|121>    H       20.77390        13.96661         3.68332
|122>    H       25.05998        17.39070         3.12684
|123> *
|124>
|125>                          ****END OF INPUT****

CARTESIAN COORDINATES (ANGSTROEM)
---------------------------------
  C     10.420130    2.529170   12.028330
  C      9.700820    2.992000   13.094870
  F     10.338520    3.612000   14.104940
  C      8.309780    2.847700   13.182530
  C      7.644540    2.221680   12.165130
  C      8.336080    1.726010   11.041040
  C      9.751340    1.880430   10.972480
  C     10.468930    1.382090    9.859560
  C      9.789460    0.757410    8.850530
  C      8.372320    0.621990    8.914630
  C      7.656660    1.084370    9.980530
  C      7.891720   -0.044700    7.687670
  O      6.758670   -0.370300    7.410450
  C      9.092300   -0.177920    6.823360
  C     10.256030    0.121620    7.620770
  C     11.525590   -0.359760    7.414350
  C     11.849670   -1.234500    6.358860
  N     12.124960   -1.984640    5.533830
  C     12.605960   -0.117820    8.283930
  N     13.518960    0.067060    8.955210
  C      8.936830   -0.459910    5.492680
  C      9.806900   -0.195020    4.425530
  S     11.093240    0.966310    4.515310
  C     11.575010    0.727160    2.870580
  C     10.716840   -0.196140    2.235090
  C      9.719990   -0.712540    3.116080
  C      8.789860   -1.659100    2.655740
  C      8.830140   -2.040410    1.343480
  F      7.946980   -2.933940    0.878220
  C      9.776090   -1.486850    0.455680
  F      9.751840   -1.853210   -0.835320
  C     10.705080   -0.578550    0.882020
  C     12.708870    1.438470    2.427640
  C     13.505270    1.093600    1.376460
  C     14.643480    1.761680    0.873880
  S     15.481560    0.938040   -0.412400
  C     16.612550    2.246740   -0.616530
  C     16.302970    3.295710    0.258940
  C     15.243250    3.004450    1.124940
  C     14.832990    3.936070    2.218690
  S     15.173940    3.093710    3.848690
  C     15.589380    5.264740    2.205830
  C     15.947670    5.682460    0.788100
  C     16.915800    4.658240    0.202610
  C     17.650830    2.073240   -1.548700
  C     18.755450    2.870080   -1.702620
  C     19.773990    2.627560   -2.626460
  C     20.864810    3.461610   -2.762800
  C     21.974770    3.319650   -3.622480
  C     22.889930    4.330470   -3.526320
  C     22.538920    5.325060   -2.591920
  S     21.026140    4.935690   -1.823440
  C     23.212310    6.494860   -2.264670
  C     24.440030    6.977790   -2.753740
  C     24.802250    8.185680   -2.223640
  C     23.874910    8.710960   -1.299310
  S     22.528530    7.612740   -1.109200
  C     23.951550    9.915980   -0.621520
  C     22.954020   10.343410    0.245360
  C     22.951900   11.537350    0.941200
  C     21.922010   12.007460    1.828240
  C     20.737910   11.377460    2.142380
  C     19.771310   11.903720    3.021190
  N     18.939480   12.269720    3.724640
  C     20.299070   10.135450    1.644730
  N     19.847550    9.136950    1.295660
  C     22.343320   13.307390    2.348630
  C     23.601250   13.634360    1.786600
  C     24.028910   12.542850    0.884670
  O     25.059570   12.504740    0.240470
  C     24.262790   14.800870    2.078170
  C     23.653930   15.691500    2.970000
  C     22.398720   15.356340    3.527180
  C     21.729090   14.174420    3.231200
  S     21.825490   16.595160    4.603260
  C     23.261790   17.533590    4.292770
  C     24.126790   16.951610    3.429130
  Br    23.483330   19.193660    5.138660
  H     11.491230    2.653890   11.996140
  H      7.795420    3.232760   14.048690
  H      6.572860    2.098770   12.210120
  H     11.538760    1.516110    9.828300
  H      6.584380    0.963150   10.016220
  H      7.963070   -0.858580    5.225680
  H      8.047880   -2.082510    3.312160
  H     11.388760   -0.156240    0.165990
  H     12.993970    2.257110    3.069160
  H     13.288360    0.168310    0.860880
  H     13.751460    4.097590    2.174270
  H     14.748600    4.112810    4.594280
  H     16.514810    5.156370    2.775920
  H     14.982510    6.029280    2.694080
  H     15.046640    5.735890    0.172740
  H     16.415760    6.666670    0.799140
  H     17.850000    4.680980    0.771670
  H     17.142010    4.913930   -0.833970
  H     17.575330    1.187940   -2.168470
  H     18.889420    3.729070   -1.064140
  H     19.718210    1.755790   -3.264390
  H     22.069240    2.477230   -4.284780
  H     23.794660    4.385420   -4.104470
  H     25.023620    6.433280   -3.474350
  H     25.704520    8.714710   -2.473740
  H     24.815080   10.543650   -0.786280
  H     22.107800    9.679320    0.375740
  H     25.220270   15.021600    1.632940
  H     20.773900   13.966610    3.683320
  H     25.059980   17.390700    3.126840

 Total Charge           Charge          ....    0
 Multiplicity           Mult            ....    1
 Number of Electrons    NEL             ....  604
 Basis Dimension        Dim             .... 1284

ORBITAL ENERGIES
----------------

  NO   OCC          E(Eh)            E(eV)
   0   2.0000    -482.877378    -13139.7615
   1   2.0000     -88.982318     -2421.3320
   2   2.0000     -88.968891     -2420.9666
   3   2.0000     -88.966008     -2420.8881
   4   2.0000     -88.965004     -2420.8608
   5   2.0000     -88.959445     -2420.7096
   6   2.0000     -88.924625     -2419.7621
   7   2.0000     -62.555084     -1702.2104
   8   2.0000     -56.389024     -1534.4234
   9   2.0000     -56.386329     -1534.3500
  10   2.0000     -56.386292     -1534.3490
  11   2.0000     -24.797020      -674.7612
  12   2.0000     -24.794475      -674.6920
  13   2.0000     -24.781142      -674.3292
  14   2.0000     -19.205664      -522.6127
  15   2.0000     -19.199662      -522.4494
  16   2.0000     -14.408091      -392.0641
  17   2.0000     -14.407266      -392.0417
  18   2.0000     -14.402920      -391.9234
  19   2.0000     -14.398857      -391.8128
  20   2.0000     -10.381232      -282.4877
  21   2.0000     -10.376984      -282.3721
  22   2.0000     -10.364488      -282.0321
  23   2.0000     -10.357856      -281.8516
  24   2.0000     -10.349794      -281.6322
  25   2.0000     -10.348621      -281.6003
  26   2.0000     -10.337820      -281.3064
  27   2.0000     -10.334866      -281.2260
  28   2.0000     -10.334390      -281.2131
  29   2.0000     -10.333751      -281.1957
  30   2.0000     -10.326669      -281.0029
  31   2.0000     -10.324924      -280.9555
  32   2.0000     -10.324060      -280.9320
  33   2.0000     -10.322576      -280.8916
  34   2.0000     -10.322192      -280.8811
  35   2.0000     -10.321628      -280.8658
  36   2.0000     -10.319535      -280.8088
  37   2.0000     -10.317700      -280.7589
  38   2.0000     -10.317650      -280.7575
  39   2.0000     -10.316734      -280.7326
  40   2.0000     -10.313074      -280.6330
  41   2.0000     -10.311273      -280.5840
  42   2.0000     -10.311016      -280.5770
  43   2.0000     -10.309590      -280.5382
  44   2.0000     -10.309140      -280.5260
  45   2.0000     -10.309011      -280.5224
  46   2.0000     -10.308183      -280.4999
  47   2.0000     -10.307596      -280.4839
  48   2.0000     -10.307373      -280.4779
  49   2.0000     -10.307271      -280.4751
  50   2.0000     -10.306388      -280.4511
  51   2.0000     -10.305613      -280.4300
  52   2.0000     -10.303560      -280.3741
  53   2.0000     -10.302268      -280.3390
  54   2.0000     -10.300799      -280.2990
  55   2.0000     -10.300661      -280.2952
  56   2.0000     -10.299781      -280.2713
  57   2.0000     -10.298981      -280.2495
  58   2.0000     -10.298677      -280.2413
  59   2.0000     -10.298492      -280.2362
  60   2.0000     -10.297297      -280.2037
  61   2.0000     -10.296029      -280.1692
  62   2.0000     -10.295605      -280.1576
  63   2.0000     -10.295095      -280.1438
  64   2.0000     -10.293965      -280.1130
  65   2.0000     -10.293850      -280.1099
  66   2.0000     -10.292835      -280.0823
  67   2.0000     -10.292714      -280.0790
  68   2.0000     -10.292076      -280.0616
  69   2.0000     -10.291883      -280.0564
  70   2.0000     -10.289565      -279.9933
  71   2.0000     -10.288328      -279.9596
  72   2.0000     -10.287805      -279.9454
  73   2.0000     -10.286868      -279.9199
  74   2.0000     -10.284108      -279.8448
  75   2.0000     -10.283830      -279.8372
  76   2.0000     -10.281825      -279.7827
  77   2.0000     -10.277634      -279.6686
  78   2.0000     -10.275581      -279.6128
  79   2.0000     -10.275507      -279.6108
  80   2.0000     -10.273697      -279.5615
  81   2.0000     -10.272158      -279.5196
  82   2.0000      -8.784497      -239.0383
  83   2.0000      -8.076940      -219.7847
  84   2.0000      -8.064913      -219.4574
  85   2.0000      -8.062214      -219.3840
  86   2.0000      -8.061003      -219.3510
  87   2.0000      -8.055434      -219.1995
  88   2.0000      -8.019431      -218.2198
  89   2.0000      -6.620756      -180.1599
  90   2.0000      -6.606251      -179.7652
  91   2.0000      -6.606066      -179.7602
  92   2.0000      -6.045893      -164.5171
  93   2.0000      -6.041802      -164.4058
  94   2.0000      -6.039763      -164.3503
  95   2.0000      -6.033987      -164.1931
  96   2.0000      -6.031839      -164.1347
  97   2.0000      -6.030690      -164.1034
  98   2.0000      -6.030170      -164.0893
  99   2.0000      -6.027794      -164.0246
 100   2.0000      -6.027039      -164.0041
 101   2.0000      -6.026436      -163.9876
 102   2.0000      -6.025007      -163.9488
 103   2.0000      -6.023331      -163.9032
 104   2.0000      -6.022221      -163.8730
 105   2.0000      -6.020968      -163.8389
 106   2.0000      -6.016680      -163.7222
 107   2.0000      -5.989810      -162.9910
 108   2.0000      -5.986139      -162.8911
 109   2.0000      -5.978954      -162.6956
 110   2.0000      -2.736617       -74.4671
 111   2.0000      -2.732546       -74.3564
 112   2.0000      -2.732452       -74.3538
 113   2.0000      -2.720906       -74.0396
 114   2.0000      -2.720889       -74.0392
 115   2.0000      -1.318505       -35.8783
 116   2.0000      -1.303260       -35.4635
 117   2.0000      -1.295940       -35.2643
 118   2.0000      -1.120762       -30.4975
 119   2.0000      -1.112958       -30.2851
 120   2.0000      -1.020708       -27.7749
 121   2.0000      -1.014989       -27.6193
 122   2.0000      -1.010110       -27.4865
 123   2.0000      -1.009670       -27.4745
 124   2.0000      -1.007941       -27.4275
 125   2.0000      -1.000146       -27.2154
 126   2.0000      -0.993899       -27.0454
 127   2.0000      -0.991230       -26.9727
 128   2.0000      -0.986377       -26.8407
 129   2.0000      -0.980013       -26.6675
 130   2.0000      -0.974771       -26.5249
 131   2.0000      -0.970601       -26.4114
 132   2.0000      -0.956267       -26.0214
 133   2.0000      -0.940981       -25.6054
 134   2.0000      -0.935743       -25.4629
 135   2.0000      -0.930914       -25.3315
 136   2.0000      -0.926270       -25.2051
 137   2.0000      -0.917646       -24.9704
 138   2.0000      -0.907923       -24.7058
 139   2.0000      -0.900096       -24.4929
 140   2.0000      -0.895186       -24.3592
 141   2.0000      -0.889150       -24.1950
 142   2.0000      -0.880474       -23.9589
 143   2.0000      -0.878563       -23.9069
 144   2.0000      -0.873189       -23.7607
 145   2.0000      -0.871477       -23.7141
 146   2.0000      -0.864356       -23.5203
 147   2.0000      -0.863849       -23.5065
 148   2.0000      -0.862445       -23.4683
 149   2.0000      -0.849225       -23.1086
 150   2.0000      -0.841467       -22.8975
 151   2.0000      -0.838548       -22.8181
 152   2.0000      -0.837156       -22.7802
 153   2.0000      -0.829498       -22.5718
 154   2.0000      -0.822457       -22.3802
 155   2.0000      -0.816927       -22.2297
 156   2.0000      -0.810065       -22.0430
 157   2.0000      -0.791949       -21.5500
 158   2.0000      -0.790770       -21.5179
 159   2.0000      -0.773626       -21.0514
 160   2.0000      -0.760946       -20.7064
 161   2.0000      -0.752901       -20.4875
 162   2.0000      -0.747823       -20.3493
 163   2.0000      -0.745258       -20.2795
 164   2.0000      -0.738452       -20.0943
 165   2.0000      -0.727342       -19.7920
 166   2.0000      -0.720925       -19.6174
 167   2.0000      -0.715289       -19.4640
 168   2.0000      -0.711201       -19.3528
 169   2.0000      -0.704252       -19.1637
 170   2.0000      -0.703505       -19.1433
 171   2.0000      -0.695585       -18.9278
 172   2.0000      -0.683983       -18.6121
 173   2.0000      -0.679671       -18.4948
 174   2.0000      -0.676419       -18.4063
 175   2.0000      -0.674127       -18.3439
 176   2.0000      -0.671964       -18.2851
 177   2.0000      -0.663344       -18.0505
 178   2.0000      -0.657001       -17.8779
 179   2.0000      -0.656443       -17.8627
 180   2.0000      -0.646084       -17.5808
 181   2.0000      -0.643704       -17.5161
 182   2.0000      -0.643111       -17.4999
 183   2.0000      -0.634278       -17.2596
 184   2.0000      -0.629400       -17.1268
 185   2.0000      -0.627196       -17.0669
 186   2.0000      -0.625877       -17.0310
 187   2.0000      -0.623361       -16.9625
 188   2.0000      -0.619900       -16.8683
 189   2.0000      -0.619172       -16.8485
 190   2.0000      -0.610096       -16.6015
 191   2.0000      -0.608172       -16.5492
 192   2.0000      -0.603354       -16.4181
 193   2.0000      -0.591701       -16.1010
 194   2.0000      -0.587188       -15.9782
 195   2.0000      -0.585155       -15.9229
 196   2.0000      -0.583058       -15.8658
 197   2.0000      -0.581965       -15.8361
 198   2.0000      -0.578556       -15.7433
 199   2.0000      -0.573473       -15.6050
 200   2.0000      -0.565297       -15.3825
 201   2.0000      -0.564650       -15.3649
 202   2.0000      -0.557252       -15.1636
 203   2.0000      -0.554221       -15.0811
 204   2.0000      -0.553691       -15.0667
 205   2.0000      -0.552485       -15.0339
 206   2.0000      -0.546706       -14.8766
 207   2.0000      -0.544689       -14.8217
 208   2.0000      -0.542385       -14.7590
 209   2.0000      -0.542204       -14.7541
 210   2.0000      -0.533729       -14.5235
 211   2.0000      -0.531024       -14.4499
 212   2.0000      -0.530302       -14.4303
 213   2.0000      -0.528082       -14.3699
 214   2.0000      -0.527184       -14.3454
 215   2.0000      -0.525298       -14.2941
 216   2.0000      -0.522567       -14.2198
 217   2.0000      -0.520620       -14.1668
 218   2.0000      -0.519191       -14.1279
 219   2.0000      -0.518363       -14.1054
 220   2.0000      -0.517234       -14.0747
 221   2.0000      -0.515350       -14.0234
 222   2.0000      -0.514799       -14.0084
 223   2.0000      -0.513340       -13.9687
 224   2.0000      -0.509361       -13.8604
 225   2.0000      -0.507278       -13.8037
 226   2.0000      -0.505062       -13.7434
 227   2.0000      -0.503388       -13.6979
 228   2.0000      -0.497798       -13.5458
 229   2.0000      -0.496913       -13.5217
 230   2.0000      -0.495252       -13.4765
 231   2.0000      -0.493346       -13.4246
 232   2.0000      -0.487977       -13.2785
 233   2.0000      -0.486392       -13.2354
 234   2.0000      -0.485866       -13.2211
 235   2.0000      -0.483543       -13.1579
 236   2.0000      -0.483111       -13.1461
 237   2.0000      -0.481038       -13.0897
 238   2.0000      -0.479061       -13.0359
 239   2.0000      -0.478405       -13.0181
 240   2.0000      -0.477654       -12.9976
 241   2.0000      -0.475797       -12.9471
 242   2.0000      -0.474844       -12.9212
 243   2.0000      -0.471356       -12.8262
 244   2.0000      -0.467608       -12.7243
 245   2.0000      -0.459920       -12.5151
 246   2.0000      -0.459125       -12.4934
 247   2.0000      -0.458836       -12.4856
 248   2.0000      -0.452526       -12.3139
 249   2.0000      -0.451476       -12.2853
 250   2.0000      -0.449439       -12.2299
 251   2.0000      -0.446644       -12.1538
 252   2.0000      -0.443965       -12.0809
 253   2.0000      -0.442773       -12.0485
 254   2.0000      -0.440436       -11.9849
 255   2.0000      -0.439084       -11.9481
 256   2.0000      -0.437587       -11.9074
 257   2.0000      -0.436445       -11.8763
 258   2.0000      -0.435708       -11.8562
 259   2.0000      -0.433636       -11.7998
 260   2.0000      -0.433434       -11.7943
 261   2.0000      -0.430888       -11.7251
 262   2.0000      -0.430434       -11.7127
 263   2.0000      -0.427434       -11.6311
 264   2.0000      -0.425013       -11.5652
 265   2.0000      -0.423665       -11.5285
 266   2.0000      -0.421185       -11.4610
 267   2.0000      -0.417148       -11.3512
 268   2.0000      -0.414101       -11.2683
 269   2.0000      -0.413530       -11.2527
 270   2.0000      -0.412281       -11.2187
 271   2.0000      -0.410981       -11.1834
 272   2.0000      -0.410166       -11.1612
 273   2.0000      -0.408978       -11.1289
 274   2.0000      -0.404212       -10.9992
 275   2.0000      -0.399545       -10.8722
 276   2.0000      -0.396218       -10.7816
 277   2.0000      -0.393761       -10.7148
 278   2.0000      -0.390881       -10.6364
 279   2.0000      -0.382483       -10.4079
 280   2.0000      -0.378192       -10.2911
 281   2.0000      -0.374154       -10.1812
 282   2.0000      -0.371567       -10.1109
 283   2.0000      -0.367021        -9.9872
 284   2.0000      -0.359638        -9.7863
 285   2.0000      -0.352693        -9.5973
 286   2.0000      -0.344084        -9.3630
 287   2.0000      -0.340545        -9.2667
 288   2.0000      -0.334260        -9.0957
 289   2.0000      -0.327502        -8.9118
 290   2.0000      -0.326846        -8.8939
 291   2.0000      -0.322946        -8.7878
 292   2.0000      -0.320145        -8.7116
 293   2.0000      -0.313535        -8.5317
 294   2.0000      -0.309076        -8.4104
 295   2.0000      -0.306812        -8.3488
 296   2.0000      -0.303591        -8.2611
 297   2.0000      -0.293694        -7.9918
 298   2.0000      -0.284777        -7.7492
 299   2.0000      -0.279518        -7.6061
 300   2.0000      -0.249289        -6.7835
 301   2.0000      -0.220766        -6.0074
 302   0.0000      -0.120289        -3.2732
 303   0.0000      -0.099588        -2.7099
 304   0.0000      -0.065619        -1.7856
 305   0.0000      -0.055234        -1.5030
 306   0.0000      -0.046132        -1.2553

MULLIKEN ATOMIC CHARGES
-----------------------
   0 C :   -0.101592
   1 C :    0.304343
   2 F :   -0.192304
   3 C :   -0.030116
   4 C :   -0.012307
   5 C :    0.102602
   6 C :    0.102168
   7 C :   -0.087833
   8 C :    0.040075
   9 C :    0.013882
  10 C :   -0.086326
  11 C :    0.138260
  12 O :   -0.151052
  13 C :   -0.144912
  14 C :    0.246741
  15 C :   -0.328042
  16 C :   -0.210530
  17 N :    0.165404
  18 C :   -0.172641
  19 N :    0.146378
  20 C :    0.021803
  21 C :   -0.141403
  22 S :    0.197638
  23 C :   -0.104150
  24 C :    0.119314
  25 C :    0.172540
  26 C :   -0.112062
  27 C :    0.239063
  28 F :   -0.170129
  29 C :    0.222288
  30 F :   -0.176867
  31 C :   -0.112639
  32 C :    0.047663
  33 C :    0.044094
  34 C :   -0.104619
  35 S :    0.133779
  36 C :   -0.126839
  37 C :   -0.063351
  38 C :    0.017354
  39 C :   -0.186792
  40 S :   -0.008238
  41 C :    0.094053
  42 C :    0.032096
  43 C :    0.082787
  44 C :    0.059723
  45 C :   -0.027751
  46 C :    0.020798
  47 C :   -0.037116
  48 C :    0.051023
  49 C :    0.020999
  50 C :   -0.018943
  51 S :    0.087702
  52 C :   -0.047801
  53 C :    0.038910
  54 C :    0.027642
  55 C :    0.002948
  56 S :    0.100615
  57 C :   -0.020389
  58 C :   -0.049393
  59 C :   -0.087453
  60 C :    0.338370
  61 C :   -0.368587
  62 C :   -0.192917
  63 N :    0.129284
  64 C :   -0.191650
  65 N :    0.126275
  66 C :    0.009100
  67 C :   -0.007183
  68 C :    0.134926
  69 O :   -0.166020
  70 C :   -0.077543
  71 C :    0.115546
  72 C :   -0.090863
  73 C :   -0.023683
  74 S :    0.177956
  75 C :   -0.126077
  76 C :    0.040867
  77 Br:    0.014087
  78 H :   -0.002770
  79 H :    0.001752
  80 H :   -0.009303
  81 H :   -0.004680
  82 H :   -0.012750
  83 H :    0.019614
  84 H :    0.002889
  85 H :   -0.009156
  86 H :   -0.019182
  87 H :   -0.004403
  88 H :    0.047222
  89 H :    0.055001
  90 H :    0.016860
  91 H :    0.013312
  92 H :    0.010530
  93 H :    0.026401
  94 H :    0.039719
  95 H :    0.027507
  96 H :   -0.011799
  97 H :    0.013952
  98 H :   -0.004381
  99 H :   -0.001757
 100 H :   -0.006478
 101 H :   -0.005013
 102 H :   -0.001881
 103 H :    0.015334
 104 H :    0.016422
 105 H :   -0.016657
 106 H :   -0.011789
 107 H :   -0.007498
Sum of atomic charges:   -0.0000000

LOEWDIN ATOMIC CHARGES
----------------------
   0 C :   -0.043207
   1 C :    0.092398
   2 F :   -0.066421
   3 C :   -0.038822
   4 C :    0.003679
   5 C :   -0.019704
   6 C :    0.002822
   7 C :    0.007701
   8 C :   -0.015697
   9 C :   -0.058119
  10 C :    0.031563
  11 C :    0.080103
  12 O :   -0.153609
  13 C :   -0.109914
  14 C :    0.058624
  15 C :   -0.151886
  16 C :   -0.034936
  17 N :   -0.055320
  18 C :   -0.020263
  19 N :   -0.058338
  20 C :    0.044892
  21 C :   -0.196892
  22 S :    0.528347
  23 C :   -0.128324
  24 C :   -0.048769
  25 C :   -0.010128
  26 C :   -0.036793
  27 C :    0.074927
  28 F :   -0.047570
  29 C :    0.060121
  30 F :   -0.054955
  31 C :   -0.033364
  32 C :   -0.049497
  33 C :   -0.029723
  34 C :   -0.159476
  35 S :    0.450065
  36 C :   -0.173762
  37 C :   -0.031639
  38 C :   -0.065927
  39 C :   -0.110310
  40 S :    0.186579
  41 C :   -0.041635
  42 C :   -0.023942
  43 C :   -0.028071
  44 C :   -0.016807
  45 C :   -0.041659
  46 C :   -0.019132
  47 C :   -0.156223
  48 C :   -0.012927
  49 C :   -0.039285
  50 C :   -0.147308
  51 S :    0.401687
  52 C :   -0.195947
  53 C :   -0.008768
  54 C :   -0.044573
  55 C :   -0.103638
  56 S :    0.412893
  57 C :   -0.073535
  58 C :    0.046465
  59 C :   -0.110769
  60 C :    0.073922
  61 C :   -0.161334
  62 C :   -0.019125
  63 N :   -0.073184
  64 C :   -0.019465
  65 N :   -0.077360
  66 C :   -0.018270
  67 C :   -0.048280
  68 C :    0.081359
  69 O :   -0.159419
  70 C :    0.016906
  71 C :   -0.036147
  72 C :   -0.146244
  73 C :   -0.013888
  74 S :    0.426663
  75 C :   -0.275063
  76 C :   -0.070722
  77 Br:    0.129460
  78 H :    0.042755
  79 H :    0.041203
  80 H :    0.035355
  81 H :    0.038639
  82 H :    0.039068
  83 H :    0.047108
  84 H :    0.045387
  85 H :    0.040581
  86 H :    0.011492
  87 H :    0.029724
  88 H :    0.026792
  89 H :   -0.032010
  90 H :    0.024087
  91 H :    0.028538
  92 H :    0.023386
  93 H :    0.035523
  94 H :    0.039028
  95 H :    0.035296
  96 H :    0.031578
  97 H :    0.023954
  98 H :    0.037340
  99 H :    0.038040
 100 H :    0.034777
 101 H :    0.035240
 102 H :    0.038147
 103 H :    0.038468
 104 H :    0.029995
 105 H :    0.038516
 106 H :    0.039640
 107 H :    0.037260

  Mayer bond orders larger than 0.100000
B(  0-C ,  1-C ) :   1.4399 B(  0-C ,  6-C ) :   1.2041 B(  0-C , 78-H ) :   1.0069
B(  1-C ,  2-F ) :   1.0858 B(  1-C ,  3-C ) :   1.2568 B(  3-C ,  4-C ) :   1.4587
B(  3-C , 79-H ) :   0.9925 B(  4-C ,  5-C ) :   1.2348 B(  4-C , 80-H ) :   0.9974
B(  5-C ,  6-C ) :   1.2584 B(  5-C , 10-C ) :   1.1874 B(  6-C ,  7-C ) :   1.1973
B(  7-C ,  8-C ) :   1.4677 B(  7-C , 81-H ) :   0.9954 B(  8-C ,  9-C ) :   1.2168
B(  8-C , 14-C ) :   0.9943 B(  9-C , 10-C ) :   1.4742 B(  9-C , 11-C ) :   0.9206
B( 10-C , 82-H ) :   1.0160 B( 11-C , 12-O ) :   2.2571 B( 11-C , 13-C ) :   0.9547
B( 13-C , 14-C ) :   1.0630 B( 13-C , 20-C ) :   1.5722 B( 14-C , 15-C ) :   1.6303
B( 15-C , 16-C ) :   1.1588 B( 15-C , 18-C ) :   1.1388 B( 16-C , 17-N ) :   3.0203
B( 18-C , 19-N ) :   2.9841 B( 20-C , 21-C ) :   1.2269 B( 20-C , 83-H ) :   0.9361
B( 21-C , 22-S ) :   1.1169 B( 21-C , 25-C ) :   1.2617 B( 22-S , 23-C ) :   1.2065
B( 23-C , 24-C ) :   1.2854 B( 23-C , 32-C ) :   1.2068 B( 24-C , 25-C ) :   1.2414
B( 24-C , 31-C ) :   1.1687 B( 25-C , 26-C ) :   1.1956 B( 26-C , 27-C ) :   1.4733
B( 26-C , 31-C ) :   0.1098 B( 26-C , 84-H ) :   0.9984 B( 27-C , 28-F ) :   1.1361
B( 27-C , 29-C ) :   1.1719 B( 29-C , 30-F ) :   1.1289 B( 29-C , 31-C ) :   1.4897
B( 31-C , 85-H ) :   0.9948 B( 32-C , 33-C ) :   1.6198 B( 32-C , 86-H ) :   0.9129
B( 33-C , 34-C ) :   1.1947 B( 33-C , 87-H ) :   0.9392 B( 34-C , 35-S ) :   1.1359
B( 34-C , 38-C ) :   1.3999 B( 35-S , 36-C ) :   1.1099 B( 36-C , 37-C ) :   1.4284
B( 36-C , 44-C ) :   1.1747 B( 37-C , 38-C ) :   1.3886 B( 37-C , 43-C ) :   1.0533
B( 38-C , 39-C ) :   1.0014 B( 39-C , 40-S ) :   1.0496 B( 39-C , 41-C ) :   1.0173
B( 39-C , 88-H ) :   0.8947 B( 40-S , 89-H ) :   0.9555 B( 41-C , 42-C ) :   1.0909
B( 41-C , 90-H ) :   0.9267 B( 41-C , 91-H ) :   0.9320 B( 42-C , 43-C ) :   1.0809
B( 42-C , 92-H ) :   0.9445 B( 42-C , 93-H ) :   0.9329 B( 43-C , 94-H ) :   0.8939
B( 43-C , 95-H ) :   0.9206 B( 44-C , 45-C ) :   1.5835 B( 44-C , 96-H ) :   0.9581
B( 45-C , 46-C ) :   1.1992 B( 45-C , 97-H ) :   0.9623 B( 46-C , 47-C ) :   1.5107
B( 46-C , 98-H ) :   0.9873 B( 47-C , 48-C ) :   1.1702 B( 47-C , 51-S ) :   1.0327
B( 48-C , 49-C ) :   1.5538 B( 48-C , 99-H ) :   0.9995 B( 49-C , 50-C ) :   1.2165
B( 49-C ,100-H ) :   0.9952 B( 50-C , 51-S ) :   1.0896 B( 50-C , 52-C ) :   1.4325
B( 52-C , 53-C ) :   1.2357 B( 52-C , 56-S ) :   1.0495 B( 53-C , 54-C ) :   1.5203
B( 53-C ,101-H ) :   0.9957 B( 54-C , 55-C ) :   1.1947 B( 54-C ,102-H ) :   1.0020
B( 55-C , 56-S ) :   1.0919 B( 55-C , 57-C ) :   1.3934 B( 57-C , 58-C ) :   1.2786
B( 57-C ,103-H ) :   0.9807 B( 58-C , 59-C ) :   1.4627 B( 58-C ,104-H ) :   0.9405
B( 59-C , 60-C ) :   1.1241 B( 59-C , 68-C ) :   0.9672 B( 60-C , 61-C ) :   1.5670
B( 60-C , 66-C ) :   0.9885 B( 61-C , 62-C ) :   1.1516 B( 61-C , 64-C ) :   1.1581
B( 62-C , 63-N ) :   2.9594 B( 64-C , 65-N ) :   2.9587 B( 66-C , 67-C ) :   1.2806
B( 66-C , 73-C ) :   1.4199 B( 67-C , 68-C ) :   0.9327 B( 67-C , 70-C ) :   1.4309
B( 68-C , 69-O ) :   2.1882 B( 70-C , 71-C ) :   1.2379 B( 70-C ,105-H ) :   1.0164
B( 71-C , 72-C ) :   1.3191 B( 71-C , 76-C ) :   1.1602 B( 72-C , 73-C ) :   1.3199
B( 72-C , 74-S ) :   1.0813 B( 73-C ,106-H ) :   0.9793 B( 74-S , 75-C ) :   1.0866
B( 75-C , 76-C ) :   1.6191 B( 75-C , 77-Br) :   1.0129 B( 76-C ,107-H ) :   1.0005

-----------------------------------------------------------------------------
         ABSORPTION SPECTRUM VIA TRANSITION ELECTRIC DIPOLE MOMENTS
-----------------------------------------------------------------------------
State   Energy  Wavelength   fosc         T2         TX        TY        TZ
        (cm-1)    (nm)                  (au**2)     (au)      (au)      (au)
-----------------------------------------------------------------------------
   0    9222.6   1084.3   1.329469422  47.45714  -4.41497  -5.19605   0.98299
   1   14326.2    698.0   0.998633375  22.94839  -1.59963   1.47222   4.26874
   2   16302.3    613.4   0.142627716   2.88026  -0.61152   0.39298   1.53358
   3   20253.2    493.7   0.614205223   9.98379   2.95663  -0.34372  -1.06020
   4   20818.7    480.3   0.032102084   0.50764  -0.60903   0.36643  -0.04948
   5   22694.5    440.6   0.048313264   0.70085  -0.73583  -0.25897   0.30385
   6   23546.7    424.7   0.301814296   4.21974   1.84705   0.77150  -0.46144
   7   24242.0    412.5   0.009414071   0.12785   0.15631   0.17742   0.26821
   8   24636.0    405.9   0.279057234   3.72906  -1.19320   1.05517   1.09176
   9   25654.9    389.8   0.007234615   0.09284   0.12748   0.27673   0.00217
  10   25970.3    385.1   0.066115547   0.83811   0.62083  -0.39850  -0.54212
  11   26735.8    374.0   0.021120500   0.26007   0.47399   0.18806  -0.00621
  12   26778.5    373.4   0.000013639   0.00017  -0.01117   0.00509   0.00411
  13   27226.1    367.3   0.012091563   0.14621  -0.11672   0.25694   0.25800
  14   27769.8    360.1   0.138454936   1.64139  -0.02516  -0.64001  -1.10957
  15   28081.3    356.1   0.006738410   0.07900  -0.22961  -0.05173   0.15362
  16   28461.3    351.4   0.022278085   0.25769  -0.12678   0.25608   0.41957
  17   28705.3    348.4   0.175954703   2.01797  -0.55284   0.61242   1.15641
  18   28989.2    345.0   0.007639066   0.08675   0.23124   0.18183  -0.01478
  19   29656.5    337.2   0.171057025   1.89888  -0.52858  -0.63143  -1.10489
  20   29982.3    333.5   0.148853020   1.63444  -0.10658   0.94114   0.85868
  21   30653.1    326.2   0.018919325   0.20319   0.16029   0.41789   0.05354
  22   30901.0    323.6   0.027845203   0.29666   0.50573  -0.12350  -0.16013
  23   31267.8    319.8   0.068511724   0.72134   0.71714   0.45383  -0.03321
  24   31448.3    318.0   0.230845934   2.41658  -0.74750  -1.31245  -0.36783
  25   31688.8    315.6   0.097516366   1.01309  -0.35543  -0.88620  -0.31844
  26   32171.8    310.8   0.058646502   0.60013  -0.56102  -0.48243   0.22943
  27   32276.6    309.8   0.501724811   5.11745   0.18085   1.76441   1.40414
  28   32673.9    306.1   0.011569351   0.11657   0.15170   0.07725  -0.29596
  29   33227.1    301.0   0.037685091   0.37338   0.38354   0.47312   0.04941
  30   33367.6    299.7   0.021862439   0.21570   0.11260  -0.12233   0.43365
  31   33909.1    294.9   0.118774208   1.15314   0.44551  -0.48566  -0.84782
  32   33999.0    294.1   0.004965404   0.04808  -0.03175   0.08066   0.20141
  33   34044.2    293.7   0.170319608   1.64701   0.34051   0.56348   1.10161
  34   34251.3    292.0   0.083405786   0.80167   0.23056  -0.52694  -0.68618
  35   34771.2    287.6   0.023028019   0.21803  -0.27531   0.18377   0.32933
  36   34867.4    286.8   0.007268922   0.06863  -0.21999   0.06169  -0.12817
  37   35190.5    284.2   0.018841193   0.17626   0.03930  -0.26306  -0.32483
  38   35263.7    283.6   0.219271390   2.04706  -0.33645   0.49300   1.30031
  39   35528.0    281.5   0.073716155   0.68307  -0.65119  -0.49038   0.13624
  40   36024.7    277.6   0.139232114   1.27237   0.54274  -0.69507  -0.70334
  41   36153.9    276.6   0.089865458   0.81830  -0.73589  -0.44767   0.27633
  42   36313.5    275.4   0.010070335   0.09130  -0.05399  -0.03826   0.29482
  43   36908.0    270.9   0.037928329   0.33831   0.30999   0.43816   0.22413
  44   37104.8    269.5   0.067336976   0.59745  -0.19964  -0.70540  -0.24495
  45   37472.1    266.9   0.018548887   0.16296   0.35790   0.18457   0.02842
  46   37756.8    264.9   0.068297538   0.59550  -0.76476  -0.06674   0.07874
  47   38086.3    262.6   0.000458191   0.00396  -0.00085   0.05522   0.03017
  48   38169.0    262.0   0.005652791   0.04876   0.10658   0.19261   0.01729
  49   38369.3    260.6   0.110856138   0.95115  -0.72198   0.44406   0.48240
  50   38898.6    257.1   0.208071992   1.76098   1.18150   0.50267  -0.33522
  51   38950.6    256.7   0.049645152   0.41960  -0.53811   0.13253   0.33537
  52   39074.3    255.9   0.000962103   0.00811   0.07634   0.00576  -0.04738
  53   39266.9    254.7   0.047771016   0.40051   0.55427   0.01538  -0.30505
  54   39496.3    253.2   0.047216389   0.39356   0.56023  -0.24943  -0.13225
  55   39681.5    252.0   0.207668800   1.72290  -1.26332  -0.34880  -0.07246
  56   40258.9    248.4   0.003489234   0.02853   0.02900   0.14677  -0.07842

FINAL SINGLE POINT ENERGY     -8008.088843580977

DIPOLE MOMENT
-------------
                                X             Y             Z
Electronic contribution:     47.12890     132.91678      41.95496
Nuclear contribution   :    -46.20618    -132.97530     -45.09505
                        -----------------------------------------
Total Dipole Moment    :      0.92271      -0.05853      -3.14010
                        -----------------------------------------
Magnitude (a.u.)       :      3.27338
Magnitude (Debye)      :      8.32028

Rotational constants in cm-1:     0.000632     0.000192     0.000153
Rotational constants in MHz :    18.952878     5.746058     4.572405

                             ****ORCA TERMINATED NORMALLY****
TOTAL RUN TIME: 0 days 0 hours 13 minutes 23 seconds 522 msec
