                         Program Version 4.2.0 -  RELEASE  -
|  1> # ORCA input file
|  2> # SCF done       -215.381711190402          0.000879514579
|  3> ! CAM-B3LYP def2-SVP def2/J RIJCOSX Grid4 TightSCF
|  4> %maxcore 5000
|  5> %tddft
|  6>     Mode sTDDFT
|  7>     Ethresh 5.0
|  8>     maxcore 5000
|  9> end
| 10>
| 11> %pal
| 12>   nprocs 6
| 13>   end
| 14> * xyz 0 1
| 15>    C      -10.82566        -0.75740        -3.84689
| 16>    C      -10.46605        -2.06975        -3.70358
| 17>    C      -10.80338        -3.08289        -4.62839
| 18>    N      -11.04491        -3.95131        -5.33846
| 19>    C       -9.68876        -2.61202        -2.65525
| 20>    N       -9.05170        -3.13767        -1.85861
| 21>    C      -11.57019        -0.20289        -4.97165
| 22>    C      -11.64481         1.20541        -4.82168
| 23>    C      -12.27667         2.02141        -5.73035
| 24>    C      -12.87537         1.41563        -6.83793
| 25>    C      -12.80436         0.00735        -6.97877
| 26>    C      -12.15828        -0.81461        -6.06314
| 27>    S      -13.61551        -0.53140        -8.41482
| 28>    C      -14.03360         1.11671        -8.80373
| 29>    C      -13.58894         2.02661        -7.90402
| 30>   Br      -15.01744         1.47709       -10.35681
| 31>    C      -10.97256         1.59220        -3.57904
| 32>    O      -10.84823         2.72436        -3.14352
| 33>    C      -10.50670         0.34642        -2.95016
| 34>    C       -9.94459         0.23234        -1.71058
| 35>    C       -9.60020         1.24185        -0.78350
| 36>    S       -9.67497         2.95651        -1.06821
| 37>    C       -8.96882         3.31858         0.47190
| 38>    C       -8.65378         2.14741         1.16572
| 39>    C       -9.06546         0.99318         0.48553
| 40>    C       -9.05121        -0.39002         1.07639
| 41>    F      -10.19885        -1.04416         0.79900
| 42>    F       -8.05437        -1.14839         0.60602
| 43>    F       -8.96407        -0.38960         2.40616
| 44>    C       -7.86800         2.11331         2.44411
| 45>    F       -8.63466         1.99067         3.54308
| 46>    F       -6.98021         1.11543         2.46293
| 47>    F       -7.14849         3.23194         2.63639
| 48>    C       -8.89647         4.65461         0.93938
| 49>    C       -9.35921         5.71257         0.22952
| 50>    N       -9.46453         6.96342         0.74317
| 51>    C       -9.71313         8.06095        -0.01023
| 52>    S       -9.64364         7.92697        -1.74559
| 53>    C       -9.87142         9.64079        -1.88555
| 54>    N       -9.92421        10.19070        -3.17230
| 55>    O      -10.06786        11.39468        -3.26768
| 56>    O       -9.81877         9.41107        -4.10337
| 57>    C       -9.98497        10.26777        -0.67816
| 58>    C       -9.93058         9.38140         0.42118
| 59>    C      -10.13097         9.88289         1.74811
| 60>    C      -10.61660         9.23048         2.83528
| 61>    C      -10.79921         9.88026         4.07485
| 62>    C      -11.31326         9.28686         5.19609
| 63>    C      -11.36055         9.81797         6.51274
| 64>    C      -11.74224         8.92385         7.46500
| 65>    C      -12.03883         7.63917         6.95088
| 66>    S      -11.91602         7.63743         5.20889
| 67>    C      -12.21146         6.44087         7.61493
| 68>    C      -11.99140         6.10383         8.96887
| 69>    C      -11.82096         4.76592         9.16932
| 70>    C      -11.88435         3.98232         7.98710
| 71>    S      -12.38700         4.98457         6.65803
| 72>    C      -11.57773         2.63782         7.88015
| 73>    C      -11.43456         1.84806         6.73936
| 74>    C      -11.31170         2.14656         5.39382
| 75>    C      -10.95723         3.30895         4.64650
| 76>    C      -10.13323         4.34781         5.03999
| 77>    C       -9.75886         5.39084         4.18832
| 78>    N       -9.42338         6.24962         3.49586
| 79>    C       -9.49762         4.39922         6.29510
| 80>    N       -8.97481         4.48254         7.31356
| 81>    C      -11.45360         3.12717         3.28410
| 82>    C      -11.80116         1.76678         3.11068
| 83>    C      -11.65814         1.07591         4.41510
| 84>    O      -11.85252        -0.09080         4.65581
| 85>    C      -12.28469         1.27866         1.92260
| 86>    C      -12.48684         2.19108         0.87756
| 87>    C      -12.19722         3.55798         1.08607
| 88>    C      -11.66516         4.04294         2.27611
| 89>    S      -12.61639         4.51966        -0.29917
| 90>    C      -13.17874         3.09351        -1.12677
| 91>    C      -13.04174         1.95293        -0.41181
| 92>   Br      -13.94748         3.26028        -2.82101
| 93>    H      -12.31287         3.08945        -5.58772
| 94>    H      -12.13492        -1.88041        -6.21616
| 95>    H      -13.75800         3.08469        -7.98420
| 96>    H       -9.71553        -0.77303        -1.38401
| 97>    H       -8.51819         4.82882         1.93236
| 98>    H       -9.69295         5.58758        -0.79312
| 99>    H       -9.30771         7.05535         1.75453
|100>    H      -10.13399        11.32900        -0.59010
|101>    H       -9.94360        10.94503         1.84669
|102>    H      -10.89808         8.18825         2.78217
|103>    H      -10.47554        10.90943         4.16108
|104>    H      -11.06308        10.83163         6.71553
|105>    H      -11.79334         9.13654         8.51757
|106>    H      -11.89953         6.85102         9.73617
|107>    H      -11.57477         4.32222        10.11718
|108>    H      -11.46047         2.12247         8.82562
|109>    H      -11.48291         0.77679         6.91747
|110>    H      -12.52691         0.23407         1.80526
|111>    H      -11.48115         5.09634         2.40330
|112>    H      -13.33978         0.98201        -0.76433
|113> *
|114>
|115>                          ****END OF INPUT****

CARTESIAN COORDINATES (ANGSTROEM)
---------------------------------
  C    -10.825660   -0.757400   -3.846890
  C    -10.466050   -2.069750   -3.703580
  C    -10.803380   -3.082890   -4.628390
  N    -11.044910   -3.951310   -5.338460
  C     -9.688760   -2.612020   -2.655250
  N     -9.051700   -3.137670   -1.858610
  C    -11.570190   -0.202890   -4.971650
  C    -11.644810    1.205410   -4.821680
  C    -12.276670    2.021410   -5.730350
  C    -12.875370    1.415630   -6.837930
  C    -12.804360    0.007350   -6.978770
  C    -12.158280   -0.814610   -6.063140
  S    -13.615510   -0.531400   -8.414820
  C    -14.033600    1.116710   -8.803730
  C    -13.588940    2.026610   -7.904020
  Br   -15.017440    1.477090  -10.356810
  C    -10.972560    1.592200   -3.579040
  O    -10.848230    2.724360   -3.143520
  C    -10.506700    0.346420   -2.950160
  C     -9.944590    0.232340   -1.710580
  C     -9.600200    1.241850   -0.783500
  S     -9.674970    2.956510   -1.068210
  C     -8.968820    3.318580    0.471900
  C     -8.653780    2.147410    1.165720
  C     -9.065460    0.993180    0.485530
  C     -9.051210   -0.390020    1.076390
  F    -10.198850   -1.044160    0.799000
  F     -8.054370   -1.148390    0.606020
  F     -8.964070   -0.389600    2.406160
  C     -7.868000    2.113310    2.444110
  F     -8.634660    1.990670    3.543080
  F     -6.980210    1.115430    2.462930
  F     -7.148490    3.231940    2.636390
  C     -8.896470    4.654610    0.939380
  C     -9.359210    5.712570    0.229520
  N     -9.464530    6.963420    0.743170
  C     -9.713130    8.060950   -0.010230
  S     -9.643640    7.926970   -1.745590
  C     -9.871420    9.640790   -1.885550
  N     -9.924210   10.190700   -3.172300
  O    -10.067860   11.394680   -3.267680
  O     -9.818770    9.411070   -4.103370
  C     -9.984970   10.267770   -0.678160
  C     -9.930580    9.381400    0.421180
  C    -10.130970    9.882890    1.748110
  C    -10.616600    9.230480    2.835280
  C    -10.799210    9.880260    4.074850
  C    -11.313260    9.286860    5.196090
  C    -11.360550    9.817970    6.512740
  C    -11.742240    8.923850    7.465000
  C    -12.038830    7.639170    6.950880
  S    -11.916020    7.637430    5.208890
  C    -12.211460    6.440870    7.614930
  C    -11.991400    6.103830    8.968870
  C    -11.820960    4.765920    9.169320
  C    -11.884350    3.982320    7.987100
  S    -12.387000    4.984570    6.658030
  C    -11.577730    2.637820    7.880150
  C    -11.434560    1.848060    6.739360
  C    -11.311700    2.146560    5.393820
  C    -10.957230    3.308950    4.646500
  C    -10.133230    4.347810    5.039990
  C     -9.758860    5.390840    4.188320
  N     -9.423380    6.249620    3.495860
  C     -9.497620    4.399220    6.295100
  N     -8.974810    4.482540    7.313560
  C    -11.453600    3.127170    3.284100
  C    -11.801160    1.766780    3.110680
  C    -11.658140    1.075910    4.415100
  O    -11.852520   -0.090800    4.655810
  C    -12.284690    1.278660    1.922600
  C    -12.486840    2.191080    0.877560
  C    -12.197220    3.557980    1.086070
  C    -11.665160    4.042940    2.276110
  S    -12.616390    4.519660   -0.299170
  C    -13.178740    3.093510   -1.126770
  C    -13.041740    1.952930   -0.411810
  Br   -13.947480    3.260280   -2.821010
  H    -12.312870    3.089450   -5.587720
  H    -12.134920   -1.880410   -6.216160
  H    -13.758000    3.084690   -7.984200
  H     -9.715530   -0.773030   -1.384010
  H     -8.518190    4.828820    1.932360
  H     -9.692950    5.587580   -0.793120
  H     -9.307710    7.055350    1.754530
  H    -10.133990   11.329000   -0.590100
  H     -9.943600   10.945030    1.846690
  H    -10.898080    8.188250    2.782170
  H    -10.475540   10.909430    4.161080
  H    -11.063080   10.831630    6.715530
  H    -11.793340    9.136540    8.517570
  H    -11.899530    6.851020    9.736170
  H    -11.574770    4.322220   10.117180
  H    -11.460470    2.122470    8.825620
  H    -11.482910    0.776790    6.917470
  H    -12.526910    0.234070    1.805260
  H    -11.481150    5.096340    2.403300
  H    -13.339780    0.982010   -0.764330

 Total Charge           Charge          ....    0
 Multiplicity           Mult            ....    1
 Number of Electrons    NEL             ....  638
 Basis Dimension        Dim             .... 1252

ORBITAL ENERGIES
----------------

  NO   OCC          E(Eh)            E(eV)
   0   2.0000    -482.889125    -13140.0811
   1   2.0000    -482.886097    -13139.9987
   2   2.0000     -88.989315     -2421.5224
   3   2.0000     -88.980450     -2421.2812
   4   2.0000     -88.978865     -2421.2380
   5   2.0000     -88.978432     -2421.2262
   6   2.0000     -88.969743     -2420.9898
   7   2.0000     -88.968380     -2420.9527
   8   2.0000     -62.566848     -1702.5305
   9   2.0000     -62.563455     -1702.4382
  10   2.0000     -56.400805     -1534.7439
  11   2.0000     -56.398076     -1534.6697
  12   2.0000     -56.398046     -1534.6689
  13   2.0000     -56.397387     -1534.6509
  14   2.0000     -56.394750     -1534.5792
  15   2.0000     -56.394683     -1534.5774
  16   2.0000     -24.804647      -674.9687
  17   2.0000     -24.803442      -674.9360
  18   2.0000     -24.803310      -674.9324
  19   2.0000     -24.801610      -674.8861
  20   2.0000     -24.800327      -674.8512
  21   2.0000     -24.800004      -674.8424
  22   2.0000     -19.239024      -523.5205
  23   2.0000     -19.238142      -523.4965
  24   2.0000     -19.230737      -523.2950
  25   2.0000     -19.207006      -522.6492
  26   2.0000     -14.650693      -398.6656
  27   2.0000     -14.486477      -394.1971
  28   2.0000     -14.431183      -392.6925
  29   2.0000     -14.419112      -392.3640
  30   2.0000     -14.418732      -392.3537
  31   2.0000     -14.407358      -392.0441
  32   2.0000     -10.527182      -286.4592
  33   2.0000     -10.526138      -286.4308
  34   2.0000     -10.379362      -282.4368
  35   2.0000     -10.378020      -282.4003
  36   2.0000     -10.363519      -282.0057
  37   2.0000     -10.357523      -281.8425
  38   2.0000     -10.357100      -281.8310
  39   2.0000     -10.348665      -281.6015
  40   2.0000     -10.346947      -281.5547
  41   2.0000     -10.346298      -281.5371
  42   2.0000     -10.345087      -281.5041
  43   2.0000     -10.344648      -281.4922
  44   2.0000     -10.343424      -281.4589
  45   2.0000     -10.334358      -281.2122
  46   2.0000     -10.334244      -281.2091
  47   2.0000     -10.333698      -281.1942
  48   2.0000     -10.332796      -281.1697
  49   2.0000     -10.331274      -281.1283
  50   2.0000     -10.331219      -281.1267
  51   2.0000     -10.331172      -281.1255
  52   2.0000     -10.328150      -281.0432
  53   2.0000     -10.326037      -280.9857
  54   2.0000     -10.324552      -280.9453
  55   2.0000     -10.323850      -280.9262
  56   2.0000     -10.321679      -280.8672
  57   2.0000     -10.320142      -280.8253
  58   2.0000     -10.315399      -280.6963
  59   2.0000     -10.314894      -280.6825
  60   2.0000     -10.314760      -280.6789
  61   2.0000     -10.314564      -280.6736
  62   2.0000     -10.313821      -280.6533
  63   2.0000     -10.312890      -280.6280
  64   2.0000     -10.311783      -280.5979
  65   2.0000     -10.310767      -280.5702
  66   2.0000     -10.310539      -280.5640
  67   2.0000     -10.309188      -280.5273
  68   2.0000     -10.308169      -280.4995
  69   2.0000     -10.307681      -280.4863
  70   2.0000     -10.307620      -280.4846
  71   2.0000     -10.305670      -280.4315
  72   2.0000     -10.304416      -280.3974
  73   2.0000     -10.304057      -280.3876
  74   2.0000     -10.303423      -280.3704
  75   2.0000     -10.302911      -280.3565
  76   2.0000     -10.301205      -280.3100
  77   2.0000     -10.299006      -280.2502
  78   2.0000     -10.298827      -280.2453
  79   2.0000     -10.297254      -280.2025
  80   2.0000     -10.296960      -280.1945
  81   2.0000     -10.294653      -280.1318
  82   2.0000     -10.291330      -280.0413
  83   2.0000     -10.288575      -279.9663
  84   2.0000     -10.286737      -279.9164
  85   2.0000     -10.285713      -279.8885
  86   2.0000      -8.796289      -239.3592
  87   2.0000      -8.792794      -239.2641
  88   2.0000      -8.084821      -219.9992
  89   2.0000      -8.076413      -219.7704
  90   2.0000      -8.073679      -219.6960
  91   2.0000      -8.071618      -219.6399
  92   2.0000      -8.065723      -219.4795
  93   2.0000      -8.063716      -219.4249
  94   2.0000      -6.632633      -180.4831
  95   2.0000      -6.629045      -180.3855
  96   2.0000      -6.618004      -180.0850
  97   2.0000      -6.617793      -180.0793
  98   2.0000      -6.614530      -179.9905
  99   2.0000      -6.614401      -179.9870
 100   2.0000      -6.054531      -164.7522
 101   2.0000      -6.050058      -164.6304
 102   2.0000      -6.046210      -164.5257
 103   2.0000      -6.046103      -164.5228
 104   2.0000      -6.043350      -164.4479
 105   2.0000      -6.041792      -164.4055
 106   2.0000      -6.041045      -164.3852
 107   2.0000      -6.039147      -164.3335
 108   2.0000      -6.037672      -164.2934
 109   2.0000      -6.036520      -164.2621
 110   2.0000      -6.035430      -164.2324
 111   2.0000      -6.035066      -164.2225
 112   2.0000      -6.033820      -164.1886
 113   2.0000      -6.033227      -164.1724
 114   2.0000      -6.031397      -164.1226
 115   2.0000      -6.028951      -164.0561
 116   2.0000      -6.026663      -163.9938
 117   2.0000      -6.025322      -163.9573
 118   2.0000      -2.748483       -74.7900
 119   2.0000      -2.744941       -74.6937
 120   2.0000      -2.744418       -74.6794
 121   2.0000      -2.744222       -74.6741
 122   2.0000      -2.740857       -74.5825
 123   2.0000      -2.740761       -74.5799
 124   2.0000      -2.732617       -74.3583
 125   2.0000      -2.732602       -74.3579
 126   2.0000      -2.729228       -74.2661
 127   2.0000      -2.729215       -74.2657
 128   2.0000      -1.397188       -38.0194
 129   2.0000      -1.392140       -37.8820
 130   2.0000      -1.320230       -35.9253
 131   2.0000      -1.299218       -35.3535
 132   2.0000      -1.295044       -35.2399
 133   2.0000      -1.293581       -35.2001
 134   2.0000      -1.292150       -35.1612
 135   2.0000      -1.146835       -31.2070
 136   2.0000      -1.139530       -31.0082
 137   2.0000      -1.122825       -30.5536
 138   2.0000      -1.097720       -29.8705
 139   2.0000      -1.028609       -27.9899
 140   2.0000      -1.027555       -27.9612
 141   2.0000      -1.021135       -27.7865
 142   2.0000      -1.018926       -27.7264
 143   2.0000      -1.017688       -27.6927
 144   2.0000      -1.015469       -27.6323
 145   2.0000      -1.008528       -27.4435
 146   2.0000      -1.000440       -27.2234
 147   2.0000      -0.997406       -27.1408
 148   2.0000      -0.995715       -27.0948
 149   2.0000      -0.990438       -26.9512
 150   2.0000      -0.984793       -26.7976
 151   2.0000      -0.949496       -25.8371
 152   2.0000      -0.941119       -25.6092
 153   2.0000      -0.938598       -25.5405
 154   2.0000      -0.927647       -25.2426
 155   2.0000      -0.915087       -24.9008
 156   2.0000      -0.914024       -24.8719
 157   2.0000      -0.908868       -24.7316
 158   2.0000      -0.907196       -24.6861
 159   2.0000      -0.900403       -24.5012
 160   2.0000      -0.891650       -24.2630
 161   2.0000      -0.887604       -24.1529
 162   2.0000      -0.885441       -24.0941
 163   2.0000      -0.884059       -24.0565
 164   2.0000      -0.877107       -23.8673
 165   2.0000      -0.870358       -23.6836
 166   2.0000      -0.861448       -23.4412
 167   2.0000      -0.852841       -23.2070
 168   2.0000      -0.846052       -23.0222
 169   2.0000      -0.842988       -22.9389
 170   2.0000      -0.834649       -22.7120
 171   2.0000      -0.830550       -22.6004
 172   2.0000      -0.826630       -22.4938
 173   2.0000      -0.803783       -21.8720
 174   2.0000      -0.798426       -21.7263
 175   2.0000      -0.789207       -21.4754
 176   2.0000      -0.777336       -21.1524
 177   2.0000      -0.773721       -21.0540
 178   2.0000      -0.767931       -20.8965
 179   2.0000      -0.757328       -20.6080
 180   2.0000      -0.751628       -20.4528
 181   2.0000      -0.742800       -20.2126
 182   2.0000      -0.731925       -19.9167
 183   2.0000      -0.720843       -19.6151
 184   2.0000      -0.718179       -19.5426
 185   2.0000      -0.711932       -19.3726
 186   2.0000      -0.706385       -19.2217
 187   2.0000      -0.700393       -19.0587
 188   2.0000      -0.699009       -19.0210
 189   2.0000      -0.692962       -18.8564
 190   2.0000      -0.691516       -18.8171
 191   2.0000      -0.685754       -18.6603
 192   2.0000      -0.678558       -18.4645
 193   2.0000      -0.677055       -18.4236
 194   2.0000      -0.676270       -18.4022
 195   2.0000      -0.674092       -18.3430
 196   2.0000      -0.671738       -18.2789
 197   2.0000      -0.671431       -18.2706
 198   2.0000      -0.662285       -18.0217
 199   2.0000      -0.658619       -17.9219
 200   2.0000      -0.651054       -17.7161
 201   2.0000      -0.648084       -17.6353
 202   2.0000      -0.642610       -17.4863
 203   2.0000      -0.637553       -17.3487
 204   2.0000      -0.632306       -17.2059
 205   2.0000      -0.631714       -17.1898
 206   2.0000      -0.629601       -17.1323
 207   2.0000      -0.625748       -17.0275
 208   2.0000      -0.620770       -16.8920
 209   2.0000      -0.619439       -16.8558
 210   2.0000      -0.615104       -16.7378
 211   2.0000      -0.608644       -16.5621
 212   2.0000      -0.596924       -16.2431
 213   2.0000      -0.595484       -16.2039
 214   2.0000      -0.592936       -16.1346
 215   2.0000      -0.589009       -16.0277
 216   2.0000      -0.585305       -15.9270
 217   2.0000      -0.577570       -15.7165
 218   2.0000      -0.574572       -15.6349
 219   2.0000      -0.570067       -15.5123
 220   2.0000      -0.568568       -15.4715
 221   2.0000      -0.562425       -15.3044
 222   2.0000      -0.560192       -15.2436
 223   2.0000      -0.557353       -15.1664
 224   2.0000      -0.555418       -15.1137
 225   2.0000      -0.553318       -15.0566
 226   2.0000      -0.551019       -14.9940
 227   2.0000      -0.548582       -14.9277
 228   2.0000      -0.547948       -14.9104
 229   2.0000      -0.546294       -14.8654
 230   2.0000      -0.544725       -14.8227
 231   2.0000      -0.542582       -14.7644
 232   2.0000      -0.542158       -14.7529
 233   2.0000      -0.538347       -14.6492
 234   2.0000      -0.531911       -14.4740
 235   2.0000      -0.531607       -14.4658
 236   2.0000      -0.529675       -14.4132
 237   2.0000      -0.528938       -14.3931
 238   2.0000      -0.526375       -14.3234
 239   2.0000      -0.523538       -14.2462
 240   2.0000      -0.520975       -14.1765
 241   2.0000      -0.516998       -14.0682
 242   2.0000      -0.515703       -14.0330
 243   2.0000      -0.514277       -13.9942
 244   2.0000      -0.511959       -13.9311
 245   2.0000      -0.510238       -13.8843
 246   2.0000      -0.509360       -13.8604
 247   2.0000      -0.505979       -13.7684
 248   2.0000      -0.504981       -13.7412
 249   2.0000      -0.502906       -13.6848
 250   2.0000      -0.501313       -13.6414
 251   2.0000      -0.499674       -13.5968
 252   2.0000      -0.498218       -13.5572
 253   2.0000      -0.496820       -13.5192
 254   2.0000      -0.494749       -13.4628
 255   2.0000      -0.491426       -13.3724
 256   2.0000      -0.490861       -13.3570
 257   2.0000      -0.487517       -13.2660
 258   2.0000      -0.486228       -13.2309
 259   2.0000      -0.485106       -13.2004
 260   2.0000      -0.482100       -13.1186
 261   2.0000      -0.480252       -13.0683
 262   2.0000      -0.479360       -13.0441
 263   2.0000      -0.478526       -13.0213
 264   2.0000      -0.474525       -12.9125
 265   2.0000      -0.470076       -12.7914
 266   2.0000      -0.466264       -12.6877
 267   2.0000      -0.465085       -12.6556
 268   2.0000      -0.463594       -12.6150
 269   2.0000      -0.460724       -12.5369
 270   2.0000      -0.456219       -12.4144
 271   2.0000      -0.454459       -12.3664
 272   2.0000      -0.451064       -12.2741
 273   2.0000      -0.449757       -12.2385
 274   2.0000      -0.449558       -12.2331
 275   2.0000      -0.446471       -12.1491
 276   2.0000      -0.445248       -12.1158
 277   2.0000      -0.443862       -12.0781
 278   2.0000      -0.442792       -12.0490
 279   2.0000      -0.440149       -11.9771
 280   2.0000      -0.438894       -11.9429
 281   2.0000      -0.436479       -11.8772
 282   2.0000      -0.434435       -11.8216
 283   2.0000      -0.432412       -11.7665
 284   2.0000      -0.429587       -11.6897
 285   2.0000      -0.428210       -11.6522
 286   2.0000      -0.426895       -11.6164
 287   2.0000      -0.418727       -11.3941
 288   2.0000      -0.417389       -11.3577
 289   2.0000      -0.416570       -11.3354
 290   2.0000      -0.409874       -11.1532
 291   2.0000      -0.407084       -11.0773
 292   2.0000      -0.402992       -10.9660
 293   2.0000      -0.395016       -10.7489
 294   2.0000      -0.391528       -10.6540
 295   2.0000      -0.386537       -10.5182
 296   2.0000      -0.386113       -10.5067
 297   2.0000      -0.379969       -10.3395
 298   2.0000      -0.378365       -10.2958
 299   2.0000      -0.375742       -10.2245
 300   2.0000      -0.374122       -10.1804
 301   2.0000      -0.370239       -10.0747
 302   2.0000      -0.367620       -10.0034
 303   2.0000      -0.359096        -9.7715
 304   2.0000      -0.358388        -9.7522
 305   2.0000      -0.350385        -9.5345
 306   2.0000      -0.345769        -9.4088
 307   2.0000      -0.340420        -9.2633
 308   2.0000      -0.338822        -9.2198
 309   2.0000      -0.333429        -9.0731
 310   2.0000      -0.323175        -8.7940
 311   2.0000      -0.321108        -8.7378
 312   2.0000      -0.316226        -8.6050
 313   2.0000      -0.309585        -8.4242
 314   2.0000      -0.298722        -8.1286
 315   2.0000      -0.294288        -8.0080
 316   2.0000      -0.289216        -7.8700
 317   2.0000      -0.263747        -7.1769
 318   2.0000      -0.237457        -6.4615
 319   0.0000      -0.111925        -3.0456
 320   0.0000      -0.100999        -2.7483
 321   0.0000      -0.071593        -1.9481
 322   0.0000      -0.067321        -1.8319
 323   0.0000      -0.059182        -1.6104

MULLIKEN ATOMIC CHARGES
-----------------------
   0 C :    0.317496
   1 C :   -0.340821
   2 C :   -0.187536
   3 N :    0.152664
   4 C :   -0.203704
   5 N :    0.173546
   6 C :    0.012246
   7 C :    0.001841
   8 C :   -0.077373
   9 C :    0.116284
  10 C :   -0.088676
  11 C :   -0.022521
  12 S :    0.191481
  13 C :   -0.123831
  14 C :    0.039448
  15 Br:    0.028984
  16 C :    0.167389
  17 O :   -0.189649
  18 C :   -0.079965
  19 C :   -0.041454
  20 C :   -0.091482
  21 S :    0.176129
  22 C :   -0.073969
  23 C :   -0.085926
  24 C :   -0.052632
  25 C :    0.545044
  26 F :   -0.171815
  27 F :   -0.145225
  28 F :   -0.139624
  29 C :    0.530942
  30 F :   -0.155904
  31 F :   -0.150342
  32 F :   -0.157476
  33 C :   -0.000611
  34 C :    0.016914
  35 N :   -0.026706
  36 C :   -0.097801
  37 S :    0.150249
  38 C :    0.001002
  39 N :    0.276661
  40 O :   -0.252789
  41 O :   -0.265378
  42 C :    0.006829
  43 C :    0.118528
  44 C :   -0.025244
  45 C :    0.013329
  46 C :    0.008296
  47 C :   -0.040046
  48 C :    0.065446
  49 C :    0.028157
  50 C :   -0.013943
  51 S :    0.091711
  52 C :   -0.065833
  53 C :    0.051265
  54 C :    0.064359
  55 C :   -0.058719
  56 S :    0.097330
  57 C :    0.006151
  58 C :    0.029573
  59 C :   -0.144077
  60 C :    0.278243
  61 C :   -0.375268
  62 C :   -0.102322
  63 N :    0.066527
  64 C :   -0.187155
  65 N :    0.168670
  66 C :   -0.004939
  67 C :    0.023296
  68 C :    0.134990
  69 O :   -0.135770
  70 C :   -0.096203
  71 C :    0.120646
  72 C :   -0.098510
  73 C :   -0.020458
  74 S :    0.159107
  75 C :   -0.111698
  76 C :    0.031946
  77 Br:    0.017674
  78 H :   -0.008433
  79 H :   -0.003695
  80 H :   -0.000890
  81 H :    0.027873
  82 H :    0.021500
  83 H :    0.051245
  84 H :    0.156395
  85 H :    0.010548
  86 H :   -0.002117
  87 H :    0.002798
  88 H :   -0.003720
  89 H :    0.000529
  90 H :   -0.000603
  91 H :   -0.003860
  92 H :   -0.003440
  93 H :    0.000087
  94 H :    0.028228
  95 H :   -0.008716
  96 H :   -0.035466
  97 H :   -0.005255
Sum of atomic charges:   -0.0000000

LOEWDIN ATOMIC CHARGES
----------------------
   0 C :    0.072361
   1 C :   -0.132272
   2 C :   -0.017370
   3 N :   -0.048641
   4 C :   -0.029316
   5 N :   -0.033631
   6 C :   -0.018783
   7 C :   -0.052726
   8 C :    0.021024
   9 C :   -0.033341
  10 C :   -0.142442
  11 C :   -0.009414
  12 S :    0.437774
  13 C :   -0.270723
  14 C :   -0.070292
  15 Br:    0.141367
  16 C :    0.083944
  17 O :   -0.168314
  18 C :   -0.097468
  19 C :    0.051360
  20 C :   -0.176251
  21 S :    0.539910
  22 C :   -0.128295
  23 C :   -0.123220
  24 C :   -0.068713
  25 C :    0.163203
  26 F :   -0.058634
  27 F :   -0.043742
  28 F :   -0.035538
  29 C :    0.163153
  30 F :   -0.055431
  31 F :   -0.046380
  32 F :   -0.051793
  33 C :   -0.093896
  34 C :    0.030670
  35 N :    0.054421
  36 C :   -0.085155
  37 S :    0.461294
  38 C :   -0.215350
  39 N :    0.273117
  40 O :   -0.218244
  41 O :   -0.231713
  42 C :    0.006243
  43 C :   -0.111252
  44 C :    0.006114
  45 C :   -0.045139
  46 C :   -0.008770
  47 C :   -0.160140
  48 C :   -0.000691
  49 C :   -0.040432
  50 C :   -0.135020
  51 S :    0.404210
  52 C :   -0.198644
  53 C :   -0.010599
  54 C :   -0.033587
  55 C :   -0.110281
  56 S :    0.463637
  57 C :   -0.075369
  58 C :    0.043800
  59 C :   -0.110963
  60 C :    0.047098
  61 C :   -0.184221
  62 C :    0.034375
  63 N :   -0.108055
  64 C :   -0.029313
  65 N :   -0.057886
  66 C :   -0.015929
  67 C :   -0.051234
  68 C :    0.086107
  69 O :   -0.136020
  70 C :    0.019426
  71 C :   -0.042223
  72 C :   -0.151870
  73 C :   -0.027900
  74 S :    0.424389
  75 C :   -0.277189
  76 C :   -0.071499
  77 Br:    0.148706
  78 H :    0.037881
  79 H :    0.041870
  80 H :    0.039709
  81 H :    0.045310
  82 H :    0.030794
  83 H :    0.013328
  84 H :    0.082092
  85 H :    0.045882
  86 H :    0.035324
  87 H :    0.018129
  88 H :    0.038466
  89 H :    0.039035
  90 H :    0.037048
  91 H :    0.036149
  92 H :    0.037548
  93 H :    0.041175
  94 H :    0.047877
  95 H :    0.039962
  96 H :    0.028624
  97 H :    0.037404

  Mayer bond orders larger than 0.100000
B(  0-C ,  1-C ) :   1.6416 B(  0-C ,  6-C ) :   1.0035 B(  0-C , 18-C ) :   1.0514
B(  1-C ,  2-C ) :   1.1442 B(  1-C ,  4-C ) :   1.1387 B(  2-C ,  3-N ) :   2.9689
B(  4-C ,  5-N ) :   2.9823 B(  6-C ,  7-C ) :   1.2711 B(  6-C , 11-C ) :   1.4086
B(  7-C ,  8-C ) :   1.4067 B(  7-C , 16-C ) :   0.9719 B(  8-C ,  9-C ) :   1.2462
B(  8-C , 78-H ) :   1.0177 B(  9-C , 10-C ) :   1.3004 B(  9-C , 14-C ) :   1.1642
B( 10-C , 11-C ) :   1.3282 B( 10-C , 12-S ) :   1.0904 B( 11-C , 79-H ) :   0.9801
B( 12-S , 13-C ) :   1.0871 B( 13-C , 14-C ) :   1.6158 B( 13-C , 15-Br) :   1.0214
B( 14-C , 80-H ) :   1.0008 B( 16-C , 17-O ) :   2.0807 B( 16-C , 18-C ) :   0.9701
B( 18-C , 19-C ) :   1.5722 B( 19-C , 20-C ) :   1.2201 B( 19-C , 81-H ) :   0.9209
B( 20-C , 21-S ) :   1.1065 B( 20-C , 24-C ) :   1.4241 B( 21-S , 22-C ) :   1.1270
B( 22-C , 23-C ) :   1.4152 B( 22-C , 33-C ) :   1.1965 B( 23-C , 24-C ) :   1.3865
B( 23-C , 29-C ) :   0.9443 B( 24-C , 25-C ) :   0.9401 B( 25-C , 26-F ) :   1.1023
B( 25-C , 27-F ) :   1.1622 B( 25-C , 28-F ) :   1.1558 B( 29-C , 30-F ) :   1.1403
B( 29-C , 31-F ) :   1.1608 B( 29-C , 32-F ) :   1.1332 B( 33-C , 34-C ) :   1.6180
B( 33-C , 82-H ) :   0.9545 B( 34-C , 35-N ) :   1.1655 B( 34-C , 83-H ) :   0.9510
B( 35-N , 36-C ) :   1.2458 B( 35-N , 84-H ) :   0.8618 B( 36-C , 37-S ) :   1.1437
B( 36-C , 43-C ) :   1.3367 B( 37-S , 38-C ) :   1.0616 B( 38-C , 39-N ) :   0.9730
B( 38-C , 42-C ) :   1.4994 B( 39-N , 40-O ) :   1.5343 B( 39-N , 41-O ) :   1.5102
B( 40-O , 41-O ) :   0.2564 B( 42-C , 43-C ) :   1.2091 B( 42-C , 85-H ) :   1.0065
B( 43-C , 44-C ) :   1.0854 B( 44-C , 45-C ) :   1.6578 B( 44-C , 86-H ) :   0.9682
B( 45-C , 46-C ) :   1.1699 B( 45-C , 87-H ) :   0.9621 B( 46-C , 47-C ) :   1.5669
B( 46-C , 88-H ) :   0.9840 B( 47-C , 48-C ) :   1.1431 B( 47-C , 51-S ) :   1.0245
B( 48-C , 49-C ) :   1.5896 B( 48-C , 89-H ) :   0.9971 B( 49-C , 50-C ) :   1.1914
B( 49-C , 90-H ) :   0.9952 B( 50-C , 51-S ) :   1.0989 B( 50-C , 52-C ) :   1.4571
B( 52-C , 53-C ) :   1.2060 B( 52-C , 56-S ) :   1.0395 B( 53-C , 54-C ) :   1.5693
B( 53-C , 91-H ) :   0.9903 B( 54-C , 55-C ) :   1.1721 B( 54-C , 92-H ) :   0.9955
B( 55-C , 56-S ) :   1.1243 B( 55-C , 57-C ) :   1.4268 B( 57-C , 58-C ) :   1.3512
B( 57-C , 93-H ) :   0.9569 B( 58-C , 59-C ) :   1.4499 B( 58-C , 94-H ) :   0.9293
B( 59-C , 60-C ) :   1.1631 B( 59-C , 68-C ) :   0.9556 B( 60-C , 61-C ) :   1.5139
B( 60-C , 66-C ) :   0.9859 B( 61-C , 62-C ) :   1.2189 B( 61-C , 64-C ) :   1.1452
B( 62-C , 63-N ) :   2.8129 B( 63-N , 84-H ) :   0.1221 B( 64-C , 65-N ) :   3.0129
B( 66-C , 67-C ) :   1.2939 B( 66-C , 73-C ) :   1.4362 B( 67-C , 68-C ) :   0.9059
B( 67-C , 70-C ) :   1.4260 B( 68-C , 69-O ) :   2.2649 B( 70-C , 71-C ) :   1.2254
B( 70-C , 95-H ) :   1.0217 B( 71-C , 72-C ) :   1.3336 B( 71-C , 76-C ) :   1.1536
B( 72-C , 73-C ) :   1.2968 B( 72-C , 74-S ) :   1.0767 B( 73-C , 96-H ) :   0.9846
B( 74-S , 75-C ) :   1.0756 B( 75-C , 76-C ) :   1.6210 B( 75-C , 77-Br) :   1.0160
B( 76-C , 97-H ) :   1.0021

-----------------------------------------------------------------------------
         ABSORPTION SPECTRUM VIA TRANSITION ELECTRIC DIPOLE MOMENTS
-----------------------------------------------------------------------------
State   Energy  Wavelength   fosc         T2         TX        TY        TZ
        (cm-1)    (nm)                  (au**2)     (au)      (au)      (au)
-----------------------------------------------------------------------------
   0   11131.8    898.3   0.177820322   5.25885  -0.27273  -1.78168   1.41778
   1   17043.5    586.7   0.664016560  12.82614   0.11750   3.16522   1.67144
   2   18403.1    543.4   0.479194659   8.57230  -0.19817   2.20188   1.91958
   3   20275.2    493.2   0.179925083   2.92147  -0.25370  -0.48035   1.62061
   4   21030.4    475.5   0.213252007   3.33826  -0.94343  -1.53837   0.28571
   5   22259.5    449.2   0.020240821   0.29936  -0.38526  -0.29725  -0.25015
   6   23684.3    422.2   0.053257506   0.74028   0.22259  -0.80325   0.21335
   7   24324.8    411.1   0.029701359   0.40198  -0.47807  -0.33669   0.24508
   8   24543.6    407.4   0.054196568   0.72696  -0.12362   0.41691  -0.73339
   9   25384.1    393.9   0.073162794   0.94886   0.30958  -0.79401   0.47177
  10   25805.4    387.5   0.590750615   7.53649  -0.92194   0.05474   2.58525
  11   26488.7    377.5   0.328182970   4.07878   0.45156   1.36173  -1.42147
  12   26900.5    371.7   0.105282962   1.28846  -0.85539   0.53089  -0.52434
  13   27244.7    367.0   0.386847467   4.67447  -0.45026  -0.38955   2.07846
  14   27684.3    361.2   0.007481419   0.08897   0.26327  -0.12839   0.05632
  15   27945.3    357.8   0.032477147   0.38260  -0.08911  -0.11520  -0.60116
  16   28548.8    350.3   0.028565997   0.32941  -0.21758   0.28815   0.44614
  17   29001.2    344.8   0.120976574   1.37329  -0.49301   0.06091  -1.06137
  18   29331.7    340.9   0.295591832   3.31765  -0.30841   1.15389  -1.37516
  19   29507.6    338.9   0.017222483   0.19215   0.04559  -0.26626   0.34522
  20   29922.2    334.2   0.020840170   0.22929  -0.18315   0.42994  -0.10441
  21   29991.8    333.4   0.226337570   2.48445  -0.63479   0.27942  -1.41542
  22   30263.2    330.4   0.117181377   1.27473  -0.12016   0.88549  -0.69008
  23   30739.2    325.3   0.262623253   2.81266  -0.79712  -1.09037  -0.99416
  24   31013.2    322.4   0.059144353   0.62783   0.21643   0.13052   0.75097
  25   31617.1    316.3   0.298400040   3.10708  -0.67162  -0.00980  -1.62970
  26   31678.2    315.7   0.048590342   0.50497   0.24052  -0.37038   0.55672
  27   31938.0    313.1   0.028495753   0.29373   0.31569  -0.13461   0.41946
  28   32081.5    311.7   0.443719946   4.55334  -1.06493   1.00964  -1.54916
  29   32520.5    307.5   0.123774466   1.25299   0.35692   0.06509   1.05895
  30   32741.5    305.4   0.038887441   0.39101  -0.09058  -0.61043  -0.10086
  31   32840.6    304.5   0.136662560   1.36998   0.53089  -0.76810  -0.70581
  32   33264.4    300.6   0.021171712   0.20953   0.05778  -0.09910  -0.44314
  33   33422.2    299.2   0.010761669   0.10600   0.19290   0.00245  -0.26227
  34   33765.7    296.2   0.177037520   1.72610  -0.09419  -1.19360   0.54087
  35   33881.2    295.1   0.006399267   0.06218  -0.17825  -0.07410   0.15785
  36   34267.6    291.8   0.044763912   0.43005   0.09278   0.07519   0.64482
  37   34611.7    288.9   0.013453036   0.12796  -0.29499  -0.12416   0.15976
  38   34800.1    287.4   0.039193760   0.37078   0.04236  -0.00357   0.60743
  39   34974.4    285.9   0.000474461   0.00447   0.06621   0.00899  -0.00146
  40   35351.2    282.9   0.111955182   1.04259  -0.48479   0.62869  -0.64213
  41   35627.4    280.7   0.135706746   1.25399   0.57848   0.71128   0.64297
  42   36053.6    277.4   0.162540963   1.48419  -0.23180   1.10116  -0.46679
  43   36344.9    275.1   0.018646180   0.16890  -0.10409  -0.36084  -0.16691
  44   36543.4    273.6   0.022988166   0.20710   0.06536  -0.43051  -0.13224
  45   36729.7    272.3   0.003080529   0.02761   0.03276  -0.16142  -0.02194
  46   36831.9    271.5   0.221829781   1.98276  -0.43917  -0.82445  -1.05364
  47   37162.3    269.1   0.135378677   1.19929  -0.22023  -0.96885  -0.46057
  48   37449.6    267.0   0.093469457   0.82167  -0.31121  -0.79117  -0.31443
  49   37490.0    266.7   0.019072678   0.16748   0.02991  -0.33728  -0.22985
  50   37812.6    264.5   0.007410972   0.06452   0.17579  -0.09567   0.15643
  51   38028.3    263.0   0.055550904   0.48091   0.13418  -0.33510   0.59212
  52   38102.6    262.4   0.005935277   0.05128  -0.06797   0.15252   0.15297
  53   38182.0    261.9   0.004421948   0.03813  -0.06231   0.12448   0.13693
  54   38213.2    261.7   0.004269505   0.03678  -0.00814  -0.06900   0.17876
  55   38377.4    260.6   0.069889528   0.59953   0.11490  -0.70252  -0.30462
  56   38846.3    257.4   0.031052905   0.26317   0.07463   0.48698   0.14300
  57   39154.6    255.4   0.026401828   0.22199  -0.17166   0.20244  -0.38928
  58   39290.6    254.5   0.042172093   0.35336  -0.25478  -0.45164  -0.29063
  59   39323.4    254.3   0.036493609   0.30552  -0.33960  -0.09130  -0.42645
  60   39638.9    252.3   0.033084447   0.27478  -0.26722  -0.40435  -0.19967
  61   39809.8    251.2   0.048462200   0.40076  -0.44121   0.19398  -0.41044
  62   39883.9    250.7   0.075864272   0.62620  -0.15870  -0.44599  -0.63412

FINAL SINGLE POINT ENERGY    -10830.387664687247

DIPOLE MOMENT
-------------
                                X             Y             Z
Electronic contribution:    -47.83917     -63.15437    -149.61949
Nuclear contribution   :     45.60127      67.16047     151.32646
                        -----------------------------------------
Total Dipole Moment    :     -2.23790       4.00610       1.70697
                        -----------------------------------------
Magnitude (a.u.)       :      4.89599
Magnitude (Debye)      :     12.44463

Rotational constants in cm-1:     0.001025     0.000416     0.000342
Rotational constants in MHz :    30.742611    12.478944    10.241161

                             ****ORCA TERMINATED NORMALLY****
TOTAL RUN TIME: 0 days 0 hours 15 minutes 26 seconds 582 msec
