                         Program Version 4.2.0 -  RELEASE  -
|  1> # ORCA input file
|  2> # SCF done       -195.819080131141          0.000705189439
|  3> ! CAM-B3LYP def2-SVP def2/J RIJCOSX Grid4 TightSCF
|  4> %maxcore 5000
|  5> %tddft
|  6>     Mode sTDDFT
|  7>     Ethresh 5.0
|  8>     maxcore 5000
|  9> end
| 10>
| 11> %pal
| 12>   nprocs 6
| 13>   end
| 14> * xyz 0 1
| 15>    C      -23.24819        -8.81873        -5.49445
| 16>    C      -22.81780        -9.88004        -4.74830
| 17>    F      -23.63782       -10.91592        -4.51316
| 18>    C      -21.50933        -9.90781        -4.22976
| 19>    F      -21.10520       -10.97280        -3.51827
| 20>    C      -20.65153        -8.86877        -4.45502
| 21>    C      -21.06457        -7.76278        -5.22171
| 22>    C      -22.38297        -7.73842        -5.75967
| 23>    C      -22.80357        -6.66075        -6.57355
| 24>    C      -21.92593        -5.64674        -6.85292
| 25>    C      -20.62653        -5.66406        -6.27996
| 26>    C      -20.19500        -6.68049        -5.48082
| 27>    C      -19.89105        -4.45591        -6.70866
| 28>    O      -18.86982        -4.03802        -6.20561
| 29>    C      -20.75185        -3.80628        -7.72333
| 30>    C      -22.02917        -4.47865        -7.72912
| 31>    C      -23.13484        -4.15471        -8.47620
| 32>    C      -24.33688        -4.88894        -8.46350
| 33>    N      -25.34057        -5.44611        -8.50643
| 34>    C      -23.22510        -3.06809        -9.36891
| 35>    N      -23.37951        -2.21423       -10.12173
| 36>    C      -20.39805        -2.69257        -8.44911
| 37>    C      -19.07386        -2.26314        -8.60769
| 38>    S      -18.66291        -0.59542        -8.94149
| 39>    C      -16.96025        -0.87112        -8.78955
| 40>    C      -15.97782         0.23635        -8.91738
| 41>    C      -16.18961         1.30656        -7.84585
| 42>    C      -16.72340        -2.19563        -8.55205
| 43>    C      -17.89906        -3.00527        -8.50442
| 44>    N      -17.67745        -4.32528        -8.42675
| 45>    C      -16.42355        -4.60892        -8.31302
| 46>    S      -15.32509        -3.19325        -8.30205
| 47>    C      -15.94019        -5.94017        -8.22962
| 48>    C      -14.67229        -6.28403        -7.93586
| 49>    C      -14.27897        -7.65734        -7.82796
| 50>    C      -13.18896        -8.08410        -7.17383
| 51>    C      -12.18780        -7.15276        -6.55625
| 52>    C      -12.86658        -9.53745        -6.94411
| 53>    N      -13.88046       -10.51245        -7.27159
| 54>    C      -15.17033       -10.51230        -6.89293
| 55>    C      -15.91393       -11.65765        -6.86575
| 56>    C      -17.30420       -11.77328        -6.70058
| 57>    C      -18.30173       -10.86264        -6.95012
| 58>    C      -19.68207       -11.17601        -6.91496
| 59>    C      -20.49011       -10.23170        -7.46942
| 60>    C      -19.79911        -9.09938        -7.95584
| 61>    S      -18.09462        -9.24100        -7.61491
| 62>    C      -20.34875        -8.05310        -8.67832
| 63>    C      -21.67841        -7.94325        -9.13226
| 64>    C      -21.89022        -6.86896        -9.94465
| 65>    C      -20.73976        -6.08597       -10.19117
| 66>    S      -19.39500        -6.71269        -9.28224
| 67>    C      -20.73635        -4.94616       -10.98793
| 68>    C      -19.70491        -4.13590       -11.42753
| 69>    C      -18.32317        -4.29032       -11.49358
| 70>    C      -17.50599        -3.06608       -11.59848
| 71>    O      -17.90408        -1.91743       -11.67159
| 72>    C      -16.09947        -3.50605       -11.49180
| 73>    C      -14.95684        -2.76282       -11.48343
| 74>    C      -13.72042        -3.40426       -11.23350
| 75>    C      -13.69976        -4.81305       -11.03034
| 76>    C      -12.47922        -5.44076       -10.71839
| 77>    C      -11.34321        -4.68737       -10.62106
| 78>    C      -11.33775        -3.30442       -10.83605
| 79>    C      -12.51642        -2.67985       -11.14106
| 80>    F      -10.17766        -5.28854       -10.29603
| 81>    C      -14.89437        -5.56583       -11.11681
| 82>    C      -16.08006        -4.91872       -11.32332
| 83>    C      -17.45272        -5.41396       -11.43695
| 84>    C      -17.78162        -6.74943       -11.60869
| 85>    C      -18.99721        -7.17051       -12.17292
| 86>    N      -19.96046        -7.54623       -12.67460
| 87>    C      -16.90994        -7.80887       -11.31470
| 88>    N      -16.26130        -8.70919       -11.00963
| 89>    H      -24.25337        -8.81528        -5.88692
| 90>    H      -19.65227        -8.90315        -4.04997
| 91>    H      -23.80689        -6.67487        -6.96688
| 92>    H      -19.19643        -6.66915        -5.07140
| 93>    H      -21.16488        -2.08506        -8.91137
| 94>    H      -16.08591         0.69277        -9.90506
| 95>    H      -14.97242        -0.18444        -8.83671
| 96>    H      -17.18425         1.73652        -7.93516
| 97>    H      -15.45476         2.09901        -7.95927
| 98>    H      -16.08564         0.87439        -6.85337
| 99>    H      -16.69124        -6.70146        -8.39182
|100>    H      -13.94781        -5.50908        -7.72616
|101>    H      -14.96112        -8.36527        -8.27603
|102>    H      -12.59242        -6.70067        -5.65108
|103>    H      -11.93064        -6.34944        -7.24272
|104>    H      -11.27587        -7.68259        -6.29281
|105>    H      -12.58373        -9.64276        -5.88359
|106>    H      -11.97789        -9.78546        -7.53565
|107>    H      -13.52216       -11.41077        -7.56568
|108>    H      -15.59338        -9.56591        -6.59371
|109>    H      -15.38485       -12.59519        -6.99059
|110>    H      -17.66050       -12.76276        -6.43888
|111>    H      -20.03120       -12.11284        -6.51744
|112>    H      -21.55499       -10.33091        -7.57046
|113>    H      -22.43220        -8.66816        -8.88628
|114>    H      -22.83135        -6.64184       -10.41319
|115>    H      -21.72994        -4.61340       -11.26824
|116>    H      -20.02087        -3.15349       -11.77087
|117>    H      -14.99387        -1.69398       -11.63370
|118>    H      -12.44855        -6.50633       -10.55051
|119>    H      -10.40936        -2.76192       -10.75373
|120>    H      -12.53832        -1.61292       -11.30583
|121>    H      -14.84050        -6.63410       -10.98475
|122> *
|123>
|124>                          ****END OF INPUT****

CARTESIAN COORDINATES (ANGSTROEM)
---------------------------------
  C    -23.248190   -8.818730   -5.494450
  C    -22.817800   -9.880040   -4.748300
  F    -23.637820  -10.915920   -4.513160
  C    -21.509330   -9.907810   -4.229760
  F    -21.105200  -10.972800   -3.518270
  C    -20.651530   -8.868770   -4.455020
  C    -21.064570   -7.762780   -5.221710
  C    -22.382970   -7.738420   -5.759670
  C    -22.803570   -6.660750   -6.573550
  C    -21.925930   -5.646740   -6.852920
  C    -20.626530   -5.664060   -6.279960
  C    -20.195000   -6.680490   -5.480820
  C    -19.891050   -4.455910   -6.708660
  O    -18.869820   -4.038020   -6.205610
  C    -20.751850   -3.806280   -7.723330
  C    -22.029170   -4.478650   -7.729120
  C    -23.134840   -4.154710   -8.476200
  C    -24.336880   -4.888940   -8.463500
  N    -25.340570   -5.446110   -8.506430
  C    -23.225100   -3.068090   -9.368910
  N    -23.379510   -2.214230  -10.121730
  C    -20.398050   -2.692570   -8.449110
  C    -19.073860   -2.263140   -8.607690
  S    -18.662910   -0.595420   -8.941490
  C    -16.960250   -0.871120   -8.789550
  C    -15.977820    0.236350   -8.917380
  C    -16.189610    1.306560   -7.845850
  C    -16.723400   -2.195630   -8.552050
  C    -17.899060   -3.005270   -8.504420
  N    -17.677450   -4.325280   -8.426750
  C    -16.423550   -4.608920   -8.313020
  S    -15.325090   -3.193250   -8.302050
  C    -15.940190   -5.940170   -8.229620
  C    -14.672290   -6.284030   -7.935860
  C    -14.278970   -7.657340   -7.827960
  C    -13.188960   -8.084100   -7.173830
  C    -12.187800   -7.152760   -6.556250
  C    -12.866580   -9.537450   -6.944110
  N    -13.880460  -10.512450   -7.271590
  C    -15.170330  -10.512300   -6.892930
  C    -15.913930  -11.657650   -6.865750
  C    -17.304200  -11.773280   -6.700580
  C    -18.301730  -10.862640   -6.950120
  C    -19.682070  -11.176010   -6.914960
  C    -20.490110  -10.231700   -7.469420
  C    -19.799110   -9.099380   -7.955840
  S    -18.094620   -9.241000   -7.614910
  C    -20.348750   -8.053100   -8.678320
  C    -21.678410   -7.943250   -9.132260
  C    -21.890220   -6.868960   -9.944650
  C    -20.739760   -6.085970  -10.191170
  S    -19.395000   -6.712690   -9.282240
  C    -20.736350   -4.946160  -10.987930
  C    -19.704910   -4.135900  -11.427530
  C    -18.323170   -4.290320  -11.493580
  C    -17.505990   -3.066080  -11.598480
  O    -17.904080   -1.917430  -11.671590
  C    -16.099470   -3.506050  -11.491800
  C    -14.956840   -2.762820  -11.483430
  C    -13.720420   -3.404260  -11.233500
  C    -13.699760   -4.813050  -11.030340
  C    -12.479220   -5.440760  -10.718390
  C    -11.343210   -4.687370  -10.621060
  C    -11.337750   -3.304420  -10.836050
  C    -12.516420   -2.679850  -11.141060
  F    -10.177660   -5.288540  -10.296030
  C    -14.894370   -5.565830  -11.116810
  C    -16.080060   -4.918720  -11.323320
  C    -17.452720   -5.413960  -11.436950
  C    -17.781620   -6.749430  -11.608690
  C    -18.997210   -7.170510  -12.172920
  N    -19.960460   -7.546230  -12.674600
  C    -16.909940   -7.808870  -11.314700
  N    -16.261300   -8.709190  -11.009630
  H    -24.253370   -8.815280   -5.886920
  H    -19.652270   -8.903150   -4.049970
  H    -23.806890   -6.674870   -6.966880
  H    -19.196430   -6.669150   -5.071400
  H    -21.164880   -2.085060   -8.911370
  H    -16.085910    0.692770   -9.905060
  H    -14.972420   -0.184440   -8.836710
  H    -17.184250    1.736520   -7.935160
  H    -15.454760    2.099010   -7.959270
  H    -16.085640    0.874390   -6.853370
  H    -16.691240   -6.701460   -8.391820
  H    -13.947810   -5.509080   -7.726160
  H    -14.961120   -8.365270   -8.276030
  H    -12.592420   -6.700670   -5.651080
  H    -11.930640   -6.349440   -7.242720
  H    -11.275870   -7.682590   -6.292810
  H    -12.583730   -9.642760   -5.883590
  H    -11.977890   -9.785460   -7.535650
  H    -13.522160  -11.410770   -7.565680
  H    -15.593380   -9.565910   -6.593710
  H    -15.384850  -12.595190   -6.990590
  H    -17.660500  -12.762760   -6.438880
  H    -20.031200  -12.112840   -6.517440
  H    -21.554990  -10.330910   -7.570460
  H    -22.432200   -8.668160   -8.886280
  H    -22.831350   -6.641840  -10.413190
  H    -21.729940   -4.613400  -11.268240
  H    -20.020870   -3.153490  -11.770870
  H    -14.993870   -1.693980  -11.633700
  H    -12.448550   -6.506330  -10.550510
  H    -10.409360   -2.761920  -10.753730
  H    -12.538320   -1.612920  -11.305830
  H    -14.840500   -6.634100  -10.984750

 Total Charge           Charge          ....    0
 Multiplicity           Mult            ....    1
 Number of Electrons    NEL             ....  536
 Basis Dimension        Dim             .... 1217

ORBITAL ENERGIES
----------------

  NO   OCC          E(Eh)            E(eV)
   0   2.0000     -88.965938     -2420.8863
   1   2.0000     -88.962745     -2420.7994
   2   2.0000     -88.959202     -2420.7030
   3   2.0000     -88.958346     -2420.6797
   4   2.0000     -24.796703      -674.7526
   5   2.0000     -24.794646      -674.6966
   6   2.0000     -24.780778      -674.3192
   7   2.0000     -19.198094      -522.4067
   8   2.0000     -19.190611      -522.2031
   9   2.0000     -14.466991      -393.6668
  10   2.0000     -14.411664      -392.1613
  11   2.0000     -14.406239      -392.0137
  12   2.0000     -14.406069      -392.0091
  13   2.0000     -14.395038      -391.7089
  14   2.0000     -14.384778      -391.4297
  15   2.0000     -10.375903      -282.3427
  16   2.0000     -10.375502      -282.3318
  17   2.0000     -10.360924      -281.9351
  18   2.0000     -10.350416      -281.6491
  19   2.0000     -10.349620      -281.6275
  20   2.0000     -10.345888      -281.5259
  21   2.0000     -10.339862      -281.3620
  22   2.0000     -10.339286      -281.3463
  23   2.0000     -10.335458      -281.2421
  24   2.0000     -10.329832      -281.0890
  25   2.0000     -10.327926      -281.0372
  26   2.0000     -10.318742      -280.7872
  27   2.0000     -10.315925      -280.7106
  28   2.0000     -10.314329      -280.6672
  29   2.0000     -10.313581      -280.6468
  30   2.0000     -10.311200      -280.5820
  31   2.0000     -10.310423      -280.5609
  32   2.0000     -10.310274      -280.5568
  33   2.0000     -10.309946      -280.5479
  34   2.0000     -10.309498      -280.5357
  35   2.0000     -10.306487      -280.4538
  36   2.0000     -10.305645      -280.4308
  37   2.0000     -10.304955      -280.4121
  38   2.0000     -10.303610      -280.3755
  39   2.0000     -10.302444      -280.3437
  40   2.0000     -10.302127      -280.3351
  41   2.0000     -10.301694      -280.3233
  42   2.0000     -10.301377      -280.3147
  43   2.0000     -10.301313      -280.3130
  44   2.0000     -10.296341      -280.1777
  45   2.0000     -10.296221      -280.1744
  46   2.0000     -10.295529      -280.1556
  47   2.0000     -10.295496      -280.1547
  48   2.0000     -10.292863      -280.0830
  49   2.0000     -10.291782      -280.0536
  50   2.0000     -10.290399      -280.0160
  51   2.0000     -10.289548      -279.9928
  52   2.0000     -10.288717      -279.9702
  53   2.0000     -10.288672      -279.9690
  54   2.0000     -10.288517      -279.9648
  55   2.0000     -10.287263      -279.9307
  56   2.0000     -10.286896      -279.9207
  57   2.0000     -10.286865      -279.9198
  58   2.0000     -10.285332      -279.8781
  59   2.0000     -10.285302      -279.8773
  60   2.0000     -10.285239      -279.8756
  61   2.0000     -10.282402      -279.7984
  62   2.0000     -10.281624      -279.7772
  63   2.0000     -10.281229      -279.7665
  64   2.0000     -10.281087      -279.7626
  65   2.0000     -10.280895      -279.7574
  66   2.0000     -10.280755      -279.7536
  67   2.0000     -10.280122      -279.7363
  68   2.0000     -10.277593      -279.6675
  69   2.0000     -10.272496      -279.5288
  70   2.0000     -10.269987      -279.4606
  71   2.0000     -10.268180      -279.4114
  72   2.0000     -10.267283      -279.3870
  73   2.0000     -10.262484      -279.2564
  74   2.0000      -8.060948      -219.3496
  75   2.0000      -8.057713      -219.2615
  76   2.0000      -8.052919      -219.1311
  77   2.0000      -8.052283      -219.1138
  78   2.0000      -6.030644      -164.1022
  79   2.0000      -6.027037      -164.0040
  80   2.0000      -6.026550      -163.9908
  81   2.0000      -6.022908      -163.8916
  82   2.0000      -6.022541      -163.8817
  83   2.0000      -6.022245      -163.8736
  84   2.0000      -6.021660      -163.8577
  85   2.0000      -6.019779      -163.8065
  86   2.0000      -6.018793      -163.7797
  87   2.0000      -6.017471      -163.7437
  88   2.0000      -6.014419      -163.6607
  89   2.0000      -6.014061      -163.6509
  90   2.0000      -1.317482       -35.8505
  91   2.0000      -1.302712       -35.4486
  92   2.0000      -1.293739       -35.2044
  93   2.0000      -1.114787       -30.3349
  94   2.0000      -1.102958       -30.0130
  95   2.0000      -1.071808       -29.1654
  96   2.0000      -1.064888       -28.9771
  97   2.0000      -1.010396       -27.4943
  98   2.0000      -1.005004       -27.3475
  99   2.0000      -0.995691       -27.0941
 100   2.0000      -0.995053       -27.0768
 101   2.0000      -0.985429       -26.8149
 102   2.0000      -0.983734       -26.7688
 103   2.0000      -0.982527       -26.7359
 104   2.0000      -0.979966       -26.6662
 105   2.0000      -0.970740       -26.4152
 106   2.0000      -0.967444       -26.3255
 107   2.0000      -0.956771       -26.0351
 108   2.0000      -0.940319       -25.5874
 109   2.0000      -0.925417       -25.1819
 110   2.0000      -0.917453       -24.9652
 111   2.0000      -0.912639       -24.8342
 112   2.0000      -0.906980       -24.6802
 113   2.0000      -0.897900       -24.4331
 114   2.0000      -0.889454       -24.2033
 115   2.0000      -0.885691       -24.1009
 116   2.0000      -0.881673       -23.9915
 117   2.0000      -0.878808       -23.9136
 118   2.0000      -0.877081       -23.8666
 119   2.0000      -0.868394       -23.6302
 120   2.0000      -0.860150       -23.4059
 121   2.0000      -0.858584       -23.3633
 122   2.0000      -0.849769       -23.1234
 123   2.0000      -0.835379       -22.7318
 124   2.0000      -0.832878       -22.6638
 125   2.0000      -0.829077       -22.5603
 126   2.0000      -0.826463       -22.4892
 127   2.0000      -0.819574       -22.3017
 128   2.0000      -0.810828       -22.0638
 129   2.0000      -0.806518       -21.9465
 130   2.0000      -0.788139       -21.4464
 131   2.0000      -0.784465       -21.3464
 132   2.0000      -0.772940       -21.0328
 133   2.0000      -0.761914       -20.7327
 134   2.0000      -0.755689       -20.5634
 135   2.0000      -0.742958       -20.2169
 136   2.0000      -0.736395       -20.0383
 137   2.0000      -0.735942       -20.0260
 138   2.0000      -0.720876       -19.6160
 139   2.0000      -0.717586       -19.5265
 140   2.0000      -0.712848       -19.3976
 141   2.0000      -0.704085       -19.1591
 142   2.0000      -0.700040       -19.0491
 143   2.0000      -0.693960       -18.8836
 144   2.0000      -0.692772       -18.8513
 145   2.0000      -0.686082       -18.6692
 146   2.0000      -0.672719       -18.3056
 147   2.0000      -0.668404       -18.1882
 148   2.0000      -0.658096       -17.9077
 149   2.0000      -0.656159       -17.8550
 150   2.0000      -0.652603       -17.7582
 151   2.0000      -0.650343       -17.6967
 152   2.0000      -0.644599       -17.5404
 153   2.0000      -0.641352       -17.4521
 154   2.0000      -0.634607       -17.2685
 155   2.0000      -0.632080       -17.1998
 156   2.0000      -0.630613       -17.1599
 157   2.0000      -0.628501       -17.1024
 158   2.0000      -0.621670       -16.9165
 159   2.0000      -0.618984       -16.8434
 160   2.0000      -0.615558       -16.7502
 161   2.0000      -0.612656       -16.6712
 162   2.0000      -0.604929       -16.4609
 163   2.0000      -0.600055       -16.3283
 164   2.0000      -0.593518       -16.1505
 165   2.0000      -0.583780       -15.8855
 166   2.0000      -0.582551       -15.8520
 167   2.0000      -0.581180       -15.8147
 168   2.0000      -0.576018       -15.6742
 169   2.0000      -0.574969       -15.6457
 170   2.0000      -0.571102       -15.5405
 171   2.0000      -0.567571       -15.4444
 172   2.0000      -0.562942       -15.3184
 173   2.0000      -0.556426       -15.1411
 174   2.0000      -0.554899       -15.0996
 175   2.0000      -0.553268       -15.0552
 176   2.0000      -0.551114       -14.9966
 177   2.0000      -0.550502       -14.9799
 178   2.0000      -0.547566       -14.9000
 179   2.0000      -0.544987       -14.8298
 180   2.0000      -0.543698       -14.7948
 181   2.0000      -0.540191       -14.6993
 182   2.0000      -0.537248       -14.6193
 183   2.0000      -0.535216       -14.5640
 184   2.0000      -0.533977       -14.5302
 185   2.0000      -0.532681       -14.4950
 186   2.0000      -0.530314       -14.4306
 187   2.0000      -0.524929       -14.2840
 188   2.0000      -0.523444       -14.2436
 189   2.0000      -0.518566       -14.1109
 190   2.0000      -0.515489       -14.0272
 191   2.0000      -0.512067       -13.9340
 192   2.0000      -0.510691       -13.8966
 193   2.0000      -0.508863       -13.8469
 194   2.0000      -0.507973       -13.8226
 195   2.0000      -0.507135       -13.7998
 196   2.0000      -0.504938       -13.7401
 197   2.0000      -0.500642       -13.6232
 198   2.0000      -0.500441       -13.6177
 199   2.0000      -0.498176       -13.5561
 200   2.0000      -0.495280       -13.4773
 201   2.0000      -0.492220       -13.3940
 202   2.0000      -0.487469       -13.2647
 203   2.0000      -0.487044       -13.2531
 204   2.0000      -0.485309       -13.2059
 205   2.0000      -0.482814       -13.1380
 206   2.0000      -0.479259       -13.0413
 207   2.0000      -0.478122       -13.0104
 208   2.0000      -0.475165       -12.9299
 209   2.0000      -0.474086       -12.9005
 210   2.0000      -0.472984       -12.8705
 211   2.0000      -0.470896       -12.8137
 212   2.0000      -0.470690       -12.8081
 213   2.0000      -0.465560       -12.6685
 214   2.0000      -0.462219       -12.5776
 215   2.0000      -0.461587       -12.5604
 216   2.0000      -0.457876       -12.4594
 217   2.0000      -0.455911       -12.4060
 218   2.0000      -0.450449       -12.2573
 219   2.0000      -0.448423       -12.2022
 220   2.0000      -0.444863       -12.1053
 221   2.0000      -0.443291       -12.0626
 222   2.0000      -0.441801       -12.0220
 223   2.0000      -0.441579       -12.0160
 224   2.0000      -0.439803       -11.9676
 225   2.0000      -0.438909       -11.9433
 226   2.0000      -0.438247       -11.9253
 227   2.0000      -0.434677       -11.8282
 228   2.0000      -0.433001       -11.7826
 229   2.0000      -0.431646       -11.7457
 230   2.0000      -0.428479       -11.6595
 231   2.0000      -0.424740       -11.5578
 232   2.0000      -0.422801       -11.5050
 233   2.0000      -0.419690       -11.4203
 234   2.0000      -0.418631       -11.3915
 235   2.0000      -0.417994       -11.3742
 236   2.0000      -0.416281       -11.3276
 237   2.0000      -0.412687       -11.2298
 238   2.0000      -0.411613       -11.2006
 239   2.0000      -0.410334       -11.1658
 240   2.0000      -0.406924       -11.0730
 241   2.0000      -0.403588       -10.9822
 242   2.0000      -0.401267       -10.9190
 243   2.0000      -0.399747       -10.8777
 244   2.0000      -0.395983       -10.7752
 245   2.0000      -0.389665       -10.6033
 246   2.0000      -0.388804       -10.5799
 247   2.0000      -0.381340       -10.3768
 248   2.0000      -0.376035       -10.2324
 249   2.0000      -0.367840       -10.0094
 250   2.0000      -0.362030        -9.8514
 251   2.0000      -0.351197        -9.5566
 252   2.0000      -0.345939        -9.4135
 253   2.0000      -0.345667        -9.4061
 254   2.0000      -0.335260        -9.1229
 255   2.0000      -0.330768        -9.0007
 256   2.0000      -0.328703        -8.9445
 257   2.0000      -0.318048        -8.6545
 258   2.0000      -0.317280        -8.6336
 259   2.0000      -0.312858        -8.5133
 260   2.0000      -0.304477        -8.2852
 261   2.0000      -0.294021        -8.0007
 262   2.0000      -0.291490        -7.9318
 263   2.0000      -0.283732        -7.7207
 264   2.0000      -0.277082        -7.5398
 265   2.0000      -0.269052        -7.3213
 266   2.0000      -0.257737        -7.0134
 267   2.0000      -0.221136        -6.0174
 268   0.0000      -0.098999        -2.6939
 269   0.0000      -0.086064        -2.3419
 270   0.0000      -0.053299        -1.4503
 271   0.0000      -0.046011        -1.2520
 272   0.0000      -0.038698        -1.0530

MULLIKEN ATOMIC CHARGES
-----------------------
   0 C :   -0.123246
   1 C :    0.233853
   2 F :   -0.177236
   3 C :    0.236305
   4 F :   -0.181300
   5 C :   -0.106519
   6 C :    0.144701
   7 C :    0.094468
   8 C :   -0.068611
   9 C :    0.032348
  10 C :    0.024554
  11 C :   -0.111736
  12 C :    0.157983
  13 O :   -0.149882
  14 C :   -0.117007
  15 C :    0.363008
  16 C :   -0.394627
  17 C :   -0.189274
  18 N :    0.143080
  19 C :   -0.201413
  20 N :    0.157059
  21 C :    0.029138
  22 C :   -0.179239
  23 S :    0.190043
  24 C :   -0.287972
  25 C :    0.083127
  26 C :   -0.005275
  27 C :    0.013602
  28 C :    0.146139
  29 N :   -0.031455
  30 C :   -0.039983
  31 S :    0.090908
  32 C :    0.033744
  33 C :    0.013104
  34 C :   -0.013461
  35 C :   -0.229252
  36 C :    0.075412
  37 C :    0.211794
  38 N :   -0.140395
  39 C :    0.079763
  40 C :   -0.060137
  41 C :    0.043075
  42 C :   -0.056896
  43 C :    0.068764
  44 C :   -0.007970
  45 C :    0.013865
  46 S :    0.071308
  47 C :   -0.109306
  48 C :    0.089077
  49 C :    0.027687
  50 C :   -0.030047
  51 S :    0.141610
  52 C :   -0.019427
  53 C :    0.023505
  54 C :   -0.130862
  55 C :    0.141103
  56 O :   -0.173241
  57 C :    0.006549
  58 C :   -0.103222
  59 C :    0.126906
  60 C :    0.091191
  61 C :   -0.111632
  62 C :    0.299336
  63 C :   -0.037134
  64 C :   -0.024395
  65 F :   -0.203644
  66 C :   -0.094079
  67 C :    0.061246
  68 C :    0.300960
  69 C :   -0.396492
  70 C :   -0.217720
  71 N :    0.158329
  72 C :   -0.167474
  73 N :    0.103733
  74 H :    0.001555
  75 H :   -0.008981
  76 H :   -0.013980
  77 H :   -0.024625
  78 H :    0.012541
  79 H :    0.039576
  80 H :    0.009217
  81 H :    0.026742
  82 H :    0.021791
  83 H :    0.027953
  84 H :    0.005625
  85 H :    0.002162
  86 H :    0.011050
  87 H :    0.043097
  88 H :    0.045167
  89 H :    0.015078
  90 H :    0.028032
  91 H :    0.038710
  92 H :    0.131364
  93 H :    0.041326
  94 H :   -0.011922
  95 H :    0.004122
  96 H :    0.000192
  97 H :   -0.003789
  98 H :   -0.014756
  99 H :    0.001113
 100 H :    0.010460
 101 H :    0.018886
 102 H :   -0.030516
 103 H :   -0.014693
 104 H :   -0.004766
 105 H :   -0.016989
 106 H :   -0.021560
Sum of atomic charges:   -0.0000000

LOEWDIN ATOMIC CHARGES
----------------------
   0 C :   -0.036445
   1 C :    0.057746
   2 F :   -0.055314
   3 C :    0.061041
   4 F :   -0.056741
   5 C :   -0.032140
   6 C :   -0.007967
   7 C :   -0.013921
   8 C :    0.017720
   9 C :   -0.017857
  10 C :   -0.042595
  11 C :    0.016809
  12 C :    0.078020
  13 O :   -0.143532
  14 C :   -0.105078
  15 C :    0.080660
  16 C :   -0.153989
  17 C :   -0.017528
  18 N :   -0.067819
  19 C :   -0.022689
  20 N :   -0.059094
  21 C :    0.061140
  22 C :   -0.197317
  23 S :    0.487956
  24 C :   -0.151970
  25 C :   -0.043103
  26 C :   -0.049411
  27 C :   -0.213032
  28 C :   -0.022088
  29 N :   -0.079290
  30 C :   -0.075816
  31 S :    0.382581
  32 C :   -0.044396
  33 C :    0.005212
  34 C :   -0.054009
  35 C :   -0.026828
  36 C :   -0.047480
  37 C :    0.040228
  38 N :    0.020583
  39 C :    0.074415
  40 C :   -0.133160
  41 C :    0.007578
  42 C :   -0.187133
  43 C :    0.006009
  44 C :   -0.059133
  45 C :   -0.122824
  46 S :    0.398568
  47 C :   -0.215126
  48 C :   -0.010310
  49 C :   -0.044710
  50 C :   -0.111245
  51 S :    0.517507
  52 C :   -0.079476
  53 C :    0.037149
  54 C :   -0.119552
  55 C :    0.076311
  56 O :   -0.172499
  57 C :   -0.057932
  58 C :    0.015296
  59 C :   -0.026973
  60 C :   -0.003936
  61 C :   -0.051800
  62 C :    0.084691
  63 C :   -0.049122
  64 C :    0.000316
  65 F :   -0.077412
  66 C :   -0.003079
  67 C :   -0.010076
  68 C :    0.038780
  69 C :   -0.186640
  70 C :   -0.031997
  71 N :   -0.069201
  72 C :   -0.017440
  73 N :   -0.099033
  74 H :    0.045558
  75 H :    0.041796
  76 H :    0.036408
  77 H :    0.034896
  78 H :    0.042887
  79 H :    0.041436
  80 H :    0.031105
  81 H :    0.023409
  82 H :    0.027036
  83 H :    0.029186
  84 H :    0.027455
  85 H :    0.022770
  86 H :    0.032778
  87 H :    0.043717
  88 H :    0.040569
  89 H :    0.030810
  90 H :    0.028655
  91 H :    0.043354
  92 H :    0.088515
  93 H :    0.026795
  94 H :    0.028226
  95 H :    0.042479
  96 H :    0.038360
  97 H :    0.032683
  98 H :    0.032043
  99 H :    0.037950
 100 H :    0.042081
 101 H :    0.044497
 102 H :    0.031901
 103 H :    0.037919
 104 H :    0.038324
 105 H :    0.032106
 106 H :    0.033239

  Mayer bond orders larger than 0.100000
B(  0-C ,  1-C ) :   1.4256 B(  0-C ,  5-C ) :   0.1124 B(  0-C ,  7-C ) :   1.1837
B(  0-C , 74-H ) :   1.0111 B(  1-C ,  2-F ) :   1.1304 B(  1-C ,  3-C ) :   1.2027
B(  3-C ,  4-F ) :   1.1207 B(  3-C ,  5-C ) :   1.4277 B(  5-C ,  6-C ) :   1.1934
B(  5-C , 75-H ) :   1.0094 B(  6-C ,  7-C ) :   1.2694 B(  6-C , 11-C ) :   1.1655
B(  7-C ,  8-C ) :   1.2078 B(  8-C ,  9-C ) :   1.4481 B(  8-C , 76-H ) :   0.9916
B(  9-C , 10-C ) :   1.2394 B(  9-C , 15-C ) :   0.9711 B( 10-C , 11-C ) :   1.4666
B( 10-C , 12-C ) :   0.9189 B( 11-C , 77-H ) :   1.0197 B( 12-C , 13-O ) :   2.2241
B( 12-C , 14-C ) :   0.9568 B( 14-C , 15-C ) :   1.1215 B( 14-C , 21-C ) :   1.5109
B( 15-C , 16-C ) :   1.6020 B( 16-C , 17-C ) :   1.1573 B( 16-C , 19-C ) :   1.1494
B( 17-C , 18-N ) :   2.9462 B( 19-C , 20-N ) :   2.9546 B( 21-C , 22-C ) :   1.2471
B( 21-C , 78-H ) :   0.9322 B( 22-C , 23-S ) :   1.0885 B( 22-C , 28-C ) :   1.3639
B( 23-S , 24-C ) :   1.1893 B( 24-C , 25-C ) :   1.0501 B( 24-C , 27-C ) :   1.5517
B( 25-C , 26-C ) :   1.0938 B( 25-C , 79-H ) :   0.9205 B( 25-C , 80-H ) :   0.9350
B( 26-C , 81-H ) :   0.9730 B( 26-C , 82-H ) :   0.9679 B( 26-C , 83-H ) :   0.9718
B( 27-C , 28-C ) :   1.2110 B( 27-C , 31-S ) :   1.0318 B( 28-C , 29-N ) :   1.3125
B( 29-N , 30-C ) :   1.6590 B( 29-N , 31-S ) :   0.1013 B( 30-C , 31-S ) :   1.0480
B( 30-C , 32-C ) :   1.0913 B( 32-C , 33-C ) :   1.6809 B( 32-C , 84-H ) :   0.9855
B( 33-C , 34-C ) :   1.1056 B( 33-C , 85-H ) :   0.9648 B( 34-C , 35-C ) :   1.7704
B( 34-C , 86-H ) :   0.9705 B( 35-C , 36-C ) :   1.0806 B( 35-C , 37-C ) :   1.0145
B( 36-C , 87-H ) :   0.9442 B( 36-C , 88-H ) :   0.9479 B( 36-C , 89-H ) :   0.9564
B( 37-C , 38-N ) :   1.0148 B( 37-C , 90-H ) :   0.9345 B( 37-C , 91-H ) :   0.9242
B( 38-N , 39-C ) :   1.2800 B( 38-N , 92-H ) :   0.9353 B( 39-C , 40-C ) :   1.5359
B( 39-C , 93-H ) :   0.9570 B( 40-C , 41-C ) :   1.2574 B( 40-C , 94-H ) :   0.9543
B( 41-C , 42-C ) :   1.5460 B( 41-C , 95-H ) :   0.9574 B( 42-C , 43-C ) :   1.1749
B( 42-C , 46-S ) :   1.0127 B( 43-C , 44-C ) :   1.5396 B( 43-C , 96-H ) :   0.9969
B( 44-C , 45-C ) :   1.2169 B( 44-C , 97-H ) :   0.9956 B( 45-C , 46-S ) :   1.0998
B( 45-C , 47-C ) :   1.4329 B( 47-C , 48-C ) :   1.2257 B( 47-C , 51-S ) :   1.0366
B( 48-C , 49-C ) :   1.5246 B( 48-C , 98-H ) :   0.9838 B( 49-C , 50-C ) :   1.1923
B( 49-C , 99-H ) :   0.9982 B( 50-C , 51-S ) :   1.1587 B( 50-C , 52-C ) :   1.3593
B( 52-C , 53-C ) :   1.4134 B( 52-C ,100-H ) :   0.9490 B( 53-C , 54-C ) :   1.3830
B( 53-C ,101-H ) :   0.9261 B( 54-C , 55-C ) :   0.9872 B( 54-C , 68-C ) :   1.1869
B( 55-C , 56-O ) :   2.1967 B( 55-C , 57-C ) :   0.9168 B( 57-C , 58-C ) :   1.4758
B( 57-C , 67-C ) :   1.2198 B( 58-C , 59-C ) :   1.1577 B( 58-C ,102-H ) :   1.0196
B( 59-C , 60-C ) :   1.2678 B( 59-C , 64-C ) :   1.2390 B( 60-C , 61-C ) :   1.2032
B( 60-C , 66-C ) :   1.1907 B( 61-C , 62-C ) :   1.4246 B( 61-C ,103-H ) :   1.0076
B( 62-C , 63-C ) :   1.2639 B( 62-C , 65-F ) :   1.0740 B( 63-C , 64-C ) :   1.4456
B( 63-C ,104-H ) :   0.9944 B( 64-C ,105-H ) :   0.9972 B( 66-C , 67-C ) :   1.4783
B( 66-C ,106-H ) :   0.9843 B( 67-C , 68-C ) :   0.9924 B( 68-C , 69-C ) :   1.4859
B( 69-C , 70-C ) :   1.1726 B( 69-C , 72-C ) :   1.1591 B( 70-C , 71-N ) :   3.0063
B( 72-C , 73-N ) :   2.9155

-----------------------------------------------------------------------------
         ABSORPTION SPECTRUM VIA TRANSITION ELECTRIC DIPOLE MOMENTS
-----------------------------------------------------------------------------
State   Energy  Wavelength   fosc         T2         TX        TY        TZ
        (cm-1)    (nm)                  (au**2)     (au)      (au)      (au)
-----------------------------------------------------------------------------
   0   10355.7    965.6   0.142958024   4.54468  -0.44816   1.79061  -1.06655
   1   13149.3    760.5   0.278720813   6.97819  -0.03193   1.65709  -2.05699
   2   17758.0    563.1   0.183044092   3.39342  -1.56539  -0.93262   0.27053
   3   19444.3    514.3   0.026954979   0.45638  -0.19604  -0.60567   0.22607
   4   20005.4    499.9   0.089380439   1.47086   1.03408   0.53908  -0.33308
   5   20664.4    483.9   0.070813733   1.12816   1.03495   0.13760  -0.19521
   6   22053.9    453.4   0.336291405   5.02002   2.14960  -0.59958  -0.19932
   7   22646.3    441.6   0.038817632   0.56430   0.42129  -0.61813   0.06875
   8   23075.1    433.4   0.084562191   1.20645  -0.96722   0.44414  -0.27144
   9   23422.0    426.9   0.036659252   0.51527  -0.57660   0.42493  -0.04732
  10   24156.9    414.0   0.033326105   0.45417   0.15986   0.65466  -0.00616
  11   24681.8    405.2   0.124064563   1.65481   1.22473  -0.36152   0.15536
  12   25133.1    397.9   0.145273328   1.90290  -1.07676   0.84907  -0.15025
  13   25452.9    392.9   0.293812280   3.80021  -1.62439  -0.94654   0.51539
  14   25864.0    386.6   0.163474486   2.08080   1.39140   0.37960   0.02672
  15   26252.5    380.9   0.095418667   1.19657   0.80194  -0.74309   0.03581
  16   26778.0    373.4   0.017434948   0.21435  -0.00872  -0.46101   0.04171
  17   26945.3    371.1   0.095589999   1.16790  -0.89942   0.24399   0.54719
  18   27613.4    362.1   0.064731594   0.77174   0.71453  -0.50759   0.05953
  19   28164.2    355.1   0.015223127   0.17794  -0.21355   0.03033   0.36252
  20   28355.6    352.7   0.010623412   0.12334  -0.21657  -0.25938   0.09571
  21   28685.4    348.6   0.050764212   0.58260  -0.01388  -0.76298  -0.01638
  22   28775.2    347.5   0.045513152   0.52071   0.64094  -0.02139   0.33082
  23   28939.1    345.6   0.025832687   0.29387   0.51882   0.09834   0.12259
  24   29587.0    338.0   0.064554006   0.71829   0.63982   0.22688  -0.50738
  25   29769.7    335.9   0.068210641   0.75432  -0.40436   0.68118  -0.35609
  26   29959.5    333.8   0.028204022   0.30992  -0.55326  -0.06058  -0.01237
  27   30557.4    327.3   0.056629127   0.61010   0.22893   0.40563  -0.62702
  28   30846.4    324.2   0.003181341   0.03395  -0.13056  -0.10275  -0.07969
  29   30994.0    322.6   0.004429155   0.04705  -0.21126   0.03495  -0.03456
  30   31074.4    321.8   0.137128220   1.45278   0.83863   0.85429  -0.14028
  31   31319.8    319.3   0.002536310   0.02666   0.15968  -0.02030  -0.02741
  32   31524.7    317.2   0.030933331   0.32304   0.47443   0.27581  -0.14791
  33   31868.4    313.8   0.130913228   1.35238  -0.71887  -0.89485   0.18667
  34   32120.1    311.3   0.243752589   2.49832   1.55127   0.21553   0.21313
  35   32670.5    306.1   0.222666615   2.24375  -0.75340  -1.19384   0.50088
  36   32774.0    305.1   0.022821384   0.22924   0.30482   0.17787  -0.32355
  37   32967.3    303.3   0.005281504   0.05274   0.08232  -0.02009  -0.21345
  38   33313.6    300.2   0.025191485   0.24895   0.16649   0.40332   0.24200
  39   33395.5    299.4   0.027178760   0.26793  -0.28688   0.04709   0.42827
  40   33738.5    296.4   0.168856934   1.64766  -1.09533   0.46840  -0.47803
  41   33881.2    295.1   0.004539340   0.04411   0.05458  -0.19842  -0.04190
  42   34040.5    293.8   0.041405027   0.40044   0.25459  -0.23254   0.53061
  43   34196.6    292.4   0.157197626   1.51335  -1.10244  -0.44109   0.32160
  44   34266.2    291.8   0.033377290   0.32067   0.49529  -0.24412   0.12555
  45   34632.8    288.7   0.013301869   0.12644  -0.00834   0.15491  -0.31996
  46   34644.6    288.6   0.148179503   1.40808   0.81825  -0.85034   0.12438
  47   34911.5    286.4   0.075036465   0.70759   0.42564  -0.56067   0.46051
  48   35146.3    284.5   0.130181088   1.21939   1.09169   0.16474   0.02137
  49   35608.3    280.8   0.014745846   0.13633  -0.29838  -0.21739  -0.00646
  50   35750.5    279.7   0.041992339   0.38669   0.32445   0.32350  -0.42044
  51   35987.1    277.9   0.092615446   0.84725   0.83877  -0.07251   0.37210
  52   36002.3    277.8   0.090315145   0.82586  -0.02323  -0.86371   0.28166
  53   36414.5    274.6   0.296583347   2.68131  -0.46921  -1.44392   0.61339
  54   36608.2    273.2   0.083795992   0.75356   0.56574   0.65012  -0.10415
  55   36721.3    272.3   0.213740237   1.91622  -0.01801  -1.23547   0.62410
  56   37099.1    269.5   0.101648405   0.90201  -0.74142  -0.53521  -0.25663
  57   37189.0    268.9   0.066208328   0.58610  -0.18748  -0.58625   0.45526
  58   37308.5    268.0   0.066660169   0.58821  -0.53185   0.40011  -0.38113
  59   37533.7    266.4   0.071409725   0.62634  -0.39432   0.52702  -0.43943
  60   37776.5    264.7   0.182957056   1.59442  -0.78144   0.89467  -0.42818
  61   37886.4    263.9   0.006093843   0.05295   0.19729  -0.02370   0.11605
  62   38053.7    262.8   0.064014249   0.55380  -0.39233  -0.63144   0.03417
  63   38234.6    261.5   0.024668911   0.21241  -0.45362  -0.01386  -0.08029
  64   38374.5    260.6   0.166621976   1.42944  -0.45953   0.85815  -0.69415
  65   38575.4    259.2   0.083793962   0.71512   0.29637   0.75286  -0.24595
  66   39029.8    256.2   0.104807377   0.88404   0.08855  -0.90768   0.22874
  67   39164.7    255.3   0.055771995   0.46881   0.23264  -0.62445   0.15735
  68   39670.5    252.1   0.056767654   0.47109  -0.68628  -0.00907   0.00611
  69   39731.2    251.7   0.040862111   0.33858   0.39267   0.15205  -0.40158
  70   39843.4    251.0   0.034913476   0.28848  -0.53112  -0.05535   0.05769
  71   40201.8    248.7   0.066583973   0.54525   0.06208  -0.72074   0.14812
  72   40209.2    248.7   0.034315424   0.28096   0.02078   0.35752   0.39077

FINAL SINGLE POINT ENERGY     -4634.929304521014

DIPOLE MOMENT
-------------
                                X             Y             Z
Electronic contribution:    -42.09988      -6.75187      -2.12613
Nuclear contribution   :     46.94332       5.08670       5.36679
                        -----------------------------------------
Total Dipole Moment    :      4.84343      -1.66517       3.24067
                        -----------------------------------------
Magnitude (a.u.)       :      6.06082
Magnitude (Debye)      :     15.40538

Rotational constants in cm-1:     0.001338     0.000933     0.000680
Rotational constants in MHz :    40.121109    27.984369    20.390002

                             ****ORCA TERMINATED NORMALLY****
TOTAL RUN TIME: 0 days 0 hours 17 minutes 24 seconds 185 msec
