                         Program Version 4.2.0 -  RELEASE  -
|  1> # ORCA input file
|  2> # SCF done       -162.468160748526          0.000703476122
|  3> ! CAM-B3LYP def2-SVP def2/J RIJCOSX Grid4 TightSCF
|  4> %maxcore 5000
|  5> %tddft
|  6>     Mode sTDDFT
|  7>     Ethresh 5.0
|  8>     maxcore 5000
|  9> end
| 10>
| 11> %pal
| 12>   nprocs 6
| 13>   end
| 14> * xyz 0 1
| 15>    C        3.20383        -5.05563        10.52538
| 16>    C        4.43383        -5.39174        10.01246
| 17>    N        4.70257        -6.47985         9.28778
| 18>    C        3.75093        -7.35208         9.00238
| 19>    C        2.42901        -7.12757         9.48321
| 20>    C        2.15650        -5.94897        10.25640
| 21>    N        0.87431        -5.88456        10.62357
| 22>    S        0.10634        -7.17090        10.04874
| 23>    N        1.35056        -7.88299         9.31105
| 24>    C        4.04205        -8.50081         8.20866
| 25>    S        2.80925        -9.64107         7.84338
| 26>    C        3.85319       -10.60496         6.85116
| 27>    C        5.15440       -10.07354         6.84036
| 28>    C        5.25163        -8.86310         7.59944
| 29>    C        6.46856        -8.16013         7.67515
| 30>    C        7.55977        -8.66756         7.03337
| 31>    F        8.73534        -8.02095         7.08393
| 32>    C        7.48624        -9.88901         6.32607
| 33>    F        8.59762       -10.37634         5.74869
| 34>    C        6.31703       -10.58700         6.22793
| 35>    C        3.25400       -11.71997         6.20136
| 36>    C        3.74601       -12.44684         5.17375
| 37>    C        3.08872       -13.54597         4.52025
| 38>    C        2.16536       -14.38888         5.00801
| 39>    C        1.66634       -14.41321         6.41781
| 40>    C        1.53947       -15.46299         4.13945
| 41>    N        1.90373       -15.40323         2.74934
| 42>    C        2.93866       -16.05666         2.18241
| 43>    C        3.57573       -17.15655         2.67544
| 44>    C        4.65933       -17.80943         2.05677
| 45>    C        5.50872       -17.35033         1.08063
| 46>    C        6.56824       -18.09358         0.50557
| 47>    C        7.33764       -17.39740        -0.37709
| 48>    C        6.94096       -16.05275        -0.54462
| 49>    S        5.53358       -15.71341         0.42386
| 50>    C        7.53356       -15.07732        -1.32933
| 51>    C        8.66047       -15.20330        -2.16646
| 52>    C        9.00516       -14.03404        -2.77746
| 53>    C        8.18740       -12.92934        -2.43447
| 54>    S        6.96222       -13.42394        -1.31804
| 55>    C        8.30495       -11.67824        -3.03305
| 56>    C        7.58531       -10.50875        -2.85668
| 57>    C        6.79606       -10.07888        -1.79156
| 58>    C        5.89438        -8.95921        -1.83868
| 59>    C        5.46471        -8.28819        -2.96131
| 60>    C        4.56452        -7.20667        -2.93790
| 61>    N        3.83421        -6.32017        -2.98252
| 62>    C        5.82488        -8.60391        -4.28588
| 63>    N        6.04149        -8.80361        -5.39698
| 64>    C        5.42818        -8.69940        -0.47635
| 65>    C        6.00804        -9.66265         0.38271
| 66>    C        6.89342       -10.54223        -0.41443
| 67>    O        7.60890       -11.42887         0.03177
| 68>    C        5.76855        -9.68932         1.73298
| 69>    C        4.91112        -8.71649         2.26380
| 70>    C        4.34118        -7.75823         1.39777
| 71>    C        4.58437        -7.73126         0.02837
| 72>    S        3.32599        -6.63908         2.25966
| 73>    C        3.67832        -7.46722         3.75112
| 74>    C        4.50945        -8.52653         3.61579
| 75>   Br        2.90692        -6.84983         5.34911
| 76>    H        3.04011        -4.16095        11.10097
| 77>    H        5.29057        -4.75293        10.18062
| 78>    H        6.51676        -7.24294         8.23749
| 79>    H        6.31582       -11.52951         5.70808
| 80>    H        2.25117       -11.92264         6.54688
| 81>    H        4.68324       -12.16172         4.72013
| 82>    H        3.43403       -13.70932         3.50600
| 83>    H        2.43425       -14.06768         7.10513
| 84>    H        1.37412       -15.42477         6.69508
| 85>    H        0.78963       -13.77524         6.53235
| 86>    H        0.44914       -15.36662         4.21329
| 87>    H        1.80535       -16.44556         4.53617
| 88>    H        1.55753       -14.59309         2.25829
| 89>    H        3.20616       -15.69298         1.20051
| 90>    H        3.22376       -17.60892         3.59117
| 91>    H        4.88926       -18.79949         2.43168
| 92>    H        6.73228       -19.12390         0.76915
| 93>    H        8.18844       -17.80513        -0.89184
| 94>    H        9.18360       -16.13366        -2.29567
| 95>    H        9.83121       -13.92683        -3.45832
| 96>    H        9.03260       -11.65353        -3.83691
| 97>    H        7.68791        -9.79928        -3.66987
| 98>    H        6.23260       -10.43080         2.36431
| 99>    H        4.12992        -6.97390        -0.58802
|100>    H        4.83220        -9.14530         4.43294
|101> *
|102>
|103>                          ****END OF INPUT****

CARTESIAN COORDINATES (ANGSTROEM)
---------------------------------
  C      3.203830   -5.055630   10.525380
  C      4.433830   -5.391740   10.012460
  N      4.702570   -6.479850    9.287780
  C      3.750930   -7.352080    9.002380
  C      2.429010   -7.127570    9.483210
  C      2.156500   -5.948970   10.256400
  N      0.874310   -5.884560   10.623570
  S      0.106340   -7.170900   10.048740
  N      1.350560   -7.882990    9.311050
  C      4.042050   -8.500810    8.208660
  S      2.809250   -9.641070    7.843380
  C      3.853190  -10.604960    6.851160
  C      5.154400  -10.073540    6.840360
  C      5.251630   -8.863100    7.599440
  C      6.468560   -8.160130    7.675150
  C      7.559770   -8.667560    7.033370
  F      8.735340   -8.020950    7.083930
  C      7.486240   -9.889010    6.326070
  F      8.597620  -10.376340    5.748690
  C      6.317030  -10.587000    6.227930
  C      3.254000  -11.719970    6.201360
  C      3.746010  -12.446840    5.173750
  C      3.088720  -13.545970    4.520250
  C      2.165360  -14.388880    5.008010
  C      1.666340  -14.413210    6.417810
  C      1.539470  -15.462990    4.139450
  N      1.903730  -15.403230    2.749340
  C      2.938660  -16.056660    2.182410
  C      3.575730  -17.156550    2.675440
  C      4.659330  -17.809430    2.056770
  C      5.508720  -17.350330    1.080630
  C      6.568240  -18.093580    0.505570
  C      7.337640  -17.397400   -0.377090
  C      6.940960  -16.052750   -0.544620
  S      5.533580  -15.713410    0.423860
  C      7.533560  -15.077320   -1.329330
  C      8.660470  -15.203300   -2.166460
  C      9.005160  -14.034040   -2.777460
  C      8.187400  -12.929340   -2.434470
  S      6.962220  -13.423940   -1.318040
  C      8.304950  -11.678240   -3.033050
  C      7.585310  -10.508750   -2.856680
  C      6.796060  -10.078880   -1.791560
  C      5.894380   -8.959210   -1.838680
  C      5.464710   -8.288190   -2.961310
  C      4.564520   -7.206670   -2.937900
  N      3.834210   -6.320170   -2.982520
  C      5.824880   -8.603910   -4.285880
  N      6.041490   -8.803610   -5.396980
  C      5.428180   -8.699400   -0.476350
  C      6.008040   -9.662650    0.382710
  C      6.893420  -10.542230   -0.414430
  O      7.608900  -11.428870    0.031770
  C      5.768550   -9.689320    1.732980
  C      4.911120   -8.716490    2.263800
  C      4.341180   -7.758230    1.397770
  C      4.584370   -7.731260    0.028370
  S      3.325990   -6.639080    2.259660
  C      3.678320   -7.467220    3.751120
  C      4.509450   -8.526530    3.615790
  Br     2.906920   -6.849830    5.349110
  H      3.040110   -4.160950   11.100970
  H      5.290570   -4.752930   10.180620
  H      6.516760   -7.242940    8.237490
  H      6.315820  -11.529510    5.708080
  H      2.251170  -11.922640    6.546880
  H      4.683240  -12.161720    4.720130
  H      3.434030  -13.709320    3.506000
  H      2.434250  -14.067680    7.105130
  H      1.374120  -15.424770    6.695080
  H      0.789630  -13.775240    6.532350
  H      0.449140  -15.366620    4.213290
  H      1.805350  -16.445560    4.536170
  H      1.557530  -14.593090    2.258290
  H      3.206160  -15.692980    1.200510
  H      3.223760  -17.608920    3.591170
  H      4.889260  -18.799490    2.431680
  H      6.732280  -19.123900    0.769150
  H      8.188440  -17.805130   -0.891840
  H      9.183600  -16.133660   -2.295670
  H      9.831210  -13.926830   -3.458320
  H      9.032600  -11.653530   -3.836910
  H      7.687910   -9.799280   -3.669870
  H      6.232600  -10.430800    2.364310
  H      4.129920   -6.973900   -0.588020
  H      4.832200   -9.145300    4.432940

 Total Charge           Charge          ....    0
 Multiplicity           Mult            ....    1
 Number of Electrons    NEL             ....  484
 Basis Dimension        Dim             .... 1017

ORBITAL ENERGIES
----------------

  NO   OCC          E(Eh)            E(eV)
   0   2.0000    -482.872907    -13139.6398
   1   2.0000     -89.034739     -2422.7584
   2   2.0000     -88.972057     -2421.0527
   3   2.0000     -88.962098     -2420.7818
   4   2.0000     -88.956860     -2420.6392
   5   2.0000     -88.949432     -2420.4371
   6   2.0000     -62.550120     -1702.0753
   7   2.0000     -56.384093     -1534.2892
   8   2.0000     -56.381360     -1534.2148
   9   2.0000     -56.381338     -1534.2142
  10   2.0000     -24.784073      -674.4089
  11   2.0000     -24.781482      -674.3384
  12   2.0000     -19.183913      -522.0208
  13   2.0000     -14.468587      -393.7103
  14   2.0000     -14.453297      -393.2942
  15   2.0000     -14.444457      -393.0537
  16   2.0000     -14.413164      -392.2021
  17   2.0000     -14.387656      -391.5080
  18   2.0000     -14.385798      -391.4575
  19   2.0000     -10.367001      -282.1004
  20   2.0000     -10.364031      -282.0196
  21   2.0000     -10.347517      -281.5702
  22   2.0000     -10.340721      -281.3853
  23   2.0000     -10.340293      -281.3737
  24   2.0000     -10.335898      -281.2541
  25   2.0000     -10.332317      -281.1566
  26   2.0000     -10.331575      -281.1364
  27   2.0000     -10.330219      -281.0996
  28   2.0000     -10.330160      -281.0980
  29   2.0000     -10.314576      -280.6739
  30   2.0000     -10.313859      -280.6544
  31   2.0000     -10.311928      -280.6018
  32   2.0000     -10.310822      -280.5717
  33   2.0000     -10.310393      -280.5601
  34   2.0000     -10.310318      -280.5580
  35   2.0000     -10.308585      -280.5109
  36   2.0000     -10.305695      -280.4322
  37   2.0000     -10.303379      -280.3692
  38   2.0000     -10.302904      -280.3563
  39   2.0000     -10.302451      -280.3440
  40   2.0000     -10.299583      -280.2659
  41   2.0000     -10.295851      -280.1643
  42   2.0000     -10.294687      -280.1327
  43   2.0000     -10.294549      -280.1289
  44   2.0000     -10.292379      -280.0699
  45   2.0000     -10.291423      -280.0439
  46   2.0000     -10.290459      -280.0176
  47   2.0000     -10.289720      -279.9975
  48   2.0000     -10.289289      -279.9858
  49   2.0000     -10.286507      -279.9101
  50   2.0000     -10.285594      -279.8852
  51   2.0000     -10.284594      -279.8580
  52   2.0000     -10.284194      -279.8471
  53   2.0000     -10.282176      -279.7922
  54   2.0000     -10.281946      -279.7860
  55   2.0000     -10.281365      -279.7702
  56   2.0000     -10.280867      -279.7566
  57   2.0000     -10.279619      -279.7226
  58   2.0000     -10.278066      -279.6804
  59   2.0000     -10.277679      -279.6699
  60   2.0000     -10.277348      -279.6609
  61   2.0000     -10.274328      -279.5787
  62   2.0000     -10.266657      -279.3699
  63   2.0000     -10.264091      -279.3001
  64   2.0000     -10.258345      -279.1437
  65   2.0000      -8.779395      -238.8995
  66   2.0000      -8.126438      -221.1316
  67   2.0000      -8.066068      -219.4889
  68   2.0000      -8.058043      -219.2705
  69   2.0000      -8.052812      -219.1282
  70   2.0000      -8.044359      -218.8981
  71   2.0000      -6.615548      -180.0182
  72   2.0000      -6.601202      -179.6278
  73   2.0000      -6.601028      -179.6231
  74   2.0000      -6.097596      -165.9240
  75   2.0000      -6.089865      -165.7136
  76   2.0000      -6.088920      -165.6879
  77   2.0000      -6.035022      -164.2213
  78   2.0000      -6.030695      -164.1036
  79   2.0000      -6.029162      -164.0619
  80   2.0000      -6.027686      -164.0217
  81   2.0000      -6.023583      -163.9100
  82   2.0000      -6.022527      -163.8813
  83   2.0000      -6.019256      -163.7923
  84   2.0000      -6.018229      -163.7643
  85   2.0000      -6.014056      -163.6508
  86   2.0000      -6.013790      -163.6435
  87   2.0000      -6.009425      -163.5248
  88   2.0000      -6.006268      -163.4388
  89   2.0000      -2.731485       -74.3275
  90   2.0000      -2.727409       -74.2166
  91   2.0000      -2.727301       -74.2136
  92   2.0000      -2.715893       -73.9032
  93   2.0000      -2.715865       -73.9025
  94   2.0000      -1.304743       -35.5039
  95   2.0000      -1.289566       -35.0909
  96   2.0000      -1.134991       -30.8847
  97   2.0000      -1.097325       -29.8597
  98   2.0000      -1.066210       -29.0131
  99   2.0000      -1.049746       -28.5651
 100   2.0000      -1.004812       -27.3423
 101   2.0000      -1.003341       -27.3023
 102   2.0000      -0.999803       -27.2060
 103   2.0000      -0.987232       -26.8640
 104   2.0000      -0.987091       -26.8601
 105   2.0000      -0.976564       -26.5737
 106   2.0000      -0.965949       -26.2848
 107   2.0000      -0.962930       -26.2027
 108   2.0000      -0.943800       -25.6821
 109   2.0000      -0.934548       -25.4303
 110   2.0000      -0.920342       -25.0438
 111   2.0000      -0.915735       -24.9184
 112   2.0000      -0.902795       -24.5663
 113   2.0000      -0.901397       -24.5283
 114   2.0000      -0.889258       -24.1980
 115   2.0000      -0.884002       -24.0549
 116   2.0000      -0.872737       -23.7484
 117   2.0000      -0.865060       -23.5395
 118   2.0000      -0.862663       -23.4743
 119   2.0000      -0.855657       -23.2836
 120   2.0000      -0.851708       -23.1761
 121   2.0000      -0.842765       -22.9328
 122   2.0000      -0.836066       -22.7505
 123   2.0000      -0.826583       -22.4925
 124   2.0000      -0.824145       -22.4261
 125   2.0000      -0.817578       -22.2474
 126   2.0000      -0.807399       -21.9704
 127   2.0000      -0.802049       -21.8249
 128   2.0000      -0.787624       -21.4323
 129   2.0000      -0.778494       -21.1839
 130   2.0000      -0.757647       -20.6166
 131   2.0000      -0.751393       -20.4464
 132   2.0000      -0.734299       -19.9813
 133   2.0000      -0.731956       -19.9175
 134   2.0000      -0.727236       -19.7891
 135   2.0000      -0.720300       -19.6004
 136   2.0000      -0.713757       -19.4223
 137   2.0000      -0.705997       -19.2111
 138   2.0000      -0.694084       -18.8870
 139   2.0000      -0.681580       -18.5467
 140   2.0000      -0.671262       -18.2660
 141   2.0000      -0.665292       -18.1035
 142   2.0000      -0.664039       -18.0694
 143   2.0000      -0.662465       -18.0266
 144   2.0000      -0.656905       -17.8753
 145   2.0000      -0.651096       -17.7172
 146   2.0000      -0.636229       -17.3127
 147   2.0000      -0.634641       -17.2695
 148   2.0000      -0.630834       -17.1659
 149   2.0000      -0.629376       -17.1262
 150   2.0000      -0.624429       -16.9916
 151   2.0000      -0.618083       -16.8189
 152   2.0000      -0.609113       -16.5748
 153   2.0000      -0.608509       -16.5584
 154   2.0000      -0.607446       -16.5294
 155   2.0000      -0.600065       -16.3286
 156   2.0000      -0.596759       -16.2386
 157   2.0000      -0.587961       -15.9992
 158   2.0000      -0.579346       -15.7648
 159   2.0000      -0.575845       -15.6695
 160   2.0000      -0.573825       -15.6146
 161   2.0000      -0.569586       -15.4992
 162   2.0000      -0.566422       -15.4131
 163   2.0000      -0.560914       -15.2632
 164   2.0000      -0.556258       -15.1366
 165   2.0000      -0.554717       -15.0946
 166   2.0000      -0.550477       -14.9792
 167   2.0000      -0.545006       -14.8304
 168   2.0000      -0.538588       -14.6557
 169   2.0000      -0.537474       -14.6254
 170   2.0000      -0.534485       -14.5441
 171   2.0000      -0.531813       -14.4714
 172   2.0000      -0.528487       -14.3809
 173   2.0000      -0.525550       -14.3009
 174   2.0000      -0.521784       -14.1985
 175   2.0000      -0.519808       -14.1447
 176   2.0000      -0.517616       -14.0850
 177   2.0000      -0.511695       -13.9239
 178   2.0000      -0.510191       -13.8830
 179   2.0000      -0.506706       -13.7882
 180   2.0000      -0.506380       -13.7793
 181   2.0000      -0.503174       -13.6921
 182   2.0000      -0.498678       -13.5697
 183   2.0000      -0.495610       -13.4862
 184   2.0000      -0.492739       -13.4081
 185   2.0000      -0.491609       -13.3774
 186   2.0000      -0.489962       -13.3325
 187   2.0000      -0.487917       -13.2769
 188   2.0000      -0.483749       -13.1635
 189   2.0000      -0.481676       -13.1071
 190   2.0000      -0.476640       -12.9700
 191   2.0000      -0.475899       -12.9499
 192   2.0000      -0.472740       -12.8639
 193   2.0000      -0.471655       -12.8344
 194   2.0000      -0.470116       -12.7925
 195   2.0000      -0.468901       -12.7594
 196   2.0000      -0.464269       -12.6334
 197   2.0000      -0.461961       -12.5706
 198   2.0000      -0.456395       -12.4191
 199   2.0000      -0.453436       -12.3386
 200   2.0000      -0.449329       -12.2269
 201   2.0000      -0.446682       -12.1548
 202   2.0000      -0.441734       -12.0202
 203   2.0000      -0.438550       -11.9336
 204   2.0000      -0.436854       -11.8874
 205   2.0000      -0.434907       -11.8344
 206   2.0000      -0.428496       -11.6600
 207   2.0000      -0.428243       -11.6531
 208   2.0000      -0.427308       -11.6277
 209   2.0000      -0.424542       -11.5524
 210   2.0000      -0.422495       -11.4967
 211   2.0000      -0.419334       -11.4107
 212   2.0000      -0.418905       -11.3990
 213   2.0000      -0.416363       -11.3298
 214   2.0000      -0.405302       -11.0288
 215   2.0000      -0.401951       -10.9376
 216   2.0000      -0.399711       -10.8767
 217   2.0000      -0.397744       -10.8232
 218   2.0000      -0.396091       -10.7782
 219   2.0000      -0.394715       -10.7407
 220   2.0000      -0.384399       -10.4600
 221   2.0000      -0.380827       -10.3628
 222   2.0000      -0.373113       -10.1529
 223   2.0000      -0.371864       -10.1189
 224   2.0000      -0.369687       -10.0597
 225   2.0000      -0.362103        -9.8533
 226   2.0000      -0.359632        -9.7861
 227   2.0000      -0.357007        -9.7147
 228   2.0000      -0.347570        -9.4579
 229   2.0000      -0.340310        -9.2603
 230   2.0000      -0.340086        -9.2542
 231   2.0000      -0.327066        -8.8999
 232   2.0000      -0.326104        -8.8737
 233   2.0000      -0.318705        -8.6724
 234   2.0000      -0.312693        -8.5088
 235   2.0000      -0.310786        -8.4569
 236   2.0000      -0.299977        -8.1628
 237   2.0000      -0.287641        -7.8271
 238   2.0000      -0.276870        -7.5340
 239   2.0000      -0.267758        -7.2861
 240   2.0000      -0.245071        -6.6687
 241   2.0000      -0.218323        -5.9409
 242   0.0000      -0.093309        -2.5391
 243   0.0000      -0.089208        -2.4275
 244   0.0000      -0.047776        -1.3000
 245   0.0000      -0.041624        -1.1327
 246   0.0000      -0.019714        -0.5364

MULLIKEN ATOMIC CHARGES
-----------------------
   0 C :   -0.046687
   1 C :    0.044925
   2 N :   -0.077984
   3 C :    0.052688
   4 C :   -0.061773
   5 C :    0.096272
   6 N :   -0.267783
   7 S :    0.517582
   8 N :   -0.300577
   9 C :   -0.150458
  10 S :    0.206257
  11 C :   -0.132568
  12 C :    0.113430
  13 C :    0.082427
  14 C :   -0.100357
  15 C :    0.248206
  16 F :   -0.177126
  17 C :    0.232570
  18 F :   -0.176999
  19 C :   -0.134410
  20 C :    0.062873
  21 C :   -0.004722
  22 C :    0.013234
  23 C :   -0.213409
  24 C :    0.075819
  25 C :    0.183860
  26 N :   -0.134331
  27 C :    0.077161
  28 C :   -0.068207
  29 C :    0.039813
  30 C :   -0.065507
  31 C :    0.058766
  32 C :    0.010906
  33 C :   -0.015583
  34 S :    0.075132
  35 C :   -0.081689
  36 C :    0.041605
  37 C :    0.015195
  38 C :    0.002137
  39 S :    0.171374
  40 C :   -0.015479
  41 C :   -0.005151
  42 C :   -0.115982
  43 C :    0.307918
  44 C :   -0.365071
  45 C :   -0.185977
  46 N :    0.128949
  47 C :   -0.214268
  48 N :    0.146903
  49 C :    0.008375
  50 C :    0.003088
  51 C :    0.115638
  52 O :   -0.188879
  53 C :   -0.095817
  54 C :    0.127991
  55 C :   -0.102317
  56 C :   -0.028737
  57 S :    0.169501
  58 C :   -0.119559
  59 C :    0.065093
  60 Br:    0.005889
  61 H :   -0.006269
  62 H :    0.008224
  63 H :    0.002570
  64 H :   -0.012440
  65 H :   -0.027073
  66 H :   -0.009069
  67 H :   -0.024753
  68 H :    0.038955
  69 H :    0.012111
  70 H :    0.043261
  71 H :    0.032556
  72 H :    0.040016
  73 H :    0.138997
  74 H :    0.034889
  75 H :   -0.013020
  76 H :   -0.000144
  77 H :   -0.005118
  78 H :   -0.009702
  79 H :   -0.014813
  80 H :   -0.011590
  81 H :   -0.010443
  82 H :    0.021081
  83 H :   -0.026929
  84 H :   -0.011644
  85 H :   -0.043822
Sum of atomic charges:   -0.0000000

LOEWDIN ATOMIC CHARGES
----------------------
   0 C :   -0.057448
   1 C :    0.024246
   2 N :   -0.078232
   3 C :    0.003367
   4 C :   -0.076237
   5 C :   -0.041642
   6 N :   -0.285052
   7 S :    0.651741
   8 N :   -0.294815
   9 C :   -0.204287
  10 S :    0.535874
  11 C :   -0.170205
  12 C :   -0.055423
  13 C :   -0.025105
  14 C :   -0.028207
  15 C :    0.063308
  16 F :   -0.054829
  17 C :    0.064588
  18 F :   -0.055841
  19 C :   -0.053956
  20 C :   -0.043169
  21 C :   -0.027717
  22 C :   -0.058589
  23 C :   -0.032797
  24 C :   -0.050273
  25 C :    0.041436
  26 N :    0.026729
  27 C :    0.066153
  28 C :   -0.136360
  29 C :    0.006393
  30 C :   -0.187526
  31 C :    0.000707
  32 C :   -0.060370
  33 C :   -0.129990
  34 S :    0.391428
  35 C :   -0.215479
  36 C :   -0.021480
  37 C :   -0.050894
  38 C :   -0.107581
  39 S :    0.486122
  40 C :   -0.088449
  41 C :    0.038302
  42 C :   -0.134090
  43 C :    0.077027
  44 C :   -0.161912
  45 C :   -0.018098
  46 N :   -0.076747
  47 C :   -0.025209
  48 N :   -0.070305
  49 C :   -0.019824
  50 C :   -0.042458
  51 C :    0.049806
  52 O :   -0.189329
  53 C :    0.004293
  54 C :   -0.038247
  55 C :   -0.150770
  56 C :   -0.015719
  57 S :    0.419826
  58 C :   -0.277585
  59 C :   -0.073729
  60 Br:    0.128430
  61 H :    0.039603
  62 H :    0.026623
  63 H :    0.041955
  64 H :    0.037843
  65 H :    0.026612
  66 H :    0.027780
  67 H :    0.024149
  68 H :    0.039942
  69 H :    0.029723
  70 H :    0.038868
  71 H :    0.036628
  72 H :    0.036814
  73 H :    0.087773
  74 H :    0.020718
  75 H :    0.027251
  76 H :    0.040796
  77 H :    0.036605
  78 H :    0.033391
  79 H :    0.031092
  80 H :    0.033043
  81 H :    0.037012
  82 H :    0.044945
  83 H :    0.033356
  84 H :    0.038954
  85 H :    0.034723

  Mayer bond orders larger than 0.100000
B(  0-C ,  1-C ) :   1.4962 B(  0-C ,  5-C ) :   1.2323 B(  0-C , 61-H ) :   0.9909
B(  1-C ,  2-N ) :   1.3841 B(  1-C , 62-H ) :   0.9711 B(  2-N ,  3-C ) :   1.6692
B(  3-C ,  4-C ) :   1.1075 B(  3-C ,  9-C ) :   1.1592 B(  4-C ,  5-C ) :   1.1849
B(  4-C ,  8-N ) :   1.5181 B(  5-C ,  6-N ) :   1.5044 B(  6-N ,  7-S ) :   1.2797
B(  6-N ,  8-N ) :   0.1498 B(  7-S ,  8-N ) :   1.2579 B(  9-C , 10-S ) :   1.1737
B(  9-C , 11-C ) :   0.1140 B(  9-C , 13-C ) :   1.3176 B( 10-S , 11-C ) :   1.1633
B( 11-C , 12-C ) :   1.3155 B( 11-C , 20-C ) :   1.1555 B( 12-C , 13-C ) :   1.2150
B( 12-C , 19-C ) :   1.1459 B( 13-C , 14-C ) :   1.2085 B( 14-C , 15-C ) :   1.4381
B( 14-C , 19-C ) :   0.1142 B( 14-C , 63-H ) :   0.9893 B( 15-C , 16-F ) :   1.1296
B( 15-C , 17-C ) :   1.1600 B( 17-C , 18-F ) :   1.1337 B( 17-C , 19-C ) :   1.4942
B( 19-C , 64-H ) :   1.0018 B( 20-C , 21-C ) :   1.6870 B( 20-C , 65-H ) :   0.9378
B( 21-C , 22-C ) :   1.1278 B( 21-C , 66-H ) :   0.9599 B( 22-C , 23-C ) :   1.8298
B( 22-C , 67-H ) :   0.9349 B( 23-C , 24-C ) :   1.0827 B( 23-C , 25-C ) :   1.0005
B( 24-C , 68-H ) :   0.9460 B( 24-C , 69-H ) :   0.9508 B( 24-C , 70-H ) :   0.9418
B( 25-C , 26-N ) :   1.0287 B( 25-C , 71-H ) :   0.9367 B( 25-C , 72-H ) :   0.9235
B( 26-N , 27-C ) :   1.2821 B( 26-N , 73-H ) :   0.9327 B( 27-C , 28-C ) :   1.5547
B( 27-C , 74-H ) :   0.9476 B( 28-C , 29-C ) :   1.2506 B( 28-C , 75-H ) :   0.9548
B( 29-C , 30-C ) :   1.5535 B( 29-C , 76-H ) :   0.9577 B( 30-C , 31-C ) :   1.1791
B( 30-C , 34-S ) :   1.0069 B( 31-C , 32-C ) :   1.5494 B( 31-C , 77-H ) :   0.9971
B( 32-C , 33-C ) :   1.2169 B( 32-C , 78-H ) :   0.9953 B( 33-C , 34-S ) :   1.0960
B( 33-C , 35-C ) :   1.4322 B( 35-C , 36-C ) :   1.2218 B( 35-C , 39-S ) :   1.0661
B( 36-C , 37-C ) :   1.5286 B( 36-C , 79-H ) :   0.9927 B( 37-C , 38-C ) :   1.2086
B( 37-C , 80-H ) :   0.9987 B( 38-C , 39-S ) :   1.1523 B( 38-C , 40-C ) :   1.3770
B( 40-C , 41-C ) :   1.4389 B( 40-C , 81-H ) :   0.9491 B( 41-C , 42-C ) :   1.3475
B( 41-C , 82-H ) :   0.9383 B( 42-C , 43-C ) :   1.1378 B( 42-C , 51-C ) :   1.0373
B( 43-C , 44-C ) :   1.5820 B( 43-C , 49-C ) :   0.9836 B( 44-C , 45-C ) :   1.1509
B( 44-C , 47-C ) :   1.1500 B( 45-C , 46-N ) :   2.9619 B( 47-C , 48-N ) :   2.9962
B( 49-C , 50-C ) :   1.2793 B( 49-C , 56-C ) :   1.4276 B( 50-C , 51-C ) :   0.9209
B( 50-C , 53-C ) :   1.4422 B( 51-C , 52-O ) :   2.1370 B( 53-C , 54-C ) :   1.2273
B( 53-C , 83-H ) :   1.0147 B( 54-C , 55-C ) :   1.3234 B( 54-C , 59-C ) :   1.1633
B( 55-C , 56-C ) :   1.3093 B( 55-C , 57-S ) :   1.0778 B( 56-C , 84-H ) :   0.9806
B( 57-S , 58-C ) :   1.0818 B( 58-C , 59-C ) :   1.6164 B( 58-C , 60-Br) :   1.0129
B( 59-C , 85-H ) :   1.0032

-----------------------------------------------------------------------------
         ABSORPTION SPECTRUM VIA TRANSITION ELECTRIC DIPOLE MOMENTS
-----------------------------------------------------------------------------
State   Energy  Wavelength   fosc         T2         TX        TY        TZ
        (cm-1)    (nm)                  (au**2)     (au)      (au)      (au)
-----------------------------------------------------------------------------
   0   12605.9    793.3   0.725789043  18.95456  -1.08778  -3.66037   2.09116
   1   17792.9    562.0   0.477528284   8.83544   0.52296  -2.53609  -1.45952
   2   18295.5    546.6   0.278573257   5.01268  -0.59497   1.70161   1.32785
   3   21107.0    473.8   0.072111434   1.12474  -1.03383   0.08212   0.22178
   4   21689.7    461.0   0.029761427   0.45173   0.28124  -0.56791  -0.22384
   5   23021.8    434.4   0.101735805   1.45482   1.08450  -0.43683  -0.29643
   6   24082.8    415.2   0.055679406   0.76114  -0.72387   0.27966   0.39867
   7   25438.3    393.1   0.042478105   0.54973   0.10498   0.01474  -0.73382
   8   25934.9    385.6   0.005092367   0.06464  -0.06832   0.05156  -0.23941
   9   27086.7    369.2   0.478728165   5.81846   0.07666   1.99543   1.35308
  10   27648.0    361.7   0.568403822   6.76813  -2.08661   0.64755   1.41239
  11   28235.9    354.2   0.024807101   0.28923   0.18240  -0.34844  -0.36682
  12   28511.4    350.7   0.186985475   2.15906  -1.02664   0.91264   0.52169
  13   29292.3    341.4   0.034261121   0.38506  -0.59018  -0.06491   0.18037
  14   29857.1    334.9   0.011596302   0.12786  -0.35499  -0.01649  -0.03969
  15   29997.6    333.4   0.055165096   0.60542  -0.12507   0.20444  -0.74025
  16   30246.4    330.6   0.137617856   1.49788   1.14561   0.21583  -0.37267
  17   30665.2    326.1   0.002673542   0.02870  -0.03444  -0.16329   0.02919
  18   30867.3    324.0   0.008943776   0.09539  -0.28491   0.02196   0.11718
  19   30985.2    322.7   0.043519178   0.46238  -0.24599   0.13756   0.61883
  20   31810.7    314.4   0.036113940   0.37375  -0.23702  -0.09435   0.55558
  21   32158.7    311.0   0.113723890   1.16420  -0.24386   0.49566   0.92685
  22   32186.1    310.7   0.194991644   1.99445   0.49362  -0.34488  -1.27744
  23   33119.0    301.9   0.208062364   2.06820   0.48314   0.10289  -1.35062
  24   33356.4    299.8   0.030923037   0.30520  -0.54948   0.04113   0.03976
  25   34233.5    292.1   0.236802223   2.27724   0.33553   0.74350  -1.26959
  26   34302.3    291.5   0.029361565   0.28179  -0.05859  -0.02785  -0.52686
  27   35266.9    283.6   0.105331847   0.98326  -0.81251  -0.44316  -0.35595
  28   35298.2    283.3   0.107457153   1.00221   0.46458  -0.88585   0.04049
  29   35411.5    282.4   0.024608007   0.22877  -0.23083  -0.39650  -0.13521
  30   35556.6    281.2   0.040407807   0.37413   0.49470   0.29660   0.20353
  31   35706.7    280.1   0.187175613   1.72574   0.95114   0.81441   0.39725
  32   35900.5    278.5   0.032990553   0.30253   0.31070   0.26920  -0.36541
  33   36250.2    275.9   0.005524445   0.05017  -0.19787   0.07520  -0.07323
  34   36448.6    274.4   0.051486870   0.46504  -0.06360  -0.60070   0.31647
  35   36791.8    271.8   0.007662964   0.06857  -0.24923  -0.06965  -0.04001
  36   37138.9    269.3   0.032788457   0.29065  -0.00770  -0.35646   0.40438
  37   37707.8    265.2   0.018204060   0.15893   0.26361  -0.12297   0.27262
  38   37798.9    264.6   0.205335491   1.78838  -0.36733   0.95402  -0.86215
  39   38454.6    260.0   0.073952923   0.63311   0.31608  -0.44254  -0.58083
  40   38747.4    258.1   0.098206511   0.83440   0.50565  -0.68382   0.33331
  41   38826.8    257.6   0.041174059   0.34911   0.38338  -0.28622  -0.34672
  42   39690.9    251.9   0.018045695   0.14968  -0.38533  -0.00122   0.03462
  43   39989.5    250.1   0.026662541   0.21950   0.39268  -0.13734  -0.21549
  44   40118.7    249.3   0.026463087   0.21715  -0.03586  -0.38453   0.26078

FINAL SINGLE POINT ENERGY     -6932.561312885512

DIPOLE MOMENT
-------------
                                X             Y             Z
Electronic contribution:    -10.56530      88.69084      31.20625
Nuclear contribution   :      8.52263     -93.78795     -27.17441
                        -----------------------------------------
Total Dipole Moment    :     -2.04266      -5.09711       4.03184
                        -----------------------------------------
Magnitude (a.u.)       :      6.81239
Magnitude (Debye)      :     17.31573

Rotational constants in cm-1:     0.001461     0.000631     0.000523
Rotational constants in MHz :    43.814085    18.906292    15.667172

                             ****ORCA TERMINATED NORMALLY****
TOTAL RUN TIME: 0 days 0 hours 8 minutes 46 seconds 112 msec
