                         Program Version 4.2.0 -  RELEASE  -
|  1> # ORCA input file
|  2> # SCF done       -221.512624059838          0.000674975811
|  3> ! CAM-B3LYP def2-SVP def2/J RIJCOSX Grid4 TightSCF
|  4> %maxcore 5000
|  5> %tddft
|  6>     Mode sTDDFT
|  7>     Ethresh 5.0
|  8>     maxcore 5000
|  9> end
| 10>
| 11> %pal
| 12>   nprocs 6
| 13>   end
| 14> * xyz 0 1
| 15>    C        6.86205         3.31219        -4.06404
| 16>    C        8.07486         3.78654        -3.65171
| 17>    C        9.31189         3.18293        -3.96444
| 18>    N       10.34381         2.73598        -4.19119
| 19>    C        8.23618         4.96831        -2.89669
| 20>    N        8.41328         5.94205        -2.31618
| 21>    C        6.61960         2.15658        -4.91664
| 22>    C        5.22292         2.06631        -5.20063
| 23>    C        4.71148         1.07550        -5.99012
| 24>    C        5.58489         0.11100        -6.53895
| 25>    C        6.97991         0.19063        -6.25557
| 26>    C        7.48224         1.22729        -5.43724
| 27>    C        7.84102        -0.78070        -6.80587
| 28>    C        7.35006        -1.78240        -7.59837
| 29>    C        5.97707        -1.85944        -7.87713
| 30>    C        5.11315        -0.93304        -7.35895
| 31>    C        4.51571         3.15201        -4.51357
| 32>    O        3.33297         3.41786        -4.51683
| 33>    C        5.56430         3.89753        -3.76382
| 34>    C        5.22092         4.86925        -2.89631
| 35>    C        3.83418         5.23931        -2.68114
| 36>    C        3.09896         4.77201        -1.62049
| 37>    N        3.59800         3.86013        -0.68159
| 38>    O        2.85944         3.47304         0.20194
| 39>    O        4.76711         3.51446        -0.81340
| 40>    C        1.74963         5.29212        -1.68409
| 41>    C        1.67918         6.12079        -2.74653
| 42>    C        2.96665         6.16494        -3.41095
| 43>    C        3.32047         6.90699        -4.51247
| 44>    C        4.45716         6.68299        -5.35899
| 45>    C        4.27899         7.34689        -6.52978
| 46>    C        3.06094         8.10296        -6.45686
| 47>    N        2.67348         8.99041        -7.46189
| 48>    O        3.31018         8.98657        -8.49999
| 49>    O        1.71729         9.74689        -7.26596
| 50>    C        2.48069         7.90960        -5.19647
| 51>    C        1.40924         8.68413        -4.72974
| 52>    C        1.12367         9.09910        -3.45608
| 53>    C        0.19114        10.12486        -3.24023
| 54>    S       -0.39841        10.49335        -1.63631
| 55>    C       -1.39964        11.81509        -2.17107
| 56>    C       -1.26338        11.98139        -3.55921
| 57>    C       -0.37648        11.03221        -4.14870
| 58>    N       -0.27661        11.30494        -5.47275
| 59>    C       -1.07936        12.38671        -5.74691
| 60>    C       -1.20373        12.92499        -7.03820
| 61>    N       -1.33078        13.39032        -8.07809
| 62>    C       -1.71171        12.82388        -4.59841
| 63>    C       -2.17549        12.50491        -1.22602
| 64>    C       -2.89288        13.63721        -1.47167
| 65>    C       -3.71667        14.27145        -0.51445
| 66>    O       -4.00870        15.57095        -0.67973
| 67>    C       -4.70335        16.00282         0.40031
| 68>    C       -4.86353        14.95783         1.29262
| 69>    C       -4.25917        13.82761         0.70567
| 70>    C       -4.32955        12.49979         1.29202
| 71>    O       -4.20905        12.24303         2.46090
| 72>    C       -4.75144        11.33795         0.32832
| 73>    F       -5.04361        11.74227        -0.91771
| 74>    F       -3.80781        10.39261         0.21872
| 75>    F       -5.84947        10.74768         0.80668
| 76>    C       -5.13147        17.35341         0.49241
| 77>    C       -4.86070        18.28950        -0.45279
| 78>    C       -5.28990        19.63246        -0.31832
| 79>    C       -5.01654        20.62805        -1.20935
| 80>    C       -5.42568        22.02007        -1.11444
| 81>    C       -6.22308        22.57910        -0.14982
| 82>    C       -6.58980        23.94189        -0.11802
| 83>    N       -6.92589        25.03591        -0.02932
| 84>    C       -6.80183        21.89582         0.94028
| 85>    N       -7.31040        21.41438         1.85065
| 86>    C       -4.84675        22.73165        -2.24782
| 87>    C       -4.11943        21.80431        -3.04801
| 88>    C       -4.20201        20.46436        -2.44738
| 89>    O       -3.70194        19.44547        -2.87542
| 90>    C       -3.46566        22.18706        -4.18420
| 91>    C       -3.50686        23.54224        -4.57979
| 92>    C       -4.22997        24.47762        -3.78388
| 93>    C       -4.89873        24.05141        -2.61387
| 94>    C       -4.26287        25.82862        -4.18576
| 95>    C       -3.61337        26.23755        -5.31862
| 96>    C       -2.90197        25.31572        -6.10142
| 97>    C       -2.84991        23.99665        -5.74016
| 98>    H        3.65155         1.02759        -6.19126
| 99>    H        8.54158         1.25921        -5.23661
|100>    H        8.89703        -0.71724        -6.58872
|101>    H        8.01735        -2.52169        -8.01499
|102>    H        5.60735        -2.65678        -8.50406
|103>    H        4.05523        -0.98769        -7.56957
|104>    H        5.96021         5.36571        -2.27955
|105>    H        0.97348         5.01612        -0.99703
|106>    H        0.80145         6.61949        -3.10509
|107>    H        5.27662         6.03667        -5.11991
|108>    H        4.92697         7.35117        -7.38601
|109>    H        0.81572         9.11816        -5.51800
|110>    H        1.64178         8.70196        -2.59575
|111>    H        0.33228        10.87210        -6.15831
|112>    H       -2.40047        13.64161        -4.54680
|113>    H       -2.15810        12.10268        -0.22139
|114>    H       -2.80542        14.14632        -2.41825
|115>    H       -5.38008        14.98032         2.23003
|116>    H       -5.68892        17.61144         1.38232
|117>    H       -4.29646        18.01674        -1.33248
|118>    H       -5.86630        19.86318         0.56832
|119>    H       -2.92198        21.46309        -4.77288
|120>    H       -5.43527        24.78540        -2.03423
|121>    H       -4.81202        26.53450        -3.58016
|122>    H       -3.64416        27.27435        -5.61802
|123>    H       -2.39536        25.65609        -6.99200
|124>    H       -2.30386        23.28246        -6.33885
|125> *
|126>
|127>                          ****END OF INPUT****

CARTESIAN COORDINATES (ANGSTROEM)
---------------------------------
  C      6.862050    3.312190   -4.064040
  C      8.074860    3.786540   -3.651710
  C      9.311890    3.182930   -3.964440
  N     10.343810    2.735980   -4.191190
  C      8.236180    4.968310   -2.896690
  N      8.413280    5.942050   -2.316180
  C      6.619600    2.156580   -4.916640
  C      5.222920    2.066310   -5.200630
  C      4.711480    1.075500   -5.990120
  C      5.584890    0.111000   -6.538950
  C      6.979910    0.190630   -6.255570
  C      7.482240    1.227290   -5.437240
  C      7.841020   -0.780700   -6.805870
  C      7.350060   -1.782400   -7.598370
  C      5.977070   -1.859440   -7.877130
  C      5.113150   -0.933040   -7.358950
  C      4.515710    3.152010   -4.513570
  O      3.332970    3.417860   -4.516830
  C      5.564300    3.897530   -3.763820
  C      5.220920    4.869250   -2.896310
  C      3.834180    5.239310   -2.681140
  C      3.098960    4.772010   -1.620490
  N      3.598000    3.860130   -0.681590
  O      2.859440    3.473040    0.201940
  O      4.767110    3.514460   -0.813400
  C      1.749630    5.292120   -1.684090
  C      1.679180    6.120790   -2.746530
  C      2.966650    6.164940   -3.410950
  C      3.320470    6.906990   -4.512470
  C      4.457160    6.682990   -5.358990
  C      4.278990    7.346890   -6.529780
  C      3.060940    8.102960   -6.456860
  N      2.673480    8.990410   -7.461890
  O      3.310180    8.986570   -8.499990
  O      1.717290    9.746890   -7.265960
  C      2.480690    7.909600   -5.196470
  C      1.409240    8.684130   -4.729740
  C      1.123670    9.099100   -3.456080
  C      0.191140   10.124860   -3.240230
  S     -0.398410   10.493350   -1.636310
  C     -1.399640   11.815090   -2.171070
  C     -1.263380   11.981390   -3.559210
  C     -0.376480   11.032210   -4.148700
  N     -0.276610   11.304940   -5.472750
  C     -1.079360   12.386710   -5.746910
  C     -1.203730   12.924990   -7.038200
  N     -1.330780   13.390320   -8.078090
  C     -1.711710   12.823880   -4.598410
  C     -2.175490   12.504910   -1.226020
  C     -2.892880   13.637210   -1.471670
  C     -3.716670   14.271450   -0.514450
  O     -4.008700   15.570950   -0.679730
  C     -4.703350   16.002820    0.400310
  C     -4.863530   14.957830    1.292620
  C     -4.259170   13.827610    0.705670
  C     -4.329550   12.499790    1.292020
  O     -4.209050   12.243030    2.460900
  C     -4.751440   11.337950    0.328320
  F     -5.043610   11.742270   -0.917710
  F     -3.807810   10.392610    0.218720
  F     -5.849470   10.747680    0.806680
  C     -5.131470   17.353410    0.492410
  C     -4.860700   18.289500   -0.452790
  C     -5.289900   19.632460   -0.318320
  C     -5.016540   20.628050   -1.209350
  C     -5.425680   22.020070   -1.114440
  C     -6.223080   22.579100   -0.149820
  C     -6.589800   23.941890   -0.118020
  N     -6.925890   25.035910   -0.029320
  C     -6.801830   21.895820    0.940280
  N     -7.310400   21.414380    1.850650
  C     -4.846750   22.731650   -2.247820
  C     -4.119430   21.804310   -3.048010
  C     -4.202010   20.464360   -2.447380
  O     -3.701940   19.445470   -2.875420
  C     -3.465660   22.187060   -4.184200
  C     -3.506860   23.542240   -4.579790
  C     -4.229970   24.477620   -3.783880
  C     -4.898730   24.051410   -2.613870
  C     -4.262870   25.828620   -4.185760
  C     -3.613370   26.237550   -5.318620
  C     -2.901970   25.315720   -6.101420
  C     -2.849910   23.996650   -5.740160
  H      3.651550    1.027590   -6.191260
  H      8.541580    1.259210   -5.236610
  H      8.897030   -0.717240   -6.588720
  H      8.017350   -2.521690   -8.014990
  H      5.607350   -2.656780   -8.504060
  H      4.055230   -0.987690   -7.569570
  H      5.960210    5.365710   -2.279550
  H      0.973480    5.016120   -0.997030
  H      0.801450    6.619490   -3.105090
  H      5.276620    6.036670   -5.119910
  H      4.926970    7.351170   -7.386010
  H      0.815720    9.118160   -5.518000
  H      1.641780    8.701960   -2.595750
  H      0.332280   10.872100   -6.158310
  H     -2.400470   13.641610   -4.546800
  H     -2.158100   12.102680   -0.221390
  H     -2.805420   14.146320   -2.418250
  H     -5.380080   14.980320    2.230030
  H     -5.688920   17.611440    1.382320
  H     -4.296460   18.016740   -1.332480
  H     -5.866300   19.863180    0.568320
  H     -2.921980   21.463090   -4.772880
  H     -5.435270   24.785400   -2.034230
  H     -4.812020   26.534500   -3.580160
  H     -3.644160   27.274350   -5.618020
  H     -2.395360   25.656090   -6.992000
  H     -2.303860   23.282460   -6.338850

 Total Charge           Charge          ....    0
 Multiplicity           Mult            ....    1
 Number of Electrons    NEL             ....  568
 Basis Dimension        Dim             .... 1301

ORBITAL ENERGIES
----------------

  NO   OCC          E(Eh)            E(eV)
   0   2.0000     -88.992748     -2421.6158
   1   2.0000     -24.819841      -675.3822
   2   2.0000     -24.819261      -675.3664
   3   2.0000     -24.813995      -675.2231
   4   2.0000     -19.324865      -525.8563
   5   2.0000     -19.253318      -523.9094
   6   2.0000     -19.250019      -523.8197
   7   2.0000     -19.247465      -523.7502
   8   2.0000     -19.245899      -523.7075
   9   2.0000     -19.245134      -523.6867
  10   2.0000     -19.232498      -523.3429
  11   2.0000     -19.218455      -522.9607
  12   2.0000     -14.655846      -398.8058
  13   2.0000     -14.655041      -398.7839
  14   2.0000     -14.495374      -394.4392
  15   2.0000     -14.426903      -392.5760
  16   2.0000     -14.425739      -392.5443
  17   2.0000     -14.425475      -392.5371
  18   2.0000     -14.418688      -392.3524
  19   2.0000     -14.415542      -392.2669
  20   2.0000     -10.530819      -286.5582
  21   2.0000     -10.406113      -283.1647
  22   2.0000     -10.379513      -282.4409
  23   2.0000     -10.379337      -282.4361
  24   2.0000     -10.369097      -282.1575
  25   2.0000     -10.364323      -282.0276
  26   2.0000     -10.361170      -281.9418
  27   2.0000     -10.355696      -281.7928
  28   2.0000     -10.352123      -281.6956
  29   2.0000     -10.348843      -281.6063
  30   2.0000     -10.344170      -281.4792
  31   2.0000     -10.343487      -281.4606
  32   2.0000     -10.341979      -281.4196
  33   2.0000     -10.338919      -281.3363
  34   2.0000     -10.338071      -281.3132
  35   2.0000     -10.337338      -281.2933
  36   2.0000     -10.337110      -281.2871
  37   2.0000     -10.335081      -281.2318
  38   2.0000     -10.334584      -281.2183
  39   2.0000     -10.332227      -281.1542
  40   2.0000     -10.331145      -281.1248
  41   2.0000     -10.328539      -281.0538
  42   2.0000     -10.327533      -281.0265
  43   2.0000     -10.326921      -281.0098
  44   2.0000     -10.324670      -280.9485
  45   2.0000     -10.323895      -280.9275
  46   2.0000     -10.321586      -280.8646
  47   2.0000     -10.318497      -280.7806
  48   2.0000     -10.317194      -280.7451
  49   2.0000     -10.317134      -280.7435
  50   2.0000     -10.316480      -280.7257
  51   2.0000     -10.314348      -280.6677
  52   2.0000     -10.314037      -280.6592
  53   2.0000     -10.311859      -280.6000
  54   2.0000     -10.311632      -280.5938
  55   2.0000     -10.311256      -280.5835
  56   2.0000     -10.308345      -280.5043
  57   2.0000     -10.307736      -280.4877
  58   2.0000     -10.307451      -280.4800
  59   2.0000     -10.307422      -280.4792
  60   2.0000     -10.307294      -280.4757
  61   2.0000     -10.306889      -280.4647
  62   2.0000     -10.305392      -280.4240
  63   2.0000     -10.304054      -280.3876
  64   2.0000     -10.303518      -280.3730
  65   2.0000     -10.301211      -280.3102
  66   2.0000     -10.300679      -280.2957
  67   2.0000     -10.298914      -280.2477
  68   2.0000     -10.298658      -280.2407
  69   2.0000     -10.297913      -280.2205
  70   2.0000     -10.297768      -280.2165
  71   2.0000     -10.295246      -280.1479
  72   2.0000     -10.294779      -280.1352
  73   2.0000     -10.294481      -280.1271
  74   2.0000     -10.293987      -280.1136
  75   2.0000     -10.293449      -280.0990
  76   2.0000     -10.293160      -280.0911
  77   2.0000     -10.289685      -279.9966
  78   2.0000     -10.289505      -279.9917
  79   2.0000     -10.287696      -279.9424
  80   2.0000     -10.287147      -279.9275
  81   2.0000     -10.286889      -279.9205
  82   2.0000     -10.286416      -279.9076
  83   2.0000      -8.087718      -220.0780
  84   2.0000      -6.056980      -164.8188
  85   2.0000      -6.052886      -164.7074
  86   2.0000      -6.049919      -164.6267
  87   2.0000      -1.407897       -38.3108
  88   2.0000      -1.326710       -36.1016
  89   2.0000      -1.321106       -35.9491
  90   2.0000      -1.311422       -35.6856
  91   2.0000      -1.308875       -35.6163
  92   2.0000      -1.246433       -33.9172
  93   2.0000      -1.170070       -31.8392
  94   2.0000      -1.147148       -31.2155
  95   2.0000      -1.144941       -31.1554
  96   2.0000      -1.137561       -30.9546
  97   2.0000      -1.132992       -30.8303
  98   2.0000      -1.119799       -30.4713
  99   2.0000      -1.029555       -28.0156
 100   2.0000      -1.025343       -27.9010
 101   2.0000      -1.019615       -27.7451
 102   2.0000      -1.012731       -27.5578
 103   2.0000      -1.009216       -27.4622
 104   2.0000      -1.006295       -27.3827
 105   2.0000      -1.004447       -27.3324
 106   2.0000      -1.002538       -27.2804
 107   2.0000      -0.999982       -27.2109
 108   2.0000      -0.995263       -27.0825
 109   2.0000      -0.981308       -26.7027
 110   2.0000      -0.972769       -26.4704
 111   2.0000      -0.957553       -26.0564
 112   2.0000      -0.943634       -25.6776
 113   2.0000      -0.941592       -25.6220
 114   2.0000      -0.935614       -25.4594
 115   2.0000      -0.927042       -25.2261
 116   2.0000      -0.920176       -25.0393
 117   2.0000      -0.918594       -24.9962
 118   2.0000      -0.917679       -24.9713
 119   2.0000      -0.903337       -24.5810
 120   2.0000      -0.898486       -24.4490
 121   2.0000      -0.892763       -24.2933
 122   2.0000      -0.890803       -24.2400
 123   2.0000      -0.884890       -24.0791
 124   2.0000      -0.883240       -24.0342
 125   2.0000      -0.880305       -23.9543
 126   2.0000      -0.868482       -23.6326
 127   2.0000      -0.857215       -23.3260
 128   2.0000      -0.845129       -22.9971
 129   2.0000      -0.841258       -22.8918
 130   2.0000      -0.838328       -22.8121
 131   2.0000      -0.832243       -22.6465
 132   2.0000      -0.829383       -22.5687
 133   2.0000      -0.817423       -22.2432
 134   2.0000      -0.804546       -21.8928
 135   2.0000      -0.784206       -21.3393
 136   2.0000      -0.780578       -21.2406
 137   2.0000      -0.772565       -21.0226
 138   2.0000      -0.770286       -20.9606
 139   2.0000      -0.763118       -20.7655
 140   2.0000      -0.761279       -20.7155
 141   2.0000      -0.746462       -20.3123
 142   2.0000      -0.736618       -20.0444
 143   2.0000      -0.730828       -19.8868
 144   2.0000      -0.723574       -19.6895
 145   2.0000      -0.719377       -19.5752
 146   2.0000      -0.716010       -19.4836
 147   2.0000      -0.714785       -19.4503
 148   2.0000      -0.713476       -19.4147
 149   2.0000      -0.707048       -19.2398
 150   2.0000      -0.705058       -19.1856
 151   2.0000      -0.704980       -19.1835
 152   2.0000      -0.698174       -18.9983
 153   2.0000      -0.689668       -18.7668
 154   2.0000      -0.688389       -18.7320
 155   2.0000      -0.687752       -18.7147
 156   2.0000      -0.682446       -18.5703
 157   2.0000      -0.680749       -18.5241
 158   2.0000      -0.670281       -18.2393
 159   2.0000      -0.666506       -18.1366
 160   2.0000      -0.656469       -17.8634
 161   2.0000      -0.655502       -17.8371
 162   2.0000      -0.646185       -17.5836
 163   2.0000      -0.643860       -17.5203
 164   2.0000      -0.641267       -17.4498
 165   2.0000      -0.639434       -17.3999
 166   2.0000      -0.638032       -17.3617
 167   2.0000      -0.633998       -17.2520
 168   2.0000      -0.631998       -17.1975
 169   2.0000      -0.628723       -17.1084
 170   2.0000      -0.623543       -16.9675
 171   2.0000      -0.622625       -16.9425
 172   2.0000      -0.616621       -16.7791
 173   2.0000      -0.612472       -16.6662
 174   2.0000      -0.607682       -16.5359
 175   2.0000      -0.603108       -16.4114
 176   2.0000      -0.598254       -16.2793
 177   2.0000      -0.594463       -16.1762
 178   2.0000      -0.592804       -16.1310
 179   2.0000      -0.590962       -16.0809
 180   2.0000      -0.585930       -15.9440
 181   2.0000      -0.581416       -15.8211
 182   2.0000      -0.574803       -15.6412
 183   2.0000      -0.571015       -15.5381
 184   2.0000      -0.569025       -15.4840
 185   2.0000      -0.567053       -15.4303
 186   2.0000      -0.566099       -15.4043
 187   2.0000      -0.564780       -15.3685
 188   2.0000      -0.558898       -15.2084
 189   2.0000      -0.557076       -15.1588
 190   2.0000      -0.556298       -15.1376
 191   2.0000      -0.553625       -15.0649
 192   2.0000      -0.552583       -15.0365
 193   2.0000      -0.548973       -14.9383
 194   2.0000      -0.547511       -14.8985
 195   2.0000      -0.546723       -14.8771
 196   2.0000      -0.545268       -14.8375
 197   2.0000      -0.543318       -14.7844
 198   2.0000      -0.538445       -14.6518
 199   2.0000      -0.537867       -14.6361
 200   2.0000      -0.535973       -14.5846
 201   2.0000      -0.535358       -14.5678
 202   2.0000      -0.533741       -14.5238
 203   2.0000      -0.532315       -14.4850
 204   2.0000      -0.529718       -14.4144
 205   2.0000      -0.525868       -14.3096
 206   2.0000      -0.521768       -14.1980
 207   2.0000      -0.521215       -14.1830
 208   2.0000      -0.519496       -14.1362
 209   2.0000      -0.515381       -14.0242
 210   2.0000      -0.514869       -14.0103
 211   2.0000      -0.514315       -13.9952
 212   2.0000      -0.511142       -13.9089
 213   2.0000      -0.507076       -13.7982
 214   2.0000      -0.506716       -13.7885
 215   2.0000      -0.506026       -13.7697
 216   2.0000      -0.503626       -13.7044
 217   2.0000      -0.503039       -13.6884
 218   2.0000      -0.502167       -13.6647
 219   2.0000      -0.498440       -13.5632
 220   2.0000      -0.498123       -13.5546
 221   2.0000      -0.497220       -13.5301
 222   2.0000      -0.493257       -13.4222
 223   2.0000      -0.491847       -13.3838
 224   2.0000      -0.489444       -13.3184
 225   2.0000      -0.487948       -13.2778
 226   2.0000      -0.482570       -13.1314
 227   2.0000      -0.478722       -13.0267
 228   2.0000      -0.476402       -12.9636
 229   2.0000      -0.475646       -12.9430
 230   2.0000      -0.473739       -12.8911
 231   2.0000      -0.465388       -12.6639
 232   2.0000      -0.464599       -12.6424
 233   2.0000      -0.458912       -12.4876
 234   2.0000      -0.456442       -12.4204
 235   2.0000      -0.456074       -12.4104
 236   2.0000      -0.454039       -12.3550
 237   2.0000      -0.453025       -12.3274
 238   2.0000      -0.450999       -12.2723
 239   2.0000      -0.449147       -12.2219
 240   2.0000      -0.447568       -12.1790
 241   2.0000      -0.445918       -12.1340
 242   2.0000      -0.443303       -12.0629
 243   2.0000      -0.442990       -12.0544
 244   2.0000      -0.441589       -12.0163
 245   2.0000      -0.440976       -11.9996
 246   2.0000      -0.437169       -11.8960
 247   2.0000      -0.435014       -11.8373
 248   2.0000      -0.434229       -11.8160
 249   2.0000      -0.433621       -11.7994
 250   2.0000      -0.430870       -11.7246
 251   2.0000      -0.429997       -11.7008
 252   2.0000      -0.427631       -11.6364
 253   2.0000      -0.421170       -11.4606
 254   2.0000      -0.419503       -11.4153
 255   2.0000      -0.414118       -11.2687
 256   2.0000      -0.407694       -11.0939
 257   2.0000      -0.406274       -11.0553
 258   2.0000      -0.398999       -10.8573
 259   2.0000      -0.396456       -10.7881
 260   2.0000      -0.394356       -10.7310
 261   2.0000      -0.388517       -10.5721
 262   2.0000      -0.387764       -10.5516
 263   2.0000      -0.385510       -10.4902
 264   2.0000      -0.384179       -10.4540
 265   2.0000      -0.378003       -10.2860
 266   2.0000      -0.376135       -10.2352
 267   2.0000      -0.373581       -10.1657
 268   2.0000      -0.371339       -10.1047
 269   2.0000      -0.368985       -10.0406
 270   2.0000      -0.359859        -9.7923
 271   2.0000      -0.351250        -9.5580
 272   2.0000      -0.345739        -9.4080
 273   2.0000      -0.339166        -9.2292
 274   2.0000      -0.337189        -9.1754
 275   2.0000      -0.330314        -8.9883
 276   2.0000      -0.325795        -8.8653
 277   2.0000      -0.319277        -8.6880
 278   2.0000      -0.317104        -8.6288
 279   2.0000      -0.311062        -8.4644
 280   2.0000      -0.302702        -8.2369
 281   2.0000      -0.297287        -8.0896
 282   2.0000      -0.285963        -7.7815
 283   2.0000      -0.251170        -6.8347
 284   0.0000      -0.139766        -3.8032
 285   0.0000      -0.106610        -2.9010
 286   0.0000      -0.096130        -2.6158
 287   0.0000      -0.087910        -2.3922
 288   0.0000      -0.066665        -1.8141

MULLIKEN ATOMIC CHARGES
-----------------------
   0 C :    0.337852
   1 C :   -0.329838
   2 C :   -0.183055
   3 N :    0.159788
   4 C :   -0.206299
   5 N :    0.171109
   6 C :    0.043404
   7 C :   -0.008928
   8 C :   -0.070898
   9 C :    0.097482
  10 C :    0.097699
  11 C :   -0.082643
  12 C :   -0.018537
  13 C :    0.037940
  14 C :    0.039044
  15 C :   -0.015275
  16 C :    0.155888
  17 O :   -0.140637
  18 C :   -0.071260
  19 C :   -0.057891
  20 C :    0.002112
  21 C :    0.101261
  22 N :    0.272896
  23 O :   -0.234355
  24 O :   -0.248769
  25 C :    0.021290
  26 C :   -0.016868
  27 C :    0.091222
  28 C :    0.039893
  29 C :   -0.002434
  30 C :    0.027558
  31 C :    0.062099
  32 N :    0.296446
  33 O :   -0.239298
  34 O :   -0.312879
  35 C :    0.052750
  36 C :   -0.080958
  37 C :    0.062906
  38 C :   -0.187725
  39 S :    0.186478
  40 C :   -0.157866
  41 C :    0.124892
  42 C :    0.115097
  43 N :   -0.024242
  44 C :   -0.094252
  45 C :   -0.138166
  46 N :    0.177197
  47 C :   -0.049638
  48 C :    0.071841
  49 C :   -0.019956
  50 C :    0.191601
  51 O :   -0.174787
  52 C :    0.183315
  53 C :   -0.028990
  54 C :   -0.034952
  55 C :   -0.017693
  56 O :   -0.130205
  57 C :    0.495666
  58 F :   -0.154378
  59 F :   -0.161257
  60 F :   -0.146807
  61 C :    0.009554
  62 C :    0.008245
  63 C :   -0.047174
  64 C :   -0.059306
  65 C :    0.338170
  66 C :   -0.352969
  67 C :   -0.184064
  68 N :    0.148799
  69 C :   -0.190109
  70 N :    0.144582
  71 C :    0.044466
  72 C :   -0.003751
  73 C :    0.147510
  74 O :   -0.150552
  75 C :   -0.079968
  76 C :    0.099465
  77 C :    0.096654
  78 C :   -0.083444
  79 C :   -0.018858
  80 C :    0.035880
  81 C :    0.036866
  82 C :   -0.016919
  83 H :   -0.009871
  84 H :   -0.005264
  85 H :   -0.005957
  86 H :   -0.000668
  87 H :   -0.001300
  88 H :   -0.013986
  89 H :    0.058532
  90 H :   -0.000052
  91 H :    0.002115
  92 H :   -0.010853
  93 H :    0.010058
  94 H :    0.004078
  95 H :    0.010112
  96 H :    0.152077
  97 H :    0.000405
  98 H :   -0.005703
  99 H :    0.000453
 100 H :    0.009172
 101 H :    0.018313
 102 H :    0.035002
 103 H :    0.010279
 104 H :   -0.013006
 105 H :   -0.009146
 106 H :   -0.008274
 107 H :   -0.003986
 108 H :   -0.004565
 109 H :   -0.016036
Sum of atomic charges:   -0.0000000

LOEWDIN ATOMIC CHARGES
----------------------
   0 C :    0.075462
   1 C :   -0.124572
   2 C :   -0.017468
   3 N :   -0.042460
   4 C :   -0.018140
   5 N :   -0.042273
   6 C :   -0.024635
   7 C :   -0.058512
   8 C :    0.037937
   9 C :   -0.007302
  10 C :   -0.004082
  11 C :    0.023414
  12 C :   -0.003974
  13 C :   -0.009156
  14 C :   -0.008613
  15 C :   -0.007505
  16 C :    0.086669
  17 O :   -0.130980
  18 C :   -0.078169
  19 C :    0.083497
  20 C :    0.018576
  21 C :   -0.035276
  22 N :    0.288093
  23 O :   -0.198223
  24 O :   -0.209411
  25 C :    0.007198
  26 C :   -0.034121
  27 C :    0.035259
  28 C :    0.045511
  29 C :   -0.049854
  30 C :    0.030733
  31 C :   -0.067865
  32 N :    0.296318
  33 O :   -0.202972
  34 O :   -0.261621
  35 C :    0.028518
  36 C :   -0.042003
  37 C :    0.003424
  38 C :   -0.201101
  39 S :    0.481160
  40 C :   -0.154377
  41 C :   -0.060372
  42 C :    0.009861
  43 N :    0.092848
  44 C :   -0.016538
  45 C :   -0.042878
  46 N :   -0.023164
  47 C :   -0.033242
  48 C :   -0.019818
  49 C :   -0.034452
  50 C :    0.067645
  51 O :    0.036652
  52 C :    0.028251
  53 C :   -0.004667
  54 C :   -0.114723
  55 C :    0.031857
  56 O :   -0.087467
  57 C :    0.138573
  58 F :   -0.053165
  59 F :   -0.052562
  60 F :   -0.042697
  61 C :    0.008094
  62 C :   -0.020392
  63 C :    0.063629
  64 C :   -0.087079
  65 C :    0.075170
  66 C :   -0.138477
  67 C :   -0.017318
  68 N :   -0.053138
  69 C :   -0.019475
  70 N :   -0.054418
  71 C :   -0.026041
  72 C :   -0.056404
  73 C :    0.085013
  74 O :   -0.144881
  75 C :    0.032731
  76 C :   -0.008088
  77 C :   -0.006039
  78 C :    0.019872
  79 C :   -0.005044
  80 C :   -0.012871
  81 C :   -0.011424
  82 C :   -0.009293
  83 H :    0.040798
  84 H :    0.040285
  85 H :    0.035997
  86 H :    0.034994
  87 H :    0.034490
  88 H :    0.033184
  89 H :    0.055045
  90 H :    0.039387
  91 H :    0.031485
  92 H :    0.027393
  93 H :    0.040376
  94 H :    0.026223
  95 H :    0.036140
  96 H :    0.093383
  97 H :    0.037082
  98 H :    0.029934
  99 H :    0.042436
 100 H :    0.044263
 101 H :    0.046330
 102 H :    0.036091
 103 H :    0.041618
 104 H :    0.038980
 105 H :    0.038992
 106 H :    0.034990
 107 H :    0.033528
 108 H :    0.033101
 109 H :    0.032293

  Mayer bond orders larger than 0.100000
B(  0-C ,  1-C ) :   1.6817 B(  0-C ,  6-C ) :   1.0056 B(  0-C , 18-C ) :   0.9984
B(  1-C ,  2-C ) :   1.1329 B(  1-C ,  4-C ) :   1.1560 B(  2-C ,  3-N ) :   2.9712
B(  4-C ,  5-N ) :   2.9778 B(  6-C ,  7-C ) :   1.2075 B(  6-C , 11-C ) :   1.4451
B(  7-C ,  8-C ) :   1.4692 B(  7-C , 16-C ) :   0.9523 B(  8-C ,  9-C ) :   1.1834
B(  8-C , 83-H ) :   1.0161 B(  9-C , 10-C ) :   1.2521 B(  9-C , 15-C ) :   1.2425
B( 10-C , 11-C ) :   1.2110 B( 10-C , 12-C ) :   1.2379 B( 11-C , 84-H ) :   0.9903
B( 12-C , 13-C ) :   1.4907 B( 12-C , 85-H ) :   0.9977 B( 13-C , 14-C ) :   1.2583
B( 13-C , 86-H ) :   0.9884 B( 14-C , 15-C ) :   1.4899 B( 14-C , 87-H ) :   0.9887
B( 15-C , 88-H ) :   0.9979 B( 16-C , 17-O ) :   2.2063 B( 16-C , 18-C ) :   0.9237
B( 18-C , 19-C ) :   1.7538 B( 19-C , 20-C ) :   0.9870 B( 19-C , 24-O ) :   0.1161
B( 19-C , 89-H ) :   0.9253 B( 20-C , 21-C ) :   1.6344 B( 20-C , 27-C ) :   1.0545
B( 21-C , 22-N ) :   0.9419 B( 21-C , 25-C ) :   1.1024 B( 22-N , 23-O ) :   1.5376
B( 22-N , 24-O ) :   1.4862 B( 23-O , 24-O ) :   0.2620 B( 25-C , 26-C ) :   1.6276
B( 25-C , 90-H ) :   1.0165 B( 26-C , 27-C ) :   1.0912 B( 26-C , 91-H ) :   0.9967
B( 27-C , 28-C ) :   1.5316 B( 28-C , 29-C ) :   1.1286 B( 28-C , 35-C ) :   0.9991
B( 29-C , 30-C ) :   1.5797 B( 29-C , 92-H ) :   1.0017 B( 30-C , 31-C ) :   1.1273
B( 30-C , 93-H ) :   1.0111 B( 31-C , 32-N ) :   0.9905 B( 31-C , 35-C ) :   1.4547
B( 32-N , 33-O ) :   1.5455 B( 32-N , 34-O ) :   1.4050 B( 33-O , 34-O ) :   0.2308
B( 35-C , 36-C ) :   1.2482 B( 36-C , 37-C ) :   1.5257 B( 36-C , 94-H ) :   0.9319
B( 37-C , 38-C ) :   1.2274 B( 37-C , 95-H ) :   0.9538 B( 38-C , 39-S ) :   1.0947
B( 38-C , 42-C ) :   1.3082 B( 39-S , 40-C ) :   1.1524 B( 40-C , 41-C ) :   1.2635
B( 40-C , 48-C ) :   1.2252 B( 41-C , 42-C ) :   1.2547 B( 41-C , 47-C ) :   1.1887
B( 42-C , 43-N ) :   1.2137 B( 43-N , 44-C ) :   1.2281 B( 43-N , 96-H ) :   0.9014
B( 44-C , 45-C ) :   1.0522 B( 44-C , 47-C ) :   1.5794 B( 45-C , 46-N ) :   3.0549
B( 47-C , 97-H ) :   1.0101 B( 48-C , 49-C ) :   1.5952 B( 48-C , 98-H ) :   0.9355
B( 49-C , 50-C ) :   1.1956 B( 49-C , 99-H ) :   0.9527 B( 50-C , 51-O ) :   1.1833
B( 50-C , 54-C ) :   1.3559 B( 51-O , 52-C ) :   1.1185 B( 52-C , 53-C ) :   1.4065
B( 52-C , 61-C ) :   1.1334 B( 53-C , 54-C ) :   1.2551 B( 53-C ,100-H ) :   1.0250
B( 54-C , 55-C ) :   0.9300 B( 55-C , 56-O ) :   2.2311 B( 55-C , 57-C ) :   0.8786
B( 57-C , 58-F ) :   1.1372 B( 57-C , 59-F ) :   1.1254 B( 57-C , 60-F ) :   1.1769
B( 61-C , 62-C ) :   1.5610 B( 61-C ,101-H ) :   0.9758 B( 62-C , 63-C ) :   1.1429
B( 62-C ,102-H ) :   0.9857 B( 63-C , 64-C ) :   1.5549 B( 63-C ,103-H ) :   0.9609
B( 64-C , 65-C ) :   1.0604 B( 64-C , 73-C ) :   0.9382 B( 65-C , 66-C ) :   1.6272
B( 65-C , 71-C ) :   0.9889 B( 66-C , 67-C ) :   1.1451 B( 66-C , 69-C ) :   1.1471
B( 67-C , 68-N ) :   2.9629 B( 69-C , 70-N ) :   2.9598 B( 71-C , 72-C ) :   1.2152
B( 71-C , 78-C ) :   1.4468 B( 72-C , 73-C ) :   0.9472 B( 72-C , 75-C ) :   1.4665
B( 73-C , 74-O ) :   2.2038 B( 75-C , 76-C ) :   1.1806 B( 75-C ,104-H ) :   1.0168
B( 76-C , 77-C ) :   1.2546 B( 76-C , 82-C ) :   1.2418 B( 77-C , 78-C ) :   1.2068
B( 77-C , 79-C ) :   1.2400 B( 78-C ,105-H ) :   0.9895 B( 79-C , 80-C ) :   1.4889
B( 79-C ,106-H ) :   0.9976 B( 80-C , 81-C ) :   1.2579 B( 80-C ,107-H ) :   0.9890
B( 81-C , 82-C ) :   1.4895 B( 81-C ,108-H ) :   0.9890 B( 82-C ,109-H ) :   0.9983

-----------------------------------------------------------------------------
         ABSORPTION SPECTRUM VIA TRANSITION ELECTRIC DIPOLE MOMENTS
-----------------------------------------------------------------------------
State   Energy  Wavelength   fosc         T2         TX        TY        TZ
        (cm-1)    (nm)                  (au**2)     (au)      (au)      (au)
-----------------------------------------------------------------------------
   0    9190.2   1088.1   0.660730001  23.66863  -2.77927   3.81419   1.18162
   1   17096.6    584.9   0.988948960  19.04324  -1.92600   3.60663   1.52511
   2   17818.7    561.2   0.105493957   1.94907  -0.64778   1.18270   0.36151
   3   19506.1    512.7   0.004299650   0.07257   0.13088   0.18760  -0.14228
   4   21726.3    460.3   0.176185284   2.66968   0.39485   1.16955  -1.07047
   5   21830.0    458.1   0.002638709   0.03979   0.17079  -0.05093   0.08962
   6   22184.1    450.8   0.200819290   2.98016   0.57131   1.01191  -1.27664
   7   22770.9    439.2   0.040991156   0.59263  -0.19539  -0.57675   0.47097
   8   24480.9    408.5   0.010394248   0.13978  -0.13899   0.32979  -0.10816
   9   24546.7    407.4   0.031773136   0.42613  -0.26798   0.40021  -0.44062
  10   25027.2    399.6   0.020030283   0.26348   0.34911   0.25792  -0.27400
  11   26060.4    383.7   0.018879498   0.23850  -0.36767   0.32117  -0.01294
  12   26404.3    378.7   0.009608284   0.11980   0.05672  -0.01091  -0.34126
  13   26722.8    374.2   0.004890136   0.06024   0.00166   0.22502  -0.09802
  14   26873.3    372.1   0.073351763   0.89860  -0.01290  -0.90638   0.27732
  15   27344.8    365.7   0.037075953   0.44637  -0.03903   0.63577  -0.20159
  16   27736.7    360.5   0.051064185   0.60609  -0.25467  -0.34096  -0.65191
  17   27892.0    358.5   0.024674041   0.29123   0.20933   0.49481   0.05068
  18   28043.2    356.6   0.017010602   0.19969   0.06020  -0.28681  -0.33736
  19   28128.1    355.5   0.027154211   0.31781  -0.08121   0.49775   0.25192
  20   28231.1    354.2   0.006302448   0.07349  -0.11983   0.11678   0.21331
  21   28433.9    351.7   0.002192686   0.02539   0.13097  -0.00032   0.09074
  22   28821.3    347.0   0.089615029   1.02363   0.54510  -0.83743   0.15877
  23   29737.5    336.3   0.087883191   0.97292  -0.07993   0.47306  -0.86182
  24   29846.2    335.1   0.769435413   8.48708  -0.48653  -2.05266   2.00921
  25   30361.0    329.4   0.056628751   0.61404   0.13437   0.18981  -0.74830
  26   30502.9    327.8   0.081648433   0.88121   0.15404   0.48751  -0.78729
  27   30739.2    325.3   0.069866160   0.74826  -0.25444   0.60885  -0.55931
  28   31109.9    321.4   0.030370310   0.32139   0.24623   0.22149  -0.46011
  29   31181.2    320.7   0.017976614   0.18980  -0.14811  -0.35331   0.20745
  30   31531.0    317.1   0.004472644   0.04670   0.01166  -0.19970  -0.08175
  31   32024.2    312.3   0.026307853   0.27045  -0.39059   0.33413   0.07899
  32   32120.1    311.3   0.032541618   0.33353   0.35242  -0.27250  -0.36753
  33   32623.8    306.5   0.019942177   0.20124  -0.14059  -0.01543   0.42572
  34   32951.1    303.5   0.394682679   3.94324  -0.88409  -0.76802   1.60368
  35   33118.6    301.9   0.000136102   0.00135  -0.02850  -0.00738   0.02205
  36   33580.7    297.8   0.303626891   2.97664  -1.46706  -0.50508  -0.75451
  37   33728.6    296.5   0.542022407   5.29048   1.12024   1.12984  -1.66103
  38   33798.7    295.9   0.189037753   1.84130   0.34694   1.31182   0.00706
  39   34247.0    292.0   0.296661448   2.85177  -0.19220   1.14932   1.22225
  40   34408.5    290.6   0.031154544   0.29808   0.12293   0.33114   0.41631
  41   34470.9    290.1   0.013723253   0.13106  -0.12982  -0.27803  -0.19211
  42   34613.8    288.9   0.004146410   0.03944   0.12052   0.15781  -0.00268
  43   34685.8    288.3   0.021944568   0.20828   0.08132   0.28841   0.34422
  44   34833.6    287.1   0.153365377   1.44946  -0.18299  -1.01864   0.61510
  45   34991.7    285.8   0.499826270   4.70250   0.12090  -1.46387  -1.59530
  46   35082.7    285.0   0.122132415   1.14607   0.47834   0.50154   0.81592
  47   35531.2    281.4   0.052577909   0.48716  -0.48957   0.47930   0.13325
  48   35951.2    278.2   0.003734915   0.03420   0.17818  -0.00425  -0.04936
  49   36153.6    276.6   0.010233714   0.09319  -0.20356   0.16865   0.15266
  50   36353.8    275.1   0.019243045   0.17426  -0.04762  -0.34846   0.22487
  51   36451.6    274.3   0.079784034   0.72057   0.39363  -0.74924   0.06530
  52   36545.1    273.6   0.122054148   1.09951  -0.11804   0.73966  -0.73381
  53   36882.1    271.1   0.014453841   0.12902  -0.18210   0.04359  -0.30652
  54   37330.5    267.9   0.094453075   0.83297   0.81550  -0.36748  -0.18131
  55   37724.3    265.1   0.107146023   0.93504   0.06364  -0.77505  -0.57470
  56   37784.7    264.7   0.061642696   0.53708   0.40397   0.30919  -0.52753
  57   38072.0    262.7   0.049901920   0.43151   0.32921  -0.16352  -0.54441
  58   38182.0    261.9   0.017088630   0.14734  -0.32976   0.05024   0.18994
  59   38311.7    261.0   0.053452106   0.45931  -0.04689   0.28245   0.61428
  60   38416.5    260.3   0.165239470   1.41603  -0.12071   0.70373  -0.95195
  61   38677.6    258.5   0.194998210   1.65977   0.47350  -0.46026  -1.10622
  62   39092.4    255.8   0.185899855   1.56553  -0.26476   0.93598  -0.78701
  63   39280.8    254.6   0.010988782   0.09210  -0.00981  -0.08628  -0.29079
  64   39415.4    253.7   0.028022534   0.23405   0.43483  -0.21197  -0.00662
  65   39503.2    253.1   0.167421472   1.39526  -1.04422   0.36666   0.41283
  66   39595.4    252.6   0.076604819   0.63692  -0.31942  -0.15770   0.71416
  67   39698.4    251.9   0.040988791   0.33991  -0.32686   0.24845  -0.41394
  68   39809.2    251.2   0.094773101   0.78375   0.46359  -0.66576  -0.35440
  69   39913.5    250.5   0.081508667   0.67230  -0.15428  -0.10730   0.79811
  70   40146.9    249.1   0.013773477   0.11295  -0.06837  -0.29875   0.13791
  71   40209.2    248.7   0.009089565   0.07442   0.07648  -0.23998  -0.10479

FINAL SINGLE POINT ENERGY     -4149.366558424783

DIPOLE MOMENT
-------------
                                X             Y             Z
Electronic contribution:    -19.96698     -10.61951      30.30971
Nuclear contribution   :     20.11528       9.18418     -32.37567
                        -----------------------------------------
Total Dipole Moment    :      0.14830      -1.43533      -2.06595
                        -----------------------------------------
Magnitude (a.u.)       :      2.51998
Magnitude (Debye)      :      6.40529

Rotational constants in cm-1:     0.001433     0.000185     0.000173
Rotational constants in MHz :    42.955068     5.549539     5.178114

                             ****ORCA TERMINATED NORMALLY****
TOTAL RUN TIME: 0 days 0 hours 14 minutes 7 seconds 306 msec
