                         Program Version 4.2.0 -  RELEASE  -
|  1> # ORCA input file
|  2> # SCF done       -214.694080149353          0.000686856748
|  3> ! CAM-B3LYP def2-SVP def2/J RIJCOSX Grid4 TightSCF
|  4> %maxcore 5000
|  5> %tddft
|  6>     Mode sTDDFT
|  7>     Ethresh 5.0
|  8>     maxcore 5000
|  9> end
| 10>
| 11> %pal
| 12>   nprocs 6
| 13>   end
| 14> * xyz 0 1
| 15>    C       -6.34746         2.84350        -3.43346
| 16>    C       -5.87828         4.07097        -3.05797
| 17>    F       -6.11772         5.14484        -3.82005
| 18>    C       -5.13781         4.22295        -1.86764
| 19>    F       -4.69008         5.43737        -1.52594
| 20>    C       -4.87633         3.14456        -1.06941
| 21>    C       -5.34429         1.86601        -1.43025
| 22>    C       -6.09492         1.71149        -2.63237
| 23>    C       -6.57707         0.43888        -3.01339
| 24>    C       -6.31765        -0.64548        -2.21623
| 25>    C       -5.55981        -0.48379        -1.02213
| 26>    C       -5.07978         0.73278        -0.62954
| 27>    C       -5.38821        -1.79151        -0.36304
| 28>    O       -4.70519        -2.03271         0.60630
| 29>    C       -6.10605        -2.76833        -1.22975
| 30>    C       -6.68910        -2.04983        -2.34792
| 31>    C       -7.51796        -2.57598        -3.30234
| 32>    C       -8.08925        -1.82568        -4.35243
| 33>    N       -8.57389        -1.26743        -5.23003
| 34>    C       -7.93987        -3.92244        -3.34713
| 35>    N       -8.33861        -4.99558        -3.42989
| 36>    C       -6.03854        -4.11998        -1.07397
| 37>    C       -5.62493        -4.77686         0.11091
| 38>    S       -4.89971        -6.36856         0.05844
| 39>    C       -4.72922        -6.48493         1.80646
| 40>    C       -5.25999        -5.33284         2.35998
| 41>    C       -5.74525        -4.40149         1.43293
| 42>    O       -6.31375        -3.37668         2.11455
| 43>    C       -6.15259        -3.63963         3.43660
| 44>    O       -6.52170        -2.95288         4.32491
| 45>    O       -5.51272        -4.83799         3.60385
| 46>    C       -4.13804        -7.65838         2.34235
| 47>    N       -3.84979        -7.94970         3.65098
| 48>    C       -3.93839        -7.08261         4.80332
| 49>    C       -2.81062        -6.05542         4.81927
| 50>    C       -3.29633        -9.24382         3.78475
| 51>    O       -2.96878        -9.72370         4.84852
| 52>    C       -3.25713        -9.76498         2.43716
| 53>    C       -3.77027        -8.76669         1.58038
| 54>    C       -3.73576        -9.26855         0.22767
| 55>    O       -4.05767        -8.75761        -0.82702
| 56>    N       -3.19931       -10.55838         0.35185
| 57>    C       -3.04286       -11.41764        -0.79789
| 58>    C       -4.17232       -12.43932        -0.89926
| 59>    C       -2.91188       -10.87322         1.66106
| 60>    C       -2.36443       -12.10978         2.07136
| 61>    C       -2.09577       -12.40929         3.37051
| 62>    C       -1.56154       -13.65044         3.77640
| 63>    S       -1.18054       -14.95964         2.66855
| 64>    C       -0.58614       -16.04028         3.91589
| 65>    C       -0.71305       -15.38001         5.12208
| 66>    C       -1.24345       -14.08674         5.04679
| 67>    O       -1.32284       -13.59253         6.31035
| 68>    C       -0.86473       -14.55662         7.14735
| 69>    O       -0.79607       -14.47559         8.32305
| 70>    O       -0.49233       -15.66991         6.42974
| 71>    C       -0.16398       -17.34848         3.60138
| 72>    C        0.51292       -18.23691         4.37960
| 73>    C        0.45427       -19.68802         4.02256
| 74>    O        0.07257       -20.15437         2.97629
| 75>    C        0.90083       -20.39894         5.23483
| 76>    C        0.91657       -21.74140         5.48490
| 77>    C        1.35775       -22.19920         6.74654
| 78>    C        1.76720       -21.25279         7.73111
| 79>    C        2.19513       -21.71645         8.99124
| 80>    C        2.22025       -23.05643         9.25992
| 81>    C        1.81805       -23.99164         8.28447
| 82>    C        1.39531       -23.57338         7.05382
| 83>    F        1.85292       -25.29798         8.57545
| 84>    F        2.62856       -23.49572        10.45609
| 85>    C        1.74840       -19.86903         7.44075
| 86>    C        1.33030       -19.44972         6.20669
| 87>    C        1.24089       -18.11334         5.62276
| 88>    C        1.94104       -17.01730         6.05321
| 89>    C        2.03120       -15.82313         5.31384
| 90>    N        2.11430       -14.84752         4.71425
| 91>    C        2.72547       -16.99819         7.22611
| 92>    N        3.37963       -16.93821         8.16621
| 93>    H       -6.91389         2.74498        -4.34639
| 94>    H       -4.30836         3.27761        -0.16197
| 95>    H       -7.13556         0.35296        -3.93146
| 96>    H       -4.50867         0.82849         0.28134
| 97>    H       -6.28434        -4.77251        -1.90175
| 98>    H       -3.85060        -7.73784         5.67429
| 99>    H       -4.91043        -6.59069         4.82478
|100>    H       -1.84623        -6.55668         4.85791
|101>    H       -2.91098        -5.42168         5.69512
|102>    H       -2.84172        -5.42691         3.93254
|103>    H       -2.06971       -11.91364        -0.75384
|104>    H       -3.06509       -10.75939        -1.67067
|105>    H       -4.20035       -13.08128        -0.02172
|106>    H       -4.02860       -13.05775        -1.78048
|107>    H       -5.12779       -11.92827        -0.98653
|108>    H       -2.15073       -12.85101         1.31301
|109>    H       -2.28988       -11.69013         4.15722
|110>    H       -0.48774       -17.72822         2.63757
|111>    H        0.59525       -22.44423         4.73137
|112>    H        2.50914       -21.01447         9.74781
|113>    H        1.09022       -24.30160         6.31875
|114>    H        2.05360       -19.17319         8.20588
|115> *
|116>
|117>                          ****END OF INPUT****

CARTESIAN COORDINATES (ANGSTROEM)
---------------------------------
  C     -6.347460    2.843500   -3.433460
  C     -5.878280    4.070970   -3.057970
  F     -6.117720    5.144840   -3.820050
  C     -5.137810    4.222950   -1.867640
  F     -4.690080    5.437370   -1.525940
  C     -4.876330    3.144560   -1.069410
  C     -5.344290    1.866010   -1.430250
  C     -6.094920    1.711490   -2.632370
  C     -6.577070    0.438880   -3.013390
  C     -6.317650   -0.645480   -2.216230
  C     -5.559810   -0.483790   -1.022130
  C     -5.079780    0.732780   -0.629540
  C     -5.388210   -1.791510   -0.363040
  O     -4.705190   -2.032710    0.606300
  C     -6.106050   -2.768330   -1.229750
  C     -6.689100   -2.049830   -2.347920
  C     -7.517960   -2.575980   -3.302340
  C     -8.089250   -1.825680   -4.352430
  N     -8.573890   -1.267430   -5.230030
  C     -7.939870   -3.922440   -3.347130
  N     -8.338610   -4.995580   -3.429890
  C     -6.038540   -4.119980   -1.073970
  C     -5.624930   -4.776860    0.110910
  S     -4.899710   -6.368560    0.058440
  C     -4.729220   -6.484930    1.806460
  C     -5.259990   -5.332840    2.359980
  C     -5.745250   -4.401490    1.432930
  O     -6.313750   -3.376680    2.114550
  C     -6.152590   -3.639630    3.436600
  O     -6.521700   -2.952880    4.324910
  O     -5.512720   -4.837990    3.603850
  C     -4.138040   -7.658380    2.342350
  N     -3.849790   -7.949700    3.650980
  C     -3.938390   -7.082610    4.803320
  C     -2.810620   -6.055420    4.819270
  C     -3.296330   -9.243820    3.784750
  O     -2.968780   -9.723700    4.848520
  C     -3.257130   -9.764980    2.437160
  C     -3.770270   -8.766690    1.580380
  C     -3.735760   -9.268550    0.227670
  O     -4.057670   -8.757610   -0.827020
  N     -3.199310  -10.558380    0.351850
  C     -3.042860  -11.417640   -0.797890
  C     -4.172320  -12.439320   -0.899260
  C     -2.911880  -10.873220    1.661060
  C     -2.364430  -12.109780    2.071360
  C     -2.095770  -12.409290    3.370510
  C     -1.561540  -13.650440    3.776400
  S     -1.180540  -14.959640    2.668550
  C     -0.586140  -16.040280    3.915890
  C     -0.713050  -15.380010    5.122080
  C     -1.243450  -14.086740    5.046790
  O     -1.322840  -13.592530    6.310350
  C     -0.864730  -14.556620    7.147350
  O     -0.796070  -14.475590    8.323050
  O     -0.492330  -15.669910    6.429740
  C     -0.163980  -17.348480    3.601380
  C      0.512920  -18.236910    4.379600
  C      0.454270  -19.688020    4.022560
  O      0.072570  -20.154370    2.976290
  C      0.900830  -20.398940    5.234830
  C      0.916570  -21.741400    5.484900
  C      1.357750  -22.199200    6.746540
  C      1.767200  -21.252790    7.731110
  C      2.195130  -21.716450    8.991240
  C      2.220250  -23.056430    9.259920
  C      1.818050  -23.991640    8.284470
  C      1.395310  -23.573380    7.053820
  F      1.852920  -25.297980    8.575450
  F      2.628560  -23.495720   10.456090
  C      1.748400  -19.869030    7.440750
  C      1.330300  -19.449720    6.206690
  C      1.240890  -18.113340    5.622760
  C      1.941040  -17.017300    6.053210
  C      2.031200  -15.823130    5.313840
  N      2.114300  -14.847520    4.714250
  C      2.725470  -16.998190    7.226110
  N      3.379630  -16.938210    8.166210
  H     -6.913890    2.744980   -4.346390
  H     -4.308360    3.277610   -0.161970
  H     -7.135560    0.352960   -3.931460
  H     -4.508670    0.828490    0.281340
  H     -6.284340   -4.772510   -1.901750
  H     -3.850600   -7.737840    5.674290
  H     -4.910430   -6.590690    4.824780
  H     -1.846230   -6.556680    4.857910
  H     -2.910980   -5.421680    5.695120
  H     -2.841720   -5.426910    3.932540
  H     -2.069710  -11.913640   -0.753840
  H     -3.065090  -10.759390   -1.670670
  H     -4.200350  -13.081280   -0.021720
  H     -4.028600  -13.057750   -1.780480
  H     -5.127790  -11.928270   -0.986530
  H     -2.150730  -12.851010    1.313010
  H     -2.289880  -11.690130    4.157220
  H     -0.487740  -17.728220    2.637570
  H      0.595250  -22.444230    4.731370
  H      2.509140  -21.014470    9.747810
  H      1.090220  -24.301600    6.318750
  H      2.053600  -19.173190    8.205880

 Total Charge           Charge          ....    0
 Multiplicity           Mult            ....    1
 Number of Electrons    NEL             ....  548
 Basis Dimension        Dim             .... 1210

ORBITAL ENERGIES
----------------

  NO   OCC          E(Eh)            E(eV)
   0   2.0000     -88.994301     -2421.6580
   1   2.0000     -88.987622     -2421.4763
   2   2.0000     -24.802619      -674.9136
   3   2.0000     -24.802229      -674.9030
   4   2.0000     -24.801953      -674.8954
   5   2.0000     -24.801480      -674.8826
   6   2.0000     -19.333514      -526.0917
   7   2.0000     -19.330251      -526.0029
   8   2.0000     -19.327661      -525.9324
   9   2.0000     -19.325048      -525.8613
  10   2.0000     -19.241289      -523.5821
  11   2.0000     -19.236125      -523.4416
  12   2.0000     -19.228348      -523.2300
  13   2.0000     -19.226831      -523.1887
  14   2.0000     -19.208345      -522.6856
  15   2.0000     -19.207992      -522.6760
  16   2.0000     -14.471666      -393.7940
  17   2.0000     -14.471313      -393.7845
  18   2.0000     -14.428666      -392.6240
  19   2.0000     -14.424256      -392.5040
  20   2.0000     -14.424183      -392.5020
  21   2.0000     -14.423752      -392.4903
  22   2.0000     -10.485490      -285.3247
  23   2.0000     -10.480895      -285.1997
  24   2.0000     -10.391641      -282.7709
  25   2.0000     -10.390420      -282.7377
  26   2.0000     -10.386210      -282.6231
  27   2.0000     -10.385988      -282.6171
  28   2.0000     -10.385857      -282.6135
  29   2.0000     -10.385207      -282.5958
  30   2.0000     -10.383922      -282.5609
  31   2.0000     -10.379236      -282.4334
  32   2.0000     -10.379166      -282.4315
  33   2.0000     -10.378176      -282.4045
  34   2.0000     -10.377493      -282.3859
  35   2.0000     -10.377161      -282.3769
  36   2.0000     -10.367178      -282.1052
  37   2.0000     -10.358892      -281.8798
  38   2.0000     -10.355726      -281.7936
  39   2.0000     -10.355652      -281.7916
  40   2.0000     -10.353110      -281.7225
  41   2.0000     -10.351521      -281.6792
  42   2.0000     -10.351198      -281.6704
  43   2.0000     -10.351046      -281.6663
  44   2.0000     -10.350175      -281.6426
  45   2.0000     -10.339308      -281.3469
  46   2.0000     -10.339051      -281.3399
  47   2.0000     -10.336953      -281.2828
  48   2.0000     -10.329537      -281.0810
  49   2.0000     -10.326229      -280.9910
  50   2.0000     -10.326003      -280.9848
  51   2.0000     -10.325980      -280.9842
  52   2.0000     -10.323123      -280.9065
  53   2.0000     -10.320561      -280.8367
  54   2.0000     -10.316561      -280.7279
  55   2.0000     -10.316440      -280.7246
  56   2.0000     -10.316114      -280.7157
  57   2.0000     -10.315679      -280.7039
  58   2.0000     -10.315416      -280.6967
  59   2.0000     -10.315196      -280.6907
  60   2.0000     -10.315155      -280.6896
  61   2.0000     -10.313921      -280.6561
  62   2.0000     -10.313897      -280.6554
  63   2.0000     -10.310907      -280.5741
  64   2.0000     -10.310333      -280.5584
  65   2.0000     -10.308347      -280.5044
  66   2.0000     -10.308290      -280.5028
  67   2.0000     -10.307945      -280.4934
  68   2.0000     -10.306147      -280.4445
  69   2.0000     -10.305341      -280.4226
  70   2.0000     -10.304906      -280.4107
  71   2.0000     -10.304710      -280.4054
  72   2.0000     -10.301709      -280.3237
  73   2.0000     -10.299617      -280.2668
  74   2.0000     -10.282014      -279.7878
  75   2.0000     -10.279859      -279.7292
  76   2.0000     -10.276707      -279.6434
  77   2.0000     -10.267095      -279.3818
  78   2.0000      -8.089247      -220.1196
  79   2.0000      -8.081531      -219.9097
  80   2.0000      -6.058800      -164.8683
  81   2.0000      -6.054990      -164.7647
  82   2.0000      -6.051205      -164.6617
  83   2.0000      -6.050470      -164.6417
  84   2.0000      -6.047029      -164.5480
  85   2.0000      -6.042675      -164.4295
  86   2.0000      -1.325631       -36.0723
  87   2.0000      -1.325177       -36.0599
  88   2.0000      -1.310734       -35.6669
  89   2.0000      -1.310268       -35.6542
  90   2.0000      -1.308663       -35.6105
  91   2.0000      -1.304249       -35.4904
  92   2.0000      -1.193795       -32.4848
  93   2.0000      -1.188695       -32.3460
  94   2.0000      -1.165915       -31.7262
  95   2.0000      -1.160693       -31.5841
  96   2.0000      -1.151771       -31.3413
  97   2.0000      -1.144727       -31.1496
  98   2.0000      -1.144220       -31.1358
  99   2.0000      -1.142406       -31.0864
 100   2.0000      -1.082506       -29.4565
 101   2.0000      -1.074317       -29.2337
 102   2.0000      -1.032774       -28.1032
 103   2.0000      -1.028096       -27.9759
 104   2.0000      -1.024389       -27.8750
 105   2.0000      -1.018369       -27.7112
 106   2.0000      -1.012610       -27.5545
 107   2.0000      -1.010606       -27.5000
 108   2.0000      -1.004445       -27.3323
 109   2.0000      -1.002364       -27.2757
 110   2.0000      -0.989453       -26.9244
 111   2.0000      -0.987856       -26.8809
 112   2.0000      -0.949091       -25.8261
 113   2.0000      -0.944370       -25.6976
 114   2.0000      -0.940833       -25.6014
 115   2.0000      -0.935621       -25.4595
 116   2.0000      -0.923087       -25.1185
 117   2.0000      -0.916521       -24.9398
 118   2.0000      -0.901799       -24.5392
 119   2.0000      -0.899859       -24.4864
 120   2.0000      -0.896752       -24.4019
 121   2.0000      -0.894446       -24.3391
 122   2.0000      -0.886886       -24.1334
 123   2.0000      -0.872878       -23.7522
 124   2.0000      -0.868749       -23.6399
 125   2.0000      -0.860582       -23.4176
 126   2.0000      -0.858649       -23.3650
 127   2.0000      -0.847058       -23.0496
 128   2.0000      -0.846032       -23.0217
 129   2.0000      -0.832882       -22.6639
 130   2.0000      -0.824943       -22.4479
 131   2.0000      -0.817181       -22.2366
 132   2.0000      -0.803928       -21.8760
 133   2.0000      -0.795085       -21.6354
 134   2.0000      -0.775299       -21.0970
 135   2.0000      -0.774426       -21.0732
 136   2.0000      -0.772808       -21.0292
 137   2.0000      -0.763214       -20.7681
 138   2.0000      -0.759829       -20.6760
 139   2.0000      -0.756893       -20.5961
 140   2.0000      -0.752928       -20.4882
 141   2.0000      -0.747396       -20.3377
 142   2.0000      -0.735331       -20.0094
 143   2.0000      -0.733198       -19.9513
 144   2.0000      -0.727212       -19.7884
 145   2.0000      -0.724779       -19.7222
 146   2.0000      -0.720317       -19.6008
 147   2.0000      -0.718634       -19.5550
 148   2.0000      -0.705709       -19.2033
 149   2.0000      -0.701070       -19.0771
 150   2.0000      -0.699262       -19.0279
 151   2.0000      -0.692505       -18.8440
 152   2.0000      -0.688142       -18.7253
 153   2.0000      -0.677490       -18.4354
 154   2.0000      -0.668390       -18.1878
 155   2.0000      -0.666476       -18.1357
 156   2.0000      -0.663938       -18.0667
 157   2.0000      -0.657996       -17.9050
 158   2.0000      -0.656393       -17.8614
 159   2.0000      -0.653201       -17.7745
 160   2.0000      -0.648749       -17.6534
 161   2.0000      -0.647649       -17.6234
 162   2.0000      -0.644838       -17.5469
 163   2.0000      -0.640163       -17.4197
 164   2.0000      -0.637048       -17.3350
 165   2.0000      -0.624766       -17.0007
 166   2.0000      -0.622863       -16.9490
 167   2.0000      -0.612466       -16.6661
 168   2.0000      -0.608046       -16.5458
 169   2.0000      -0.604794       -16.4573
 170   2.0000      -0.600474       -16.3397
 171   2.0000      -0.597700       -16.2642
 172   2.0000      -0.590034       -16.0556
 173   2.0000      -0.589530       -16.0419
 174   2.0000      -0.589013       -16.0278
 175   2.0000      -0.586636       -15.9632
 176   2.0000      -0.584414       -15.9027
 177   2.0000      -0.583462       -15.8768
 178   2.0000      -0.578069       -15.7300
 179   2.0000      -0.562517       -15.3069
 180   2.0000      -0.560214       -15.2442
 181   2.0000      -0.559613       -15.2278
 182   2.0000      -0.556427       -15.1411
 183   2.0000      -0.556405       -15.1405
 184   2.0000      -0.552863       -15.0442
 185   2.0000      -0.551872       -15.0172
 186   2.0000      -0.551585       -15.0094
 187   2.0000      -0.551479       -15.0065
 188   2.0000      -0.551058       -14.9950
 189   2.0000      -0.548362       -14.9217
 190   2.0000      -0.546625       -14.8744
 191   2.0000      -0.545153       -14.8344
 192   2.0000      -0.542970       -14.7750
 193   2.0000      -0.540478       -14.7072
 194   2.0000      -0.539621       -14.6838
 195   2.0000      -0.536595       -14.6015
 196   2.0000      -0.535584       -14.5740
 197   2.0000      -0.534011       -14.5312
 198   2.0000      -0.531988       -14.4761
 199   2.0000      -0.529270       -14.4022
 200   2.0000      -0.527144       -14.3443
 201   2.0000      -0.524087       -14.2611
 202   2.0000      -0.521976       -14.2037
 203   2.0000      -0.521291       -14.1851
 204   2.0000      -0.520897       -14.1743
 205   2.0000      -0.519475       -14.1356
 206   2.0000      -0.518015       -14.0959
 207   2.0000      -0.516384       -14.0515
 208   2.0000      -0.515804       -14.0357
 209   2.0000      -0.513419       -13.9708
 210   2.0000      -0.507926       -13.8214
 211   2.0000      -0.507145       -13.8001
 212   2.0000      -0.500914       -13.6306
 213   2.0000      -0.500336       -13.6148
 214   2.0000      -0.498214       -13.5571
 215   2.0000      -0.497134       -13.5277
 216   2.0000      -0.492690       -13.4068
 217   2.0000      -0.491111       -13.3638
 218   2.0000      -0.489108       -13.3093
 219   2.0000      -0.488503       -13.2928
 220   2.0000      -0.483483       -13.1562
 221   2.0000      -0.478625       -13.0241
 222   2.0000      -0.476814       -12.9748
 223   2.0000      -0.474470       -12.9110
 224   2.0000      -0.473693       -12.8899
 225   2.0000      -0.469445       -12.7743
 226   2.0000      -0.468616       -12.7517
 227   2.0000      -0.468171       -12.7396
 228   2.0000      -0.463223       -12.6049
 229   2.0000      -0.460799       -12.5390
 230   2.0000      -0.458096       -12.4654
 231   2.0000      -0.456868       -12.4320
 232   2.0000      -0.456113       -12.4115
 233   2.0000      -0.452924       -12.3247
 234   2.0000      -0.452086       -12.3019
 235   2.0000      -0.451453       -12.2847
 236   2.0000      -0.451323       -12.2811
 237   2.0000      -0.449100       -12.2206
 238   2.0000      -0.447942       -12.1891
 239   2.0000      -0.446677       -12.1547
 240   2.0000      -0.442691       -12.0462
 241   2.0000      -0.437300       -11.8995
 242   2.0000      -0.436930       -11.8895
 243   2.0000      -0.435706       -11.8562
 244   2.0000      -0.434773       -11.8308
 245   2.0000      -0.434093       -11.8123
 246   2.0000      -0.432829       -11.7779
 247   2.0000      -0.431563       -11.7434
 248   2.0000      -0.427799       -11.6410
 249   2.0000      -0.424948       -11.5634
 250   2.0000      -0.418086       -11.3767
 251   2.0000      -0.415304       -11.3010
 252   2.0000      -0.413269       -11.2456
 253   2.0000      -0.408458       -11.1147
 254   2.0000      -0.403566       -10.9816
 255   2.0000      -0.395886       -10.7726
 256   2.0000      -0.390665       -10.6305
 257   2.0000      -0.384687       -10.4679
 258   2.0000      -0.366633        -9.9766
 259   2.0000      -0.361476        -9.8363
 260   2.0000      -0.360009        -9.7963
 261   2.0000      -0.351731        -9.5711
 262   2.0000      -0.347173        -9.4470
 263   2.0000      -0.346842        -9.4381
 264   2.0000      -0.334581        -9.1044
 265   2.0000      -0.333991        -9.0884
 266   2.0000      -0.327011        -8.8984
 267   2.0000      -0.323104        -8.7921
 268   2.0000      -0.322959        -8.7882
 269   2.0000      -0.316656        -8.6166
 270   2.0000      -0.309964        -8.4346
 271   2.0000      -0.304655        -8.2901
 272   2.0000      -0.301674        -8.2090
 273   2.0000      -0.252304        -6.8655
 274   0.0000      -0.124477        -3.3872
 275   0.0000      -0.104950        -2.8558
 276   0.0000      -0.080990        -2.2039
 277   0.0000      -0.068505        -1.8641
 278   0.0000      -0.063127        -1.7178

MULLIKEN ATOMIC CHARGES
-----------------------
   0 C :   -0.105757
   1 C :    0.243030
   2 F :   -0.168759
   3 C :    0.239214
   4 F :   -0.169160
   5 C :   -0.104135
   6 C :    0.114766
   7 C :    0.112818
   8 C :   -0.082590
   9 C :    0.052888
  10 C :   -0.010280
  11 C :   -0.073581
  12 C :    0.154817
  13 O :   -0.145331
  14 C :   -0.096166
  15 C :    0.308932
  16 C :   -0.332912
  17 C :   -0.181892
  18 N :    0.153657
  19 C :   -0.204022
  20 N :    0.167536
  21 C :    0.047386
  22 C :   -0.184524
  23 S :    0.232076
  24 C :   -0.266789
  25 C :    0.164855
  26 C :    0.218859
  27 O :   -0.186461
  28 C :    0.299460
  29 O :   -0.115830
  30 O :   -0.230159
  31 C :    0.227755
  32 N :   -0.264342
  33 C :    0.094131
  34 C :    0.000857
  35 C :    0.159277
  36 O :   -0.194489
  37 C :   -0.055407
  38 C :   -0.108137
  39 C :    0.160067
  40 O :   -0.200270
  41 N :   -0.256445
  42 C :    0.095766
  43 C :    0.002632
  44 C :    0.151308
  45 C :   -0.040206
  46 C :    0.036678
  47 C :   -0.157784
  48 S :    0.151082
  49 C :   -0.180611
  50 C :    0.177232
  51 C :    0.208701
  52 O :   -0.190133
  53 C :    0.308514
  54 O :   -0.106183
  55 O :   -0.217916
  56 C :    0.104119
  57 C :   -0.131110
  58 C :    0.137250
  59 O :   -0.134394
  60 C :    0.011076
  61 C :   -0.075581
  62 C :    0.109011
  63 C :    0.109162
  64 C :   -0.103883
  65 C :    0.242150
  66 C :    0.240096
  67 C :   -0.102101
  68 F :   -0.170540
  69 F :   -0.168332
  70 C :   -0.075999
  71 C :    0.037071
  72 C :    0.269255
  73 C :   -0.300582
  74 C :   -0.211372
  75 N :    0.163903
  76 C :   -0.173024
  77 N :    0.165030
  78 H :    0.007598
  79 H :    0.001884
  80 H :   -0.005526
  81 H :   -0.007918
  82 H :    0.034678
  83 H :    0.047222
  84 H :    0.041145
  85 H :    0.026955
  86 H :    0.033390
  87 H :    0.017889
  88 H :    0.027751
  89 H :    0.048714
  90 H :    0.015364
  91 H :    0.029431
  92 H :    0.033756
  93 H :   -0.012094
  94 H :    0.038320
  95 H :    0.023277
  96 H :   -0.007472
  97 H :    0.008946
  98 H :    0.000303
  99 H :    0.001169
Sum of atomic charges:   -0.0000000

LOEWDIN ATOMIC CHARGES
----------------------
   0 C :   -0.028780
   1 C :    0.067538
   2 F :   -0.046890
   3 C :    0.068781
   4 F :   -0.047010
   5 C :   -0.032360
   6 C :   -0.007604
   7 C :   -0.005888
   8 C :    0.018951
   9 C :   -0.023446
  10 C :   -0.051946
  11 C :    0.032831
  12 C :    0.081533
  13 O :   -0.134522
  14 C :   -0.080479
  15 C :    0.072206
  16 C :   -0.130249
  17 C :   -0.017430
  18 N :   -0.046528
  19 C :   -0.024402
  20 N :   -0.042683
  21 C :    0.049555
  22 C :   -0.197927
  23 S :    0.534798
  24 C :   -0.184393
  25 C :   -0.005960
  26 C :    0.020633
  27 O :   -0.004547
  28 C :    0.112010
  29 O :   -0.111834
  30 O :   -0.026880
  31 C :    0.052954
  32 N :    0.004410
  33 C :    0.032008
  34 C :   -0.059277
  35 C :    0.083345
  36 O :   -0.185587
  37 C :   -0.117415
  38 C :   -0.120942
  39 C :    0.071449
  40 O :   -0.198156
  41 N :    0.002413
  42 C :    0.037377
  43 C :   -0.060188
  44 C :    0.079051
  45 C :   -0.042927
  46 C :    0.017203
  47 C :   -0.168208
  48 S :    0.457668
  49 C :   -0.189526
  50 C :    0.012429
  51 C :    0.010823
  52 O :   -0.011035
  53 C :    0.115486
  54 O :   -0.101115
  55 O :   -0.021200
  56 C :    0.039015
  57 C :   -0.075249
  58 C :    0.084758
  59 O :   -0.135723
  60 C :   -0.057404
  61 C :    0.033834
  62 C :   -0.009959
  63 C :   -0.004050
  64 C :   -0.029350
  65 C :    0.068539
  66 C :    0.067731
  67 C :   -0.032196
  68 F :   -0.047796
  69 F :   -0.046214
  70 C :    0.016151
  71 C :   -0.018824
  72 C :    0.062295
  73 C :   -0.125238
  74 C :   -0.020180
  75 N :   -0.048944
  76 C :   -0.018356
  77 N :   -0.039761
  78 H :    0.048000
  79 H :    0.045737
  80 H :    0.040272
  81 H :    0.041478
  82 H :    0.049554
  83 H :    0.038687
  84 H :    0.023343
  85 H :    0.030308
  86 H :    0.035874
  87 H :    0.020530
  88 H :    0.024666
  89 H :    0.040158
  90 H :    0.021585
  91 H :    0.033293
  92 H :    0.034055
  93 H :    0.025258
  94 H :    0.050048
  95 H :    0.049365
  96 H :    0.041436
  97 H :    0.048516
  98 H :    0.045250
  99 H :    0.041387

  Mayer bond orders larger than 0.100000
B(  0-C ,  1-C ) :   1.4406 B(  0-C ,  5-C ) :   0.1084 B(  0-C ,  7-C ) :   1.1888
B(  0-C , 78-H ) :   1.0065 B(  1-C ,  2-F ) :   1.1372 B(  1-C ,  3-C ) :   1.1902
B(  3-C ,  4-F ) :   1.1360 B(  3-C ,  5-C ) :   1.4442 B(  5-C ,  6-C ) :   1.1905
B(  5-C , 79-H ) :   1.0064 B(  6-C ,  7-C ) :   1.2558 B(  6-C , 11-C ) :   1.1917
B(  7-C ,  8-C ) :   1.2185 B(  8-C ,  9-C ) :   1.4465 B(  8-C , 80-H ) :   0.9895
B(  9-C , 10-C ) :   1.2229 B(  9-C , 15-C ) :   0.9918 B( 10-C , 11-C ) :   1.4716
B( 10-C , 12-C ) :   0.9420 B( 11-C , 81-H ) :   1.0160 B( 12-C , 13-O ) :   2.2181
B( 12-C , 14-C ) :   0.9414 B( 14-C , 15-C ) :   1.0621 B( 14-C , 21-C ) :   1.6272
B( 15-C , 16-C ) :   1.6518 B( 16-C , 17-C ) :   1.1429 B( 16-C , 19-C ) :   1.1392
B( 17-C , 18-N ) :   2.9659 B( 19-C , 20-N ) :   2.9909 B( 21-C , 22-C ) :   1.1533
B( 21-C , 82-H ) :   0.9333 B( 22-C , 23-S ) :   1.0576 B( 22-C , 24-C ) :   0.1207
B( 22-C , 26-C ) :   1.4686 B( 23-S , 24-C ) :   1.1527 B( 24-C , 25-C ) :   1.4291
B( 24-C , 31-C ) :   1.1645 B( 25-C , 26-C ) :   1.2717 B( 25-C , 30-O ) :   1.0730
B( 26-C , 27-O ) :   1.0990 B( 27-O , 28-C ) :   1.0728 B( 28-C , 29-O ) :   2.2717
B( 28-C , 30-O ) :   1.0406 B( 31-C , 32-N ) :   1.2168 B( 31-C , 38-C ) :   1.3315
B( 32-N , 33-C ) :   0.9293 B( 32-N , 35-C ) :   1.0424 B( 33-C , 34-C ) :   1.1157
B( 33-C , 83-H ) :   0.9253 B( 33-C , 84-H ) :   0.9450 B( 34-C , 85-H ) :   0.9647
B( 34-C , 86-H ) :   0.9683 B( 34-C , 87-H ) :   0.9701 B( 35-C , 36-O ) :   2.0438
B( 35-C , 37-C ) :   0.9854 B( 36-O , 94-H ) :   0.1056 B( 37-C , 38-C ) :   1.2587
B( 37-C , 44-C ) :   1.3305 B( 38-C , 39-C ) :   0.9692 B( 39-C , 40-O ) :   2.0839
B( 39-C , 41-N ) :   1.0583 B( 41-N , 42-C ) :   0.9412 B( 41-N , 44-C ) :   1.1650
B( 42-C , 43-C ) :   1.1189 B( 42-C , 88-H ) :   0.9502 B( 42-C , 89-H ) :   0.9284
B( 43-C , 90-H ) :   0.9688 B( 43-C , 91-H ) :   0.9684 B( 43-C , 92-H ) :   0.9635
B( 44-C , 45-C ) :   1.1632 B( 45-C , 46-C ) :   1.5609 B( 45-C , 93-H ) :   0.9654
B( 46-C , 47-C ) :   1.1770 B( 46-C , 94-H ) :   0.9566 B( 47-C , 48-S ) :   1.0803
B( 47-C , 51-C ) :   1.4687 B( 48-S , 49-C ) :   1.0873 B( 49-C , 50-C ) :   1.4651
B( 49-C , 56-C ) :   1.1514 B( 50-C , 51-C ) :   1.2580 B( 50-C , 55-O ) :   1.0967
B( 51-C , 52-O ) :   1.1014 B( 52-O , 53-C ) :   1.0726 B( 53-C , 54-O ) :   2.2790
B( 53-C , 55-O ) :   1.0210 B( 56-C , 57-C ) :   1.6632 B( 56-C , 95-H ) :   0.9282
B( 57-C , 58-C ) :   0.9321 B( 57-C , 72-C ) :   1.0456 B( 58-C , 59-O ) :   2.2768
B( 58-C , 60-C ) :   0.9214 B( 60-C , 61-C ) :   1.4725 B( 60-C , 71-C ) :   1.2193
B( 61-C , 62-C ) :   1.1952 B( 61-C , 96-H ) :   1.0154 B( 62-C , 63-C ) :   1.2569
B( 62-C , 67-C ) :   1.1946 B( 63-C , 64-C ) :   1.1899 B( 63-C , 70-C ) :   1.2157
B( 64-C , 65-C ) :   1.4412 B( 64-C , 67-C ) :   0.1085 B( 64-C , 97-H ) :   1.0062
B( 65-C , 66-C ) :   1.1918 B( 65-C , 69-F ) :   1.1369 B( 66-C , 67-C ) :   1.4423
B( 66-C , 68-F ) :   1.1345 B( 67-C , 98-H ) :   1.0062 B( 70-C , 71-C ) :   1.4593
B( 70-C , 99-H ) :   0.9930 B( 71-C , 72-C ) :   0.9971 B( 72-C , 73-C ) :   1.6563
B( 73-C , 74-C ) :   1.1681 B( 73-C , 76-C ) :   1.1327 B( 74-C , 75-N ) :   2.9911
B( 76-C , 77-N ) :   2.9906

-----------------------------------------------------------------------------
         ABSORPTION SPECTRUM VIA TRANSITION ELECTRIC DIPOLE MOMENTS
-----------------------------------------------------------------------------
State   Energy  Wavelength   fosc         T2         TX        TY        TZ
        (cm-1)    (nm)                  (au**2)     (au)      (au)      (au)
-----------------------------------------------------------------------------
   0   13196.4    757.8   1.385335612  34.56016   2.27339  -5.19272   1.55804
   1   18759.6    533.1   0.012587142   0.22089  -0.30759   0.11269   0.33702
   2   23826.9    419.7   0.252117832   3.48346  -0.84376   0.72269  -1.49975
   3   24317.1    411.2   0.089363102   1.20982   0.10647  -0.28623  -1.05668
   4   24653.1    405.6   0.479031012   6.39688  -1.28769   1.71410  -1.34185
   5   25605.6    390.5   0.078053019   1.00353  -0.14429   0.99106  -0.02279
   6   25926.3    385.7   0.115931650   1.47210   0.01142  -1.11342   0.48193
   7   26219.9    381.4   0.012999999   0.16323   0.10852   0.38896  -0.01257
   8   27086.3    369.2   0.111152033   1.35096  -0.49824   0.80501  -0.67430
   9   27753.3    360.3   0.039876830   0.47302  -0.08821   0.65370  -0.19474
  10   27900.8    358.4   0.018257941   0.21543  -0.08290  -0.27698  -0.36310
  11   28280.3    353.6   0.039644485   0.46150   0.64801   0.02599   0.20227
  12   28643.0    349.1   0.131482808   1.51121   0.08655  -1.19117  -0.29128
  13   28959.6    345.3   0.194531230   2.21142  -0.25301   1.31191  -0.65291
  14   29010.6    344.7   0.053874455   0.61137   0.08428   0.14663  -0.76339
  15   29347.4    340.7   0.016121632   0.18085   0.02029   0.16415  -0.39178
  16   29425.1    339.8   0.473217838   5.29443   0.05913  -2.00047   1.13536
  17   30657.9    326.2   0.003258305   0.03499   0.10121  -0.13242   0.08492
  18   31199.5    320.5   0.046455644   0.49019  -0.40081  -0.57403  -0.00617
  19   31877.0    313.7   0.077288040   0.79820  -0.04849  -0.22457  -0.86337
  20   32161.8    310.9   0.077480931   0.79310   0.34899   0.81270   0.10406
  21   33279.3    300.5   0.625221297   6.18493  -0.06722  -2.31047   0.91767
  22   33438.2    299.1   0.494447089   4.86803   0.69306   2.09016   0.13758
  23   33759.8    296.2   0.005712054   0.05570   0.05452   0.22724  -0.03306
  24   34023.0    293.9   0.030394220   0.29410  -0.11816   0.36962  -0.37884
  25   34135.5    292.9   0.004475952   0.04317  -0.03460   0.15656  -0.13213
  26   34871.3    286.8   0.077889380   0.73534  -0.14553   0.75804  -0.37353
  27   35032.1    285.5   0.006411606   0.06025   0.14816  -0.18725  -0.05689
  28   35176.3    284.3   0.035746997   0.33455  -0.05512  -0.57536  -0.02168
  29   35482.6    281.8   0.013527669   0.12551   0.21811   0.01457   0.27879
  30   35860.3    278.9   0.000444488   0.00408   0.01867  -0.05435  -0.02790
  31   36394.7    274.8   0.154971972   1.40181   0.03073  -1.03071   0.58181
  32   36763.1    272.0   0.166921984   1.49478  -0.66600  -0.69814  -0.75088
  33   36783.0    271.9   0.022279983   0.19941   0.09314   0.24981   0.35823
  34   37333.5    267.9   0.168211053   1.48331   0.53912   1.01633   0.39967
  35   37590.8    266.0   0.131803041   1.15430   0.63392   0.01400   0.86732
  36   37811.7    264.5   0.016862000   0.14681   0.00938  -0.37951   0.05195
  37   38053.4    262.8   0.179703115   1.55467   0.27274   1.13587   0.43599
  38   38568.4    259.3   0.124545752   1.06310  -0.52560  -0.68697  -0.56117
  39   38808.9    257.7   0.066370861   0.56302  -0.09678   0.30297  -0.67960
  40   39027.0    256.2   0.015887109   0.13402   0.31172   0.12106   0.14898
  41   39303.5    254.4   0.070108530   0.58724  -0.14729   0.55947  -0.50253
  42   39568.5    252.7   0.027779678   0.23113   0.15698  -0.32014  -0.32248
  43   39980.2    250.1   0.002003071   0.01649  -0.00602  -0.12081   0.04316
  44   40158.3    249.0   0.062121774   0.50927  -0.26367  -0.36089  -0.55633
  45   40196.0    248.8   0.124094664   1.01636   0.15991  -0.49248   0.86502

FINAL SINGLE POINT ENERGY     -4419.026561709294

DIPOLE MOMENT
-------------
                                X             Y             Z
Electronic contribution:      6.37834       1.74877      10.23109
Nuclear contribution   :     -6.05689      -3.14140     -11.09388
                        -----------------------------------------
Total Dipole Moment    :      0.32145      -1.39264      -0.86279
                        -----------------------------------------
Magnitude (a.u.)       :      1.66948
Magnitude (Debye)      :      4.24349

Rotational constants in cm-1:     0.002874     0.000173     0.000168
Rotational constants in MHz :    86.148522     5.183597     5.028565

                             ****ORCA TERMINATED NORMALLY****
TOTAL RUN TIME: 0 days 0 hours 9 minutes 45 seconds 428 msec
