                         Program Version 4.2.0 -  RELEASE  -
|  1> # ORCA input file
|  2> # SCF done       -183.790735676202          0.000899120932
|  3> ! CAM-B3LYP def2-SVP def2/J RIJCOSX Grid4 TightSCF
|  4> %maxcore 5000
|  5> %tddft
|  6>     Mode sTDDFT
|  7>     Ethresh 5.0
|  8>     maxcore 5000
|  9> end
| 10>
| 11> %pal
| 12>   nprocs 6
| 13>   end
| 14> * xyz 0 1
| 15>    C       -4.11280        -1.21638        -3.53192
| 16>    C       -3.06330        -0.74406        -4.27563
| 17>    C       -2.32527        -1.52543        -5.18924
| 18>    N       -1.69593        -2.10742        -5.95261
| 19>    C       -2.55953         0.57233        -4.21056
| 20>    N       -2.08237         1.61658        -4.19571
| 21>    C       -4.59512        -2.58875        -3.50186
| 22>    C       -5.60056        -2.69897        -2.50745
| 23>    C       -6.24264        -3.88265        -2.23275
| 24>    C       -5.87406        -5.01135        -2.97047
| 25>    C       -4.87404        -4.89035        -3.96639
| 26>    C       -4.22584        -3.69365        -4.24630
| 27>    S       -4.58790        -6.40798        -4.75696
| 28>    C       -5.77990        -7.17663        -3.76692
| 29>    C       -6.37055        -6.34243        -2.88353
| 30>    C       -5.81754        -1.39011        -1.87222
| 31>    O       -6.66225        -1.10954        -1.05237
| 32>    C       -4.87437        -0.45747        -2.55590
| 33>    C       -4.90215         0.89648        -2.43009
| 34>    C       -5.49670         1.62433        -1.36383
| 35>    S       -6.14722         3.20789        -1.64390
| 36>    C       -6.50928         3.43377         0.03577
| 37>    C       -6.17818         2.30506         0.76804
| 38>    C       -5.59040         1.28686        -0.01771
| 39>    C       -5.00477         0.12782         0.52921
| 40>    N       -4.44913        -0.76959         0.97547
| 41>    C       -6.50658         2.04354         2.20579
| 42>    F       -7.50920         2.80958         2.67070
| 43>    F       -6.92087         0.77898         2.38813
| 44>    F       -5.46869         2.21091         3.04087
| 45>    C       -7.02594         4.70034         0.46449
| 46>    C       -7.84326         5.46626        -0.39049
| 47>    C       -8.39185         6.74071         0.00061
| 48>    N       -9.00036         7.50158        -0.90348
| 49>    C       -9.22650         7.02439        -2.11017
| 50>    C       -8.83634         5.69137        -2.44622
| 51>    N       -8.12902         4.97385        -1.60823
| 52>    C       -9.18316         5.14449        -3.70695
| 53>    N       -9.49293         4.73803        -4.73230
| 54>    C       -9.87040         7.86058        -3.04960
| 55>    N      -10.42519         8.51974        -3.80648
| 56>    C       -8.20872         7.24755         1.32046
| 57>    C       -7.27663         6.54097         2.11719
| 58>    C       -6.68579         5.29748         1.69498
| 59>    N       -5.79314         4.85737         2.57896
| 60>    S       -5.73207         5.86546         3.82391
| 61>    N       -6.82003         6.93543         3.30145
| 62>    C       -8.84493         8.39861         1.79856
| 63>    C       -9.98214         9.06566         1.28670
| 64>    C      -10.29018        10.26296         1.98723
| 65>    N      -11.26990        11.06398         1.56334
| 66>    C      -11.97872        10.68740         0.52462
| 67>    C      -11.77915         9.39983        -0.06238
| 68>    N      -10.78801         8.62962         0.31398
| 69>    C      -12.68913         8.87918        -1.12009
| 70>    C      -13.02060        11.62332         0.01884
| 71>    C       -9.44139        10.50329         3.09262
| 72>    S       -8.27302         9.20768         3.22618
| 73>    C       -9.39783        11.56706         3.97977
| 74>    C      -10.20351        12.69179         4.04735
| 75>    C      -10.01072        13.70914         5.01456
| 76>    C      -10.88809        14.74722         4.92996
| 77>    C      -11.82484        14.59125         3.88640
| 78>    S      -11.55221        13.08573         3.01881
| 79>    C      -12.84086        15.45380         3.52733
| 80>    C      -13.18601        16.69010         4.14031
| 81>    C      -14.23551        17.32195         3.56755
| 82>    C      -14.80388        16.62598         2.44944
| 83>    S      -13.90765        15.12009         2.18689
| 84>    C      -15.84162        17.00223         1.68900
| 85>    H       -7.00025        -3.93370        -1.46646
| 86>    H       -3.47475        -3.65006        -5.01746
| 87>    H       -5.96761        -8.22296        -3.91096
| 88>    H       -7.13287        -6.64308        -2.18789
| 89>    H       -4.45724         1.50728        -3.20646
| 90>    H      -13.73156         9.03509        -0.85132
| 91>    H      -12.50254         7.81964        -1.26904
| 92>    H      -12.49612         9.39514        -2.06056
| 93>    H      -12.93990        12.57391         0.53764
| 94>    H      -14.01438        11.21145         0.19008
| 95>    H      -12.90088        11.77548        -1.05203
| 96>    H       -8.61560        11.51483         4.72782
| 97>    H       -9.22129        13.64097         5.74255
| 98>    H      -10.87548        15.60357         5.58001
| 99>    H      -12.64011        17.06605         4.98706
|100>    H      -14.63940        18.26477         3.89087
|101>    H      -16.35864        17.92552         1.88366
|102>    H      -16.18920        16.40144         0.86862
|103> *
|104>
|105>                          ****END OF INPUT****

CARTESIAN COORDINATES (ANGSTROEM)
---------------------------------
  C     -4.112800   -1.216380   -3.531920
  C     -3.063300   -0.744060   -4.275630
  C     -2.325270   -1.525430   -5.189240
  N     -1.695930   -2.107420   -5.952610
  C     -2.559530    0.572330   -4.210560
  N     -2.082370    1.616580   -4.195710
  C     -4.595120   -2.588750   -3.501860
  C     -5.600560   -2.698970   -2.507450
  C     -6.242640   -3.882650   -2.232750
  C     -5.874060   -5.011350   -2.970470
  C     -4.874040   -4.890350   -3.966390
  C     -4.225840   -3.693650   -4.246300
  S     -4.587900   -6.407980   -4.756960
  C     -5.779900   -7.176630   -3.766920
  C     -6.370550   -6.342430   -2.883530
  C     -5.817540   -1.390110   -1.872220
  O     -6.662250   -1.109540   -1.052370
  C     -4.874370   -0.457470   -2.555900
  C     -4.902150    0.896480   -2.430090
  C     -5.496700    1.624330   -1.363830
  S     -6.147220    3.207890   -1.643900
  C     -6.509280    3.433770    0.035770
  C     -6.178180    2.305060    0.768040
  C     -5.590400    1.286860   -0.017710
  C     -5.004770    0.127820    0.529210
  N     -4.449130   -0.769590    0.975470
  C     -6.506580    2.043540    2.205790
  F     -7.509200    2.809580    2.670700
  F     -6.920870    0.778980    2.388130
  F     -5.468690    2.210910    3.040870
  C     -7.025940    4.700340    0.464490
  C     -7.843260    5.466260   -0.390490
  C     -8.391850    6.740710    0.000610
  N     -9.000360    7.501580   -0.903480
  C     -9.226500    7.024390   -2.110170
  C     -8.836340    5.691370   -2.446220
  N     -8.129020    4.973850   -1.608230
  C     -9.183160    5.144490   -3.706950
  N     -9.492930    4.738030   -4.732300
  C     -9.870400    7.860580   -3.049600
  N    -10.425190    8.519740   -3.806480
  C     -8.208720    7.247550    1.320460
  C     -7.276630    6.540970    2.117190
  C     -6.685790    5.297480    1.694980
  N     -5.793140    4.857370    2.578960
  S     -5.732070    5.865460    3.823910
  N     -6.820030    6.935430    3.301450
  C     -8.844930    8.398610    1.798560
  C     -9.982140    9.065660    1.286700
  C    -10.290180   10.262960    1.987230
  N    -11.269900   11.063980    1.563340
  C    -11.978720   10.687400    0.524620
  C    -11.779150    9.399830   -0.062380
  N    -10.788010    8.629620    0.313980
  C    -12.689130    8.879180   -1.120090
  C    -13.020600   11.623320    0.018840
  C     -9.441390   10.503290    3.092620
  S     -8.273020    9.207680    3.226180
  C     -9.397830   11.567060    3.979770
  C    -10.203510   12.691790    4.047350
  C    -10.010720   13.709140    5.014560
  C    -10.888090   14.747220    4.929960
  C    -11.824840   14.591250    3.886400
  S    -11.552210   13.085730    3.018810
  C    -12.840860   15.453800    3.527330
  C    -13.186010   16.690100    4.140310
  C    -14.235510   17.321950    3.567550
  C    -14.803880   16.625980    2.449440
  S    -13.907650   15.120090    2.186890
  C    -15.841620   17.002230    1.689000
  H     -7.000250   -3.933700   -1.466460
  H     -3.474750   -3.650060   -5.017460
  H     -5.967610   -8.222960   -3.910960
  H     -7.132870   -6.643080   -2.187890
  H     -4.457240    1.507280   -3.206460
  H    -13.731560    9.035090   -0.851320
  H    -12.502540    7.819640   -1.269040
  H    -12.496120    9.395140   -2.060560
  H    -12.939900   12.573910    0.537640
  H    -14.014380   11.211450    0.190080
  H    -12.900880   11.775480   -1.052030
  H     -8.615600   11.514830    4.727820
  H     -9.221290   13.640970    5.742550
  H    -10.875480   15.603570    5.580010
  H    -12.640110   17.066050    4.987060
  H    -14.639400   18.264770    3.890870
  H    -16.358640   17.925520    1.883660
  H    -16.189200   16.401440    0.868620

 Total Charge           Charge          ....    0
 Multiplicity           Mult            ....    1
 Number of Electrons    NEL             ....  520
 Basis Dimension        Dim             .... 1094

ORBITAL ENERGIES
----------------

  NO   OCC          E(Eh)            E(eV)
   0   2.0000     -89.032153     -2422.6881
   1   2.0000     -88.976171     -2421.1647
   2   2.0000     -88.970944     -2421.0225
   3   2.0000     -88.967644     -2420.9327
   4   2.0000     -88.965762     -2420.8815
   5   2.0000     -88.959266     -2420.7047
   6   2.0000     -24.787237      -674.4950
   7   2.0000     -24.781105      -674.3282
   8   2.0000     -24.776861      -674.2127
   9   2.0000     -19.207169      -522.6536
  10   2.0000     -14.449433      -393.1891
  11   2.0000     -14.449134      -393.1809
  12   2.0000     -14.448160      -393.1544
  13   2.0000     -14.437550      -392.8657
  14   2.0000     -14.434278      -392.7767
  15   2.0000     -14.424954      -392.5230
  16   2.0000     -14.424330      -392.5060
  17   2.0000     -14.418780      -392.3549
  18   2.0000     -14.408421      -392.0731
  19   2.0000     -14.408160      -392.0660
  20   2.0000     -14.393515      -391.6674
  21   2.0000     -10.508217      -285.9431
  22   2.0000     -10.375025      -282.3188
  23   2.0000     -10.359566      -281.8981
  24   2.0000     -10.358514      -281.8695
  25   2.0000     -10.342063      -281.4218
  26   2.0000     -10.341915      -281.4178
  27   2.0000     -10.338842      -281.3342
  28   2.0000     -10.337338      -281.2933
  29   2.0000     -10.336169      -281.2615
  30   2.0000     -10.334886      -281.2265
  31   2.0000     -10.334427      -281.2141
  32   2.0000     -10.333770      -281.1962
  33   2.0000     -10.332563      -281.1633
  34   2.0000     -10.331528      -281.1352
  35   2.0000     -10.331436      -281.1327
  36   2.0000     -10.331124      -281.1242
  37   2.0000     -10.330382      -281.1040
  38   2.0000     -10.329313      -281.0749
  39   2.0000     -10.324675      -280.9487
  40   2.0000     -10.322771      -280.8969
  41   2.0000     -10.319148      -280.7983
  42   2.0000     -10.319049      -280.7956
  43   2.0000     -10.318314      -280.7756
  44   2.0000     -10.317585      -280.7558
  45   2.0000     -10.317371      -280.7499
  46   2.0000     -10.316034      -280.7136
  47   2.0000     -10.315013      -280.6858
  48   2.0000     -10.313719      -280.6506
  49   2.0000     -10.313115      -280.6341
  50   2.0000     -10.313068      -280.6328
  51   2.0000     -10.311011      -280.5769
  52   2.0000     -10.310831      -280.5720
  53   2.0000     -10.308751      -280.5154
  54   2.0000     -10.307168      -280.4723
  55   2.0000     -10.304032      -280.3870
  56   2.0000     -10.303469      -280.3717
  57   2.0000     -10.301257      -280.3115
  58   2.0000     -10.300767      -280.2981
  59   2.0000     -10.299441      -280.2620
  60   2.0000     -10.298761      -280.2435
  61   2.0000     -10.296410      -280.1796
  62   2.0000     -10.295713      -280.1606
  63   2.0000     -10.294988      -280.1409
  64   2.0000     -10.294221      -280.1200
  65   2.0000     -10.290404      -280.0161
  66   2.0000     -10.282433      -279.7992
  67   2.0000     -10.281783      -279.7815
  68   2.0000     -10.278022      -279.6792
  69   2.0000     -10.271093      -279.4907
  70   2.0000      -8.123483      -221.0512
  71   2.0000      -8.070186      -219.6009
  72   2.0000      -8.065573      -219.4754
  73   2.0000      -8.063989      -219.4323
  74   2.0000      -8.059464      -219.3092
  75   2.0000      -8.055577      -219.2034
  76   2.0000      -6.094702      -165.8453
  77   2.0000      -6.086934      -165.6339
  78   2.0000      -6.085948      -165.6071
  79   2.0000      -6.039579      -164.3453
  80   2.0000      -6.035257      -164.2277
  81   2.0000      -6.034851      -164.2166
  82   2.0000      -6.033745      -164.1865
  83   2.0000      -6.032276      -164.1466
  84   2.0000      -6.030385      -164.0951
  85   2.0000      -6.029744      -164.0777
  86   2.0000      -6.029297      -164.0655
  87   2.0000      -6.027950      -164.0289
  88   2.0000      -6.025107      -163.9515
  89   2.0000      -6.024875      -163.9452
  90   2.0000      -6.024781      -163.9426
  91   2.0000      -6.020778      -163.8337
  92   2.0000      -6.020646      -163.8301
  93   2.0000      -6.017227      -163.7371
  94   2.0000      -1.373576       -37.3769
  95   2.0000      -1.276643       -34.7392
  96   2.0000      -1.270699       -34.5775
  97   2.0000      -1.132551       -30.8183
  98   2.0000      -1.123783       -30.5797
  99   2.0000      -1.110641       -30.2221
 100   2.0000      -1.093191       -29.7472
 101   2.0000      -1.038464       -28.2581
 102   2.0000      -1.018040       -27.7023
 103   2.0000      -1.014350       -27.6019
 104   2.0000      -1.013250       -27.5719
 105   2.0000      -1.011250       -27.5175
 106   2.0000      -1.005953       -27.3734
 107   2.0000      -1.001444       -27.2507
 108   2.0000      -1.000786       -27.2328
 109   2.0000      -0.995078       -27.0774
 110   2.0000      -0.992041       -26.9948
 111   2.0000      -0.986802       -26.8522
 112   2.0000      -0.982941       -26.7472
 113   2.0000      -0.977713       -26.6049
 114   2.0000      -0.974757       -26.5245
 115   2.0000      -0.964244       -26.2384
 116   2.0000      -0.925654       -25.1883
 117   2.0000      -0.916192       -24.9309
 118   2.0000      -0.906677       -24.6719
 119   2.0000      -0.901812       -24.5396
 120   2.0000      -0.894544       -24.3418
 121   2.0000      -0.893127       -24.3032
 122   2.0000      -0.881339       -23.9825
 123   2.0000      -0.878893       -23.9159
 124   2.0000      -0.873533       -23.7700
 125   2.0000      -0.868771       -23.6404
 126   2.0000      -0.863341       -23.4927
 127   2.0000      -0.845752       -23.0141
 128   2.0000      -0.840412       -22.8688
 129   2.0000      -0.830458       -22.5979
 130   2.0000      -0.822350       -22.3773
 131   2.0000      -0.819810       -22.3082
 132   2.0000      -0.815579       -22.1930
 133   2.0000      -0.809436       -22.0259
 134   2.0000      -0.795543       -21.6478
 135   2.0000      -0.785386       -21.3714
 136   2.0000      -0.784306       -21.3421
 137   2.0000      -0.763618       -20.7791
 138   2.0000      -0.750270       -20.4159
 139   2.0000      -0.746560       -20.3149
 140   2.0000      -0.735613       -20.0170
 141   2.0000      -0.727161       -19.7871
 142   2.0000      -0.721143       -19.6233
 143   2.0000      -0.717568       -19.5260
 144   2.0000      -0.708655       -19.2835
 145   2.0000      -0.695713       -18.9313
 146   2.0000      -0.693824       -18.8799
 147   2.0000      -0.691065       -18.8048
 148   2.0000      -0.681799       -18.5527
 149   2.0000      -0.678573       -18.4649
 150   2.0000      -0.674231       -18.3467
 151   2.0000      -0.670187       -18.2367
 152   2.0000      -0.661680       -18.0052
 153   2.0000      -0.658263       -17.9122
 154   2.0000      -0.655458       -17.8359
 155   2.0000      -0.654468       -17.8090
 156   2.0000      -0.653107       -17.7719
 157   2.0000      -0.646728       -17.5984
 158   2.0000      -0.643075       -17.4990
 159   2.0000      -0.636970       -17.3328
 160   2.0000      -0.626272       -17.0417
 161   2.0000      -0.621492       -16.9116
 162   2.0000      -0.620194       -16.8763
 163   2.0000      -0.614078       -16.7099
 164   2.0000      -0.611539       -16.6408
 165   2.0000      -0.610237       -16.6054
 166   2.0000      -0.596312       -16.2265
 167   2.0000      -0.586228       -15.9521
 168   2.0000      -0.583096       -15.8669
 169   2.0000      -0.574041       -15.6204
 170   2.0000      -0.567655       -15.4467
 171   2.0000      -0.566428       -15.4133
 172   2.0000      -0.561221       -15.2716
 173   2.0000      -0.552175       -15.0255
 174   2.0000      -0.551527       -15.0078
 175   2.0000      -0.550420       -14.9777
 176   2.0000      -0.544495       -14.8165
 177   2.0000      -0.538193       -14.6450
 178   2.0000      -0.537352       -14.6221
 179   2.0000      -0.534264       -14.5381
 180   2.0000      -0.532204       -14.4820
 181   2.0000      -0.531472       -14.4621
 182   2.0000      -0.528376       -14.3778
 183   2.0000      -0.526416       -14.3245
 184   2.0000      -0.523223       -14.2376
 185   2.0000      -0.519340       -14.1320
 186   2.0000      -0.518403       -14.1065
 187   2.0000      -0.515880       -14.0378
 188   2.0000      -0.513283       -13.9672
 189   2.0000      -0.512370       -13.9423
 190   2.0000      -0.510555       -13.8929
 191   2.0000      -0.503984       -13.7141
 192   2.0000      -0.502009       -13.6603
 193   2.0000      -0.499523       -13.5927
 194   2.0000      -0.496399       -13.5077
 195   2.0000      -0.495123       -13.4730
 196   2.0000      -0.493021       -13.4158
 197   2.0000      -0.491251       -13.3676
 198   2.0000      -0.489313       -13.3149
 199   2.0000      -0.487462       -13.2645
 200   2.0000      -0.486170       -13.2294
 201   2.0000      -0.484331       -13.1793
 202   2.0000      -0.482284       -13.1236
 203   2.0000      -0.480839       -13.0843
 204   2.0000      -0.480581       -13.0773
 205   2.0000      -0.476958       -12.9787
 206   2.0000      -0.474547       -12.9131
 207   2.0000      -0.472302       -12.8520
 208   2.0000      -0.467771       -12.7287
 209   2.0000      -0.467479       -12.7208
 210   2.0000      -0.464465       -12.6387
 211   2.0000      -0.462936       -12.5971
 212   2.0000      -0.455206       -12.3868
 213   2.0000      -0.452303       -12.3078
 214   2.0000      -0.450104       -12.2479
 215   2.0000      -0.448983       -12.2174
 216   2.0000      -0.447332       -12.1725
 217   2.0000      -0.446286       -12.1441
 218   2.0000      -0.444633       -12.0991
 219   2.0000      -0.443096       -12.0572
 220   2.0000      -0.441295       -12.0082
 221   2.0000      -0.440855       -11.9963
 222   2.0000      -0.436375       -11.8744
 223   2.0000      -0.435074       -11.8390
 224   2.0000      -0.432956       -11.7813
 225   2.0000      -0.431975       -11.7546
 226   2.0000      -0.426702       -11.6112
 227   2.0000      -0.425693       -11.5837
 228   2.0000      -0.423862       -11.5339
 229   2.0000      -0.422740       -11.5034
 230   2.0000      -0.419483       -11.4147
 231   2.0000      -0.415299       -11.3009
 232   2.0000      -0.411762       -11.2046
 233   2.0000      -0.409315       -11.1380
 234   2.0000      -0.405685       -11.0392
 235   2.0000      -0.404463       -11.0060
 236   2.0000      -0.402906       -10.9636
 237   2.0000      -0.400109       -10.8875
 238   2.0000      -0.397720       -10.8225
 239   2.0000      -0.395314       -10.7570
 240   2.0000      -0.391285       -10.6474
 241   2.0000      -0.372237       -10.1291
 242   2.0000      -0.369127       -10.0445
 243   2.0000      -0.367763       -10.0073
 244   2.0000      -0.363532        -9.8922
 245   2.0000      -0.359378        -9.7792
 246   2.0000      -0.354043        -9.6340
 247   2.0000      -0.345526        -9.4022
 248   2.0000      -0.341437        -9.2910
 249   2.0000      -0.339689        -9.2434
 250   2.0000      -0.332511        -9.0481
 251   2.0000      -0.326509        -8.8848
 252   2.0000      -0.321361        -8.7447
 253   2.0000      -0.320207        -8.7133
 254   2.0000      -0.310253        -8.4424
 255   2.0000      -0.305710        -8.3188
 256   2.0000      -0.297588        -8.0978
 257   2.0000      -0.286174        -7.7872
 258   2.0000      -0.268594        -7.3088
 259   2.0000      -0.221594        -6.0299
 260   0.0000      -0.127823        -3.4782
 261   0.0000      -0.088166        -2.3991
 262   0.0000      -0.082740        -2.2515
 263   0.0000      -0.052866        -1.4386
 264   0.0000      -0.046776        -1.2728

MULLIKEN ATOMIC CHARGES
-----------------------
   0 C :    0.294876
   1 C :   -0.331624
   2 C :   -0.187078
   3 N :    0.151472
   4 C :   -0.203257
   5 N :    0.163053
   6 C :    0.023759
   7 C :   -0.018017
   8 C :   -0.062371
   9 C :    0.114153
  10 C :   -0.088914
  11 C :   -0.029699
  12 S :    0.138349
  13 C :   -0.048823
  14 C :    0.025620
  15 C :    0.151904
  16 O :   -0.137339
  17 C :   -0.080258
  18 C :    0.007837
  19 C :   -0.080748
  20 S :    0.223263
  21 C :   -0.216108
  22 C :   -0.008786
  23 C :   -0.027749
  24 C :   -0.231917
  25 N :    0.159668
  26 C :    0.537404
  27 F :   -0.166837
  28 F :   -0.154489
  29 F :   -0.157212
  30 C :    0.084461
  31 C :   -0.019960
  32 C :   -0.118671
  33 N :    0.077931
  34 C :   -0.165491
  35 C :   -0.104711
  36 N :    0.005592
  37 C :   -0.217110
  38 N :    0.236146
  39 C :   -0.206653
  40 N :    0.205211
  41 C :    0.199261
  42 C :   -0.025749
  43 C :   -0.000228
  44 N :   -0.265726
  45 S :    0.536360
  46 N :   -0.317135
  47 C :   -0.288546
  48 C :    0.081168
  49 C :    0.034602
  50 N :   -0.035920
  51 C :   -0.144674
  52 C :   -0.165419
  53 N :    0.027387
  54 C :    0.125501
  55 C :    0.120830
  56 C :   -0.102029
  57 S :    0.206657
  58 C :   -0.022394
  59 C :    0.012746
  60 C :    0.014129
  61 C :    0.046592
  62 C :   -0.037620
  63 S :    0.126669
  64 C :   -0.057835
  65 C :    0.028781
  66 C :    0.067018
  67 C :   -0.069173
  68 S :    0.096732
  69 C :   -0.008132
  70 H :   -0.007178
  71 H :   -0.006296
  72 H :    0.037831
  73 H :   -0.006048
  74 H :    0.034948
  75 H :    0.019066
  76 H :    0.029149
  77 H :    0.051454
  78 H :    0.024987
  79 H :    0.032407
  80 H :    0.033053
  81 H :   -0.015515
  82 H :   -0.004402
  83 H :   -0.008900
  84 H :   -0.002488
  85 H :    0.000147
  86 H :    0.033208
  87 H :    0.033843
Sum of atomic charges:   -0.0000000

LOEWDIN ATOMIC CHARGES
----------------------
   0 C :    0.075808
   1 C :   -0.134436
   2 C :   -0.017399
   3 N :   -0.051538
   4 C :   -0.023461
   5 N :   -0.048914
   6 C :   -0.021309
   7 C :   -0.047970
   8 C :    0.027686
   9 C :   -0.033420
  10 C :   -0.144565
  11 C :   -0.008810
  12 S :    0.428254
  13 C :   -0.149702
  14 C :   -0.056696
  15 C :    0.087581
  16 O :   -0.123655
  17 C :   -0.073294
  18 C :    0.042108
  19 C :   -0.164817
  20 S :    0.525295
  21 C :   -0.119505
  22 C :   -0.097523
  23 C :   -0.056641
  24 C :   -0.033196
  25 N :   -0.046578
  26 C :    0.170827
  27 F :   -0.059937
  28 F :   -0.049495
  29 F :   -0.056102
  30 C :   -0.101446
  31 C :    0.005887
  32 C :   -0.015665
  33 N :    0.029710
  34 C :   -0.062251
  35 C :   -0.013969
  36 N :   -0.041798
  37 C :   -0.033909
  38 N :   -0.007296
  39 C :   -0.031204
  40 N :   -0.037160
  41 C :   -0.017272
  42 C :   -0.055444
  43 C :   -0.036011
  44 N :   -0.280490
  45 S :    0.663376
  46 N :   -0.300225
  47 C :   -0.185527
  48 C :   -0.013950
  49 C :   -0.055540
  50 N :   -0.058235
  51 C :    0.001036
  52 C :    0.012996
  53 N :   -0.028460
  54 C :   -0.051739
  55 C :   -0.053322
  56 C :   -0.143095
  57 S :    0.504487
  58 C :   -0.088238
  59 C :   -0.116786
  60 C :   -0.040414
  61 C :   -0.014817
  62 C :   -0.203315
  63 S :    0.456634
  64 C :   -0.148989
  65 C :   -0.027288
  66 C :   -0.011612
  67 C :   -0.142884
  68 S :    0.376150
  69 C :   -0.044345
  70 H :    0.042348
  71 H :    0.040508
  72 H :    0.028999
  73 H :    0.035683
  74 H :    0.046482
  75 H :    0.034492
  76 H :    0.039509
  77 H :    0.048691
  78 H :    0.028509
  79 H :    0.041005
  80 H :    0.041818
  81 H :    0.036731
  82 H :    0.035397
  83 H :    0.032262
  84 H :    0.036176
  85 H :    0.038557
  86 H :    0.034819
  87 H :    0.031838

  Mayer bond orders larger than 0.100000
B(  0-C ,  1-C ) :   1.6480 B(  0-C ,  6-C ) :   1.0143 B(  0-C , 17-C ) :   1.0583
B(  1-C ,  2-C ) :   1.1400 B(  1-C ,  4-C ) :   1.1409 B(  2-C ,  3-N ) :   2.9736
B(  4-C ,  5-N ) :   2.9926 B(  6-C ,  7-C ) :   1.2651 B(  6-C , 11-C ) :   1.4036
B(  7-C ,  8-C ) :   1.4274 B(  7-C , 15-C ) :   0.9475 B(  8-C ,  9-C ) :   1.2449
B(  8-C , 70-H ) :   1.0175 B(  9-C , 10-C ) :   1.2991 B(  9-C , 14-C ) :   1.1718
B( 10-C , 11-C ) :   1.3258 B( 10-C , 12-S ) :   1.0976 B( 11-C , 71-H ) :   0.9844
B( 12-S , 13-C ) :   1.1253 B( 13-C , 14-C ) :   1.6285 B( 13-C , 72-H ) :   0.9686
B( 14-C , 73-H ) :   1.0000 B( 15-C , 16-O ) :   2.2178 B( 15-C , 17-C ) :   0.9273
B( 17-C , 18-C ) :   1.6530 B( 18-C , 19-C ) :   1.1409 B( 18-C , 74-H ) :   0.9285
B( 19-C , 20-S ) :   1.1043 B( 19-C , 23-C ) :   1.4889 B( 20-S , 21-C ) :   1.1964
B( 21-C , 22-C ) :   1.5119 B( 21-C , 30-C ) :   1.0591 B( 22-C , 23-C ) :   1.3141
B( 22-C , 26-C ) :   0.9526 B( 23-C , 24-C ) :   1.1081 B( 24-C , 25-N ) :   3.0201
B( 26-C , 27-F ) :   1.1376 B( 26-C , 28-F ) :   1.1636 B( 26-C , 29-F ) :   1.1650
B( 30-C , 31-C ) :   1.3140 B( 30-C , 41-C ) :   0.1037 B( 30-C , 43-C ) :   1.2169
B( 31-C , 32-C ) :   1.1028 B( 31-C , 36-N ) :   1.3960 B( 32-C , 33-N ) :   1.5157
B( 32-C , 41-C ) :   1.1704 B( 33-N , 34-C ) :   1.6375 B( 34-C , 35-C ) :   1.2304
B( 34-C , 39-C ) :   1.1759 B( 35-C , 36-N ) :   1.7168 B( 35-C , 37-C ) :   1.1492
B( 37-C , 38-N ) :   3.0488 B( 39-C , 40-N ) :   2.9972 B( 41-C , 42-C ) :   1.1499
B( 41-C , 47-C ) :   1.3530 B( 42-C , 43-C ) :   1.1104 B( 42-C , 46-N ) :   1.5156
B( 43-C , 44-N ) :   1.5445 B( 44-N , 45-S ) :   1.2671 B( 44-N , 46-N ) :   0.1408
B( 45-S , 46-N ) :   1.2534 B( 47-C , 48-C ) :   1.2314 B( 47-C , 56-C ) :   0.1005
B( 47-C , 57-S ) :   1.1200 B( 48-C , 49-C ) :   1.2747 B( 48-C , 53-N ) :   1.4217
B( 49-C , 50-N ) :   1.4085 B( 49-C , 56-C ) :   1.2201 B( 50-N , 51-C ) :   1.6312
B( 51-C , 52-C ) :   1.1601 B( 51-C , 55-C ) :   1.1017 B( 52-C , 53-N ) :   1.6671
B( 52-C , 54-C ) :   1.1020 B( 54-C , 75-H ) :   0.9401 B( 54-C , 76-H ) :   0.9414
B( 54-C , 77-H ) :   0.9296 B( 55-C , 78-H ) :   0.9431 B( 55-C , 79-H ) :   0.9383
B( 55-C , 80-H ) :   0.9381 B( 56-C , 57-S ) :   1.1144 B( 56-C , 58-C ) :   1.3031
B( 58-C , 59-C ) :   1.4600 B( 58-C , 81-H ) :   0.9411 B( 59-C , 60-C ) :   1.1747
B( 59-C , 63-S ) :   1.1083 B( 60-C , 61-C ) :   1.5585 B( 60-C , 82-H ) :   1.0023
B( 61-C , 62-C ) :   1.1950 B( 61-C , 83-H ) :   0.9925 B( 62-C , 63-S ) :   0.9878
B( 62-C , 64-C ) :   1.5109 B( 64-C , 65-C ) :   1.1581 B( 64-C , 68-S ) :   1.0748
B( 65-C , 66-C ) :   1.6514 B( 65-C , 84-H ) :   0.9929 B( 66-C , 67-C ) :   1.0825
B( 66-C , 85-H ) :   0.9929 B( 67-C , 68-S ) :   1.0025 B( 67-C , 69-C ) :   1.8553
B( 69-C , 86-H ) :   0.9515 B( 69-C , 87-H ) :   0.9427

-----------------------------------------------------------------------------
         ABSORPTION SPECTRUM VIA TRANSITION ELECTRIC DIPOLE MOMENTS
-----------------------------------------------------------------------------
State   Energy  Wavelength   fosc         T2         TX        TY        TZ
        (cm-1)    (nm)                  (au**2)     (au)      (au)      (au)
-----------------------------------------------------------------------------
   0    7166.3   1395.4   0.917639230  42.15520   3.04854  -5.44738  -1.78540
   1   15898.5    629.0   0.163312703   3.38174   0.96645  -1.54984  -0.21379
   2   17087.1    585.2   0.068555476   1.32084  -0.75371   0.86093  -0.10748
   3   17344.4    576.6   0.246455824   4.67794  -0.78372   1.70228   1.07979
   4   20356.5    491.2   0.009415781   0.15228  -0.32929   0.16864  -0.12412
   5   22101.7    452.5   0.006299812   0.09384   0.21014  -0.03891   0.21947
   6   23399.2    427.4   0.196712081   2.76762  -1.17783   1.08714  -0.44550
   7   23596.2    423.8   0.059093331   0.82447  -0.59450   0.40297   0.55557
   8   24427.6    409.4   0.002395300   0.03228   0.06629   0.14592  -0.08121
   9   24972.6    400.4   0.016420769   0.21647  -0.30898   0.31349   0.15076
  10   25069.8    398.9   0.038004738   0.49907  -0.00239  -0.02458   0.70602
  11   25498.2    392.2   0.011950424   0.15429  -0.01826  -0.00959  -0.39226
  12   25619.6    390.3   0.081946441   1.05301  -0.11618   1.01809   0.05483
  13   25966.4    385.1   0.055638244   0.70540   0.27055   0.60064  -0.52100
  14   26625.6    375.6   0.111623802   1.38017  -0.81095   0.25229  -0.81172
  15   27338.4    365.8   0.038122204   0.45907   0.17560  -0.49172  -0.43179
  16   27487.3    363.8   0.037622317   0.45060   0.60483  -0.12763   0.26170
  17   28241.6    354.1   0.011102450   0.12942  -0.35122  -0.04662  -0.06240
  18   28540.6    350.4   0.258794275   2.98516   0.12390  -1.53031  -0.79243
  19   28864.4    346.4   0.076208815   0.86920  -0.62499  -0.51857   0.45790
  20   29740.0    336.2   0.018355073   0.20318   0.09157  -0.21438  -0.38580
  21   30393.7    329.0   0.179002126   1.93888   0.77471  -0.07887   1.15433
  22   30489.5    328.0   0.104409367   1.12737   0.76321  -0.49177   0.55049
  23   30713.7    325.6   0.140729527   1.50844  -0.34716  -0.08224  -1.17523
  24   31135.8    321.2   0.075161070   0.79471  -0.29210  -0.72035  -0.43644
  25   31445.9    318.0   0.039045775   0.40878   0.00265  -0.63031  -0.10715
  26   31570.0    316.8   0.056935048   0.59372   0.15794  -0.02656  -0.75370
  27   31989.3    312.6   0.091199395   0.93856   0.48680  -0.81404   0.19731
  28   32369.5    308.9   0.068341647   0.69506  -0.12146   0.81618   0.11898
  29   32867.8    304.2   0.056934027   0.57027   0.75465  -0.02138  -0.01746
  30   32996.6    303.1   0.261547914   2.60950   0.30748   1.32741   0.86772
  31   33307.7    300.2   0.209450969   2.07021  -0.27122  -1.33846   0.45297
  32   33359.8    299.8   0.360159264   3.55424  -1.03444  -1.56952   0.14418
  33   33903.2    295.0   0.076240623   0.74032  -0.38491  -0.03398  -0.76877
  34   34405.3    290.7   0.032133609   0.30748   0.05273  -0.25408  -0.49004
  35   34498.2    289.9   0.022598466   0.21565  -0.10172   0.14545  -0.42913
  36   34672.2    288.4   0.022455054   0.21321   0.40568   0.19906   0.09492
  37   34832.2    287.1   0.059486477   0.56223  -0.27798   0.60137   0.35116
  38   35421.7    282.3   0.223377309   2.07609  -1.02429   0.89281  -0.47938
  39   35444.8    282.1   0.239649461   2.22587   0.39263   0.04284   1.43870
  40   36068.7    277.2   0.070506044   0.64353  -0.70480   0.29742  -0.24153
  41   36307.4    275.4   0.005087085   0.04613  -0.20614   0.00193   0.06025
  42   36344.9    275.1   0.093699543   0.84873  -0.52821   0.21494  -0.72355
  43   36628.6    273.0   0.007477766   0.06721   0.22667  -0.10039  -0.07584
  44   36929.1    270.8   0.001375822   0.01227   0.07929  -0.07478   0.01965
  45   36966.8    270.5   0.138865448   1.23668   0.75795  -0.52730  -0.61980
  46   37203.0    268.8   0.372747873   3.29847  -1.38975   0.16394  -1.15767
  47   37540.6    266.4   0.093674733   0.82148   0.53276   0.12969  -0.72168
  48   37905.4    263.8   0.049439006   0.42938  -0.06580   0.39444  -0.51911
  49   38050.5    262.8   0.062659537   0.54213  -0.09096  -0.12013  -0.72071
  50   38426.5    260.2   0.020315635   0.17405  -0.29108  -0.08523   0.28646
  51   38893.2    257.1   0.004190020   0.03547  -0.07582   0.16728   0.04167
  52   39608.9    252.5   0.009079608   0.07547   0.15887  -0.21777   0.05292
  53   39702.8    251.9   0.004615250   0.03827  -0.13213   0.07740  -0.12174
  54   40004.1    250.0   0.025643219   0.21103   0.07382  -0.44389   0.09245
  55   40138.8    249.1   0.035303026   0.28955   0.12327   0.52264  -0.03473

FINAL SINGLE POINT ENERGY     -5239.806938076620

DIPOLE MOMENT
-------------
                                X             Y             Z
Electronic contribution:     46.98598     -55.32026       5.24477
Nuclear contribution   :    -51.53340      61.20344      -1.45012
                        -----------------------------------------
Total Dipole Moment    :     -4.54742       5.88318       3.79465
                        -----------------------------------------
Magnitude (a.u.)       :      8.34807
Magnitude (Debye)      :     21.21911

Rotational constants in cm-1:     0.002547     0.000290     0.000276
Rotational constants in MHz :    76.359432     8.708407     8.284137

                             ****ORCA TERMINATED NORMALLY****
TOTAL RUN TIME: 0 days 0 hours 10 minutes 10 seconds 159 msec
