                         Program Version 4.2.0 -  RELEASE  -
|  1> # ORCA input file
|  2> # SCF done       -166.998293106142          0.000653876773
|  3> ! CAM-B3LYP def2-SVP def2/J RIJCOSX Grid4 TightSCF
|  4> %maxcore 5000
|  5> %tddft
|  6>     Mode sTDDFT
|  7>     Ethresh 5.0
|  8>     maxcore 5000
|  9> end
| 10>
| 11> %pal
| 12>   nprocs 6
| 13>   end
| 14> * xyz 0 1
| 15>    C       -0.07825       -13.92491        10.39499
| 16>    C       -0.04706       -13.04009         9.39037
| 17>    C       -0.21357       -11.61591         9.46689
| 18>    C       -0.13195       -10.97830         8.27982
| 19>    C        0.10532       -11.83729         7.16791
| 20>    S        0.22001       -13.50303         7.70192
| 21>    C        0.23768       -11.47497         5.85133
| 22>    C        0.17000       -10.17321         5.29015
| 23>    C        0.34700       -10.13222         3.94641
| 24>    C        0.57460       -11.40308         3.34933
| 25>    S        0.53280       -12.66051         4.59016
| 26>    C        0.80678       -11.65401         2.03340
| 27>    N        1.06454       -12.89922         1.54614
| 28>    C        1.31439       -13.23531         0.25763
| 29>    S        2.13228       -14.73616        -0.06576
| 30>    C        2.17584       -14.33552        -1.75531
| 31>    N        2.77132       -15.24379        -2.62643
| 32>    O        2.82372       -14.94660        -3.80887
| 33>    O        3.21147       -16.27266        -2.13471
| 34>    C        1.59695       -13.12467        -2.03500
| 35>    C        1.08770       -12.48043        -0.89733
| 36>    C        0.33731       -11.24174        -0.96098
| 37>    C        0.64538       -10.17734        -1.72215
| 38>    C        1.87232        -9.92643        -2.43070
| 39>    C        1.85870        -9.03627        -3.52806
| 40>    C        3.04635        -8.72138        -4.27876
| 41>    N        2.92806        -8.12207        -5.47433
| 42>    C        1.77000        -7.64002        -5.83709
| 43>    C        0.65130        -7.68535        -4.93137
| 44>    N        0.70559        -8.42893        -3.85812
| 45>    C       -0.51541        -6.93331        -5.20694
| 46>    N       -1.44235        -6.30680        -5.45608
| 47>    C        1.61387        -7.07064        -7.12308
| 48>    N        1.44167        -6.59611        -8.15173
| 49>    C        4.32931        -9.06274        -3.80051
| 50>    C        4.35220        -9.95213        -2.71431
| 51>    C        3.14423       -10.39802        -2.05052
| 52>    N        3.43255       -11.19271        -1.01314
| 53>    S        5.02291       -11.37386        -0.90655
| 54>    N        5.45003       -10.44522        -2.13533
| 55>    C        5.52328        -8.48428        -4.34557
| 56>    C        5.66623        -7.20324        -4.83993
| 57>    C        6.98727        -6.96170        -5.32445
| 58>    C        7.51017        -5.79399        -5.87770
| 59>    C        8.83693        -5.77527        -6.27979
| 60>    C        9.65794        -6.90842        -6.13013
| 61>    C        9.15836        -8.05983        -5.56727
| 62>    C        7.82903        -8.08444        -5.16249
| 63>    S        7.00592        -9.40797        -4.40290
| 64>    C        9.38189        -4.59935        -6.84490
| 65>    N        9.82512        -3.64503        -7.29997
| 66>    C        4.59799        -6.22192        -4.80014
| 67>    C        3.73879        -6.02926        -3.67546
| 68>    C        2.71017        -5.17299        -4.04193
| 69>    C        1.54662        -4.76802        -3.35473
| 70>    C        0.62691        -4.03052        -4.05100
| 71>    C       -0.66672        -3.53425        -3.68862
| 72>    C       -1.21721        -2.89050        -4.78106
| 73>    C       -0.27684        -2.96209        -5.85413
| 74>    C        0.85224        -3.65187        -5.43014
| 75>    C        2.02782        -4.02008        -6.10368
| 76>    C        2.94090        -4.78428        -5.41528
| 77>    C        4.14364        -5.43121        -5.83751
| 78>    C       -2.50591        -2.24840        -4.89377
| 79>    C       -3.41643        -2.17073        -3.92768
| 80>    H       -0.24358       -13.59999        11.40701
| 81>    H        0.05795       -14.97750        10.22711
| 82>    H       -0.38708       -11.13580        10.41351
| 83>    H       -0.23236        -9.91491         8.15368
| 84>    H       -0.00705        -9.30760         5.90235
| 85>    H        0.32937        -9.23569         3.35303
| 86>    H        0.82989       -10.84609         1.31896
| 87>    H        1.19317       -13.62807         2.24007
| 88>    H        1.51987       -12.73762        -3.03490
| 89>    H       -0.59371       -11.22905        -0.40720
| 90>    H       -0.09011        -9.39205        -1.83831
| 91>    H        6.88937        -4.91752        -5.98591
| 92>    H       10.68582        -6.85918        -6.45602
| 93>    H        9.78158        -8.93048        -5.43752
| 94>    H        3.87596        -6.48649        -2.71042
| 95>    H        1.38114        -5.07241        -2.32994
| 96>    H       -1.11804        -3.66276        -2.72282
| 97>    H       -0.43465        -2.55438        -6.83669
| 98>    H        2.18508        -3.74143        -7.13534
| 99>    H        4.55685        -5.37747        -6.82718
|100>    H       -2.71363        -1.80774        -5.86065
|101>    H       -3.25386        -2.59725        -2.95283
|102>    H       -4.36047        -1.67762        -4.08135
|103> *
|104>
|105>                          ****END OF INPUT****

CARTESIAN COORDINATES (ANGSTROEM)
---------------------------------
  C     -0.078250  -13.924910   10.394990
  C     -0.047060  -13.040090    9.390370
  C     -0.213570  -11.615910    9.466890
  C     -0.131950  -10.978300    8.279820
  C      0.105320  -11.837290    7.167910
  S      0.220010  -13.503030    7.701920
  C      0.237680  -11.474970    5.851330
  C      0.170000  -10.173210    5.290150
  C      0.347000  -10.132220    3.946410
  C      0.574600  -11.403080    3.349330
  S      0.532800  -12.660510    4.590160
  C      0.806780  -11.654010    2.033400
  N      1.064540  -12.899220    1.546140
  C      1.314390  -13.235310    0.257630
  S      2.132280  -14.736160   -0.065760
  C      2.175840  -14.335520   -1.755310
  N      2.771320  -15.243790   -2.626430
  O      2.823720  -14.946600   -3.808870
  O      3.211470  -16.272660   -2.134710
  C      1.596950  -13.124670   -2.035000
  C      1.087700  -12.480430   -0.897330
  C      0.337310  -11.241740   -0.960980
  C      0.645380  -10.177340   -1.722150
  C      1.872320   -9.926430   -2.430700
  C      1.858700   -9.036270   -3.528060
  C      3.046350   -8.721380   -4.278760
  N      2.928060   -8.122070   -5.474330
  C      1.770000   -7.640020   -5.837090
  C      0.651300   -7.685350   -4.931370
  N      0.705590   -8.428930   -3.858120
  C     -0.515410   -6.933310   -5.206940
  N     -1.442350   -6.306800   -5.456080
  C      1.613870   -7.070640   -7.123080
  N      1.441670   -6.596110   -8.151730
  C      4.329310   -9.062740   -3.800510
  C      4.352200   -9.952130   -2.714310
  C      3.144230  -10.398020   -2.050520
  N      3.432550  -11.192710   -1.013140
  S      5.022910  -11.373860   -0.906550
  N      5.450030  -10.445220   -2.135330
  C      5.523280   -8.484280   -4.345570
  C      5.666230   -7.203240   -4.839930
  C      6.987270   -6.961700   -5.324450
  C      7.510170   -5.793990   -5.877700
  C      8.836930   -5.775270   -6.279790
  C      9.657940   -6.908420   -6.130130
  C      9.158360   -8.059830   -5.567270
  C      7.829030   -8.084440   -5.162490
  S      7.005920   -9.407970   -4.402900
  C      9.381890   -4.599350   -6.844900
  N      9.825120   -3.645030   -7.299970
  C      4.597990   -6.221920   -4.800140
  C      3.738790   -6.029260   -3.675460
  C      2.710170   -5.172990   -4.041930
  C      1.546620   -4.768020   -3.354730
  C      0.626910   -4.030520   -4.051000
  C     -0.666720   -3.534250   -3.688620
  C     -1.217210   -2.890500   -4.781060
  C     -0.276840   -2.962090   -5.854130
  C      0.852240   -3.651870   -5.430140
  C      2.027820   -4.020080   -6.103680
  C      2.940900   -4.784280   -5.415280
  C      4.143640   -5.431210   -5.837510
  C     -2.505910   -2.248400   -4.893770
  C     -3.416430   -2.170730   -3.927680
  H     -0.243580  -13.599990   11.407010
  H      0.057950  -14.977500   10.227110
  H     -0.387080  -11.135800   10.413510
  H     -0.232360   -9.914910    8.153680
  H     -0.007050   -9.307600    5.902350
  H      0.329370   -9.235690    3.353030
  H      0.829890  -10.846090    1.318960
  H      1.193170  -13.628070    2.240070
  H      1.519870  -12.737620   -3.034900
  H     -0.593710  -11.229050   -0.407200
  H     -0.090110   -9.392050   -1.838310
  H      6.889370   -4.917520   -5.985910
  H     10.685820   -6.859180   -6.456020
  H      9.781580   -8.930480   -5.437520
  H      3.875960   -6.486490   -2.710420
  H      1.381140   -5.072410   -2.329940
  H     -1.118040   -3.662760   -2.722820
  H     -0.434650   -2.554380   -6.836690
  H      2.185080   -3.741430   -7.135340
  H      4.556850   -5.377470   -6.827180
  H     -2.713630   -1.807740   -5.860650
  H     -3.253860   -2.597250   -2.952830
  H     -4.360470   -1.677620   -4.081350

 Total Charge           Charge          ....    0
 Multiplicity           Mult            ....    1
 Number of Electrons    NEL             ....  476
 Basis Dimension        Dim             .... 1045

ORBITAL ENERGIES
----------------

  NO   OCC          E(Eh)            E(eV)
   0   2.0000     -89.055434     -2423.3216
   1   2.0000     -88.982596     -2421.3395
   2   2.0000     -88.961915     -2420.7768
   3   2.0000     -88.951180     -2420.4847
   4   2.0000     -88.938875     -2420.1498
   5   2.0000     -19.232205      -523.3349
   6   2.0000     -19.231173      -523.3068
   7   2.0000     -14.643875      -398.4801
   8   2.0000     -14.490419      -394.3044
   9   2.0000     -14.464538      -393.6001
  10   2.0000     -14.461654      -393.5216
  11   2.0000     -14.461643      -393.5213
  12   2.0000     -14.460281      -393.4843
  13   2.0000     -14.432104      -392.7175
  14   2.0000     -14.430006      -392.6604
  15   2.0000     -14.398470      -391.8023
  16   2.0000     -10.384901      -282.5875
  17   2.0000     -10.380503      -282.4678
  18   2.0000     -10.370081      -282.1843
  19   2.0000     -10.351680      -281.6835
  20   2.0000     -10.351197      -281.6704
  21   2.0000     -10.350926      -281.6630
  22   2.0000     -10.350451      -281.6501
  23   2.0000     -10.338004      -281.3114
  24   2.0000     -10.334327      -281.2113
  25   2.0000     -10.327778      -281.0331
  26   2.0000     -10.325068      -280.9594
  27   2.0000     -10.324990      -280.9572
  28   2.0000     -10.323361      -280.9129
  29   2.0000     -10.320270      -280.8288
  30   2.0000     -10.316450      -280.7249
  31   2.0000     -10.314441      -280.6702
  32   2.0000     -10.312231      -280.6101
  33   2.0000     -10.311970      -280.6030
  34   2.0000     -10.309460      -280.5347
  35   2.0000     -10.307834      -280.4904
  36   2.0000     -10.306976      -280.4671
  37   2.0000     -10.306405      -280.4515
  38   2.0000     -10.305222      -280.4193
  39   2.0000     -10.303093      -280.3614
  40   2.0000     -10.301268      -280.3118
  41   2.0000     -10.298706      -280.2420
  42   2.0000     -10.298198      -280.2282
  43   2.0000     -10.297897      -280.2200
  44   2.0000     -10.296491      -280.1818
  45   2.0000     -10.295399      -280.1520
  46   2.0000     -10.294944      -280.1397
  47   2.0000     -10.294256      -280.1210
  48   2.0000     -10.293452      -280.0991
  49   2.0000     -10.290839      -280.0280
  50   2.0000     -10.290661      -280.0231
  51   2.0000     -10.290628      -280.0222
  52   2.0000     -10.289398      -279.9887
  53   2.0000     -10.284941      -279.8675
  54   2.0000     -10.280056      -279.7345
  55   2.0000     -10.279512      -279.7197
  56   2.0000     -10.279363      -279.7157
  57   2.0000     -10.272628      -279.5324
  58   2.0000     -10.271374      -279.4983
  59   2.0000     -10.270599      -279.4772
  60   2.0000     -10.269427      -279.4453
  61   2.0000     -10.268496      -279.4200
  62   2.0000     -10.268449      -279.4187
  63   2.0000     -10.266991      -279.3790
  64   2.0000     -10.258063      -279.1361
  65   2.0000      -8.146495      -221.6774
  66   2.0000      -8.078573      -219.8292
  67   2.0000      -8.057346      -219.2515
  68   2.0000      -8.047596      -218.9862
  69   2.0000      -8.035661      -218.6615
  70   2.0000      -6.117411      -166.4632
  71   2.0000      -6.109653      -166.2521
  72   2.0000      -6.109599      -166.2506
  73   2.0000      -6.048314      -164.5830
  74   2.0000      -6.043945      -164.4641
  75   2.0000      -6.039772      -164.3506
  76   2.0000      -6.026897      -164.0002
  77   2.0000      -6.022766      -163.8878
  78   2.0000      -6.018760      -163.7788
  79   2.0000      -6.017477      -163.7439
  80   2.0000      -6.013582      -163.6379
  81   2.0000      -6.008132      -163.4896
  82   2.0000      -6.005501      -163.4180
  83   2.0000      -6.001640      -163.3129
  84   2.0000      -5.996100      -163.1622
  85   2.0000      -1.311522       -35.6883
  86   2.0000      -1.150489       -31.3064
  87   2.0000      -1.130463       -30.7615
  88   2.0000      -1.123781       -30.5796
  89   2.0000      -1.094957       -29.7953
  90   2.0000      -1.049995       -28.5718
  91   2.0000      -1.017513       -27.6879
  92   2.0000      -1.013405       -27.5762
  93   2.0000      -1.007449       -27.4141
  94   2.0000      -1.005017       -27.3479
  95   2.0000      -1.000737       -27.2314
  96   2.0000      -0.992852       -27.0169
  97   2.0000      -0.992390       -27.0043
  98   2.0000      -0.987557       -26.8728
  99   2.0000      -0.980973       -26.6936
 100   2.0000      -0.970058       -26.3966
 101   2.0000      -0.966213       -26.2920
 102   2.0000      -0.945199       -25.7202
 103   2.0000      -0.924361       -25.1531
 104   2.0000      -0.911675       -24.8079
 105   2.0000      -0.903768       -24.5928
 106   2.0000      -0.902279       -24.5523
 107   2.0000      -0.891507       -24.2591
 108   2.0000      -0.879649       -23.9365
 109   2.0000      -0.875061       -23.8116
 110   2.0000      -0.869064       -23.6484
 111   2.0000      -0.856446       -23.3051
 112   2.0000      -0.852192       -23.1893
 113   2.0000      -0.848071       -23.0772
 114   2.0000      -0.846494       -23.0343
 115   2.0000      -0.838793       -22.8247
 116   2.0000      -0.832432       -22.6516
 117   2.0000      -0.823450       -22.4072
 118   2.0000      -0.822867       -22.3914
 119   2.0000      -0.803315       -21.8593
 120   2.0000      -0.800840       -21.7920
 121   2.0000      -0.792685       -21.5701
 122   2.0000      -0.780324       -21.2337
 123   2.0000      -0.769593       -20.9417
 124   2.0000      -0.756762       -20.5925
 125   2.0000      -0.753049       -20.4915
 126   2.0000      -0.738136       -20.0857
 127   2.0000      -0.734846       -19.9962
 128   2.0000      -0.722889       -19.6708
 129   2.0000      -0.720341       -19.6015
 130   2.0000      -0.713807       -19.4237
 131   2.0000      -0.698278       -19.0011
 132   2.0000      -0.693031       -18.8583
 133   2.0000      -0.686022       -18.6676
 134   2.0000      -0.685762       -18.6605
 135   2.0000      -0.675703       -18.3868
 136   2.0000      -0.672649       -18.3037
 137   2.0000      -0.667141       -18.1538
 138   2.0000      -0.660240       -17.9660
 139   2.0000      -0.650151       -17.6915
 140   2.0000      -0.643173       -17.5016
 141   2.0000      -0.641565       -17.4579
 142   2.0000      -0.636573       -17.3220
 143   2.0000      -0.634625       -17.2690
 144   2.0000      -0.627535       -17.0761
 145   2.0000      -0.626390       -17.0450
 146   2.0000      -0.625307       -17.0155
 147   2.0000      -0.621238       -16.9047
 148   2.0000      -0.620041       -16.8722
 149   2.0000      -0.609461       -16.5843
 150   2.0000      -0.600865       -16.3504
 151   2.0000      -0.597500       -16.2588
 152   2.0000      -0.593323       -16.1451
 153   2.0000      -0.589278       -16.0351
 154   2.0000      -0.587302       -15.9813
 155   2.0000      -0.582594       -15.8532
 156   2.0000      -0.581343       -15.8191
 157   2.0000      -0.571686       -15.5564
 158   2.0000      -0.570171       -15.5152
 159   2.0000      -0.567477       -15.4418
 160   2.0000      -0.561458       -15.2780
 161   2.0000      -0.557263       -15.1639
 162   2.0000      -0.552522       -15.0349
 163   2.0000      -0.547582       -14.9005
 164   2.0000      -0.543623       -14.7927
 165   2.0000      -0.536406       -14.5964
 166   2.0000      -0.534690       -14.5496
 167   2.0000      -0.532635       -14.4937
 168   2.0000      -0.524457       -14.2712
 169   2.0000      -0.521389       -14.1877
 170   2.0000      -0.517763       -14.0891
 171   2.0000      -0.516363       -14.0509
 172   2.0000      -0.512888       -13.9564
 173   2.0000      -0.511655       -13.9228
 174   2.0000      -0.504303       -13.7228
 175   2.0000      -0.500595       -13.6219
 176   2.0000      -0.499968       -13.6048
 177   2.0000      -0.496783       -13.5181
 178   2.0000      -0.494948       -13.4682
 179   2.0000      -0.493760       -13.4359
 180   2.0000      -0.492535       -13.4026
 181   2.0000      -0.489960       -13.3325
 182   2.0000      -0.485851       -13.2207
 183   2.0000      -0.481612       -13.1053
 184   2.0000      -0.477808       -13.0018
 185   2.0000      -0.476169       -12.9572
 186   2.0000      -0.471438       -12.8285
 187   2.0000      -0.470692       -12.8082
 188   2.0000      -0.468678       -12.7534
 189   2.0000      -0.464822       -12.6485
 190   2.0000      -0.463856       -12.6222
 191   2.0000      -0.461305       -12.5527
 192   2.0000      -0.458356       -12.4725
 193   2.0000      -0.456984       -12.4352
 194   2.0000      -0.453032       -12.3276
 195   2.0000      -0.449559       -12.2331
 196   2.0000      -0.447959       -12.1896
 197   2.0000      -0.447045       -12.1647
 198   2.0000      -0.443529       -12.0690
 199   2.0000      -0.442311       -12.0359
 200   2.0000      -0.439287       -11.9536
 201   2.0000      -0.438342       -11.9279
 202   2.0000      -0.435657       -11.8548
 203   2.0000      -0.433760       -11.8032
 204   2.0000      -0.427603       -11.6357
 205   2.0000      -0.426198       -11.5974
 206   2.0000      -0.423332       -11.5194
 207   2.0000      -0.422406       -11.4942
 208   2.0000      -0.419194       -11.4069
 209   2.0000      -0.417570       -11.3627
 210   2.0000      -0.414038       -11.2665
 211   2.0000      -0.410362       -11.1665
 212   2.0000      -0.403798       -10.9879
 213   2.0000      -0.403150       -10.9703
 214   2.0000      -0.401128       -10.9152
 215   2.0000      -0.393291       -10.7020
 216   2.0000      -0.385370       -10.4865
 217   2.0000      -0.385003       -10.4765
 218   2.0000      -0.380620       -10.3572
 219   2.0000      -0.378407       -10.2970
 220   2.0000      -0.372362       -10.1325
 221   2.0000      -0.368995       -10.0409
 222   2.0000      -0.368341       -10.0231
 223   2.0000      -0.362135        -9.8542
 224   2.0000      -0.360595        -9.8123
 225   2.0000      -0.351822        -9.5736
 226   2.0000      -0.343699        -9.3525
 227   2.0000      -0.339606        -9.2411
 228   2.0000      -0.336286        -9.1508
 229   2.0000      -0.327616        -8.9149
 230   2.0000      -0.321253        -8.7418
 231   2.0000      -0.316947        -8.6246
 232   2.0000      -0.296641        -8.0720
 233   2.0000      -0.288299        -7.8450
 234   2.0000      -0.274725        -7.4757
 235   2.0000      -0.268953        -7.3186
 236   2.0000      -0.244362        -6.6494
 237   2.0000      -0.219648        -5.9769
 238   0.0000      -0.126688        -3.4474
 239   0.0000      -0.101880        -2.7723
 240   0.0000      -0.066180        -1.8008
 241   0.0000      -0.054894        -1.4938
 242   0.0000      -0.044165        -1.2018

MULLIKEN ATOMIC CHARGES
-----------------------
   0 C :   -0.035804
   1 C :   -0.059189
   2 C :    0.051239
   3 C :    0.027182
   4 C :   -0.068864
   5 S :    0.069367
   6 C :   -0.049686
   7 C :    0.026588
   8 C :    0.036995
   9 C :   -0.042734
  10 S :    0.037655
  11 C :    0.013270
  12 N :   -0.015286
  13 C :   -0.105705
  14 S :    0.158552
  15 C :   -0.029645
  16 N :    0.281187
  17 O :   -0.261542
  18 O :   -0.274227
  19 C :    0.016093
  20 C :    0.088381
  21 C :    0.007511
  22 C :   -0.075375
  23 C :    0.058324
  24 C :   -0.046183
  25 C :   -0.117647
  26 N :    0.095137
  27 C :   -0.143583
  28 C :   -0.126105
  29 N :    0.050703
  30 C :   -0.190153
  31 N :    0.231460
  32 C :   -0.191572
  33 N :    0.222030
  34 C :    0.097816
  35 C :    0.008995
  36 C :    0.000661
  37 N :   -0.282345
  38 S :    0.564226
  39 N :   -0.270059
  40 C :   -0.245892
  41 C :    0.234370
  42 C :    0.077555
  43 C :   -0.047148
  44 C :   -0.101365
  45 C :    0.044696
  46 C :   -0.001156
  47 C :   -0.044851
  48 S :    0.187485
  49 C :   -0.142756
  50 N :    0.105142
  51 C :   -0.067633
  52 C :   -0.020144
  53 C :    0.028734
  54 C :   -0.006093
  55 C :    0.042081
  56 C :   -0.015682
  57 C :    0.073120
  58 C :   -0.000585
  59 C :    0.041748
  60 C :    0.025687
  61 C :    0.007177
  62 C :    0.002586
  63 C :    0.013598
  64 C :   -0.010927
  65 H :    0.019556
  66 H :    0.022014
  67 H :   -0.012663
  68 H :   -0.012051
  69 H :   -0.014993
  70 H :   -0.013738
  71 H :    0.022345
  72 H :    0.141452
  73 H :    0.011526
  74 H :    0.023649
  75 H :    0.011514
  76 H :   -0.006964
  77 H :    0.000365
  78 H :   -0.011510
  79 H :   -0.024257
  80 H :   -0.028454
  81 H :   -0.029188
  82 H :   -0.014192
  83 H :   -0.014305
  84 H :   -0.016004
  85 H :   -0.019377
  86 H :    0.007145
  87 H :    0.020724
Sum of atomic charges:   -0.0000000

LOEWDIN ATOMIC CHARGES
----------------------
   0 C :   -0.080026
   1 C :   -0.138591
   2 C :   -0.033269
   3 C :   -0.026811
   4 C :   -0.184749
   5 S :    0.343072
   6 C :   -0.176025
   7 C :   -0.040693
   8 C :   -0.031402
   9 C :   -0.189686
  10 S :    0.330624
  11 C :   -0.007317
  12 N :    0.046295
  13 C :   -0.093445
  14 S :    0.441346
  15 C :   -0.221437
  16 N :    0.273426
  17 O :   -0.227852
  18 O :   -0.240120
  19 C :    0.006645
  20 C :   -0.109172
  21 C :   -0.007888
  22 C :   -0.029567
  23 C :   -0.028201
  24 C :   -0.006920
  25 C :   -0.008358
  26 N :    0.023945
  27 C :   -0.026575
  28 C :   -0.018516
  29 N :   -0.003307
  30 C :   -0.033140
  31 N :   -0.002655
  32 C :   -0.028094
  33 N :   -0.018174
  34 C :   -0.029223
  35 C :   -0.046643
  36 C :   -0.044007
  37 N :   -0.275999
  38 S :    0.693874
  39 N :   -0.287973
  40 C :   -0.158641
  41 C :   -0.015359
  42 C :   -0.041719
  43 C :    0.024264
  44 C :   -0.076040
  45 C :    0.009947
  46 C :   -0.032924
  47 C :   -0.140163
  48 S :    0.447986
  49 C :   -0.030185
  50 N :   -0.060533
  51 C :   -0.067079
  52 C :    0.016603
  53 C :   -0.075106
  54 C :    0.061175
  55 C :   -0.055309
  56 C :    0.033203
  57 C :   -0.053804
  58 C :    0.068772
  59 C :   -0.075764
  60 C :    0.088298
  61 C :   -0.078399
  62 C :    0.015185
  63 C :   -0.022593
  64 C :   -0.040933
  65 H :    0.028462
  66 H :    0.026149
  67 H :    0.033135
  68 H :    0.031767
  69 H :    0.031830
  70 H :    0.032491
  71 H :    0.038976
  72 H :    0.085511
  73 H :    0.044379
  74 H :    0.038104
  75 H :    0.038691
  76 H :    0.040336
  77 H :    0.040687
  78 H :    0.035421
  79 H :    0.023033
  80 H :    0.033295
  81 H :    0.023820
  82 H :    0.029842
  83 H :    0.040099
  84 H :    0.027544
  85 H :    0.028464
  86 H :    0.018733
  87 H :    0.024959

  Mayer bond orders larger than 0.100000
B(  0-C ,  1-C ) :   1.8652 B(  0-C , 65-H ) :   0.9514 B(  0-C , 66-H ) :   0.9426
B(  1-C ,  2-C ) :   1.0782 B(  1-C ,  5-S ) :   1.0072 B(  2-C ,  3-C ) :   1.6678
B(  2-C , 67-H ) :   0.9930 B(  3-C ,  4-C ) :   1.1467 B(  3-C , 68-H ) :   0.9917
B(  4-C ,  5-S ) :   1.0359 B(  4-C ,  6-C ) :   1.5790 B(  6-C ,  7-C ) :   1.1622
B(  6-C , 10-S ) :   1.0308 B(  7-C ,  8-C ) :   1.6373 B(  7-C , 69-H ) :   0.9913
B(  8-C ,  9-C ) :   1.1365 B(  8-C , 70-H ) :   0.9946 B(  9-C , 10-S ) :   0.9997
B(  9-C , 11-C ) :   1.6227 B( 11-C , 12-N ) :   1.1419 B( 11-C , 71-H ) :   0.9530
B( 12-N , 13-C ) :   1.2233 B( 12-N , 72-H ) :   0.9010 B( 13-C , 14-S ) :   1.1338
B( 13-C , 20-C ) :   1.3781 B( 14-S , 15-C ) :   1.0690 B( 15-C , 16-N ) :   0.9874
B( 15-C , 19-C ) :   1.4675 B( 16-N , 17-O ) :   1.5231 B( 16-N , 18-O ) :   1.4983
B( 17-O , 18-O ) :   0.2509 B( 19-C , 20-C ) :   1.2643 B( 19-C , 73-H ) :   1.0032
B( 20-C , 21-C ) :   1.0182 B( 21-C , 22-C ) :   1.7632 B( 21-C , 74-H ) :   0.9561
B( 22-C , 23-C ) :   1.1208 B( 22-C , 75-H ) :   0.9505 B( 23-C , 24-C ) :   1.2734
B( 23-C , 34-C ) :   0.1283 B( 23-C , 36-C ) :   1.2144 B( 24-C , 25-C ) :   1.0855
B( 24-C , 29-N ) :   1.4356 B( 25-C , 26-N ) :   1.4322 B( 25-C , 34-C ) :   1.2971
B( 26-N , 27-C ) :   1.7531 B( 27-C , 28-C ) :   1.1677 B( 27-C , 32-C ) :   1.1432
B( 28-C , 29-N ) :   1.7657 B( 28-C , 30-C ) :   1.1462 B( 30-C , 31-N ) :   3.0268
B( 32-C , 33-N ) :   3.0329 B( 34-C , 35-C ) :   1.2515 B( 34-C , 40-C ) :   1.0785
B( 35-C , 36-C ) :   1.1250 B( 35-C , 39-N ) :   1.5051 B( 36-C , 37-N ) :   1.4862
B( 37-N , 38-S ) :   1.2935 B( 37-N , 39-N ) :   0.1570 B( 38-S , 39-N ) :   1.2974
B( 40-C , 41-C ) :   1.5584 B( 40-C , 48-S ) :   1.0901 B( 41-C , 42-C ) :   1.1766
B( 41-C , 51-C ) :   0.9351 B( 42-C , 43-C ) :   1.2955 B( 42-C , 47-C ) :   1.2926
B( 43-C , 44-C ) :   1.4192 B( 43-C , 76-H ) :   0.9929 B( 44-C , 45-C ) :   1.3138
B( 44-C , 49-C ) :   1.0599 B( 45-C , 46-C ) :   1.4417 B( 45-C , 77-H ) :   0.9919
B( 46-C , 47-C ) :   1.3246 B( 46-C , 78-H ) :   0.9949 B( 47-C , 48-S ) :   1.0703
B( 49-C , 50-N ) :   3.0547 B( 51-C , 52-C ) :   1.2070 B( 51-C , 62-C ) :   1.5010
B( 52-C , 53-C ) :   1.3848 B( 52-C , 79-H ) :   1.0122 B( 53-C , 54-C ) :   1.1174
B( 53-C , 61-C ) :   1.1546 B( 54-C , 55-C ) :   1.4581 B( 54-C , 80-H ) :   1.0099
B( 55-C , 56-C ) :   1.0952 B( 55-C , 59-C ) :   1.1358 B( 56-C , 57-C ) :   1.4987
B( 56-C , 81-H ) :   1.0108 B( 57-C , 58-C ) :   1.1635 B( 57-C , 63-C ) :   1.0749
B( 58-C , 59-C ) :   1.3811 B( 58-C , 82-H ) :   1.0120 B( 59-C , 60-C ) :   1.1695
B( 60-C , 61-C ) :   1.3926 B( 60-C , 83-H ) :   1.0057 B( 61-C , 62-C ) :   1.1093
B( 62-C , 84-H ) :   1.0176 B( 63-C , 64-C ) :   1.9513 B( 63-C , 85-H ) :   0.9643
B( 64-C , 86-H ) :   0.9521 B( 64-C , 87-H ) :   0.9482

-----------------------------------------------------------------------------
         ABSORPTION SPECTRUM VIA TRANSITION ELECTRIC DIPOLE MOMENTS
-----------------------------------------------------------------------------
State   Energy  Wavelength   fosc         T2         TX        TY        TZ
        (cm-1)    (nm)                  (au**2)     (au)      (au)      (au)
-----------------------------------------------------------------------------
   0    7271.2   1375.3   0.070479740   3.19106   0.70571   0.91767  -1.36049
   1    8178.7   1222.7   0.002662237   0.10716   0.19022  -0.11984   0.23794
   2    9114.3   1097.2   0.002263608   0.08176  -0.12753  -0.24211   0.08296
   3   13447.9    743.6   0.030425585   0.74484  -0.71842  -0.31873   0.35654
   4   15692.6    637.2   0.231048165   4.84710   1.22346   1.25153  -1.33564
   5   16591.2    602.7   0.011467946   0.22755  -0.12199   0.20224  -0.41445
   6   19025.0    525.6   0.046474234   0.80420  -0.12327  -0.01912  -0.88805
   7   19228.7    520.1   1.339849714  22.93941   0.79698  -0.09328  -4.72181
   8   20352.2    491.3   0.058143489   0.94051  -0.95870   0.04158   0.14030
   9   20550.6    486.6   0.064487179   1.03306  -0.62827   0.78824  -0.13042
  10   21864.1    457.4   0.023850053   0.35912  -0.33149  -0.47904   0.14055
  11   23088.0    433.1   0.331334222   4.72450  -1.79141   1.19567   0.29282
  12   24378.3    410.2   0.073977533   0.99902  -0.00954  -0.83766   0.54521
  13   24906.5    401.5   0.177264206   2.34307   0.07125  -1.35330   0.71174
  14   25175.5    397.2   0.058748689   0.76824   0.14934   0.44272  -0.74158
  15   25482.2    392.4   0.119000792   1.53741   0.20603  -0.39657   1.15658
  16   25508.5    392.0   0.044285351   0.57155  -0.27993   0.00901   0.70222
  17   26356.3    379.4   0.006531996   0.08159   0.07287   0.09929   0.25772
  18   26649.8    375.2   0.082641040   1.02088  -0.48516   0.86592  -0.18894
  19   26843.3    372.5   0.061116799   0.74955   0.73080  -0.42633   0.18364
  20   27278.0    366.6   0.047590665   0.57436  -0.35683   0.60290  -0.28904
  21   27860.4    358.9   0.033495911   0.39580   0.08668   0.58739   0.20799
  22   28133.4    355.4   0.003634748   0.04253   0.05809  -0.09508  -0.17355
  23   28447.4    351.5   0.060970750   0.70559   0.25184   0.65118  -0.46705
  24   29061.4    344.1   0.072804657   0.82474   0.75293  -0.50748  -0.01724
  25   29568.5    338.2   0.030911593   0.34417  -0.14976  -0.16453   0.54283
  26   29971.1    333.7   0.008349990   0.09172  -0.09465   0.14661   0.24752
  27   30138.7    331.8   0.028323726   0.30939   0.45693  -0.25878   0.18338
  28   30691.5    325.8   0.250429023   2.68622   0.75806  -1.45301   0.01786
  29   30791.2    324.8   0.003415378   0.03652  -0.09993  -0.16102  -0.02452
  30   30942.3    323.2   0.005959303   0.06340  -0.13483   0.13155   0.16709
  31   31120.3    321.3   0.019418697   0.20542   0.01544   0.31128   0.32907
  32   32028.4    312.2   0.052613297   0.54080  -0.25331   0.62556  -0.29207
  33   32275.8    309.8   0.140303168   1.43109  -1.13872   0.25980  -0.25866
  34   32865.5    304.3   0.050147555   0.50233   0.14343   0.67848   0.14634
  35   33186.7    301.3   0.470202523   4.66440  -1.22640   1.14982  -1.35583
  36   33732.6    296.4   0.050072293   0.48868  -0.60384   0.33018   0.12262
  37   33932.5    294.7   0.088690669   0.86047  -0.67903   0.25729  -0.57723
  38   34071.2    293.5   0.003739171   0.03613  -0.03327   0.00666  -0.18702
  39   34229.2    292.1   0.119101650   1.14550  -0.71297  -0.79536   0.06769
  40   34589.4    289.1   0.000522677   0.00497   0.00239   0.04755  -0.05204
  41   34755.5    287.7   0.042624237   0.40375  -0.21811  -0.42472   0.41927
  42   34912.2    286.4   0.004993825   0.04709  -0.04228   0.08901   0.19334
  43   34921.1    286.4   0.033514728   0.31595  -0.02666   0.39316   0.40084
  44   35338.6    283.0   0.251360621   2.34166  -1.33429   0.66861  -0.33806
  45   35550.4    281.3   0.127684572   1.18242  -1.07472   0.03087  -0.16262
  46   35714.0    280.0   0.233899157   2.15608   0.09673   1.25520  -0.75577
  47   35900.1    278.6   0.270312729   2.47883  -1.47303   0.09271   0.54810
  48   36169.0    276.5   0.412318559   3.75294  -1.58007   1.06041   0.36310
  49   36392.0    274.8   0.134241672   1.21439   1.04856  -0.33243   0.06633
  50   36629.6    273.0   0.105599855   0.94909   0.86784   0.01176  -0.44250
  51   36725.6    272.3   0.153323303   1.37440  -0.86422  -0.40242   0.68234
  52   36914.7    270.9   0.098706691   0.88028   0.91403  -0.13928  -0.15946
  53   36961.7    270.6   0.155197247   1.38232   0.90104  -0.61626   0.43666
  54   37158.6    269.1   0.113344514   1.00419   0.96833  -0.25763   0.01289
  55   37465.2    266.9   0.014648601   0.12872  -0.27652   0.17153  -0.15111
  56   37558.8    266.2   0.020915229   0.18333   0.39876  -0.03354  -0.15228
  57   37647.6    265.6   0.021942600   0.19188  -0.35358   0.07338   0.24794
  58   37760.8    264.8   0.006542818   0.05704   0.22365  -0.02703   0.07933
  59   37779.8    264.7   0.006419751   0.05594   0.09132  -0.13364   0.17246
  60   38143.9    262.2   0.200698805   1.73219  -1.04274   0.48599  -0.63929
  61   38294.6    261.1   0.030463964   0.26189  -0.50143   0.08800  -0.05209
  62   38437.2    260.2   0.093850457   0.80382   0.17452  -0.63996   0.60318
  63   38628.1    258.9   0.093102180   0.79347  -0.81612   0.25619  -0.24856
  64   38844.4    257.4   0.010770502   0.09128   0.30192   0.01124  -0.00163
  65   38984.7    256.5   0.014437882   0.12192   0.31934  -0.12648   0.06281
  66   39049.2    256.1   0.002606924   0.02198  -0.06833  -0.02271   0.12959
  67   39211.9    255.0   0.012214986   0.10255  -0.31370   0.06371   0.00917
  68   39314.6    254.4   0.037322401   0.31253   0.45802  -0.30740   0.09087
  69   39501.0    253.2   0.015010354   0.12510   0.32793  -0.04738   0.12377
  70   39882.0    250.7   0.006127346   0.05058  -0.21806  -0.04566  -0.03074
  71   40142.8    249.1   0.021586610   0.17703  -0.20534  -0.24791   0.27094

FINAL SINGLE POINT ENERGY     -4511.111223069732

DIPOLE MOMENT
-------------
                                X             Y             Z
Electronic contribution:     26.13459     -30.61388     -21.07200
Nuclear contribution   :    -27.08289      30.92155      24.94659
                        -----------------------------------------
Total Dipole Moment    :     -0.94830       0.30767       3.87459
                        -----------------------------------------
Magnitude (a.u.)       :      4.00080
Magnitude (Debye)      :     10.16922

Rotational constants in cm-1:     0.001347     0.000516     0.000448
Rotational constants in MHz :    40.396053    15.464972    13.432128

                             ****ORCA TERMINATED NORMALLY****
TOTAL RUN TIME: 0 days 0 hours 10 minutes 7 seconds 914 msec
