                         Program Version 4.2.0 -  RELEASE  -
|  1> # ORCA input file
|  2> # SCF done       -154.700853203858          0.000772412281
|  3> ! CAM-B3LYP def2-SVP def2/J RIJCOSX Grid4 TightSCF
|  4> %maxcore 5000
|  5> %tddft
|  6>     Mode sTDDFT
|  7>     Ethresh 5.0
|  8>     maxcore 5000
|  9> end
| 10>
| 11> %pal
| 12>   nprocs 6
| 13>   end
| 14> * xyz 0 1
| 15>    C      -19.08969         2.04969        10.14867
| 16>    C      -19.51901         2.32267         8.82261
| 17>    C      -20.61255         3.14540         8.63218
| 18>    C      -21.29201         3.70229         9.72490
| 19>    C      -20.85002         3.41853        11.04871
| 20>    C      -19.73135         2.57824        11.22801
| 21>    N      -21.48458         3.94026        12.11651
| 22>    C      -22.51445         4.70931        11.88003
| 23>    C      -22.95487         4.99067        10.56993
| 24>    N      -22.36204         4.50230         9.51501
| 25>    C      -18.82383         1.74664         7.69623
| 26>    S      -19.33170         2.10911         6.06989
| 27>    C      -18.08015         1.09528         5.40508
| 28>    C      -17.32747         0.52091         6.40548
| 29>    C      -17.74652         0.88927         7.68569
| 30>    C      -17.94267         0.94917         4.03487
| 31>    C      -17.85471         0.84319         2.82786
| 32>    C      -17.74859         0.72080         1.44882
| 33>    C      -18.54818         1.40163         0.59567
| 34>    C      -18.48219         1.32184        -0.81979
| 35>    S      -17.35122         0.28713        -1.65225
| 36>    C      -17.94285         0.82510        -3.20257
| 37>    C      -18.95978         1.74775        -3.05356
| 38>    C      -19.25991         2.02177        -1.72201
| 39>    C      -17.40943         0.35324        -4.38730
| 40>    C      -16.92939        -0.05542        -5.42733
| 41>    C      -16.40663        -0.48070        -6.63879
| 42>    C      -16.76415         0.09038        -7.81674
| 43>    C      -16.23227        -0.30579        -9.07808
| 44>    C      -16.52939         0.30083       -10.27606
| 45>    O      -15.95885        -0.10218       -11.47060
| 46>    C      -15.09015        -1.14521       -11.39030
| 47>    C      -14.78801        -1.77992       -10.15095
| 48>    C      -13.90423        -2.79914       -10.28288
| 49>    S      -13.42422        -3.00105       -11.92822
| 50>    C      -14.42911        -1.69499       -12.43840
| 51>    O      -15.34876        -1.37325        -8.98161
| 52>    C      -17.43303         1.39797       -10.42401
| 53>    C      -17.62731         2.04524       -11.59610
| 54>    C      -18.50894         3.15759       -11.82137
| 55>    C      -18.44300         3.82304       -13.02618
| 56>    C      -19.26929         4.93639       -13.27564
| 57>    C      -19.36722         5.77328       -14.37685
| 58>    C      -18.54629         5.69412       -15.62185
| 59>    C      -19.40090         5.67512       -16.90100
| 60>    N      -18.73382         4.87959       -17.91728
| 61>    C      -17.51110         6.83354       -15.65145
| 62>    N      -16.50257         6.59171       -14.63584
| 63>    C      -20.36934         6.76384       -14.05957
| 64>    C      -20.84766         7.81765       -14.74796
| 65>    C      -21.87385         8.73444       -14.17659
| 66>    C      -22.39248         8.33106       -12.83328
| 67>    C      -21.90681         7.27747       -12.15302
| 68>    C      -20.88715         6.46956       -12.71208
| 69>    C      -20.20967         5.36435       -12.24671
| 70>    C      -20.27413         4.64843       -11.02678
| 71>    C      -19.45164         3.59130       -10.82560
| 72>    C      -21.25743        10.11408       -14.06520
| 73>    C      -21.67790        11.17539       -14.72529
| 74>    H      -18.23522         1.40952        10.30133
| 75>    H      -20.97110         3.37792         7.64045
| 76>    H      -19.40611         2.37221        12.23594
| 77>    H      -23.01844         5.12548        12.74222
| 78>    H      -23.81095         5.62885        10.39354
| 79>    H      -16.50365        -0.14056         6.20442
| 80>    H      -17.26545         0.52733         8.57645
| 81>    H      -16.98769         0.04927         1.06947
| 82>    H      -19.30105         2.06952         0.99480
| 83>    H      -19.45641         2.19605        -3.89568
| 84>    H      -20.02213         2.71426        -1.41037
| 85>    H      -15.68409        -1.28434        -6.61312
| 86>    H      -17.47824         0.89704        -7.80216
| 87>    H      -13.51150        -3.43664        -9.51901
| 88>    H      -14.47398        -1.41223       -13.46901
| 89>    H      -17.95956         1.70705        -9.53787
| 90>    H      -17.05112         1.72583       -12.45402
| 91>    H      -17.73796         3.50317       -13.77950
| 92>    H      -17.98778         4.75451       -15.60459
| 93>    H      -19.60670         6.70827       -17.22944
| 94>    H      -20.35929         5.19320       -16.68742
| 95>    H      -17.83222         5.28379       -18.14740
| 96>    H      -19.28687         4.84614       -18.76638
| 97>    H      -18.03302         7.79945       -15.53032
| 98>    H      -17.00065         6.84485       -16.61990
| 99>    H      -16.94293         6.51062       -13.72472
|100>    H      -15.83898         7.35738       -14.59811
|101>    H      -20.48905         8.07303       -15.73504
|102>    H      -22.71160         8.80338       -14.88446
|103>    H      -23.16734         8.95978       -12.42103
|104>    H      -22.29409         7.02636       -11.17575
|105>    H      -20.98069         4.95447       -10.26852
|106>    H      -19.51071         3.04225        -9.89882
|107>    H      -20.42619        10.17535       -13.37625
|108>    H      -22.50758        11.13119       -15.41219
|109>    H      -21.21160        12.13848       -14.60386
|110> *
|111>
|112>                          ****END OF INPUT****

CARTESIAN COORDINATES (ANGSTROEM)
---------------------------------
  C    -19.089690    2.049690   10.148670
  C    -19.519010    2.322670    8.822610
  C    -20.612550    3.145400    8.632180
  C    -21.292010    3.702290    9.724900
  C    -20.850020    3.418530   11.048710
  C    -19.731350    2.578240   11.228010
  N    -21.484580    3.940260   12.116510
  C    -22.514450    4.709310   11.880030
  C    -22.954870    4.990670   10.569930
  N    -22.362040    4.502300    9.515010
  C    -18.823830    1.746640    7.696230
  S    -19.331700    2.109110    6.069890
  C    -18.080150    1.095280    5.405080
  C    -17.327470    0.520910    6.405480
  C    -17.746520    0.889270    7.685690
  C    -17.942670    0.949170    4.034870
  C    -17.854710    0.843190    2.827860
  C    -17.748590    0.720800    1.448820
  C    -18.548180    1.401630    0.595670
  C    -18.482190    1.321840   -0.819790
  S    -17.351220    0.287130   -1.652250
  C    -17.942850    0.825100   -3.202570
  C    -18.959780    1.747750   -3.053560
  C    -19.259910    2.021770   -1.722010
  C    -17.409430    0.353240   -4.387300
  C    -16.929390   -0.055420   -5.427330
  C    -16.406630   -0.480700   -6.638790
  C    -16.764150    0.090380   -7.816740
  C    -16.232270   -0.305790   -9.078080
  C    -16.529390    0.300830  -10.276060
  O    -15.958850   -0.102180  -11.470600
  C    -15.090150   -1.145210  -11.390300
  C    -14.788010   -1.779920  -10.150950
  C    -13.904230   -2.799140  -10.282880
  S    -13.424220   -3.001050  -11.928220
  C    -14.429110   -1.694990  -12.438400
  O    -15.348760   -1.373250   -8.981610
  C    -17.433030    1.397970  -10.424010
  C    -17.627310    2.045240  -11.596100
  C    -18.508940    3.157590  -11.821370
  C    -18.443000    3.823040  -13.026180
  C    -19.269290    4.936390  -13.275640
  C    -19.367220    5.773280  -14.376850
  C    -18.546290    5.694120  -15.621850
  C    -19.400900    5.675120  -16.901000
  N    -18.733820    4.879590  -17.917280
  C    -17.511100    6.833540  -15.651450
  N    -16.502570    6.591710  -14.635840
  C    -20.369340    6.763840  -14.059570
  C    -20.847660    7.817650  -14.747960
  C    -21.873850    8.734440  -14.176590
  C    -22.392480    8.331060  -12.833280
  C    -21.906810    7.277470  -12.153020
  C    -20.887150    6.469560  -12.712080
  C    -20.209670    5.364350  -12.246710
  C    -20.274130    4.648430  -11.026780
  C    -19.451640    3.591300  -10.825600
  C    -21.257430   10.114080  -14.065200
  C    -21.677900   11.175390  -14.725290
  H    -18.235220    1.409520   10.301330
  H    -20.971100    3.377920    7.640450
  H    -19.406110    2.372210   12.235940
  H    -23.018440    5.125480   12.742220
  H    -23.810950    5.628850   10.393540
  H    -16.503650   -0.140560    6.204420
  H    -17.265450    0.527330    8.576450
  H    -16.987690    0.049270    1.069470
  H    -19.301050    2.069520    0.994800
  H    -19.456410    2.196050   -3.895680
  H    -20.022130    2.714260   -1.410370
  H    -15.684090   -1.284340   -6.613120
  H    -17.478240    0.897040   -7.802160
  H    -13.511500   -3.436640   -9.519010
  H    -14.473980   -1.412230  -13.469010
  H    -17.959560    1.707050   -9.537870
  H    -17.051120    1.725830  -12.454020
  H    -17.737960    3.503170  -13.779500
  H    -17.987780    4.754510  -15.604590
  H    -19.606700    6.708270  -17.229440
  H    -20.359290    5.193200  -16.687420
  H    -17.832220    5.283790  -18.147400
  H    -19.286870    4.846140  -18.766380
  H    -18.033020    7.799450  -15.530320
  H    -17.000650    6.844850  -16.619900
  H    -16.942930    6.510620  -13.724720
  H    -15.838980    7.357380  -14.598110
  H    -20.489050    8.073030  -15.735040
  H    -22.711600    8.803380  -14.884460
  H    -23.167340    8.959780  -12.421030
  H    -22.294090    7.026360  -11.175750
  H    -20.980690    4.954470  -10.268520
  H    -19.510710    3.042250   -9.898820
  H    -20.426190   10.175350  -13.376250
  H    -22.507580   11.131190  -15.412190
  H    -21.211600   12.138480  -14.603860

 Total Charge           Charge          ....    0
 Multiplicity           Mult            ....    1
 Number of Electrons    NEL             ....  428
 Basis Dimension        Dim             .... 1018

ORBITAL ENERGIES
----------------

  NO   OCC          E(Eh)            E(eV)
   0   2.0000     -88.953062     -2420.5359
   1   2.0000     -88.951994     -2420.5068
   2   2.0000     -88.950249     -2420.4593
   3   2.0000     -19.268476      -524.3219
   4   2.0000     -19.265813      -524.2494
   5   2.0000     -14.414497      -392.2384
   6   2.0000     -14.413583      -392.2135
   7   2.0000     -14.373569      -391.1247
   8   2.0000     -14.369177      -391.0052
   9   2.0000     -10.342213      -281.4259
  10   2.0000     -10.337244      -281.2907
  11   2.0000     -10.333155      -281.1794
  12   2.0000     -10.332880      -281.1720
  13   2.0000     -10.309898      -280.5466
  14   2.0000     -10.309614      -280.5389
  15   2.0000     -10.308732      -280.5149
  16   2.0000     -10.307810      -280.4898
  17   2.0000     -10.306719      -280.4601
  18   2.0000     -10.305688      -280.4320
  19   2.0000     -10.300659      -280.2952
  20   2.0000     -10.298260      -280.2299
  21   2.0000     -10.295874      -280.1650
  22   2.0000     -10.293286      -280.0946
  23   2.0000     -10.288935      -279.9761
  24   2.0000     -10.286817      -279.9185
  25   2.0000     -10.286681      -279.9148
  26   2.0000     -10.286294      -279.9043
  27   2.0000     -10.285841      -279.8920
  28   2.0000     -10.283124      -279.8180
  29   2.0000     -10.282222      -279.7935
  30   2.0000     -10.280874      -279.7568
  31   2.0000     -10.279760      -279.7265
  32   2.0000     -10.278218      -279.6845
  33   2.0000     -10.278142      -279.6825
  34   2.0000     -10.274267      -279.5770
  35   2.0000     -10.273811      -279.5646
  36   2.0000     -10.273400      -279.5534
  37   2.0000     -10.273072      -279.5445
  38   2.0000     -10.272611      -279.5320
  39   2.0000     -10.272594      -279.5315
  40   2.0000     -10.272284      -279.5231
  41   2.0000     -10.270659      -279.4788
  42   2.0000     -10.270519      -279.4750
  43   2.0000     -10.270193      -279.4662
  44   2.0000     -10.269177      -279.4385
  45   2.0000     -10.269023      -279.4343
  46   2.0000     -10.268686      -279.4252
  47   2.0000     -10.268361      -279.4163
  48   2.0000     -10.266606      -279.3685
  49   2.0000     -10.266559      -279.3673
  50   2.0000     -10.266382      -279.3625
  51   2.0000     -10.264589      -279.3137
  52   2.0000     -10.261840      -279.2389
  53   2.0000     -10.261171      -279.2207
  54   2.0000     -10.258861      -279.1578
  55   2.0000     -10.258344      -279.1437
  56   2.0000     -10.256595      -279.0961
  57   2.0000     -10.256373      -279.0901
  58   2.0000     -10.254702      -279.0446
  59   2.0000      -8.048490      -219.0105
  60   2.0000      -8.047512      -218.9839
  61   2.0000      -8.046024      -218.9435
  62   2.0000      -6.017743      -163.7511
  63   2.0000      -6.016816      -163.7259
  64   2.0000      -6.015536      -163.6911
  65   2.0000      -6.013645      -163.6396
  66   2.0000      -6.012717      -163.6143
  67   2.0000      -6.011397      -163.5784
  68   2.0000      -6.010636      -163.5577
  69   2.0000      -6.009572      -163.5288
  70   2.0000      -6.007673      -163.4771
  71   2.0000      -1.192921       -32.4610
  72   2.0000      -1.155853       -31.4523
  73   2.0000      -1.068888       -29.0859
  74   2.0000      -0.991963       -26.9927
  75   2.0000      -0.984471       -26.7888
  76   2.0000      -0.980686       -26.6858
  77   2.0000      -0.979260       -26.6470
  78   2.0000      -0.978623       -26.6297
  79   2.0000      -0.960202       -26.1284
  80   2.0000      -0.945313       -25.7233
  81   2.0000      -0.945169       -25.7194
  82   2.0000      -0.939729       -25.5713
  83   2.0000      -0.919695       -25.0262
  84   2.0000      -0.908892       -24.7322
  85   2.0000      -0.905019       -24.6268
  86   2.0000      -0.886592       -24.1254
  87   2.0000      -0.875681       -23.8285
  88   2.0000      -0.869703       -23.6658
  89   2.0000      -0.862337       -23.4654
  90   2.0000      -0.851904       -23.1815
  91   2.0000      -0.844483       -22.9795
  92   2.0000      -0.842490       -22.9253
  93   2.0000      -0.832480       -22.6529
  94   2.0000      -0.831283       -22.6203
  95   2.0000      -0.825451       -22.4617
  96   2.0000      -0.825051       -22.4508
  97   2.0000      -0.818304       -22.2672
  98   2.0000      -0.816997       -22.2316
  99   2.0000      -0.807029       -21.9604
 100   2.0000      -0.799575       -21.7575
 101   2.0000      -0.784968       -21.3601
 102   2.0000      -0.776523       -21.1303
 103   2.0000      -0.752223       -20.4690
 104   2.0000      -0.750842       -20.4315
 105   2.0000      -0.742143       -20.1947
 106   2.0000      -0.734034       -19.9741
 107   2.0000      -0.724379       -19.7114
 108   2.0000      -0.716713       -19.5028
 109   2.0000      -0.711207       -19.3529
 110   2.0000      -0.696752       -18.9596
 111   2.0000      -0.693145       -18.8614
 112   2.0000      -0.680465       -18.5164
 113   2.0000      -0.680110       -18.5067
 114   2.0000      -0.674740       -18.3606
 115   2.0000      -0.670452       -18.2439
 116   2.0000      -0.661896       -18.0111
 117   2.0000      -0.654052       -17.7977
 118   2.0000      -0.652494       -17.7553
 119   2.0000      -0.649165       -17.6647
 120   2.0000      -0.648622       -17.6499
 121   2.0000      -0.634194       -17.2573
 122   2.0000      -0.621755       -16.9188
 123   2.0000      -0.621215       -16.9041
 124   2.0000      -0.620992       -16.8980
 125   2.0000      -0.611389       -16.6367
 126   2.0000      -0.607490       -16.5306
 127   2.0000      -0.592720       -16.1287
 128   2.0000      -0.590131       -16.0583
 129   2.0000      -0.584613       -15.9081
 130   2.0000      -0.581775       -15.8309
 131   2.0000      -0.579288       -15.7632
 132   2.0000      -0.574507       -15.6331
 133   2.0000      -0.567960       -15.4550
 134   2.0000      -0.564720       -15.3668
 135   2.0000      -0.562622       -15.3097
 136   2.0000      -0.559457       -15.2236
 137   2.0000      -0.555169       -15.1069
 138   2.0000      -0.553001       -15.0479
 139   2.0000      -0.546475       -14.8704
 140   2.0000      -0.532750       -14.4969
 141   2.0000      -0.530420       -14.4335
 142   2.0000      -0.528750       -14.3880
 143   2.0000      -0.527878       -14.3643
 144   2.0000      -0.523300       -14.2397
 145   2.0000      -0.521554       -14.1922
 146   2.0000      -0.519901       -14.1472
 147   2.0000      -0.519325       -14.1315
 148   2.0000      -0.519227       -14.1289
 149   2.0000      -0.514729       -14.0065
 150   2.0000      -0.508000       -13.8234
 151   2.0000      -0.505887       -13.7659
 152   2.0000      -0.504096       -13.7171
 153   2.0000      -0.499228       -13.5847
 154   2.0000      -0.496508       -13.5107
 155   2.0000      -0.493055       -13.4167
 156   2.0000      -0.492696       -13.4069
 157   2.0000      -0.490290       -13.3415
 158   2.0000      -0.487288       -13.2598
 159   2.0000      -0.485937       -13.2230
 160   2.0000      -0.484213       -13.1761
 161   2.0000      -0.480777       -13.0826
 162   2.0000      -0.478411       -13.0182
 163   2.0000      -0.474810       -12.9202
 164   2.0000      -0.473331       -12.8800
 165   2.0000      -0.469958       -12.7882
 166   2.0000      -0.468433       -12.7467
 167   2.0000      -0.467736       -12.7277
 168   2.0000      -0.462417       -12.5830
 169   2.0000      -0.459281       -12.4977
 170   2.0000      -0.458870       -12.4865
 171   2.0000      -0.454289       -12.3618
 172   2.0000      -0.447671       -12.1817
 173   2.0000      -0.441922       -12.0253
 174   2.0000      -0.440878       -11.9969
 175   2.0000      -0.439597       -11.9620
 176   2.0000      -0.431922       -11.7532
 177   2.0000      -0.431211       -11.7338
 178   2.0000      -0.426374       -11.6022
 179   2.0000      -0.425649       -11.5825
 180   2.0000      -0.424811       -11.5597
 181   2.0000      -0.416897       -11.3443
 182   2.0000      -0.413409       -11.2494
 183   2.0000      -0.412399       -11.2219
 184   2.0000      -0.410016       -11.1571
 185   2.0000      -0.409157       -11.1337
 186   2.0000      -0.408256       -11.1092
 187   2.0000      -0.407295       -11.0831
 188   2.0000      -0.402247       -10.9457
 189   2.0000      -0.386898       -10.5280
 190   2.0000      -0.384667       -10.4673
 191   2.0000      -0.381462       -10.3801
 192   2.0000      -0.377123       -10.2620
 193   2.0000      -0.369949       -10.0668
 194   2.0000      -0.365985        -9.9590
 195   2.0000      -0.350550        -9.5390
 196   2.0000      -0.343466        -9.3462
 197   2.0000      -0.339391        -9.2353
 198   2.0000      -0.335222        -9.1218
 199   2.0000      -0.331022        -9.0076
 200   2.0000      -0.323103        -8.7921
 201   2.0000      -0.321736        -8.7549
 202   2.0000      -0.319818        -8.7027
 203   2.0000      -0.313509        -8.5310
 204   2.0000      -0.312532        -8.5044
 205   2.0000      -0.307116        -8.3571
 206   2.0000      -0.299634        -8.1535
 207   2.0000      -0.296831        -8.0772
 208   2.0000      -0.292169        -7.9503
 209   2.0000      -0.282727        -7.6934
 210   2.0000      -0.275118        -7.4863
 211   2.0000      -0.246920        -6.7190
 212   2.0000      -0.228186        -6.2093
 213   2.0000      -0.212132        -5.7724
 214   0.0000      -0.069496        -1.8911
 215   0.0000      -0.057094        -1.5536
 216   0.0000      -0.038323        -1.0428
 217   0.0000      -0.020010        -0.5445
 218   0.0000      -0.002769        -0.0754

MULLIKEN ATOMIC CHARGES
-----------------------
   0 C :   -0.012883
   1 C :    0.195756
   2 C :   -0.099873
   3 C :    0.009196
   4 C :   -0.037037
   5 C :    0.015303
   6 N :   -0.014381
   7 C :    0.018345
   8 C :    0.019370
   9 N :   -0.017658
  10 C :   -0.075748
  11 S :    0.142511
  12 C :   -0.132132
  13 C :    0.056417
  14 C :   -0.010097
  15 C :    0.050153
  16 C :   -0.022555
  17 C :   -0.093564
  18 C :    0.043867
  19 C :   -0.063114
  20 S :    0.142512
  21 C :   -0.144280
  22 C :    0.053736
  23 C :    0.012672
  24 C :    0.052944
  25 C :   -0.012952
  26 C :   -0.065887
  27 C :   -0.043198
  28 C :    0.150928
  29 C :    0.195721
  30 O :   -0.254268
  31 C :    0.218724
  32 C :    0.224779
  33 C :   -0.176799
  34 S :    0.103932
  35 C :   -0.175254
  36 O :   -0.261926
  37 C :   -0.060125
  38 C :    0.011500
  39 C :    0.123385
  40 C :   -0.100247
  41 C :    0.051143
  42 C :   -0.075486
  43 C :   -0.035907
  44 C :    0.130780
  45 N :   -0.210161
  46 C :    0.164728
  47 N :   -0.226644
  48 C :    0.108798
  49 C :   -0.134439
  50 C :    0.116872
  51 C :   -0.045611
  52 C :    0.022772
  53 C :    0.003812
  54 C :    0.036569
  55 C :   -0.000729
  56 C :   -0.002801
  57 C :   -0.040496
  58 C :   -0.018838
  59 H :   -0.021534
  60 H :   -0.019758
  61 H :   -0.025287
  62 H :    0.008219
  63 H :    0.009501
  64 H :   -0.012522
  65 H :   -0.015798
  66 H :    0.030140
  67 H :    0.002611
  68 H :   -0.013598
  69 H :   -0.014142
  70 H :    0.033168
  71 H :    0.002067
  72 H :    0.022768
  73 H :    0.024635
  74 H :   -0.012641
  75 H :   -0.004836
  76 H :   -0.028838
  77 H :   -0.009954
  78 H :   -0.022835
  79 H :    0.001381
  80 H :    0.086098
  81 H :    0.088563
  82 H :   -0.027482
  83 H :   -0.021670
  84 H :    0.098394
  85 H :    0.088447
  86 H :   -0.009307
  87 H :    0.023173
  88 H :   -0.010347
  89 H :   -0.036967
  90 H :   -0.040774
  91 H :   -0.037145
  92 H :    0.012091
  93 H :    0.016352
  94 H :    0.025693
Sum of atomic charges:   -0.0000000

LOEWDIN ATOMIC CHARGES
----------------------
   0 C :   -0.007528
   1 C :   -0.028490
   2 C :   -0.022283
   3 C :   -0.011770
   4 C :   -0.017552
   5 C :   -0.007663
   6 N :   -0.040507
   7 C :   -0.003838
   8 C :   -0.000043
   9 N :   -0.043274
  10 C :   -0.162716
  11 S :    0.453442
  12 C :   -0.181495
  13 C :   -0.038797
  14 C :   -0.055832
  15 C :   -0.062818
  16 C :   -0.022779
  17 C :   -0.053817
  18 C :   -0.010889
  19 C :   -0.171184
  20 S :    0.441937
  21 C :   -0.178900
  22 C :   -0.040471
  23 C :   -0.050811
  24 C :   -0.066409
  25 C :   -0.020405
  26 C :   -0.043012
  27 C :   -0.013201
  28 C :    0.016773
  29 C :    0.040153
  30 O :   -0.049807
  31 C :   -0.008664
  32 C :   -0.007525
  33 C :   -0.212770
  34 S :    0.431203
  35 C :   -0.210709
  36 O :   -0.057791
  37 C :   -0.051658
  38 C :    0.003762
  39 C :   -0.029032
  40 C :   -0.006452
  41 C :   -0.021961
  42 C :   -0.040929
  43 C :   -0.038355
  44 C :    0.026304
  45 N :   -0.116817
  46 C :    0.026788
  47 N :   -0.120522
  48 C :   -0.018217
  49 C :    0.058953
  50 C :   -0.030326
  51 C :   -0.031355
  52 C :   -0.018300
  53 C :   -0.033785
  54 C :   -0.033257
  55 C :   -0.009434
  56 C :   -0.026222
  57 C :   -0.002623
  58 C :   -0.056936
  59 H :    0.029708
  60 H :    0.026356
  61 H :    0.035780
  62 H :    0.024338
  63 H :    0.024851
  64 H :    0.034368
  65 H :    0.029012
  66 H :    0.037265
  67 H :    0.040677
  68 H :    0.033439
  69 H :    0.031290
  70 H :    0.044573
  71 H :    0.036989
  72 H :    0.028280
  73 H :    0.028958
  74 H :    0.027856
  75 H :    0.032298
  76 H :    0.028626
  77 H :    0.031328
  78 H :   -0.005659
  79 H :    0.020074
  80 H :    0.048578
  81 H :    0.053641
  82 H :   -0.004711
  83 H :    0.008217
  84 H :    0.052752
  85 H :    0.053525
  86 H :    0.025475
  87 H :    0.052037
  88 H :    0.025121
  89 H :    0.029170
  90 H :    0.026064
  91 H :    0.022764
  92 H :    0.029490
  93 H :    0.021485
  94 H :    0.026602

  Mayer bond orders larger than 0.100000
B(  0-C ,  1-C ) :   1.2214 B(  0-C ,  5-C ) :   1.4905 B(  0-C , 59-H ) :   0.9944
B(  1-C ,  2-C ) :   1.3751 B(  1-C , 10-C ) :   1.0677 B(  2-C ,  3-C ) :   1.2464
B(  2-C , 60-H ) :   1.0023 B(  3-C ,  4-C ) :   1.2429 B(  3-C ,  9-N ) :   1.4319
B(  4-C ,  5-C ) :   1.2316 B(  4-C ,  6-N ) :   1.4409 B(  5-C , 61-H ) :   1.0030
B(  6-N ,  7-C ) :   1.6638 B(  7-C ,  8-C ) :   1.2303 B(  7-C , 62-H ) :   0.9740
B(  8-C ,  9-N ) :   1.6732 B(  8-C , 63-H ) :   0.9739 B( 10-C , 11-S ) :   1.1291
B( 10-C , 12-C ) :   0.1052 B( 10-C , 14-C ) :   1.5229 B( 11-S , 12-C ) :   1.1084
B( 12-C , 13-C ) :   1.5081 B( 12-C , 15-C ) :   0.9761 B( 13-C , 14-C ) :   1.2564
B( 13-C , 64-H ) :   1.0016 B( 14-C , 65-H ) :   0.9891 B( 15-C , 16-C ) :   2.2881
B( 16-C , 17-C ) :   1.0348 B( 17-C , 18-C ) :   1.6834 B( 17-C , 66-H ) :   0.9486
B( 18-C , 19-C ) :   1.1545 B( 18-C , 67-H ) :   0.9790 B( 19-C , 20-S ) :   1.1126
B( 19-C , 23-C ) :   1.4666 B( 20-S , 21-C ) :   1.1092 B( 21-C , 22-C ) :   1.4960
B( 21-C , 24-C ) :   0.9828 B( 22-C , 23-C ) :   1.2674 B( 22-C , 68-H ) :   1.0024
B( 23-C , 69-H ) :   1.0003 B( 24-C , 25-C ) :   2.2688 B( 25-C , 26-C ) :   0.9890
B( 26-C , 27-C ) :   1.6828 B( 26-C , 70-H ) :   0.9606 B( 27-C , 28-C ) :   1.1820
B( 27-C , 71-H ) :   0.9583 B( 28-C , 29-C ) :   1.4550 B( 28-C , 36-O ) :   1.0491
B( 29-C , 30-O ) :   1.0649 B( 29-C , 37-C ) :   1.1699 B( 30-O , 31-C ) :   1.0527
B( 31-C , 32-C ) :   1.2024 B( 31-C , 35-C ) :   1.5696 B( 32-C , 33-C ) :   1.5709
B( 32-C , 36-O ) :   1.0579 B( 33-C , 34-S ) :   1.1383 B( 33-C , 72-H ) :   0.9725
B( 34-S , 35-C ) :   1.1409 B( 35-C , 73-H ) :   0.9733 B( 37-C , 38-C ) :   1.6600
B( 37-C , 74-H ) :   0.9495 B( 38-C , 39-C ) :   1.0603 B( 38-C , 75-H ) :   0.9907
B( 39-C , 40-C ) :   1.5029 B( 39-C , 56-C ) :   1.1163 B( 40-C , 41-C ) :   1.1205
B( 40-C , 76-H ) :   1.0043 B( 41-C , 42-C ) :   1.4978 B( 41-C , 54-C ) :   1.1122
B( 42-C , 43-C ) :   1.0508 B( 42-C , 48-C ) :   1.0756 B( 43-C , 44-C ) :   1.0332
B( 43-C , 46-C ) :   1.0361 B( 43-C , 77-H ) :   0.8748 B( 44-C , 45-N ) :   1.1036
B( 44-C , 78-H ) :   0.9249 B( 44-C , 79-H ) :   0.9462 B( 45-N , 80-H ) :   0.9701
B( 45-N , 81-H ) :   0.9675 B( 46-C , 47-N ) :   1.0910 B( 46-C , 82-H ) :   0.9289
B( 46-C , 83-H ) :   0.9326 B( 47-N , 84-H ) :   0.9686 B( 47-N , 85-H ) :   0.9663
B( 48-C , 49-C ) :   1.6507 B( 48-C , 53-C ) :   1.0473 B( 49-C , 50-C ) :   0.9750
B( 49-C , 86-H ) :   0.9670 B( 50-C , 51-C ) :   0.9913 B( 50-C , 57-C ) :   0.9610
B( 50-C , 87-H ) :   0.8761 B( 51-C , 52-C ) :   1.7197 B( 51-C , 88-H ) :   0.9740
B( 52-C , 53-C ) :   1.1281 B( 52-C , 89-H ) :   0.9891 B( 53-C , 54-C ) :   1.4510
B( 54-C , 55-C ) :   1.1323 B( 55-C , 56-C ) :   1.6286 B( 55-C , 90-H ) :   0.9886
B( 56-C , 91-H ) :   0.9796 B( 57-C , 58-C ) :   2.0043 B( 57-C , 92-H ) :   0.9650
B( 58-C , 93-H ) :   0.9605 B( 58-C , 94-H ) :   0.9531

-----------------------------------------------------------------------------
         ABSORPTION SPECTRUM VIA TRANSITION ELECTRIC DIPOLE MOMENTS
-----------------------------------------------------------------------------
State   Energy  Wavelength   fosc         T2         TX        TY        TZ
        (cm-1)    (nm)                  (au**2)     (au)      (au)      (au)
-----------------------------------------------------------------------------
   0   14977.4    667.7   0.199939252   4.39479  -0.46808  -0.31720   2.01868
   1   19574.0    510.9   2.165381213  36.41914   0.27397  -1.15851   5.91624
   2   21895.3    456.7   0.065052091   0.97811   0.30079  -0.46981  -0.81665
   3   24481.9    408.5   0.953118117  12.81674  -1.61793   2.10423   2.40234
   4   26861.3    372.3   0.029350022   0.35971   0.28756  -0.31506   0.42161
   5   27652.5    361.6   0.018692066   0.22254  -0.18852   0.17630  -0.39486
   6   29008.4    344.7   0.073378144   0.83276   0.00468  -0.44394   0.79728
   7   29347.4    340.7   0.064046854   0.71846  -0.06131   0.67993  -0.50240
   8   30306.6    330.0   0.153404148   1.66638   0.40191  -0.57158   1.08543
   9   31323.0    319.3   0.094020756   0.98818  -0.36500   0.83868  -0.38933
  10   31785.8    314.6   0.076163630   0.78884   0.63132  -0.54140   0.31173
  11   32285.8    309.7   0.010984017   0.11200   0.18362   0.02345   0.27881
  12   32540.7    307.3   0.133623121   1.35185   0.53714  -0.85897   0.57054
  13   33662.6    297.1   0.475524336   4.65050   1.24540  -1.71384   0.40280
  14   34133.0    293.0   0.223290986   2.15364  -0.85365   1.19334  -0.02918
  15   34745.1    287.8   0.068094328   0.64520   0.18654   0.03178  -0.78063
  16   35786.6    279.4   0.105196760   0.96774  -0.40060   0.03328   0.89786
  17   36358.2    275.0   0.004955112   0.04487   0.04666  -0.07845   0.19114
  18   36659.0    272.8   0.121955027   1.09520  -0.53680   0.80201   0.40475
  19   37029.5    270.1   0.367247727   3.26503  -1.11809   1.41538  -0.10777
  20   37291.9    268.2   0.052661630   0.46490   0.49833  -0.46534  -0.00404
  21   37970.5    263.4   0.039161254   0.33954   0.12355   0.18890  -0.53721
  22   38025.7    263.0   0.298105068   2.58088   0.81931  -1.24481   0.60005
  23   38596.0    259.1   0.013401577   0.11431  -0.04506  -0.27502  -0.19142
  24   38904.4    257.0   0.011569402   0.09790  -0.04669  -0.18768   0.24596
  25   39648.3    252.2   0.112712878   0.93589  -0.64017   0.61506   0.38442

FINAL SINGLE POINT ENERGY     -3487.462773823897

DIPOLE MOMENT
-------------
                                X             Y             Z
Electronic contribution:     16.68903     -53.57343      93.09956
Nuclear contribution   :    -17.20898      55.30192     -94.51403
                        -----------------------------------------
Total Dipole Moment    :     -0.51995       1.72849      -1.41447
                        -----------------------------------------
Magnitude (a.u.)       :      2.29320
Magnitude (Debye)      :      5.82884

Rotational constants in cm-1:     0.001366     0.000227     0.000196
Rotational constants in MHz :    40.965216     6.795109     5.881954

                             ****ORCA TERMINATED NORMALLY****
TOTAL RUN TIME: 0 days 0 hours 9 minutes 9 seconds 277 msec
