                         Program Version 4.2.0 -  RELEASE  -
|  1> # ORCA input file
|  2> # SCF done       -171.702210435964          0.000749813372
|  3> ! CAM-B3LYP def2-SVP def2/J RIJCOSX Grid4 TightSCF
|  4> %maxcore 5000
|  5> %tddft
|  6>     Mode sTDDFT
|  7>     Ethresh 5.0
|  8>     maxcore 5000
|  9> end
| 10>
| 11> %pal
| 12>   nprocs 6
| 13>   end
| 14> * xyz 0 1
| 15>    C       -4.51517        -6.17645       -11.08584
| 16>    S       -3.96568        -5.53371        -9.60724
| 17>    C       -3.86191        -7.11260        -8.87500
| 18>    C       -4.22845        -8.10306        -9.80250
| 19>    C       -4.61356        -7.55321       -11.06454
| 20>    C       -5.02945        -8.41966       -12.10275
| 21>    C       -5.03362        -9.76866       -11.91484
| 22>    C       -5.46107       -10.72067       -12.98506
| 23>    C       -4.59810       -10.31374       -10.66200
| 24>    O       -4.60099       -11.67192       -10.61523
| 25>    C       -4.04330       -12.31639        -9.49578
| 26>    C       -4.21471        -9.49805        -9.62519
| 27>    C       -3.50621        -7.29960        -7.53169
| 28>    C       -3.03420        -6.33791        -6.68428
| 29>    C       -2.77223        -6.60167        -5.32756
| 30>    S       -3.34288        -8.07527        -4.61603
| 31>    C       -2.64059        -7.72634        -3.06204
| 32>    C       -1.98600        -6.48071        -3.09529
| 33>    C       -2.07589        -5.83497        -4.37154
| 34>    C       -1.46743        -4.56935        -4.55065
| 35>    C       -1.49898        -3.86519        -5.77380
| 36>    N       -1.48524        -3.23185        -6.73070
| 37>    C       -0.80235        -3.96593        -3.49456
| 38>    C       -0.72128        -4.58910        -2.25352
| 39>    C       -1.29994        -5.83044        -2.04018
| 40>    C       -1.17132        -6.38287        -0.74748
| 41>    N       -1.02153        -6.76150         0.32560
| 42>    C       -2.76818        -8.65524        -2.01962
| 43>    C       -3.59476        -9.74442        -2.10623
| 44>    C       -3.71046       -10.72046        -1.09636
| 45>    C       -4.62856       -11.76816        -1.09750
| 46>    O       -4.73607       -12.62604        -0.00892
| 47>    C       -3.89266       -12.40831         1.03391
| 48>    C       -2.94309       -11.34885         1.01378
| 49>    C       -2.18926       -11.28938         2.13958
| 50>    S       -2.63078       -12.53513         3.24521
| 51>    C       -3.84292       -13.13787         2.17636
| 52>    O       -2.84243       -10.50784        -0.04844
| 53>    C       -5.62478       -12.10620        -2.04102
| 54>    C       -5.83231       -11.76305        -3.34920
| 55>    C       -6.98820       -12.14652        -4.05055
| 56>    S       -8.27972       -13.00190        -3.25196
| 57>    C       -9.30401       -12.98806        -4.65911
| 58>    C       -8.65854       -12.33742        -5.72554
| 59>    C       -7.34533       -11.87148        -5.38595
| 60>    C       -6.58051       -11.20683        -6.37447
| 61>    C       -5.24450       -10.80285        -6.19416
| 62>    N       -4.14330       -10.47402        -6.18522
| 63>    C       -7.11879       -10.96453        -7.63151
| 64>    C       -8.39561       -11.40700        -7.95422
| 65>    C       -9.16129       -12.10031        -7.03000
| 66>    C      -10.43054       -12.53255        -7.47087
| 67>    N      -11.43919       -12.85040        -7.91741
| 68>    C      -10.59093       -13.55095        -4.63058
| 69>    C      -11.14227       -14.15682        -3.53993
| 70>    C      -12.44122       -14.70183        -3.50053
| 71>    S      -13.00733       -15.44797        -2.01143
| 72>    C      -14.51655       -15.80024        -2.72969
| 73>    C      -14.57754       -15.36297        -4.05371
| 74>    C      -13.41829       -14.74668        -4.49508
| 75>    C      -15.92404       -15.71863        -4.56464
| 76>    O      -16.39491       -15.51970        -5.65633
| 77>    C      -16.60204       -16.39756        -3.39947
| 78>    C      -15.74032       -16.42400        -2.34039
| 79>    C      -17.94276       -16.88863        -3.52538
| 80>    C      -18.63623       -17.51570        -2.57336
| 81>    H       -4.73697        -5.51851       -11.90268
| 82>    H       -5.33574        -7.99647       -13.04748
| 83>    H       -5.75255       -10.18590       -13.88452
| 84>    H       -6.29927       -11.32282       -12.63803
| 85>    H       -4.64836       -11.40553       -13.22127
| 86>    H       -3.00760       -12.00556        -9.32989
| 87>    H       -4.07102       -13.38044        -9.72548
| 88>    H       -4.62163       -12.13014        -8.58581
| 89>    H       -3.88680        -9.90408        -8.68210
| 90>    H       -3.61840        -8.30680        -7.14842
| 91>    H       -2.83673        -5.34542        -7.06139
| 92>    H       -0.34372        -2.99973        -3.64126
| 93>    H       -0.20156        -4.10214        -1.44205
| 94>    H       -2.19537        -8.49653        -1.11932
| 95>    H       -4.21175        -9.84914        -2.97947
| 96>    H       -1.41426       -10.59140         2.37719
| 97>    H       -4.43948       -13.98315         2.44777
| 98>    H       -6.33788       -12.80551        -1.61490
| 99>    H       -5.10905       -11.19329        -3.90830
|100>    H       -6.53533       -10.43183        -8.36838
|101>    H       -8.79440       -11.22003        -8.93969
|102>    H      -11.16776       -13.48385        -5.53877
|103>    H      -10.55926       -14.22955        -2.63033
|104>    H      -13.27718       -14.34625        -5.48220
|105>    H      -15.92843       -16.83780        -1.36661
|106>    H      -18.38731       -16.71297        -4.49713
|107>    H      -18.22274       -17.70798        -1.59783
|108>    H      -19.64187       -17.85713        -2.74462
|109> *
|110>
|111>                          ****END OF INPUT****

CARTESIAN COORDINATES (ANGSTROEM)
---------------------------------
  C     -4.515170   -6.176450  -11.085840
  S     -3.965680   -5.533710   -9.607240
  C     -3.861910   -7.112600   -8.875000
  C     -4.228450   -8.103060   -9.802500
  C     -4.613560   -7.553210  -11.064540
  C     -5.029450   -8.419660  -12.102750
  C     -5.033620   -9.768660  -11.914840
  C     -5.461070  -10.720670  -12.985060
  C     -4.598100  -10.313740  -10.662000
  O     -4.600990  -11.671920  -10.615230
  C     -4.043300  -12.316390   -9.495780
  C     -4.214710   -9.498050   -9.625190
  C     -3.506210   -7.299600   -7.531690
  C     -3.034200   -6.337910   -6.684280
  C     -2.772230   -6.601670   -5.327560
  S     -3.342880   -8.075270   -4.616030
  C     -2.640590   -7.726340   -3.062040
  C     -1.986000   -6.480710   -3.095290
  C     -2.075890   -5.834970   -4.371540
  C     -1.467430   -4.569350   -4.550650
  C     -1.498980   -3.865190   -5.773800
  N     -1.485240   -3.231850   -6.730700
  C     -0.802350   -3.965930   -3.494560
  C     -0.721280   -4.589100   -2.253520
  C     -1.299940   -5.830440   -2.040180
  C     -1.171320   -6.382870   -0.747480
  N     -1.021530   -6.761500    0.325600
  C     -2.768180   -8.655240   -2.019620
  C     -3.594760   -9.744420   -2.106230
  C     -3.710460  -10.720460   -1.096360
  C     -4.628560  -11.768160   -1.097500
  O     -4.736070  -12.626040   -0.008920
  C     -3.892660  -12.408310    1.033910
  C     -2.943090  -11.348850    1.013780
  C     -2.189260  -11.289380    2.139580
  S     -2.630780  -12.535130    3.245210
  C     -3.842920  -13.137870    2.176360
  O     -2.842430  -10.507840   -0.048440
  C     -5.624780  -12.106200   -2.041020
  C     -5.832310  -11.763050   -3.349200
  C     -6.988200  -12.146520   -4.050550
  S     -8.279720  -13.001900   -3.251960
  C     -9.304010  -12.988060   -4.659110
  C     -8.658540  -12.337420   -5.725540
  C     -7.345330  -11.871480   -5.385950
  C     -6.580510  -11.206830   -6.374470
  C     -5.244500  -10.802850   -6.194160
  N     -4.143300  -10.474020   -6.185220
  C     -7.118790  -10.964530   -7.631510
  C     -8.395610  -11.407000   -7.954220
  C     -9.161290  -12.100310   -7.030000
  C    -10.430540  -12.532550   -7.470870
  N    -11.439190  -12.850400   -7.917410
  C    -10.590930  -13.550950   -4.630580
  C    -11.142270  -14.156820   -3.539930
  C    -12.441220  -14.701830   -3.500530
  S    -13.007330  -15.447970   -2.011430
  C    -14.516550  -15.800240   -2.729690
  C    -14.577540  -15.362970   -4.053710
  C    -13.418290  -14.746680   -4.495080
  C    -15.924040  -15.718630   -4.564640
  O    -16.394910  -15.519700   -5.656330
  C    -16.602040  -16.397560   -3.399470
  C    -15.740320  -16.424000   -2.340390
  C    -17.942760  -16.888630   -3.525380
  C    -18.636230  -17.515700   -2.573360
  H     -4.736970   -5.518510  -11.902680
  H     -5.335740   -7.996470  -13.047480
  H     -5.752550  -10.185900  -13.884520
  H     -6.299270  -11.322820  -12.638030
  H     -4.648360  -11.405530  -13.221270
  H     -3.007600  -12.005560   -9.329890
  H     -4.071020  -13.380440   -9.725480
  H     -4.621630  -12.130140   -8.585810
  H     -3.886800   -9.904080   -8.682100
  H     -3.618400   -8.306800   -7.148420
  H     -2.836730   -5.345420   -7.061390
  H     -0.343720   -2.999730   -3.641260
  H     -0.201560   -4.102140   -1.442050
  H     -2.195370   -8.496530   -1.119320
  H     -4.211750   -9.849140   -2.979470
  H     -1.414260  -10.591400    2.377190
  H     -4.439480  -13.983150    2.447770
  H     -6.337880  -12.805510   -1.614900
  H     -5.109050  -11.193290   -3.908300
  H     -6.535330  -10.431830   -8.368380
  H     -8.794400  -11.220030   -8.939690
  H    -11.167760  -13.483850   -5.538770
  H    -10.559260  -14.229550   -2.630330
  H    -13.277180  -14.346250   -5.482200
  H    -15.928430  -16.837800   -1.366610
  H    -18.387310  -16.712970   -4.497130
  H    -18.222740  -17.707980   -1.597830
  H    -19.641870  -17.857130   -2.744620

 Total Charge           Charge          ....    0
 Multiplicity           Mult            ....    1
 Number of Electrons    NEL             ....  486
 Basis Dimension        Dim             .... 1084

ORBITAL ENERGIES
----------------

  NO   OCC          E(Eh)            E(eV)
   0   2.0000     -88.977737     -2421.2073
   1   2.0000     -88.975662     -2421.1509
   2   2.0000     -88.965800     -2420.8825
   3   2.0000     -88.962704     -2420.7983
   4   2.0000     -88.951915     -2420.5047
   5   2.0000     -19.272820      -524.4401
   6   2.0000     -19.267772      -524.3027
   7   2.0000     -19.253898      -523.9252
   8   2.0000     -19.224314      -523.1202
   9   2.0000     -14.433992      -392.7689
  10   2.0000     -14.422580      -392.4584
  11   2.0000     -14.414389      -392.2355
  12   2.0000     -14.412498      -392.1840
  13   2.0000     -10.365375      -282.0562
  14   2.0000     -10.350852      -281.6610
  15   2.0000     -10.345789      -281.5232
  16   2.0000     -10.338978      -281.3379
  17   2.0000     -10.338165      -281.3158
  18   2.0000     -10.338145      -281.3152
  19   2.0000     -10.335617      -281.2464
  20   2.0000     -10.334993      -281.2295
  21   2.0000     -10.334692      -281.2213
  22   2.0000     -10.329508      -281.0802
  23   2.0000     -10.327198      -281.0173
  24   2.0000     -10.325553      -280.9726
  25   2.0000     -10.324313      -280.9388
  26   2.0000     -10.322939      -280.9015
  27   2.0000     -10.322020      -280.8765
  28   2.0000     -10.318778      -280.7882
  29   2.0000     -10.315458      -280.6979
  30   2.0000     -10.314433      -280.6700
  31   2.0000     -10.313953      -280.6569
  32   2.0000     -10.313888      -280.6552
  33   2.0000     -10.312366      -280.6137
  34   2.0000     -10.312059      -280.6054
  35   2.0000     -10.311263      -280.5837
  36   2.0000     -10.311036      -280.5775
  37   2.0000     -10.307835      -280.4904
  38   2.0000     -10.307113      -280.4708
  39   2.0000     -10.305775      -280.4344
  40   2.0000     -10.305018      -280.4138
  41   2.0000     -10.303480      -280.3719
  42   2.0000     -10.300823      -280.2996
  43   2.0000     -10.299334      -280.2591
  44   2.0000     -10.296187      -280.1735
  45   2.0000     -10.295596      -280.1574
  46   2.0000     -10.292679      -280.0780
  47   2.0000     -10.292129      -280.0631
  48   2.0000     -10.288697      -279.9697
  49   2.0000     -10.288579      -279.9665
  50   2.0000     -10.288528      -279.9651
  51   2.0000     -10.288300      -279.9589
  52   2.0000     -10.287427      -279.9351
  53   2.0000     -10.286226      -279.9024
  54   2.0000     -10.283576      -279.8303
  55   2.0000     -10.283428      -279.8263
  56   2.0000     -10.280558      -279.7482
  57   2.0000     -10.279539      -279.7205
  58   2.0000     -10.278104      -279.6814
  59   2.0000     -10.278078      -279.6807
  60   2.0000     -10.275773      -279.6180
  61   2.0000     -10.275159      -279.6013
  62   2.0000     -10.273870      -279.5662
  63   2.0000     -10.269548      -279.4486
  64   2.0000     -10.268313      -279.4150
  65   2.0000     -10.261709      -279.2353
  66   2.0000      -8.072609      -219.6669
  67   2.0000      -8.070625      -219.6129
  68   2.0000      -8.060653      -219.3415
  69   2.0000      -8.057829      -219.2647
  70   2.0000      -8.047755      -218.9906
  71   2.0000      -6.041589      -164.4000
  72   2.0000      -6.039671      -164.3478
  73   2.0000      -6.037645      -164.2927
  74   2.0000      -6.035701      -164.2398
  75   2.0000      -6.035247      -164.2274
  76   2.0000      -6.033229      -164.1725
  77   2.0000      -6.029541      -164.0721
  78   2.0000      -6.026809      -163.9978
  79   2.0000      -6.025486      -163.9618
  80   2.0000      -6.023428      -163.9058
  81   2.0000      -6.022561      -163.8822
  82   2.0000      -6.020808      -163.8345
  83   2.0000      -6.017261      -163.7380
  84   2.0000      -6.013095      -163.6246
  85   2.0000      -6.009418      -163.5246
  86   2.0000      -1.198041       -32.6003
  87   2.0000      -1.160253       -31.5721
  88   2.0000      -1.157353       -31.4932
  89   2.0000      -1.134521       -30.8719
  90   2.0000      -1.030916       -28.0527
  91   2.0000      -1.018794       -27.7228
  92   2.0000      -1.016973       -27.6732
  93   2.0000      -1.006053       -27.3761
  94   2.0000      -1.004002       -27.3203
  95   2.0000      -0.999830       -27.2068
  96   2.0000      -0.993827       -27.0434
  97   2.0000      -0.991763       -26.9873
  98   2.0000      -0.981900       -26.7188
  99   2.0000      -0.965988       -26.2859
 100   2.0000      -0.956387       -26.0246
 101   2.0000      -0.944627       -25.7046
 102   2.0000      -0.934395       -25.4262
 103   2.0000      -0.931149       -25.3378
 104   2.0000      -0.923028       -25.1169
 105   2.0000      -0.911482       -24.8027
 106   2.0000      -0.898051       -24.4372
 107   2.0000      -0.892844       -24.2955
 108   2.0000      -0.889334       -24.2000
 109   2.0000      -0.868544       -23.6343
 110   2.0000      -0.866250       -23.5719
 111   2.0000      -0.862345       -23.4656
 112   2.0000      -0.853412       -23.2225
 113   2.0000      -0.850958       -23.1557
 114   2.0000      -0.847294       -23.0560
 115   2.0000      -0.842261       -22.9191
 116   2.0000      -0.834685       -22.7129
 117   2.0000      -0.817549       -22.2467
 118   2.0000      -0.816122       -22.2078
 119   2.0000      -0.804166       -21.8825
 120   2.0000      -0.793440       -21.5906
 121   2.0000      -0.787198       -21.4208
 122   2.0000      -0.782196       -21.2846
 123   2.0000      -0.776613       -21.1327
 124   2.0000      -0.774563       -21.0769
 125   2.0000      -0.761558       -20.7231
 126   2.0000      -0.753040       -20.4913
 127   2.0000      -0.751696       -20.4547
 128   2.0000      -0.735925       -20.0255
 129   2.0000      -0.725393       -19.7389
 130   2.0000      -0.713561       -19.4170
 131   2.0000      -0.702783       -19.1237
 132   2.0000      -0.693342       -18.8668
 133   2.0000      -0.692172       -18.8350
 134   2.0000      -0.689565       -18.7640
 135   2.0000      -0.682349       -18.5677
 136   2.0000      -0.675755       -18.3882
 137   2.0000      -0.667535       -18.1645
 138   2.0000      -0.660652       -17.9773
 139   2.0000      -0.659158       -17.9366
 140   2.0000      -0.653377       -17.7793
 141   2.0000      -0.649428       -17.6718
 142   2.0000      -0.642631       -17.4869
 143   2.0000      -0.640822       -17.4377
 144   2.0000      -0.631640       -17.1878
 145   2.0000      -0.624100       -16.9826
 146   2.0000      -0.613006       -16.6807
 147   2.0000      -0.606119       -16.4933
 148   2.0000      -0.602242       -16.3878
 149   2.0000      -0.598251       -16.2792
 150   2.0000      -0.595903       -16.2153
 151   2.0000      -0.594075       -16.1656
 152   2.0000      -0.592319       -16.1178
 153   2.0000      -0.589120       -16.0308
 154   2.0000      -0.582767       -15.8579
 155   2.0000      -0.571289       -15.5456
 156   2.0000      -0.566636       -15.4190
 157   2.0000      -0.564165       -15.3517
 158   2.0000      -0.561015       -15.2660
 159   2.0000      -0.560003       -15.2385
 160   2.0000      -0.556360       -15.1393
 161   2.0000      -0.552928       -15.0459
 162   2.0000      -0.547968       -14.9110
 163   2.0000      -0.544127       -14.8065
 164   2.0000      -0.537280       -14.6201
 165   2.0000      -0.535047       -14.5594
 166   2.0000      -0.531255       -14.4562
 167   2.0000      -0.528707       -14.3869
 168   2.0000      -0.526304       -14.3214
 169   2.0000      -0.525132       -14.2896
 170   2.0000      -0.523110       -14.2345
 171   2.0000      -0.520560       -14.1652
 172   2.0000      -0.516931       -14.0664
 173   2.0000      -0.508924       -13.8485
 174   2.0000      -0.506939       -13.7945
 175   2.0000      -0.504435       -13.7264
 176   2.0000      -0.503011       -13.6876
 177   2.0000      -0.501257       -13.6399
 178   2.0000      -0.499249       -13.5853
 179   2.0000      -0.498612       -13.5679
 180   2.0000      -0.492046       -13.3892
 181   2.0000      -0.487906       -13.2766
 182   2.0000      -0.486706       -13.2439
 183   2.0000      -0.485269       -13.2049
 184   2.0000      -0.484894       -13.1946
 185   2.0000      -0.483261       -13.1502
 186   2.0000      -0.480820       -13.0838
 187   2.0000      -0.478759       -13.0277
 188   2.0000      -0.478177       -13.0119
 189   2.0000      -0.476057       -12.9542
 190   2.0000      -0.475207       -12.9310
 191   2.0000      -0.471920       -12.8416
 192   2.0000      -0.470684       -12.8080
 193   2.0000      -0.469182       -12.7671
 194   2.0000      -0.468530       -12.7493
 195   2.0000      -0.466842       -12.7034
 196   2.0000      -0.464845       -12.6491
 197   2.0000      -0.463638       -12.6162
 198   2.0000      -0.462088       -12.5741
 199   2.0000      -0.458481       -12.4759
 200   2.0000      -0.457425       -12.4472
 201   2.0000      -0.450024       -12.2458
 202   2.0000      -0.447988       -12.1904
 203   2.0000      -0.443829       -12.0772
 204   2.0000      -0.442984       -12.0542
 205   2.0000      -0.439345       -11.9552
 206   2.0000      -0.435174       -11.8417
 207   2.0000      -0.434869       -11.8334
 208   2.0000      -0.431832       -11.7507
 209   2.0000      -0.430581       -11.7167
 210   2.0000      -0.429988       -11.7006
 211   2.0000      -0.427464       -11.6319
 212   2.0000      -0.425620       -11.5817
 213   2.0000      -0.419960       -11.4277
 214   2.0000      -0.418790       -11.3959
 215   2.0000      -0.416215       -11.3258
 216   2.0000      -0.415328       -11.3016
 217   2.0000      -0.414529       -11.2799
 218   2.0000      -0.410913       -11.1815
 219   2.0000      -0.410714       -11.1761
 220   2.0000      -0.408698       -11.1212
 221   2.0000      -0.404512       -11.0073
 222   2.0000      -0.403458       -10.9786
 223   2.0000      -0.394380       -10.7316
 224   2.0000      -0.388725       -10.5777
 225   2.0000      -0.381906       -10.3922
 226   2.0000      -0.372989       -10.1495
 227   2.0000      -0.366161        -9.9637
 228   2.0000      -0.351806        -9.5731
 229   2.0000      -0.343326        -9.3424
 230   2.0000      -0.337873        -9.1940
 231   2.0000      -0.335747        -9.1361
 232   2.0000      -0.335717        -9.1353
 233   2.0000      -0.335120        -9.1191
 234   2.0000      -0.330904        -9.0044
 235   2.0000      -0.317563        -8.6413
 236   2.0000      -0.301224        -8.1967
 237   2.0000      -0.293046        -7.9742
 238   2.0000      -0.282761        -7.6943
 239   2.0000      -0.279206        -7.5976
 240   2.0000      -0.255474        -6.9518
 241   2.0000      -0.232515        -6.3270
 242   2.0000      -0.207033        -5.6337
 243   0.0000      -0.103236        -2.8092
 244   0.0000      -0.084848        -2.3088
 245   0.0000      -0.073267        -1.9937
 246   0.0000      -0.049994        -1.3604
 247   0.0000      -0.040775        -1.1096

MULLIKEN ATOMIC CHARGES
-----------------------
   0 C :   -0.116183
   1 S :    0.162729
   2 C :   -0.131037
   3 C :    0.145480
   4 C :    0.106656
   5 C :   -0.071564
   6 C :   -0.094051
   7 C :    0.134183
   8 C :    0.200537
   9 O :   -0.312760
  10 C :    0.187294
  11 C :   -0.162377
  12 C :   -0.008213
  13 C :   -0.033618
  14 C :   -0.105379
  15 S :    0.136188
  16 C :   -0.127063
  17 C :    0.178124
  18 C :    0.155134
  19 C :   -0.099242
  20 C :   -0.170170
  21 N :    0.106817
  22 C :    0.014651
  23 C :    0.018009
  24 C :   -0.103725
  25 C :   -0.175809
  26 N :    0.106350
  27 C :    0.015380
  28 C :   -0.087272
  29 C :    0.174734
  30 C :    0.180934
  31 O :   -0.257322
  32 C :    0.222814
  33 C :    0.213665
  34 C :   -0.169357
  35 S :    0.106406
  36 C :   -0.176991
  37 O :   -0.249750
  38 C :   -0.027230
  39 C :   -0.033754
  40 C :   -0.116031
  41 S :    0.130880
  42 C :   -0.107187
  43 C :    0.162736
  44 C :    0.155402
  45 C :   -0.098080
  46 C :   -0.105633
  47 N :    0.057268
  48 C :    0.008137
  49 C :    0.012563
  50 C :   -0.095601
  51 C :   -0.173233
  52 N :    0.112323
  53 C :   -0.033993
  54 C :    0.050559
  55 C :   -0.104659
  56 S :    0.166626
  57 C :   -0.066895
  58 C :    0.001488
  59 C :   -0.012774
  60 C :    0.156231
  61 O :   -0.107539
  62 C :   -0.053327
  63 C :   -0.018885
  64 C :    0.012767
  65 C :   -0.004266
  66 H :    0.019597
  67 H :   -0.038377
  68 H :    0.001652
  69 H :    0.022659
  70 H :    0.027806
  71 H :    0.032231
  72 H :    0.038137
  73 H :    0.011629
  74 H :   -0.036229
  75 H :    0.001101
  76 H :    0.007449
  77 H :    0.001099
  78 H :    0.003129
  79 H :    0.022782
  80 H :   -0.020605
  81 H :    0.034119
  82 H :    0.021474
  83 H :    0.013632
  84 H :    0.007848
  85 H :    0.003665
  86 H :    0.006474
  87 H :    0.006217
  88 H :   -0.012116
  89 H :    0.011295
  90 H :   -0.010664
  91 H :    0.003532
  92 H :    0.010028
  93 H :    0.028346
Sum of atomic charges:   -0.0000000

LOEWDIN ATOMIC CHARGES
----------------------
   0 C :   -0.178419
   1 S :    0.487000
   2 C :   -0.197593
   3 C :   -0.029005
   4 C :   -0.062915
   5 C :   -0.014853
   6 C :   -0.039340
   7 C :   -0.040582
   8 C :    0.058940
   9 O :   -0.094868
  10 C :    0.077163
  11 C :   -0.092303
  12 C :   -0.019394
  13 C :   -0.076031
  14 C :   -0.145714
  15 S :    0.518655
  16 C :   -0.182525
  17 C :   -0.024385
  18 C :   -0.041825
  19 C :   -0.042587
  20 C :   -0.021659
  21 N :   -0.052477
  22 C :    0.002364
  23 C :    0.013266
  24 C :   -0.050145
  25 C :   -0.022708
  26 N :   -0.053709
  27 C :   -0.017805
  28 C :   -0.061653
  29 C :    0.045707
  30 C :    0.012446
  31 O :   -0.062209
  32 C :   -0.009598
  33 C :   -0.010768
  34 C :   -0.205655
  35 S :    0.434281
  36 C :   -0.214235
  37 O :   -0.042928
  38 C :   -0.029590
  39 C :   -0.062019
  40 C :   -0.159702
  41 S :    0.482420
  42 C :   -0.162362
  43 C :   -0.035007
  44 C :   -0.036158
  45 C :   -0.054968
  46 C :   -0.004513
  47 N :   -0.074846
  48 C :    0.010355
  49 C :    0.009765
  50 C :   -0.041286
  51 C :   -0.022199
  52 N :   -0.049780
  53 C :   -0.050883
  54 C :   -0.040902
  55 C :   -0.172236
  56 S :    0.463251
  57 C :   -0.175574
  58 C :   -0.101290
  59 C :   -0.011532
  60 C :    0.098359
  61 O :   -0.098692
  62 C :   -0.058998
  63 C :    0.005684
  64 C :   -0.024938
  65 C :   -0.026794
  66 H :    0.025208
  67 H :    0.028650
  68 H :    0.027016
  69 H :    0.035111
  70 H :    0.037035
  71 H :    0.021281
  72 H :    0.030075
  73 H :    0.012524
  74 H :    0.026969
  75 H :    0.026935
  76 H :    0.031389
  77 H :    0.043504
  78 H :    0.044312
  79 H :    0.041596
  80 H :    0.021029
  81 H :    0.033053
  82 H :    0.027671
  83 H :    0.030291
  84 H :    0.032263
  85 H :    0.044785
  86 H :    0.046430
  87 H :    0.038965
  88 H :    0.020396
  89 H :    0.043098
  90 H :    0.030713
  91 H :    0.035643
  92 H :    0.019074
  93 H :    0.027488

  Mayer bond orders larger than 0.100000
B(  0-C ,  1-S ) :   1.2147 B(  0-C ,  4-C ) :   1.4096 B(  0-C , 66-H ) :   0.9682
B(  1-S ,  2-C ) :   1.1289 B(  2-C ,  3-C ) :   1.3175 B(  2-C , 12-C ) :   1.2281
B(  3-C ,  4-C ) :   1.2101 B(  3-C , 11-C ) :   1.1821 B(  4-C ,  5-C ) :   1.1264
B(  5-C ,  6-C ) :   1.5957 B(  5-C , 67-H ) :   1.0029 B(  6-C ,  7-C ) :   1.0696
B(  6-C ,  8-C ) :   1.1969 B(  7-C , 68-H ) :   0.9526 B(  7-C , 69-H ) :   0.9482
B(  7-C , 70-H ) :   0.9471 B(  8-C ,  9-O ) :   1.1870 B(  8-C , 11-C ) :   1.4389
B(  9-O , 10-C ) :   0.9583 B( 10-C , 71-H ) :   0.9663 B( 10-C , 72-H ) :   0.9752
B( 10-C , 73-H ) :   0.9692 B( 11-C , 74-H ) :   0.9879 B( 12-C , 13-C ) :   1.5684
B( 12-C , 75-H ) :   0.9587 B( 13-C , 14-C ) :   1.2144 B( 13-C , 76-H ) :   0.9601
B( 14-C , 15-S ) :   1.1668 B( 14-C , 18-C ) :   1.2864 B( 15-S , 16-C ) :   1.1102
B( 16-C , 17-C ) :   1.3120 B( 16-C , 27-C ) :   1.1983 B( 17-C , 18-C ) :   1.1847
B( 17-C , 24-C ) :   1.2222 B( 18-C , 19-C ) :   1.2297 B( 19-C , 20-C ) :   1.0906
B( 19-C , 22-C ) :   1.5094 B( 20-C , 21-N ) :   2.9673 B( 22-C , 23-C ) :   1.2173
B( 22-C , 77-H ) :   0.9937 B( 23-C , 24-C ) :   1.5131 B( 23-C , 78-H ) :   0.9939
B( 24-C , 25-C ) :   1.0910 B( 25-C , 26-N ) :   2.9727 B( 27-C , 28-C ) :   1.5583
B( 27-C , 79-H ) :   0.9650 B( 28-C , 29-C ) :   1.2266 B( 28-C , 80-H ) :   0.9571
B( 29-C , 30-C ) :   1.4028 B( 29-C , 37-O ) :   1.0802 B( 30-C , 31-O ) :   1.0427
B( 30-C , 38-C ) :   1.2013 B( 31-O , 32-C ) :   1.0588 B( 32-C , 33-C ) :   1.2045
B( 32-C , 36-C ) :   1.5688 B( 33-C , 34-C ) :   1.5722 B( 33-C , 37-O ) :   1.0439
B( 34-C , 35-S ) :   1.1418 B( 34-C , 81-H ) :   0.9722 B( 35-S , 36-C ) :   1.1395
B( 36-C , 82-H ) :   0.9725 B( 38-C , 39-C ) :   1.5516 B( 38-C , 83-H ) :   0.9448
B( 39-C , 40-C ) :   1.2342 B( 39-C , 84-H ) :   0.9441 B( 40-C , 41-S ) :   1.1193
B( 40-C , 44-C ) :   1.3173 B( 41-S , 42-C ) :   1.1172 B( 42-C , 43-C ) :   1.3284
B( 42-C , 53-C ) :   1.2204 B( 43-C , 44-C ) :   1.1694 B( 43-C , 50-C ) :   1.2138
B( 44-C , 45-C ) :   1.2159 B( 45-C , 46-C ) :   1.1117 B( 45-C , 48-C ) :   1.5027
B( 46-C , 47-N ) :   2.7814 B( 48-C , 49-C ) :   1.2193 B( 48-C , 85-H ) :   0.9933
B( 49-C , 50-C ) :   1.5165 B( 49-C , 86-H ) :   0.9961 B( 50-C , 51-C ) :   1.0851
B( 51-C , 52-N ) :   2.9868 B( 53-C , 54-C ) :   1.6183 B( 53-C , 87-H ) :   0.9555
B( 54-C , 55-C ) :   1.1575 B( 54-C , 88-H ) :   0.9598 B( 55-C , 56-S ) :   1.1063
B( 55-C , 59-C ) :   1.4249 B( 56-S , 57-C ) :   1.1390 B( 57-C , 58-C ) :   1.4478
B( 57-C , 63-C ) :   1.0622 B( 58-C , 59-C ) :   1.3311 B( 58-C , 60-C ) :   0.9074
B( 59-C , 89-H ) :   0.9985 B( 60-C , 61-O ) :   2.2790 B( 60-C , 62-C ) :   0.9281
B( 62-C , 63-C ) :   1.6541 B( 62-C , 64-C ) :   1.1184 B( 63-C , 90-H ) :   1.0142
B( 64-C , 65-C ) :   1.9056 B( 64-C , 91-H ) :   0.9586 B( 65-C , 92-H ) :   0.9530
B( 65-C , 93-H ) :   0.9505

-----------------------------------------------------------------------------
         ABSORPTION SPECTRUM VIA TRANSITION ELECTRIC DIPOLE MOMENTS
-----------------------------------------------------------------------------
State   Energy  Wavelength   fosc         T2         TX        TY        TZ
        (cm-1)    (nm)                  (au**2)     (au)      (au)      (au)
-----------------------------------------------------------------------------
   0    8160.5   1225.4   0.496089576  20.01342   3.42623   2.64524  -1.13007
   1   11831.0    845.2   0.203360241   5.65873   0.60070  -0.56678   2.23084
   2   14207.0    703.9   0.380582102   8.81904  -2.54733  -0.82946  -1.28147
   3   15773.1    634.0   0.202513634   4.22681   1.75669   1.01157  -0.34292
   4   17659.2    566.3   0.184221653   3.43436   0.77867   0.78038   1.48964
   5   18452.9    541.9   0.076889010   1.37175   0.81478   0.75600  -0.36926
   6   19068.6    524.4   0.124670554   2.15239  -0.78304  -0.43396   1.16229
   7   21724.6    460.3   0.480335373   7.27894   1.68702   0.74049   1.97093
   8   22550.8    443.4   0.210991086   3.08020  -1.12324  -0.62141  -1.19682
   9   23752.9    421.0   0.049591132   0.68733   0.10407  -0.35650   0.74122
  10   24160.5    413.9   0.140411085   1.91325  -0.53764  -1.15089   0.54740
  11   24708.9    404.7   0.101566816   1.35324  -0.64100   0.49845   0.83301
  12   25377.3    394.1   0.065338991   0.84762   0.68745   0.39420   0.46866
  13   26304.0    380.2   0.059883425   0.74948   0.26061  -0.31525  -0.76301
  14   26511.7    377.2   0.000021661   0.00027  -0.00032  -0.01453   0.00759
  15   27486.4    363.8   0.046980927   0.56270   0.24252   0.16515  -0.69037
  16   27747.4    360.4   0.098239452   1.16557   0.12846  -0.05129   1.07072
  17   28087.0    356.0   0.032890418   0.38551   0.26312  -0.40175   0.39355
  18   28656.0    349.0   0.009740588   0.11190   0.15203  -0.04720  -0.29422
  19   29627.6    337.5   0.075242051   0.83606  -0.27721  -0.51832   0.70040
  20   30116.9    332.0   0.120402136   1.31613   0.38967   0.88171  -0.62200
  21   30578.5    327.0   0.044183629   0.47569   0.54148   0.40462  -0.13700
  22   31004.8    322.5   0.008556974   0.09086  -0.03483   0.29916   0.01215
  23   31321.0    319.3   0.098225818   1.03244   0.39653   0.57477  -0.73814
  24   31642.6    316.0   0.055581807   0.57828  -0.25464   0.00852  -0.71649
  25   32148.3    311.1   0.109813352   1.12453   0.34248   0.58774  -0.81351
  26   32599.8    306.8   0.016748445   0.16914  -0.03690  -0.32763   0.24583
  27   33181.5    301.4   0.014378654   0.14266   0.14914  -0.20503  -0.27996
  28   33751.4    296.3   0.004879578   0.04760   0.07817  -0.09699  -0.17910
  29   34010.6    294.0   0.064245509   0.62188   0.40350   0.61179   0.29116
  30   34424.4    290.5   0.003550873   0.03396  -0.02224   0.02425  -0.18132
  31   34891.6    286.6   0.247094632   2.33141  -0.09163  -0.27347   1.49941
  32   35318.9    283.1   0.080087720   0.74651   0.45277   0.56042  -0.47690
  33   35422.7    282.3   0.057900845   0.53812   0.21593   0.56204  -0.41906
  34   35916.4    278.4   0.125153988   1.14717   0.32845   0.62379  -0.80634
  35   36387.6    274.8   0.080368572   0.72712   0.23604   0.70942  -0.41004
  36   36449.3    274.4   0.126627383   1.14371  -0.67190  -0.58703  -0.58962
  37   36597.0    273.2   0.022799943   0.20510   0.26681   0.33585  -0.14533
  38   36657.0    272.8   0.050944177   0.45752  -0.12657  -0.66369  -0.03191
  39   36821.8    271.6   0.027462281   0.24553  -0.10629  -0.23570  -0.42271
  40   36978.8    270.4   0.021065288   0.18754   0.25068  -0.19421   0.29492
  41   37158.2    269.1   0.090513114   0.80192   0.02909  -0.29723   0.84423
  42   37777.2    264.7   0.350609275   3.05541  -1.15699  -1.31018  -0.01398
  43   37987.8    263.2   0.040198787   0.34837   0.33199   0.48304   0.06947
  44   38230.7    261.6   0.097964541   0.84359   0.49308   0.69521   0.34227
  45   38412.0    260.3   0.000424012   0.00363   0.02345   0.04628  -0.03069
  46   38529.1    259.5   0.011338846   0.09688   0.05603  -0.16418  -0.25844
  47   38775.0    257.9   0.067762236   0.57532   0.24641   0.71468  -0.06194
  48   38896.1    257.1   0.046490306   0.39349   0.40008   0.44563  -0.18665
  49   39100.3    255.8   0.168315186   1.41716   0.17452   1.17740  -0.02078
  50   39274.8    254.6   0.107236101   0.89888  -0.53682  -0.56163  -0.54339
  51   39551.2    252.8   0.006295379   0.05240  -0.14212  -0.15641   0.08796
  52   39951.4    250.3   0.065187675   0.53717  -0.01215  -0.69726   0.22548
  53   40015.0    249.9   0.035071156   0.28854  -0.39739  -0.33058  -0.14606
  54   40193.8    248.8   0.083831043   0.68663  -0.31514  -0.52766   0.55578

FINAL SINGLE POINT ENERGY     -4543.314917500237

DIPOLE MOMENT
-------------
                                X             Y             Z
Electronic contribution:     14.06245      13.62765      33.87300
Nuclear contribution   :    -14.17066     -14.51347     -33.75915
                        -----------------------------------------
Total Dipole Moment    :     -0.10821      -0.88582       0.11385
                        -----------------------------------------
Magnitude (a.u.)       :      0.89964
Magnitude (Debye)      :      2.28670

Rotational constants in cm-1:     0.001028     0.000515     0.000371
Rotational constants in MHz :    30.825628    15.446915    11.119194

                             ****ORCA TERMINATED NORMALLY****
TOTAL RUN TIME: 0 days 0 hours 9 minutes 56 seconds 545 msec
