                         Program Version 4.2.0 -  RELEASE  -
|  1> # ORCA input file
|  2> # SCF done       -164.862739343566          0.000899999238
|  3> ! CAM-B3LYP def2-SVP def2/J RIJCOSX Grid4 TightSCF
|  4> %maxcore 5000
|  5> %tddft
|  6>     Mode sTDDFT
|  7>     Ethresh 5.0
|  8>     maxcore 5000
|  9> end
| 10>
| 11> %pal
| 12>   nprocs 6
| 13>   end
| 14> * xyz 0 1
| 15>    C        4.20646         7.57124        -5.58175
| 16>    C        3.54546         7.19838        -4.48857
| 17>    C        4.10226         7.03723        -3.16085
| 18>    C        5.45271         7.13840        -2.86156
| 19>    C        5.93046         6.97248        -1.57342
| 20>    C        5.09652         6.71524        -0.48150
| 21>    C        5.70133         6.56821         0.79819
| 22>    C        5.19093         6.44923         2.06111
| 23>    C        6.02955         6.34858         3.21266
| 24>    C        5.37240         6.31482         4.39858
| 25>    C        3.96653         6.39622         4.25357
| 26>    C        3.01626         6.42099         5.25094
| 27>    C        3.18978         6.32210         6.64953
| 28>    C        2.03390         6.41341         7.35976
| 29>    C        0.86539         6.59469         6.56880
| 30>    C       -0.38518         6.83606         7.07489
| 31>    C       -1.59009         7.08893         6.38008
| 32>    S       -2.76076         8.15494         7.15305
| 33>    C       -3.78393         8.08248         5.75690
| 34>    F       -4.91805         8.77269         5.73375
| 35>    C       -3.29472         7.28151         4.76877
| 36>    C       -2.05196         6.69416         5.14006
| 37>    S       -1.35913         5.38184         4.20099
| 38>    C       -2.34791         5.50756         2.79324
| 39>    C       -3.40863         6.33308         2.62689
| 40>    C       -4.06308         6.41167         1.36102
| 41>    C       -5.19760         7.06244         0.94518
| 42>    C       -6.30579         7.91548         1.35070
| 43>    O       -6.64313         8.39303         2.40268
| 44>    N       -7.00860         8.11695         0.14254
| 45>    C       -6.45591         7.45149        -0.91970
| 46>    C       -6.94214         7.56756        -2.25862
| 47>    C       -7.46127         8.66187        -2.91082
| 48>    N       -7.57060         8.40986        -4.24008
| 49>    C       -7.13863         7.20467        -4.42316
| 50>    N       -6.74274         6.60498        -3.24873
| 51>    C       -6.46374         5.24966        -3.00783
| 52>    O       -6.54601         4.75747        -1.92191
| 53>    N       -6.10156         4.52366        -4.15095
| 54>    C       -6.83834         4.24927        -5.28520
| 55>    C       -6.05679         3.43922        -6.04923
| 56>    N       -4.86287         3.22237        -5.43249
| 57>    C       -4.91373         3.84869        -4.30435
| 58>    C       -5.33088         6.80290        -0.45705
| 59>    C       -4.20962         6.00076        -0.86107
| 60>    O       -3.84875         5.58678        -1.93511
| 61>    O       -3.47555         5.77245         0.29633
| 62>    O       -3.95056         7.14431         3.58090
| 63>    S        1.31161         6.61933         4.87448
| 64>    S        3.51491         6.46243         2.55698
| 65>    C        3.70135         6.59916        -0.75725
| 66>    N        2.83447         6.32153         0.22755
| 67>    C        1.55834         6.17539        -0.03411
| 68>    C        0.66643         5.80420         1.10969
| 69>    C        0.84158         4.31896         1.43261
| 70>    C        1.07895         6.31190        -1.36868
| 71>    C       -0.37121         6.13786        -1.70754
| 72>    C       -0.65410         6.23662        -3.19969
| 73>    N        1.90439         6.59602        -2.34165
| 74>    C        3.21735         6.74384        -2.08487
| 75>    H        3.70456         7.66577        -6.52912
| 76>    H        5.25889         7.79986        -5.58239
| 77>    H        2.48503         6.99538        -4.54196
| 78>    H        6.15854         7.34295        -3.65177
| 79>    H        6.99444         7.05447        -1.39977
| 80>    H        6.78670         6.57692         0.76444
| 81>    H        7.10095         6.31182         3.11306
| 82>    H        5.85376         6.24856         5.35848
| 83>    H        4.16060         6.18575         7.09160
| 84>    H        1.97278         6.36532         8.43261
| 85>    H       -0.44440         6.96403         8.14811
| 86>    H       -2.05629         4.85481         1.99068
| 87>    H       -7.85673         8.66032         0.09738
| 88>    H       -7.72574         9.61877        -2.50770
| 89>    H       -7.08869         6.72248        -5.37757
| 90>    H       -7.84626         4.58875        -5.40885
| 91>    H       -6.27539         3.00109        -7.00187
| 92>    H       -4.13759         3.90963        -3.56965
| 93>    H       -0.37184         6.01996         0.86387
| 94>    H        0.94980         6.39169         1.98266
| 95>    H        0.50667         3.70167         0.60154
| 96>    H        0.27494         4.05277         2.32115
| 97>    H        1.89078         4.10784         1.62068
| 98>    H       -0.94758         6.90172        -1.17678
| 99>    H       -0.71056         5.16717        -1.33815
|100>    H       -0.35981         7.21130        -3.57870
|101>    H       -1.71672         6.08926        -3.37473
|102>    H       -0.09754         5.47648        -3.74049
|103> *
|104>
|105>                          ****END OF INPUT****

CARTESIAN COORDINATES (ANGSTROEM)
---------------------------------
  C      4.206460    7.571240   -5.581750
  C      3.545460    7.198380   -4.488570
  C      4.102260    7.037230   -3.160850
  C      5.452710    7.138400   -2.861560
  C      5.930460    6.972480   -1.573420
  C      5.096520    6.715240   -0.481500
  C      5.701330    6.568210    0.798190
  C      5.190930    6.449230    2.061110
  C      6.029550    6.348580    3.212660
  C      5.372400    6.314820    4.398580
  C      3.966530    6.396220    4.253570
  C      3.016260    6.420990    5.250940
  C      3.189780    6.322100    6.649530
  C      2.033900    6.413410    7.359760
  C      0.865390    6.594690    6.568800
  C     -0.385180    6.836060    7.074890
  C     -1.590090    7.088930    6.380080
  S     -2.760760    8.154940    7.153050
  C     -3.783930    8.082480    5.756900
  F     -4.918050    8.772690    5.733750
  C     -3.294720    7.281510    4.768770
  C     -2.051960    6.694160    5.140060
  S     -1.359130    5.381840    4.200990
  C     -2.347910    5.507560    2.793240
  C     -3.408630    6.333080    2.626890
  C     -4.063080    6.411670    1.361020
  C     -5.197600    7.062440    0.945180
  C     -6.305790    7.915480    1.350700
  O     -6.643130    8.393030    2.402680
  N     -7.008600    8.116950    0.142540
  C     -6.455910    7.451490   -0.919700
  C     -6.942140    7.567560   -2.258620
  C     -7.461270    8.661870   -2.910820
  N     -7.570600    8.409860   -4.240080
  C     -7.138630    7.204670   -4.423160
  N     -6.742740    6.604980   -3.248730
  C     -6.463740    5.249660   -3.007830
  O     -6.546010    4.757470   -1.921910
  N     -6.101560    4.523660   -4.150950
  C     -6.838340    4.249270   -5.285200
  C     -6.056790    3.439220   -6.049230
  N     -4.862870    3.222370   -5.432490
  C     -4.913730    3.848690   -4.304350
  C     -5.330880    6.802900   -0.457050
  C     -4.209620    6.000760   -0.861070
  O     -3.848750    5.586780   -1.935110
  O     -3.475550    5.772450    0.296330
  O     -3.950560    7.144310    3.580900
  S      1.311610    6.619330    4.874480
  S      3.514910    6.462430    2.556980
  C      3.701350    6.599160   -0.757250
  N      2.834470    6.321530    0.227550
  C      1.558340    6.175390   -0.034110
  C      0.666430    5.804200    1.109690
  C      0.841580    4.318960    1.432610
  C      1.078950    6.311900   -1.368680
  C     -0.371210    6.137860   -1.707540
  C     -0.654100    6.236620   -3.199690
  N      1.904390    6.596020   -2.341650
  C      3.217350    6.743840   -2.084870
  H      3.704560    7.665770   -6.529120
  H      5.258890    7.799860   -5.582390
  H      2.485030    6.995380   -4.541960
  H      6.158540    7.342950   -3.651770
  H      6.994440    7.054470   -1.399770
  H      6.786700    6.576920    0.764440
  H      7.100950    6.311820    3.113060
  H      5.853760    6.248560    5.358480
  H      4.160600    6.185750    7.091600
  H      1.972780    6.365320    8.432610
  H     -0.444400    6.964030    8.148110
  H     -2.056290    4.854810    1.990680
  H     -7.856730    8.660320    0.097380
  H     -7.725740    9.618770   -2.507700
  H     -7.088690    6.722480   -5.377570
  H     -7.846260    4.588750   -5.408850
  H     -6.275390    3.001090   -7.001870
  H     -4.137590    3.909630   -3.569650
  H     -0.371840    6.019960    0.863870
  H      0.949800    6.391690    1.982660
  H      0.506670    3.701670    0.601540
  H      0.274940    4.052770    2.321150
  H      1.890780    4.107840    1.620680
  H     -0.947580    6.901720   -1.176780
  H     -0.710560    5.167170   -1.338150
  H     -0.359810    7.211300   -3.578700
  H     -1.716720    6.089260   -3.374730
  H     -0.097540    5.476480   -3.740490

 Total Charge           Charge          ....    0
 Multiplicity           Mult            ....    1
 Number of Electrons    NEL             ....  448
 Basis Dimension        Dim             ....  996

ORBITAL ENERGIES
----------------

  NO   OCC          E(Eh)            E(eV)
   0   2.0000     -88.960855     -2420.7479
   1   2.0000     -88.960461     -2420.7372
   2   2.0000     -88.938465     -2420.1387
   3   2.0000     -88.934450     -2420.0294
   4   2.0000     -24.791602      -674.6138
   5   2.0000     -19.292236      -524.9684
   6   2.0000     -19.278730      -524.6009
   7   2.0000     -19.249722      -523.8116
   8   2.0000     -19.219257      -522.9826
   9   2.0000     -19.198161      -522.4085
  10   2.0000     -14.515791      -394.9947
  11   2.0000     -14.487586      -394.2272
  12   2.0000     -14.470190      -393.7539
  13   2.0000     -14.423435      -392.4816
  14   2.0000     -14.413555      -392.2128
  15   2.0000     -14.405699      -391.9990
  16   2.0000     -14.389893      -391.5689
  17   2.0000     -10.463247      -284.7194
  18   2.0000     -10.417054      -283.4624
  19   2.0000     -10.390719      -282.7458
  20   2.0000     -10.372374      -282.2466
  21   2.0000     -10.371709      -282.2286
  22   2.0000     -10.367058      -282.1020
  23   2.0000     -10.362806      -281.9863
  24   2.0000     -10.359794      -281.9043
  25   2.0000     -10.345932      -281.5271
  26   2.0000     -10.345869      -281.5254
  27   2.0000     -10.326835      -281.0075
  28   2.0000     -10.325883      -280.9816
  29   2.0000     -10.315805      -280.7073
  30   2.0000     -10.314350      -280.6677
  31   2.0000     -10.312871      -280.6275
  32   2.0000     -10.311912      -280.6014
  33   2.0000     -10.310519      -280.5635
  34   2.0000     -10.309083      -280.5244
  35   2.0000     -10.307802      -280.4896
  36   2.0000     -10.307150      -280.4718
  37   2.0000     -10.302272      -280.3391
  38   2.0000     -10.301466      -280.3171
  39   2.0000     -10.298219      -280.2288
  40   2.0000     -10.293436      -280.0986
  41   2.0000     -10.288314      -279.9593
  42   2.0000     -10.284863      -279.8653
  43   2.0000     -10.282608      -279.8040
  44   2.0000     -10.281681      -279.7788
  45   2.0000     -10.281588      -279.7762
  46   2.0000     -10.280772      -279.7540
  47   2.0000     -10.279915      -279.7307
  48   2.0000     -10.278878      -279.7025
  49   2.0000     -10.277718      -279.6709
  50   2.0000     -10.277448      -279.6636
  51   2.0000     -10.274069      -279.5716
  52   2.0000     -10.273355      -279.5522
  53   2.0000     -10.270064      -279.4627
  54   2.0000     -10.261441      -279.2280
  55   2.0000     -10.258916      -279.1593
  56   2.0000     -10.257671      -279.1254
  57   2.0000     -10.254770      -279.0465
  58   2.0000     -10.254612      -279.0422
  59   2.0000     -10.235318      -278.5172
  60   2.0000      -8.056866      -219.2385
  61   2.0000      -8.055505      -219.2014
  62   2.0000      -8.034187      -218.6214
  63   2.0000      -8.027699      -218.4448
  64   2.0000      -6.026316      -163.9844
  65   2.0000      -6.025621      -163.9655
  66   2.0000      -6.022673      -163.8853
  67   2.0000      -6.021316      -163.8483
  68   2.0000      -6.017907      -163.7556
  69   2.0000      -6.015951      -163.7023
  70   2.0000      -6.003958      -163.3760
  71   2.0000      -5.999816      -163.2633
  72   2.0000      -5.997878      -163.2106
  73   2.0000      -5.995106      -163.1351
  74   2.0000      -5.993204      -163.0834
  75   2.0000      -5.988548      -162.9567
  76   2.0000      -1.308067       -35.5943
  77   2.0000      -1.220430       -33.2096
  78   2.0000      -1.207067       -32.8460
  79   2.0000      -1.189309       -32.3627
  80   2.0000      -1.145141       -31.1609
  81   2.0000      -1.138943       -30.9922
  82   2.0000      -1.125720       -30.6324
  83   2.0000      -1.121106       -30.5068
  84   2.0000      -1.071395       -29.1541
  85   2.0000      -1.070298       -29.1243
  86   2.0000      -1.018744       -27.7214
  87   2.0000      -0.996971       -27.1290
  88   2.0000      -0.995941       -27.1009
  89   2.0000      -0.983758       -26.7694
  90   2.0000      -0.982123       -26.7249
  91   2.0000      -0.964229       -26.2380
  92   2.0000      -0.949503       -25.8373
  93   2.0000      -0.941751       -25.6264
  94   2.0000      -0.920660       -25.0524
  95   2.0000      -0.902180       -24.5496
  96   2.0000      -0.896839       -24.4042
  97   2.0000      -0.893331       -24.3088
  98   2.0000      -0.886471       -24.1221
  99   2.0000      -0.880967       -23.9723
 100   2.0000      -0.855501       -23.2794
 101   2.0000      -0.847567       -23.0635
 102   2.0000      -0.846129       -23.0243
 103   2.0000      -0.838780       -22.8244
 104   2.0000      -0.830775       -22.6065
 105   2.0000      -0.822092       -22.3703
 106   2.0000      -0.815453       -22.1896
 107   2.0000      -0.814047       -22.1513
 108   2.0000      -0.807018       -21.9601
 109   2.0000      -0.801652       -21.8141
 110   2.0000      -0.799831       -21.7645
 111   2.0000      -0.776655       -21.1339
 112   2.0000      -0.766935       -20.8694
 113   2.0000      -0.765243       -20.8233
 114   2.0000      -0.754142       -20.5213
 115   2.0000      -0.743591       -20.2341
 116   2.0000      -0.742663       -20.2089
 117   2.0000      -0.729939       -19.8626
 118   2.0000      -0.715802       -19.4780
 119   2.0000      -0.713523       -19.4160
 120   2.0000      -0.706592       -19.2273
 121   2.0000      -0.700296       -19.0560
 122   2.0000      -0.689157       -18.7529
 123   2.0000      -0.686952       -18.6929
 124   2.0000      -0.674738       -18.3605
 125   2.0000      -0.673761       -18.3340
 126   2.0000      -0.673522       -18.3275
 127   2.0000      -0.662843       -18.0369
 128   2.0000      -0.656796       -17.8723
 129   2.0000      -0.648744       -17.6532
 130   2.0000      -0.642669       -17.4879
 131   2.0000      -0.635869       -17.3029
 132   2.0000      -0.627975       -17.0881
 133   2.0000      -0.619150       -16.8479
 134   2.0000      -0.616346       -16.7716
 135   2.0000      -0.612970       -16.6798
 136   2.0000      -0.608362       -16.5544
 137   2.0000      -0.602049       -16.3826
 138   2.0000      -0.593751       -16.1568
 139   2.0000      -0.593095       -16.1389
 140   2.0000      -0.590826       -16.0772
 141   2.0000      -0.588551       -16.0153
 142   2.0000      -0.586194       -15.9512
 143   2.0000      -0.584964       -15.9177
 144   2.0000      -0.574829       -15.6419
 145   2.0000      -0.572897       -15.5893
 146   2.0000      -0.570540       -15.5252
 147   2.0000      -0.567182       -15.4338
 148   2.0000      -0.565013       -15.3748
 149   2.0000      -0.551820       -15.0158
 150   2.0000      -0.549096       -14.9417
 151   2.0000      -0.545208       -14.8359
 152   2.0000      -0.542730       -14.7684
 153   2.0000      -0.542183       -14.7535
 154   2.0000      -0.539876       -14.6908
 155   2.0000      -0.534887       -14.5550
 156   2.0000      -0.529973       -14.4213
 157   2.0000      -0.527077       -14.3425
 158   2.0000      -0.525350       -14.2955
 159   2.0000      -0.523295       -14.2396
 160   2.0000      -0.520654       -14.1677
 161   2.0000      -0.519530       -14.1371
 162   2.0000      -0.516125       -14.0445
 163   2.0000      -0.510966       -13.9041
 164   2.0000      -0.508670       -13.8416
 165   2.0000      -0.507316       -13.8048
 166   2.0000      -0.502770       -13.6811
 167   2.0000      -0.500700       -13.6248
 168   2.0000      -0.498219       -13.5572
 169   2.0000      -0.494486       -13.4557
 170   2.0000      -0.490733       -13.3535
 171   2.0000      -0.488616       -13.2959
 172   2.0000      -0.487170       -13.2566
 173   2.0000      -0.484494       -13.1837
 174   2.0000      -0.480677       -13.0799
 175   2.0000      -0.476642       -12.9701
 176   2.0000      -0.474872       -12.9219
 177   2.0000      -0.469333       -12.7712
 178   2.0000      -0.467204       -12.7133
 179   2.0000      -0.462371       -12.5818
 180   2.0000      -0.458138       -12.4666
 181   2.0000      -0.455324       -12.3900
 182   2.0000      -0.451872       -12.2961
 183   2.0000      -0.449746       -12.2382
 184   2.0000      -0.440673       -11.9913
 185   2.0000      -0.439819       -11.9681
 186   2.0000      -0.434456       -11.8222
 187   2.0000      -0.433442       -11.7945
 188   2.0000      -0.430435       -11.7127
 189   2.0000      -0.430389       -11.7115
 190   2.0000      -0.427025       -11.6200
 191   2.0000      -0.423702       -11.5295
 192   2.0000      -0.421681       -11.4745
 193   2.0000      -0.418579       -11.3901
 194   2.0000      -0.417904       -11.3717
 195   2.0000      -0.411245       -11.1906
 196   2.0000      -0.410185       -11.1617
 197   2.0000      -0.408768       -11.1231
 198   2.0000      -0.405307       -11.0290
 199   2.0000      -0.401486       -10.9250
 200   2.0000      -0.394656       -10.7391
 201   2.0000      -0.390882       -10.6365
 202   2.0000      -0.382711       -10.4141
 203   2.0000      -0.375873       -10.2280
 204   2.0000      -0.375416       -10.2156
 205   2.0000      -0.372111       -10.1257
 206   2.0000      -0.366214        -9.9652
 207   2.0000      -0.360554        -9.8112
 208   2.0000      -0.349531        -9.5112
 209   2.0000      -0.348001        -9.4696
 210   2.0000      -0.345968        -9.4143
 211   2.0000      -0.345236        -9.3944
 212   2.0000      -0.342376        -9.3165
 213   2.0000      -0.334920        -9.1136
 214   2.0000      -0.328454        -8.9377
 215   2.0000      -0.313561        -8.5324
 216   2.0000      -0.312600        -8.5063
 217   2.0000      -0.308160        -8.3854
 218   2.0000      -0.297402        -8.0927
 219   2.0000      -0.295103        -8.0302
 220   2.0000      -0.283640        -7.7182
 221   2.0000      -0.262920        -7.1544
 222   2.0000      -0.245584        -6.6827
 223   2.0000      -0.206388        -5.6161
 224   0.0000      -0.084271        -2.2931
 225   0.0000      -0.073728        -2.0062
 226   0.0000      -0.035119        -0.9556
 227   0.0000      -0.027283        -0.7424
 228   0.0000       0.001067         0.0290

MULLIKEN ATOMIC CHARGES
-----------------------
   0 C :   -0.008266
   1 C :   -0.010760
   2 C :    0.072382
   3 C :   -0.046156
   4 C :   -0.037671
   5 C :    0.103264
   6 C :   -0.086163
   7 C :    0.026498
   8 C :    0.026138
   9 C :    0.028714
  10 C :   -0.015942
  11 C :   -0.067698
  12 C :    0.038559
  13 C :    0.018876
  14 C :   -0.012164
  15 C :   -0.022184
  16 C :   -0.166499
  17 S :    0.103023
  18 C :    0.049158
  19 F :   -0.144083
  20 C :    0.216466
  21 C :   -0.047920
  22 S :    0.144153
  23 C :   -0.116603
  24 C :    0.150694
  25 C :    0.110414
  26 C :   -0.034138
  27 C :    0.146577
  28 O :   -0.127172
  29 N :   -0.120407
  30 C :    0.111906
  31 C :    0.057350
  32 C :   -0.020935
  33 N :   -0.091379
  34 C :    0.112516
  35 N :   -0.175073
  36 C :    0.236502
  37 O :   -0.119868
  38 N :   -0.200864
  39 C :    0.053071
  40 C :    0.011316
  41 N :   -0.115538
  42 C :    0.112428
  43 C :   -0.071054
  44 C :    0.246556
  45 O :   -0.184043
  46 O :   -0.265051
  47 O :   -0.238956
  48 S :    0.068682
  49 S :    0.084996
  50 C :    0.027337
  51 N :   -0.058973
  52 C :   -0.114973
  53 C :    0.085153
  54 C :    0.010344
  55 C :   -0.121335
  56 C :    0.008269
  57 C :    0.066412
  58 N :   -0.001492
  59 C :   -0.038042
  60 H :    0.021368
  61 H :    0.006777
  62 H :    0.003091
  63 H :   -0.029727
  64 H :   -0.026241
  65 H :   -0.026335
  66 H :   -0.013883
  67 H :   -0.020778
  68 H :   -0.015962
  69 H :   -0.013796
  70 H :   -0.010598
  71 H :    0.057882
  72 H :    0.130300
  73 H :    0.004782
  74 H :    0.052607
  75 H :    0.021546
  76 H :    0.004260
  77 H :    0.045888
  78 H :   -0.005351
  79 H :    0.034598
  80 H :    0.008593
  81 H :    0.011916
  82 H :    0.028928
  83 H :    0.029551
  84 H :    0.025309
  85 H :    0.008024
  86 H :    0.011270
  87 H :    0.009629
Sum of atomic charges:   -0.0000000

LOEWDIN ATOMIC CHARGES
----------------------
   0 C :   -0.039230
   1 C :   -0.018770
   2 C :   -0.023655
   3 C :   -0.012458
   4 C :   -0.012279
   5 C :   -0.033068
   6 C :   -0.046867
   7 C :   -0.142827
   8 C :   -0.024776
   9 C :   -0.037463
  10 C :   -0.180469
  11 C :   -0.190310
  12 C :   -0.027475
  13 C :   -0.043923
  14 C :   -0.141350
  15 C :   -0.109949
  16 C :   -0.180188
  17 S :    0.413065
  18 C :   -0.099803
  19 F :   -0.039314
  20 C :   -0.034106
  21 C :   -0.229122
  22 S :    0.424013
  23 C :   -0.182786
  24 C :   -0.001335
  25 C :    0.096246
  26 C :   -0.109006
  27 C :    0.080717
  28 O :   -0.155238
  29 N :    0.033030
  30 C :    0.075401
  31 C :   -0.031147
  32 C :    0.004602
  33 N :   -0.085828
  34 C :    0.057916
  35 N :    0.034426
  36 C :    0.128744
  37 O :   -0.096696
  38 N :    0.020076
  39 C :   -0.038874
  40 C :   -0.028617
  41 N :   -0.102121
  42 C :    0.051879
  43 C :   -0.136596
  44 C :    0.111459
  45 O :   -0.169965
  46 O :   -0.050011
  47 O :   -0.039462
  48 S :    0.376010
  49 S :    0.434270
  50 C :   -0.004062
  51 N :   -0.057551
  52 C :    0.014796
  53 C :   -0.045689
  54 C :   -0.048549
  55 C :    0.005253
  56 C :   -0.043053
  57 C :   -0.050456
  58 N :   -0.039310
  59 C :   -0.005443
  60 H :    0.025290
  61 H :    0.016059
  62 H :    0.032621
  63 H :    0.028902
  64 H :    0.028020
  65 H :    0.034022
  66 H :    0.031372
  67 H :    0.027848
  68 H :    0.031302
  69 H :    0.031627
  70 H :    0.032494
  71 H :    0.039655
  72 H :    0.092137
  73 H :    0.027674
  74 H :    0.030259
  75 H :    0.024234
  76 H :    0.023437
  77 H :    0.025247
  78 H :    0.022094
  79 H :    0.021009
  80 H :    0.022030
  81 H :    0.014698
  82 H :    0.026162
  83 H :    0.034770
  84 H :    0.034416
  85 H :    0.022552
  86 H :    0.023142
  87 H :    0.024219

  Mayer bond orders larger than 0.100000
B(  0-C ,  1-C ) :   1.9182 B(  0-C , 60-H ) :   0.9501 B(  0-C , 61-H ) :   0.9482
B(  1-C ,  2-C ) :   1.1082 B(  1-C , 62-H ) :   0.9601 B(  2-C ,  3-C ) :   1.3937
B(  2-C ,  5-C ) :   0.1108 B(  2-C , 59-C ) :   1.2068 B(  3-C ,  4-C ) :   1.3017
B(  3-C , 63-H ) :   0.9945 B(  4-C ,  5-C ) :   1.3582 B(  4-C , 64-H ) :   0.9987
B(  5-C ,  6-C ) :   1.1248 B(  5-C , 50-C ) :   1.1829 B(  6-C ,  7-C ) :   1.5879
B(  6-C , 65-H ) :   0.9590 B(  7-C ,  8-C ) :   1.1187 B(  7-C , 49-S ) :   1.0400
B(  8-C ,  9-C ) :   1.6087 B(  8-C , 66-H ) :   0.9996 B(  9-C , 10-C ) :   1.1653
B(  9-C , 67-H ) :   0.9936 B( 10-C , 11-C ) :   1.5308 B( 10-C , 49-S ) :   0.9922
B( 11-C , 12-C ) :   1.1776 B( 11-C , 48-S ) :   1.0245 B( 12-C , 13-C ) :   1.6026
B( 12-C , 68-H ) :   0.9925 B( 13-C , 14-C ) :   1.1320 B( 13-C , 69-H ) :   0.9981
B( 14-C , 15-C ) :   1.6175 B( 14-C , 48-S ) :   1.0512 B( 15-C , 16-C ) :   1.1445
B( 15-C , 70-H ) :   0.9449 B( 16-C , 17-S ) :   1.0973 B( 16-C , 21-C ) :   1.5359
B( 17-S , 18-C ) :   1.1030 B( 18-C , 19-F ) :   1.1655 B( 18-C , 20-C ) :   1.5046
B( 20-C , 21-C ) :   1.1843 B( 20-C , 47-O ) :   1.0526 B( 21-C , 22-S ) :   0.9920
B( 22-S , 23-C ) :   1.0563 B( 23-C , 24-C ) :   1.6519 B( 23-C , 71-H ) :   0.9180
B( 24-C , 25-C ) :   1.1271 B( 24-C , 47-O ) :   1.1274 B( 25-C , 26-C ) :   1.4269
B( 25-C , 46-O ) :   1.1288 B( 26-C , 27-C ) :   0.9203 B( 26-C , 43-C ) :   1.1593
B( 27-C , 28-O ) :   2.2786 B( 27-C , 29-N ) :   1.0183 B( 29-N , 30-C ) :   1.2636
B( 29-N , 72-H ) :   0.9213 B( 30-C , 31-C ) :   1.0053 B( 30-C , 43-C ) :   1.4167
B( 31-C , 32-C ) :   1.5246 B( 31-C , 35-N ) :   1.1078 B( 32-C , 33-N ) :   1.3760
B( 32-C , 73-H ) :   1.0087 B( 33-N , 34-C ) :   1.7190 B( 34-C , 35-N ) :   1.1148
B( 34-C , 74-H ) :   0.9665 B( 35-N , 36-C ) :   0.9726 B( 36-C , 37-O ) :   2.2251
B( 36-C , 38-N ) :   0.9712 B( 38-N , 39-C ) :   1.1034 B( 38-N , 42-C ) :   1.1409
B( 39-C , 40-C ) :   1.5632 B( 39-C , 75-H ) :   0.9773 B( 40-C , 41-N ) :   1.3672
B( 40-C , 76-H ) :   1.0015 B( 41-N , 42-C ) :   1.7119 B( 42-C , 77-H ) :   0.9734
B( 43-C , 44-C ) :   1.0109 B( 44-C , 45-O ) :   2.0686 B( 44-C , 46-O ) :   1.0181
B( 50-C , 51-N ) :   1.4050 B( 50-C , 59-C ) :   1.2558 B( 51-N , 52-C ) :   1.6146
B( 52-C , 53-C ) :   1.0706 B( 52-C , 55-C ) :   1.2083 B( 53-C , 54-C ) :   1.0987
B( 53-C , 78-H ) :   0.9067 B( 53-C , 79-H ) :   0.9051 B( 54-C , 80-H ) :   0.9656
B( 54-C , 81-H ) :   0.9638 B( 54-C , 82-H ) :   0.9621 B( 55-C , 56-C ) :   1.0295
B( 55-C , 58-N ) :   1.6911 B( 56-C , 57-C ) :   1.1345 B( 56-C , 83-H ) :   0.9186
B( 56-C , 84-H ) :   0.9172 B( 57-C , 85-H ) :   0.9601 B( 57-C , 86-H ) :   0.9522
B( 57-C , 87-H ) :   0.9629 B( 58-N , 59-C ) :   1.4509

-----------------------------------------------------------------------------
         ABSORPTION SPECTRUM VIA TRANSITION ELECTRIC DIPOLE MOMENTS
-----------------------------------------------------------------------------
State   Energy  Wavelength   fosc         T2         TX        TY        TZ
        (cm-1)    (nm)                  (au**2)     (au)      (au)      (au)
-----------------------------------------------------------------------------
   0   13637.5    733.3   0.404093446   9.75489   2.53301  -0.14974  -1.82108
   1   15493.7    645.4   0.593619146  12.61328  -1.79390   0.10303   3.06343
   2   18948.5    527.7   0.596937854  10.37121  -1.88768   0.75122  -2.49870
   3   22631.5    441.9   0.170306810   2.47739   1.49950  -0.33681  -0.33978
   4   22966.2    435.4   0.024415188   0.34998   0.16574  -0.54296   0.16646
   5   24637.5    405.9   0.203444435   2.71847  -1.24647   0.35093  -1.02061
   6   26038.0    384.1   0.171975996   2.17438  -0.74804  -0.02866  -1.27043
   7   26091.3    383.3   0.070616246   0.89101   0.93209  -0.14046  -0.04986
   8   27088.1    369.2   0.007812376   0.09495  -0.06304  -0.14013  -0.26709
   9   27561.2    362.8   0.030955093   0.36975  -0.53168   0.26873  -0.12186
  10   28936.1    345.6   0.042940735   0.48855   0.51891  -0.41129  -0.22388
  11   29330.4    340.9   0.561419634   6.30151   1.89858  -0.57784   1.53720
  12   30740.4    325.3   0.033948986   0.36357  -0.47718   0.07800  -0.36027
  13   31651.6    315.9   0.002575885   0.02679   0.12850  -0.09334   0.03959
  14   31730.3    315.2   0.002677061   0.02778  -0.16431  -0.02411  -0.01397
  15   32266.2    309.9   0.028927689   0.29515   0.19603  -0.03294   0.50561
  16   32349.5    309.1   0.053088911   0.54027  -0.46430   0.24334  -0.51525
  17   32530.8    307.4   0.034888662   0.35307   0.16789   0.22699   0.52284
  18   33193.8    301.3   0.010035313   0.09953   0.15974   0.05936   0.26550
  19   33540.0    298.2   0.002145172   0.02106  -0.09256   0.02903   0.10792
  20   33764.2    296.2   0.021627308   0.21087   0.12775  -0.28493  -0.33670
  21   34273.8    291.8   0.073318958   0.70426   0.73250  -0.20826  -0.35261
  22   34366.7    291.0   0.008622906   0.08260   0.26729   0.10030   0.03310
  23   34785.8    287.5   0.018301544   0.17321   0.37983   0.17005  -0.00441
  24   34933.9    286.3   0.052236485   0.49227   0.40573  -0.14494  -0.55376
  25   35045.9    285.3   0.141662478   1.33074  -0.90395  -0.31544   0.64352
  26   35521.0    281.5   0.027167314   0.25179  -0.19481   0.18380  -0.42433
  27   36293.0    275.5   0.050007871   0.45362   0.43332  -0.05132  -0.51305
  28   36603.8    273.2   0.067049622   0.60304   0.52900   0.19499  -0.53402
  29   36877.7    271.2   0.066740002   0.59580  -0.47247   0.23539  -0.56317
  30   37214.6    268.7   0.007362772   0.06513   0.05377   0.01782  -0.24885
  31   37914.9    263.7   0.011971262   0.10395  -0.21159  -0.02140  -0.24232
  32   38440.1    260.1   0.060728173   0.52009  -0.23984   0.01222  -0.68002
  33   38546.8    259.4   0.100009287   0.85414   0.06773  -0.08782  -0.91752
  34   38747.4    258.1   0.070870023   0.60214  -0.28782  -0.20498  -0.69085
  35   38972.9    256.6   0.043680479   0.36898  -0.08054   0.14319  -0.58480
  36   39075.6    255.9   0.024352731   0.20517   0.28712  -0.22692   0.26692
  37   39383.0    253.9   0.007515552   0.06282   0.19739  -0.05347   0.14492
  38   39415.1    253.7   0.013679398   0.11426   0.24658  -0.15612  -0.17053
  39   39917.2    250.5   0.002945040   0.02429   0.01240   0.13671   0.07380

FINAL SINGLE POINT ENERGY     -4103.756571604528

DIPOLE MOMENT
-------------
                                X             Y             Z
Electronic contribution:    -41.28464      11.94344      43.36182
Nuclear contribution   :     41.76878     -11.63412     -43.12467
                        -----------------------------------------
Total Dipole Moment    :      0.48414       0.30932       0.23715
                        -----------------------------------------
Magnitude (a.u.)       :      0.62153
Magnitude (Debye)      :      1.57982

Rotational constants in cm-1:     0.001396     0.000881     0.000582
Rotational constants in MHz :    41.838974    26.407277    17.433843

                             ****ORCA TERMINATED NORMALLY****
TOTAL RUN TIME: 0 days 0 hours 9 minutes 27 seconds 697 msec
