                         Program Version 4.2.0 -  RELEASE  -
|  1> # ORCA input file
|  2> # SCF done       -146.891796580047          0.000782050057
|  3> ! CAM-B3LYP def2-SVP def2/J RIJCOSX Grid4 TightSCF
|  4> %maxcore 5000
|  5> %tddft
|  6>     Mode sTDDFT
|  7>     Ethresh 5.0
|  8>     maxcore 5000
|  9> end
| 10>
| 11> %pal
| 12>   nprocs 6
| 13>   end
| 14> * xyz 0 1
| 15>    O       -9.46665         9.51584         6.54199
| 16>    C       -9.79181         8.56163         5.62583
| 17>    N      -10.81558         8.88578         4.89202
| 18>    C      -11.20118        10.12072         5.33536
| 19>    C      -10.35635        10.49402         6.35498
| 20>    C      -12.32827        10.84125         4.75849
| 21>    O      -12.70949        11.92409         5.12184
| 22>    C       -9.02014         7.36988         5.56337
| 23>    S       -7.64756         7.16323         6.67994
| 24>    C       -7.37970         5.64371         5.94031
| 25>    C       -8.32665         5.41515         4.93055
| 26>    N       -9.21692         6.37996         4.74391
| 27>    C       -8.09697         4.08898         4.27805
| 28>    C       -6.90325         3.59536         5.04155
| 29>    C       -6.51445         4.53067         6.00324
| 30>    S       -5.14831         4.01764         6.90765
| 31>    C       -5.08685         2.52479         5.98649
| 32>    C       -6.09587         2.46412         5.03722
| 33>    C       -4.09274         1.54110         6.22861
| 34>    C       -3.10450         1.68640         7.14441
| 35>    C       -2.05782         0.78355         7.46200
| 36>    S       -0.71839         1.42789         8.37811
| 37>    C        0.11299        -0.09949         8.34733
| 38>    C       -0.63606        -1.05341         7.67077
| 39>    C       -1.85767        -0.56224         7.18517
| 40>    C       -2.83694        -1.45121         6.48468
| 41>    C       -2.58626        -2.91540         6.85617
| 42>    C       -2.95670        -3.26717         8.29377
| 43>    O       -2.31489        -4.05649         8.93928
| 44>    C       -4.19333        -2.60715         8.84756
| 45>    C       -1.12175        -3.25695         6.57121
| 46>    C       -0.19533        -2.47417         7.50151
| 47>    C        1.38483        -0.26374         8.95218
| 48>    C        2.04968         0.73402         9.58403
| 49>    C        3.32633         0.62696        10.19017
| 50>    S        4.02614         2.03945        10.93458
| 51>    C        5.46112         1.14909        11.37698
| 52>    C        5.36978        -0.16769        10.96075
| 53>    C        4.18094        -0.45668        10.30056
| 54>    C        6.49593         1.76754        12.04637
| 55>    C        7.38042         2.36583        12.63330
| 56>    C        8.38474         3.04857        13.28932
| 57>    C        9.57936         2.49652        13.64928
| 58>    C       10.58638         3.21857        14.30903
| 59>    C       11.80395         2.70883        14.67898
| 60>    C       12.84759         3.40664        15.33954
| 61>    C       13.95562         2.66014        15.58543
| 62>    C       13.85901         1.31970        15.13489
| 63>    S       12.29754         1.04726        14.38384
| 64>    C       14.80535         0.32847        15.23728
| 65>    C       16.10059         0.42898        15.81795
| 66>    C       16.82056        -0.71374        15.77853
| 67>    C       16.14670        -1.81843        15.15858
| 68>    S       14.53844        -1.29554        14.63252
| 69>    C       16.60675        -3.06400        14.97922
| 70>    H      -10.30404        11.36961         6.96878
| 71>    H      -12.81234        10.28775         3.93574
| 72>    H       -7.89273         4.19487         3.21120
| 73>    H       -8.96067         3.43068         4.38633
| 74>    H       -6.21877         1.62426         4.37704
| 75>    H       -4.15191         0.66601         5.60025
| 76>    H       -3.06654         2.62378         7.68779
| 77>    H       -2.71221        -1.34298         5.40165
| 78>    H       -3.85628        -1.15226         6.72867
| 79>    H       -3.23091        -3.54835         6.23173
| 80>    H       -3.97082        -1.56591         9.07515
| 81>    H       -4.48847        -3.10753         9.76632
| 82>    H       -5.01001        -2.63959         8.13121
| 83>    H       -0.89974        -3.01362         5.53019
| 84>    H       -0.95459        -4.32434         6.71730
| 85>    H        0.82492        -2.50303         7.11099
| 86>    H       -0.18442        -2.95657         8.48319
| 87>    H        1.82102        -1.24966         8.88681
| 88>    H        1.58363         1.71047         9.63575
| 89>    H        6.15463        -0.88104        11.14054
| 90>    H        3.94276        -1.42997         9.91051
| 91>    H        8.18467         4.08945        13.51685
| 92>    H        9.77319         1.45685        13.41832
| 93>    H       10.39662         4.25866        14.54433
| 94>    H       12.73956         4.44274        15.60964
| 95>    H       14.83783         3.03051        16.07617
| 96>    H       16.45179         1.35146        16.24542
| 97>    H       17.81704        -0.82772        16.16722
| 98>    H       17.59074        -3.33924        15.31570
| 99>    H       16.01500        -3.82205        14.50018
|100> *
|101>
|102>                          ****END OF INPUT****

CARTESIAN COORDINATES (ANGSTROEM)
---------------------------------
  O     -9.466650    9.515840    6.541990
  C     -9.791810    8.561630    5.625830
  N    -10.815580    8.885780    4.892020
  C    -11.201180   10.120720    5.335360
  C    -10.356350   10.494020    6.354980
  C    -12.328270   10.841250    4.758490
  O    -12.709490   11.924090    5.121840
  C     -9.020140    7.369880    5.563370
  S     -7.647560    7.163230    6.679940
  C     -7.379700    5.643710    5.940310
  C     -8.326650    5.415150    4.930550
  N     -9.216920    6.379960    4.743910
  C     -8.096970    4.088980    4.278050
  C     -6.903250    3.595360    5.041550
  C     -6.514450    4.530670    6.003240
  S     -5.148310    4.017640    6.907650
  C     -5.086850    2.524790    5.986490
  C     -6.095870    2.464120    5.037220
  C     -4.092740    1.541100    6.228610
  C     -3.104500    1.686400    7.144410
  C     -2.057820    0.783550    7.462000
  S     -0.718390    1.427890    8.378110
  C      0.112990   -0.099490    8.347330
  C     -0.636060   -1.053410    7.670770
  C     -1.857670   -0.562240    7.185170
  C     -2.836940   -1.451210    6.484680
  C     -2.586260   -2.915400    6.856170
  C     -2.956700   -3.267170    8.293770
  O     -2.314890   -4.056490    8.939280
  C     -4.193330   -2.607150    8.847560
  C     -1.121750   -3.256950    6.571210
  C     -0.195330   -2.474170    7.501510
  C      1.384830   -0.263740    8.952180
  C      2.049680    0.734020    9.584030
  C      3.326330    0.626960   10.190170
  S      4.026140    2.039450   10.934580
  C      5.461120    1.149090   11.376980
  C      5.369780   -0.167690   10.960750
  C      4.180940   -0.456680   10.300560
  C      6.495930    1.767540   12.046370
  C      7.380420    2.365830   12.633300
  C      8.384740    3.048570   13.289320
  C      9.579360    2.496520   13.649280
  C     10.586380    3.218570   14.309030
  C     11.803950    2.708830   14.678980
  C     12.847590    3.406640   15.339540
  C     13.955620    2.660140   15.585430
  C     13.859010    1.319700   15.134890
  S     12.297540    1.047260   14.383840
  C     14.805350    0.328470   15.237280
  C     16.100590    0.428980   15.817950
  C     16.820560   -0.713740   15.778530
  C     16.146700   -1.818430   15.158580
  S     14.538440   -1.295540   14.632520
  C     16.606750   -3.064000   14.979220
  H    -10.304040   11.369610    6.968780
  H    -12.812340   10.287750    3.935740
  H     -7.892730    4.194870    3.211200
  H     -8.960670    3.430680    4.386330
  H     -6.218770    1.624260    4.377040
  H     -4.151910    0.666010    5.600250
  H     -3.066540    2.623780    7.687790
  H     -2.712210   -1.342980    5.401650
  H     -3.856280   -1.152260    6.728670
  H     -3.230910   -3.548350    6.231730
  H     -3.970820   -1.565910    9.075150
  H     -4.488470   -3.107530    9.766320
  H     -5.010010   -2.639590    8.131210
  H     -0.899740   -3.013620    5.530190
  H     -0.954590   -4.324340    6.717300
  H      0.824920   -2.503030    7.110990
  H     -0.184420   -2.956570    8.483190
  H      1.821020   -1.249660    8.886810
  H      1.583630    1.710470    9.635750
  H      6.154630   -0.881040   11.140540
  H      3.942760   -1.429970    9.910510
  H      8.184670    4.089450   13.516850
  H      9.773190    1.456850   13.418320
  H     10.396620    4.258660   14.544330
  H     12.739560    4.442740   15.609640
  H     14.837830    3.030510   16.076170
  H     16.451790    1.351460   16.245420
  H     17.817040   -0.827720   16.167220
  H     17.590740   -3.339240   15.315700
  H     16.015000   -3.822050   14.500180

 Total Charge           Charge          ....    0
 Multiplicity           Mult            ....    1
 Number of Electrons    NEL             ....  428
 Basis Dimension        Dim             ....  944

ORBITAL ENERGIES
----------------

  NO   OCC          E(Eh)            E(eV)
   0   2.0000     -88.975747     -2421.1532
   1   2.0000     -88.963637     -2420.8236
   2   2.0000     -88.949576     -2420.4410
   3   2.0000     -88.946309     -2420.3521
   4   2.0000     -88.937929     -2420.1241
   5   2.0000     -88.934912     -2420.0420
   6   2.0000     -19.319431      -525.7085
   7   2.0000     -19.209624      -522.7204
   8   2.0000     -19.203913      -522.5650
   9   2.0000     -14.420006      -392.3883
  10   2.0000     -14.415214      -392.2579
  11   2.0000     -10.374671      -282.3091
  12   2.0000     -10.354147      -281.7507
  13   2.0000     -10.353782      -281.7407
  14   2.0000     -10.349254      -281.6175
  15   2.0000     -10.343401      -281.4582
  16   2.0000     -10.312379      -280.6141
  17   2.0000     -10.307626      -280.4848
  18   2.0000     -10.307118      -280.4710
  19   2.0000     -10.306828      -280.4630
  20   2.0000     -10.306410      -280.4517
  21   2.0000     -10.305081      -280.4155
  22   2.0000     -10.304780      -280.4073
  23   2.0000     -10.304389      -280.3967
  24   2.0000     -10.303248      -280.3656
  25   2.0000     -10.302643      -280.3492
  26   2.0000     -10.297584      -280.2115
  27   2.0000     -10.297357      -280.2053
  28   2.0000     -10.292951      -280.0854
  29   2.0000     -10.290335      -280.0142
  30   2.0000     -10.286547      -279.9112
  31   2.0000     -10.286439      -279.9082
  32   2.0000     -10.285044      -279.8703
  33   2.0000     -10.284622      -279.8588
  34   2.0000     -10.284033      -279.8428
  35   2.0000     -10.281499      -279.7738
  36   2.0000     -10.281491      -279.7736
  37   2.0000     -10.280586      -279.7490
  38   2.0000     -10.280491      -279.7464
  39   2.0000     -10.280239      -279.7395
  40   2.0000     -10.279584      -279.7217
  41   2.0000     -10.279523      -279.7200
  42   2.0000     -10.278859      -279.7020
  43   2.0000     -10.276600      -279.6405
  44   2.0000     -10.275712      -279.6163
  45   2.0000     -10.272932      -279.5407
  46   2.0000     -10.272317      -279.5240
  47   2.0000     -10.271816      -279.5103
  48   2.0000     -10.268212      -279.4123
  49   2.0000     -10.266932      -279.3774
  50   2.0000     -10.266581      -279.3679
  51   2.0000     -10.266032      -279.3529
  52   2.0000     -10.264489      -279.3109
  53   2.0000     -10.264415      -279.3089
  54   2.0000     -10.264362      -279.3075
  55   2.0000      -8.070513      -219.6098
  56   2.0000      -8.058624      -219.2863
  57   2.0000      -8.045290      -218.9235
  58   2.0000      -8.042080      -218.8361
  59   2.0000      -8.034300      -218.6244
  60   2.0000      -8.031584      -218.5505
  61   2.0000      -6.039650      -164.3472
  62   2.0000      -6.035730      -164.2406
  63   2.0000      -6.032799      -164.1608
  64   2.0000      -6.028004      -164.0303
  65   2.0000      -6.023964      -163.9204
  66   2.0000      -6.020566      -163.8279
  67   2.0000      -6.014532      -163.6637
  68   2.0000      -6.011221      -163.5736
  69   2.0000      -6.010481      -163.5535
  70   2.0000      -6.007401      -163.4697
  71   2.0000      -6.007387      -163.4693
  72   2.0000      -6.004141      -163.3810
  73   2.0000      -6.004039      -163.3782
  74   2.0000      -6.001397      -163.3063
  75   2.0000      -6.000140      -163.2721
  76   2.0000      -5.997515      -163.2007
  77   2.0000      -5.995050      -163.1336
  78   2.0000      -5.992116      -163.0538
  79   2.0000      -1.247581       -33.9484
  80   2.0000      -1.123240       -30.5649
  81   2.0000      -1.122914       -30.5560
  82   2.0000      -1.074870       -29.2487
  83   2.0000      -1.024001       -27.8645
  84   2.0000      -0.999131       -27.1877
  85   2.0000      -0.988197       -26.8902
  86   2.0000      -0.986671       -26.8487
  87   2.0000      -0.976993       -26.5853
  88   2.0000      -0.965433       -26.2708
  89   2.0000      -0.935438       -25.4545
  90   2.0000      -0.923661       -25.1341
  91   2.0000      -0.909265       -24.7424
  92   2.0000      -0.907729       -24.7006
  93   2.0000      -0.904083       -24.6013
  94   2.0000      -0.887370       -24.1466
  95   2.0000      -0.880017       -23.9465
  96   2.0000      -0.874001       -23.7828
  97   2.0000      -0.857503       -23.3338
  98   2.0000      -0.852923       -23.2092
  99   2.0000      -0.841342       -22.8941
 100   2.0000      -0.840757       -22.8782
 101   2.0000      -0.837689       -22.7947
 102   2.0000      -0.828228       -22.5372
 103   2.0000      -0.823638       -22.4123
 104   2.0000      -0.818929       -22.2842
 105   2.0000      -0.814201       -22.1555
 106   2.0000      -0.803348       -21.8602
 107   2.0000      -0.795217       -21.6390
 108   2.0000      -0.786328       -21.3971
 109   2.0000      -0.775586       -21.1048
 110   2.0000      -0.765705       -20.8359
 111   2.0000      -0.762122       -20.7384
 112   2.0000      -0.742463       -20.2034
 113   2.0000      -0.728287       -19.8177
 114   2.0000      -0.723427       -19.6854
 115   2.0000      -0.707436       -19.2503
 116   2.0000      -0.701351       -19.0847
 117   2.0000      -0.692144       -18.8342
 118   2.0000      -0.687645       -18.7118
 119   2.0000      -0.671044       -18.2600
 120   2.0000      -0.667244       -18.1566
 121   2.0000      -0.654001       -17.7963
 122   2.0000      -0.652550       -17.7568
 123   2.0000      -0.648141       -17.6368
 124   2.0000      -0.640075       -17.4173
 125   2.0000      -0.631383       -17.1808
 126   2.0000      -0.625815       -17.0293
 127   2.0000      -0.617817       -16.8116
 128   2.0000      -0.615790       -16.7565
 129   2.0000      -0.612297       -16.6615
 130   2.0000      -0.609589       -16.5878
 131   2.0000      -0.605422       -16.4744
 132   2.0000      -0.598677       -16.2908
 133   2.0000      -0.594634       -16.1808
 134   2.0000      -0.589647       -16.0451
 135   2.0000      -0.589036       -16.0285
 136   2.0000      -0.579901       -15.7799
 137   2.0000      -0.575592       -15.6627
 138   2.0000      -0.568683       -15.4746
 139   2.0000      -0.564770       -15.3682
 140   2.0000      -0.562041       -15.2939
 141   2.0000      -0.560160       -15.2427
 142   2.0000      -0.553043       -15.0491
 143   2.0000      -0.544431       -14.8147
 144   2.0000      -0.543744       -14.7960
 145   2.0000      -0.536482       -14.5984
 146   2.0000      -0.534593       -14.5470
 147   2.0000      -0.533032       -14.5045
 148   2.0000      -0.529486       -14.4081
 149   2.0000      -0.515855       -14.0371
 150   2.0000      -0.514098       -13.9893
 151   2.0000      -0.509641       -13.8680
 152   2.0000      -0.509137       -13.8543
 153   2.0000      -0.508323       -13.8322
 154   2.0000      -0.502315       -13.6687
 155   2.0000      -0.498544       -13.5661
 156   2.0000      -0.496509       -13.5107
 157   2.0000      -0.494350       -13.4520
 158   2.0000      -0.491487       -13.3740
 159   2.0000      -0.490925       -13.3587
 160   2.0000      -0.488432       -13.2909
 161   2.0000      -0.487515       -13.2660
 162   2.0000      -0.483403       -13.1541
 163   2.0000      -0.482306       -13.1242
 164   2.0000      -0.478749       -13.0274
 165   2.0000      -0.477447       -12.9920
 166   2.0000      -0.474394       -12.9089
 167   2.0000      -0.473818       -12.8932
 168   2.0000      -0.472648       -12.8614
 169   2.0000      -0.470218       -12.7953
 170   2.0000      -0.466470       -12.6933
 171   2.0000      -0.462211       -12.5774
 172   2.0000      -0.461446       -12.5566
 173   2.0000      -0.459243       -12.4966
 174   2.0000      -0.455778       -12.4023
 175   2.0000      -0.454136       -12.3577
 176   2.0000      -0.448857       -12.2140
 177   2.0000      -0.448496       -12.2042
 178   2.0000      -0.440087       -11.9754
 179   2.0000      -0.431259       -11.7352
 180   2.0000      -0.430586       -11.7168
 181   2.0000      -0.426801       -11.6138
 182   2.0000      -0.423685       -11.5291
 183   2.0000      -0.422049       -11.4845
 184   2.0000      -0.417492       -11.3605
 185   2.0000      -0.415176       -11.2975
 186   2.0000      -0.415091       -11.2952
 187   2.0000      -0.414177       -11.2703
 188   2.0000      -0.407240       -11.0816
 189   2.0000      -0.401222       -10.9178
 190   2.0000      -0.396973       -10.8022
 191   2.0000      -0.396037       -10.7767
 192   2.0000      -0.392579       -10.6826
 193   2.0000      -0.388244       -10.5647
 194   2.0000      -0.381930       -10.3928
 195   2.0000      -0.376272       -10.2389
 196   2.0000      -0.364945        -9.9306
 197   2.0000      -0.355352        -9.6696
 198   2.0000      -0.353521        -9.6198
 199   2.0000      -0.346567        -9.4306
 200   2.0000      -0.333694        -9.0803
 201   2.0000      -0.332796        -9.0558
 202   2.0000      -0.330482        -8.9929
 203   2.0000      -0.329153        -8.9567
 204   2.0000      -0.324844        -8.8395
 205   2.0000      -0.319603        -8.6968
 206   2.0000      -0.318429        -8.6649
 207   2.0000      -0.316129        -8.6023
 208   2.0000      -0.306765        -8.3475
 209   2.0000      -0.303107        -8.2480
 210   2.0000      -0.280224        -7.6253
 211   2.0000      -0.254286        -6.9195
 212   2.0000      -0.226531        -6.1642
 213   2.0000      -0.204673        -5.5694
 214   0.0000      -0.074645        -2.0312
 215   0.0000      -0.061129        -1.6634
 216   0.0000      -0.035717        -0.9719
 217   0.0000      -0.015203        -0.4137
 218   0.0000      -0.008133        -0.2213

MULLIKEN ATOMIC CHARGES
-----------------------
   0 O :   -0.176793
   1 C :    0.133162
   2 N :   -0.044976
   3 C :   -0.050331
   4 C :    0.133651
   5 C :    0.168655
   6 O :   -0.177440
   7 C :   -0.187454
   8 S :    0.158104
   9 C :   -0.038144
  10 C :   -0.235405
  11 N :    0.028759
  12 C :    0.388147
  13 C :   -0.147386
  14 C :   -0.101551
  15 S :    0.132362
  16 C :   -0.045365
  17 C :   -0.032904
  18 C :   -0.007226
  19 C :    0.030585
  20 C :   -0.122194
  21 S :    0.099658
  22 C :   -0.095133
  23 C :   -0.078199
  24 C :   -0.094754
  25 C :    0.143524
  26 C :   -0.109523
  27 C :   -0.017654
  28 O :   -0.180676
  29 C :    0.061616
  30 C :    0.098325
  31 C :    0.096467
  32 C :   -0.014194
  33 C :    0.062607
  34 C :   -0.079490
  35 S :    0.149513
  36 C :   -0.159628
  37 C :    0.061943
  38 C :   -0.000627
  39 C :    0.048658
  40 C :    0.000992
  41 C :   -0.106685
  42 C :    0.027786
  43 C :   -0.025930
  44 C :   -0.013690
  45 C :    0.036668
  46 C :    0.026065
  47 C :   -0.048540
  48 S :    0.075034
  49 C :   -0.067771
  50 C :    0.028976
  51 C :    0.052817
  52 C :   -0.067347
  53 S :    0.080541
  54 C :   -0.026648
  55 H :    0.036370
  56 H :   -0.008174
  57 H :    0.038927
  58 H :    0.038701
  59 H :   -0.024712
  60 H :   -0.015528
  61 H :   -0.010571
  62 H :    0.023304
  63 H :    0.011769
  64 H :    0.022981
  65 H :    0.050094
  66 H :    0.030940
  67 H :    0.030163
  68 H :   -0.001972
  69 H :    0.009567
  70 H :    0.014464
  71 H :    0.040237
  72 H :   -0.011583
  73 H :   -0.012466
  74 H :   -0.011946
  75 H :   -0.018084
  76 H :    0.018672
  77 H :    0.010173
  78 H :   -0.016758
  79 H :   -0.014160
  80 H :   -0.015235
  81 H :   -0.013159
  82 H :   -0.013061
  83 H :    0.018511
  84 H :    0.021582
Sum of atomic charges:   -0.0000000

LOEWDIN ATOMIC CHARGES
----------------------
   0 O :    0.019688
   1 C :    0.017117
   2 N :   -0.077255
   3 C :   -0.106880
   4 C :    0.072800
   5 C :    0.104941
   6 O :   -0.133333
   7 C :   -0.162496
   8 S :    0.431188
   9 C :   -0.205008
  10 C :   -0.043075
  11 N :   -0.052150
  12 C :   -0.011574
  13 C :   -0.045314
  14 C :   -0.202942
  15 S :    0.432386
  16 C :   -0.157086
  17 C :   -0.058550
  18 C :   -0.049748
  19 C :   -0.050095
  20 C :   -0.173063
  21 S :    0.426705
  22 C :   -0.170936
  23 C :   -0.054996
  24 C :   -0.062371
  25 C :   -0.021963
  26 C :   -0.060857
  27 C :    0.090774
  28 O :   -0.139911
  29 C :   -0.078299
  30 C :   -0.016609
  31 C :   -0.030317
  32 C :   -0.034472
  33 C :   -0.048434
  34 C :   -0.165983
  35 S :    0.443893
  36 C :   -0.188359
  37 C :   -0.034110
  38 C :   -0.058178
  39 C :   -0.062782
  40 C :   -0.027508
  41 C :   -0.047861
  42 C :   -0.008394
  43 C :   -0.063749
  44 C :   -0.140425
  45 C :   -0.035612
  46 C :   -0.030341
  47 C :   -0.180619
  48 S :    0.364567
  49 C :   -0.176959
  50 C :   -0.026908
  51 C :   -0.032062
  52 C :   -0.139488
  53 S :    0.351226
  54 C :   -0.077219
  55 H :    0.036202
  56 H :    0.003376
  57 H :    0.057390
  58 H :    0.057165
  59 H :    0.030381
  60 H :    0.032342
  61 H :    0.020079
  62 H :    0.035022
  63 H :    0.026602
  64 H :    0.042691
  65 H :    0.050015
  66 H :    0.038915
  67 H :    0.036137
  68 H :    0.022040
  69 H :    0.030438
  70 H :    0.031649
  71 H :    0.037498
  72 H :    0.032112
  73 H :    0.020342
  74 H :    0.034610
  75 H :    0.028466
  76 H :    0.041245
  77 H :    0.029170
  78 H :    0.032057
  79 H :    0.032990
  80 H :    0.030881
  81 H :    0.031781
  82 H :    0.032966
  83 H :    0.028225
  84 H :    0.026217

  Mayer bond orders larger than 0.100000
B(  0-O ,  1-C ) :   1.2122 B(  0-O ,  4-C ) :   1.1628 B(  1-C ,  2-N ) :   1.7584
B(  1-C ,  7-C ) :   1.0434 B(  2-N ,  3-C ) :   1.3021 B(  3-C ,  4-C ) :   1.5074
B(  3-C ,  5-C ) :   0.9677 B(  4-C , 55-H ) :   0.9900 B(  5-C ,  6-O ) :   2.2045
B(  5-C , 56-H ) :   0.9525 B(  7-C ,  8-S ) :   1.0828 B(  7-C , 11-N ) :   1.7136
B(  8-S ,  9-C ) :   1.0981 B(  8-S , 11-N ) :   0.1133 B(  9-C , 10-C ) :   1.4678
B(  9-C , 14-C ) :   1.1900 B( 10-C , 11-N ) :   1.4422 B( 10-C , 12-C ) :   1.0449
B( 12-C , 13-C ) :   0.9829 B( 12-C , 57-H ) :   0.8611 B( 12-C , 58-H ) :   0.8610
B( 13-C , 14-C ) :   1.5283 B( 13-C , 17-C ) :   1.2881 B( 14-C , 15-S ) :   1.0741
B( 15-S , 16-C ) :   1.0998 B( 16-C , 17-C ) :   1.4469 B( 16-C , 18-C ) :   1.1660
B( 17-C , 59-H ) :   1.0070 B( 18-C , 19-C ) :   1.6390 B( 18-C , 60-H ) :   0.9734
B( 19-C , 20-C ) :   1.1496 B( 19-C , 61-H ) :   0.9409 B( 20-C , 21-S ) :   1.1131
B( 20-C , 24-C ) :   1.4870 B( 21-S , 22-C ) :   1.1050 B( 22-C , 23-C ) :   1.4705
B( 22-C , 32-C ) :   1.1762 B( 23-C , 24-C ) :   1.3237 B( 23-C , 31-C ) :   1.0546
B( 24-C , 25-C ) :   1.0553 B( 25-C , 26-C ) :   1.0477 B( 25-C , 62-H ) :   0.8939
B( 25-C , 63-H ) :   0.9023 B( 26-C , 27-C ) :   0.8948 B( 26-C , 30-C ) :   1.0588
B( 26-C , 64-H ) :   0.8869 B( 27-C , 28-O ) :   2.1913 B( 27-C , 29-C ) :   1.0492
B( 29-C , 65-H ) :   0.9357 B( 29-C , 66-H ) :   0.9462 B( 29-C , 67-H ) :   0.9500
B( 30-C , 31-C ) :   1.0912 B( 30-C , 68-H ) :   0.9419 B( 30-C , 69-H ) :   0.9183
B( 31-C , 70-H ) :   0.9114 B( 31-C , 71-H ) :   0.9032 B( 32-C , 33-C ) :   1.6640
B( 32-C , 72-H ) :   0.9693 B( 33-C , 34-C ) :   1.1256 B( 33-C , 73-H ) :   0.9565
B( 34-C , 35-S ) :   1.1234 B( 34-C , 36-C ) :   0.1023 B( 34-C , 38-C ) :   1.4777
B( 35-S , 36-C ) :   1.1076 B( 36-C , 37-C ) :   1.4718 B( 36-C , 39-C ) :   0.9997
B( 37-C , 38-C ) :   1.2926 B( 37-C , 74-H ) :   1.0007 B( 38-C , 75-H ) :   0.9908
B( 39-C , 40-C ) :   2.2389 B( 40-C , 41-C ) :   1.0086 B( 41-C , 42-C ) :   1.6446
B( 41-C , 76-H ) :   0.9626 B( 42-C , 43-C ) :   1.1642 B( 42-C , 77-H ) :   0.9776
B( 43-C , 44-C ) :   1.5706 B( 43-C , 78-H ) :   0.9786 B( 44-C , 45-C ) :   1.1378
B( 44-C , 48-S ) :   1.0322 B( 45-C , 46-C ) :   1.6048 B( 45-C , 79-H ) :   0.9982
B( 46-C , 47-C ) :   1.1749 B( 46-C , 80-H ) :   0.9920 B( 47-C , 48-S ) :   1.0363
B( 47-C , 49-C ) :   1.5536 B( 49-C , 50-C ) :   1.1549 B( 49-C , 53-S ) :   1.0445
B( 50-C , 51-C ) :   1.6616 B( 50-C , 81-H ) :   0.9912 B( 51-C , 52-C ) :   1.0805
B( 51-C , 82-H ) :   0.9921 B( 52-C , 53-S ) :   1.0081 B( 52-C , 54-C ) :   1.8650
B( 54-C , 83-H ) :   0.9500 B( 54-C , 84-H ) :   0.9410

-----------------------------------------------------------------------------
         ABSORPTION SPECTRUM VIA TRANSITION ELECTRIC DIPOLE MOMENTS
-----------------------------------------------------------------------------
State   Energy  Wavelength   fosc         T2         TX        TY        TZ
        (cm-1)    (nm)                  (au**2)     (au)      (au)      (au)
-----------------------------------------------------------------------------
   0   15745.5    635.1   3.093560592  64.68103   7.26264  -1.90313   2.88325
   1   20107.5    497.3   0.263096662   4.30758   1.63555  -0.95459   0.84932
   2   22336.3    447.7   0.072774960   1.07262   0.92107  -0.15571   0.44722
   3   25149.4    397.6   1.128668844  14.77457  -0.83589   3.68085   0.72607
   4   25921.0    385.8   0.042842392   0.54412   0.62956  -0.16103   0.34906
   5   28556.7    350.2   0.164812640   1.90002   0.75134   0.92576   0.69173
   6   29234.7    342.1   0.115661945   1.30247   0.35944  -1.08005  -0.08219
   7   30156.4    331.6   0.026890302   0.29356  -0.50036  -0.13743  -0.15592
   8   32214.2    310.4   0.076521635   0.78201   0.54365   0.55136   0.42715
   9   33041.4    302.7   0.020546391   0.20472  -0.06951   0.44286  -0.06132
  10   33929.6    294.7   0.042740431   0.41470   0.00910  -0.60949  -0.20769
  11   34225.6    292.2   0.019348531   0.18611   0.24833   0.18145   0.30253
  12   34427.3    290.5   0.000036665   0.00035   0.00955   0.00728   0.01436
  13   34557.9    289.4   0.000115737   0.00110   0.02800   0.01781   0.00107
  14   34943.1    286.2   0.029985571   0.28251   0.42600  -0.31010   0.06975
  15   35527.3    281.5   0.058228766   0.53957  -0.11519   0.69288   0.21499
  16   36460.1    274.3   0.116056233   1.04791  -0.52971  -0.73504  -0.47649
  17   37105.8    269.5   0.021049492   0.18676   0.31041  -0.21809   0.20698
  18   37222.0    268.7   0.000510471   0.00451  -0.05783   0.03096  -0.01455
  19   37308.9    268.0   0.002196733   0.01938  -0.02833  -0.13361  -0.02700
  20   38107.8    262.4   0.017452872   0.15077   0.29059  -0.19184   0.17184
  21   38195.3    261.8   0.058662237   0.50562  -0.66175   0.11509  -0.23335
  22   38663.5    258.6   0.004517573   0.03847  -0.15176   0.10188  -0.07111
  23   39247.0    254.8   0.115980874   0.97287   0.85147  -0.39620   0.30150
  24   39782.7    251.4   0.059848843   0.49526   0.07758   0.59695   0.36456
  25   40223.1    248.6   0.027217360   0.22276   0.25682  -0.38607   0.08810

FINAL SINGLE POINT ENERGY     -4415.613487590147

DIPOLE MOMENT
-------------
                                X             Y             Z
Electronic contribution:    -26.21065      49.47265      -2.10273
Nuclear contribution   :     27.97936     -50.44467       2.26731
                        -----------------------------------------
Total Dipole Moment    :      1.76871      -0.97202       0.16458
                        -----------------------------------------
Magnitude (a.u.)       :      2.02491
Magnitude (Debye)      :      5.14690

Rotational constants in cm-1:     0.001963     0.000209     0.000190
Rotational constants in MHz :    58.837834     6.274273     5.709568

                             ****ORCA TERMINATED NORMALLY****
TOTAL RUN TIME: 0 days 0 hours 7 minutes 52 seconds 11 msec
