                         Program Version 4.2.0 -  RELEASE  -
|  1> # ORCA input file
|  2> # SCF done       -163.355551575144          0.000190021918
|  3> ! CAM-B3LYP def2-SVP def2/J RIJCOSX Grid4 TightSCF
|  4> %maxcore 5000
|  5> %tddft
|  6>     Mode sTDDFT
|  7>     Ethresh 5.0
|  8>     maxcore 5000
|  9> end
| 10>
| 11> %pal
| 12>   nprocs 6
| 13>   end
| 14> * xyz 0 1
| 15>    C        7.42189         2.91254         0.55248
| 16>    C        6.97650         2.20288        -0.49337
| 17>    C        6.93695         2.60270        -1.87109
| 18>    C        6.42412         1.67262        -2.70598
| 19>    C        6.01986         0.46729        -2.06457
| 20>    S        6.32157         0.56335        -0.34390
| 21>    C        5.45978        -0.64073        -2.65676
| 22>    C        5.15349        -0.82887        -4.02658
| 23>    C        4.58308        -2.03036        -4.29823
| 24>    C        4.41193        -2.87549        -3.16593
| 25>    S        5.00584        -2.06239        -1.73633
| 26>    C        3.79210        -4.09722        -3.23566
| 27>    C        3.53608        -5.10091        -2.28194
| 28>    O        2.57511        -5.98876        -2.65046
| 29>    C        2.42959        -6.92148        -1.67767
| 30>    C        3.33344        -6.65122        -0.65870
| 31>    C        4.03845        -5.50205        -1.03385
| 32>    C        5.16796        -4.96333        -0.23531
| 33>    F        6.22550        -4.60305        -0.98201
| 34>    F        4.84421        -3.89738         0.52154
| 35>    F        5.63213        -5.88528         0.63075
| 36>    C        1.47662        -7.95338        -1.78131
| 37>    C        0.62256        -8.07845        -2.84604
| 38>    C       -0.37255        -9.04398        -3.03688
| 39>    C       -0.72965       -10.11769        -2.24508
| 40>    C       -1.79317       -11.00419        -2.53390
| 41>    C       -1.97793       -11.99359        -1.61165
| 42>    C       -1.06195       -11.95170        -0.54368
| 43>    S        0.03849       -10.60763        -0.74806
| 44>    C       -0.97308       -12.80430         0.54567
| 45>    C       -1.81488       -13.88891         0.86309
| 46>    C       -1.46812       -14.53451         2.01482
| 47>    C       -0.33064       -13.99670         2.65607
| 48>    S        0.28268       -12.63091         1.75193
| 49>    C        0.25529       -14.45075         3.81762
| 50>    C        1.40762       -13.88724         4.37234
| 51>    O        2.02132       -12.83791         3.78427
| 52>    C        3.12414       -12.51207         4.51035
| 53>    C        3.22141       -13.37302         5.60374
| 54>    C        2.13640       -14.24189         5.52039
| 55>    C        1.79111       -15.34167         6.45147
| 56>    F        1.75586       -16.54753         5.84517
| 57>    F        2.65934       -15.45293         7.46407
| 58>    F        0.57151       -15.18857         7.00972
| 59>    C        3.93000       -11.44618         4.07443
| 60>    C        5.08938       -11.05043         4.68554
| 61>    C        5.88318        -9.99284         4.23371
| 62>    C        7.06832        -9.61036         4.81931
| 63>    C        7.91774        -8.55395         4.41175
| 64>    C        9.03860        -8.41061         5.17082
| 65>    C        9.14187        -9.34845         6.22574
| 66>    S        7.75319       -10.41755         6.21930
| 67>    C       10.15012        -9.47278         7.15502
| 68>    C       11.32585        -8.68050         7.26582
| 69>    C       12.14634        -9.03889         8.27889
| 70>    C       11.67899       -10.15142         9.05442
| 71>    S       10.12735       -10.70196         8.40214
| 72>    C       12.27354       -10.72578        10.10954
| 73>    H        7.80989         3.90667         0.41652
| 74>    H        7.40559         2.51750         1.55151
| 75>    H        7.29542         3.57100        -2.17242
| 76>    H        6.31938         1.80361        -3.76834
| 77>    H        5.35726        -0.07504        -4.76546
| 78>    H        4.27904        -2.35058        -5.27918
| 79>    H        3.35088        -4.33227        -4.19755
| 80>    H        3.47317        -7.22044         0.23712
| 81>    H        1.44720        -8.63942        -0.95071
| 82>    H        0.71427        -7.33646        -3.62864
| 83>    H       -0.96589        -8.93930        -3.93725
| 84>    H       -2.39642       -10.88194        -3.41650
| 85>    H       -2.74131       -12.74749        -1.67959
| 86>    H       -2.65133       -14.16362         0.24589
| 87>    H       -1.99072       -15.38194         2.42149
| 88>    H       -0.18431       -15.29432         4.32612
| 89>    H        3.97773       -13.36905         6.36098
| 90>    H        3.58839       -10.93297         3.18634
| 91>    H        5.42829       -11.58155         5.56493
| 92>    H        5.55872        -9.43505         3.36530
| 93>    H        7.66987        -7.93362         3.56840
| 94>    H        9.79076        -7.66120         5.00196
| 95>    H       11.52042        -7.87025         6.58579
| 96>    H       13.07841        -8.55775         8.51656
| 97>    H       13.21724       -10.36043        10.47425
| 98>    H       11.83273       -11.56148        10.62116
| 99> *
|100>
|101>                          ****END OF INPUT****

CARTESIAN COORDINATES (ANGSTROEM)
---------------------------------
  C      7.421890    2.912540    0.552480
  C      6.976500    2.202880   -0.493370
  C      6.936950    2.602700   -1.871090
  C      6.424120    1.672620   -2.705980
  C      6.019860    0.467290   -2.064570
  S      6.321570    0.563350   -0.343900
  C      5.459780   -0.640730   -2.656760
  C      5.153490   -0.828870   -4.026580
  C      4.583080   -2.030360   -4.298230
  C      4.411930   -2.875490   -3.165930
  S      5.005840   -2.062390   -1.736330
  C      3.792100   -4.097220   -3.235660
  C      3.536080   -5.100910   -2.281940
  O      2.575110   -5.988760   -2.650460
  C      2.429590   -6.921480   -1.677670
  C      3.333440   -6.651220   -0.658700
  C      4.038450   -5.502050   -1.033850
  C      5.167960   -4.963330   -0.235310
  F      6.225500   -4.603050   -0.982010
  F      4.844210   -3.897380    0.521540
  F      5.632130   -5.885280    0.630750
  C      1.476620   -7.953380   -1.781310
  C      0.622560   -8.078450   -2.846040
  C     -0.372550   -9.043980   -3.036880
  C     -0.729650  -10.117690   -2.245080
  C     -1.793170  -11.004190   -2.533900
  C     -1.977930  -11.993590   -1.611650
  C     -1.061950  -11.951700   -0.543680
  S      0.038490  -10.607630   -0.748060
  C     -0.973080  -12.804300    0.545670
  C     -1.814880  -13.888910    0.863090
  C     -1.468120  -14.534510    2.014820
  C     -0.330640  -13.996700    2.656070
  S      0.282680  -12.630910    1.751930
  C      0.255290  -14.450750    3.817620
  C      1.407620  -13.887240    4.372340
  O      2.021320  -12.837910    3.784270
  C      3.124140  -12.512070    4.510350
  C      3.221410  -13.373020    5.603740
  C      2.136400  -14.241890    5.520390
  C      1.791110  -15.341670    6.451470
  F      1.755860  -16.547530    5.845170
  F      2.659340  -15.452930    7.464070
  F      0.571510  -15.188570    7.009720
  C      3.930000  -11.446180    4.074430
  C      5.089380  -11.050430    4.685540
  C      5.883180   -9.992840    4.233710
  C      7.068320   -9.610360    4.819310
  C      7.917740   -8.553950    4.411750
  C      9.038600   -8.410610    5.170820
  C      9.141870   -9.348450    6.225740
  S      7.753190  -10.417550    6.219300
  C     10.150120   -9.472780    7.155020
  C     11.325850   -8.680500    7.265820
  C     12.146340   -9.038890    8.278890
  C     11.678990  -10.151420    9.054420
  S     10.127350  -10.701960    8.402140
  C     12.273540  -10.725780   10.109540
  H      7.809890    3.906670    0.416520
  H      7.405590    2.517500    1.551510
  H      7.295420    3.571000   -2.172420
  H      6.319380    1.803610   -3.768340
  H      5.357260   -0.075040   -4.765460
  H      4.279040   -2.350580   -5.279180
  H      3.350880   -4.332270   -4.197550
  H      3.473170   -7.220440    0.237120
  H      1.447200   -8.639420   -0.950710
  H      0.714270   -7.336460   -3.628640
  H     -0.965890   -8.939300   -3.937250
  H     -2.396420  -10.881940   -3.416500
  H     -2.741310  -12.747490   -1.679590
  H     -2.651330  -14.163620    0.245890
  H     -1.990720  -15.381940    2.421490
  H     -0.184310  -15.294320    4.326120
  H      3.977730  -13.369050    6.360980
  H      3.588390  -10.932970    3.186340
  H      5.428290  -11.581550    5.564930
  H      5.558720   -9.435050    3.365300
  H      7.669870   -7.933620    3.568400
  H      9.790760   -7.661200    5.001960
  H     11.520420   -7.870250    6.585790
  H     13.078410   -8.557750    8.516560
  H     13.217240  -10.360430   10.474250
  H     11.832730  -11.561480   10.621160

 Total Charge           Charge          ....    0
 Multiplicity           Mult            ....    1
 Number of Electrons    NEL             ....  456
 Basis Dimension        Dim             ....  966

ORBITAL ENERGIES
----------------

  NO   OCC          E(Eh)            E(eV)
   0   2.0000     -88.945837     -2420.3393
   1   2.0000     -88.941364     -2420.2175
   2   2.0000     -88.940060     -2420.1821
   3   2.0000     -88.938137     -2420.1298
   4   2.0000     -88.937097     -2420.1014
   5   2.0000     -88.933821     -2420.0123
   6   2.0000     -24.791379      -674.6077
   7   2.0000     -24.787776      -674.5097
   8   2.0000     -24.786867      -674.4849
   9   2.0000     -24.784431      -674.4186
  10   2.0000     -24.784237      -674.4134
  11   2.0000     -24.783685      -674.3983
  12   2.0000     -19.293584      -525.0051
  13   2.0000     -19.287998      -524.8531
  14   2.0000     -10.509766      -285.9853
  15   2.0000     -10.509279      -285.9720
  16   2.0000     -10.344635      -281.4918
  17   2.0000     -10.339505      -281.3522
  18   2.0000     -10.332133      -281.1516
  19   2.0000     -10.329357      -281.0761
  20   2.0000     -10.311626      -280.5936
  21   2.0000     -10.311184      -280.5816
  22   2.0000     -10.308011      -280.4952
  23   2.0000     -10.307506      -280.4815
  24   2.0000     -10.306374      -280.4507
  25   2.0000     -10.305707      -280.4325
  26   2.0000     -10.305070      -280.4152
  27   2.0000     -10.304990      -280.4130
  28   2.0000     -10.303450      -280.3711
  29   2.0000     -10.303292      -280.3668
  30   2.0000     -10.301780      -280.3257
  31   2.0000     -10.300764      -280.2980
  32   2.0000     -10.289641      -279.9954
  33   2.0000     -10.287116      -279.9267
  34   2.0000     -10.286488      -279.9096
  35   2.0000     -10.285660      -279.8870
  36   2.0000     -10.285356      -279.8788
  37   2.0000     -10.284790      -279.8634
  38   2.0000     -10.284387      -279.8524
  39   2.0000     -10.282433      -279.7992
  40   2.0000     -10.281987      -279.7871
  41   2.0000     -10.281916      -279.7852
  42   2.0000     -10.281900      -279.7847
  43   2.0000     -10.281598      -279.7765
  44   2.0000     -10.281143      -279.7641
  45   2.0000     -10.280921      -279.7581
  46   2.0000     -10.279852      -279.7290
  47   2.0000     -10.279352      -279.7154
  48   2.0000     -10.277409      -279.6625
  49   2.0000     -10.277143      -279.6553
  50   2.0000     -10.276553      -279.6392
  51   2.0000     -10.276132      -279.6278
  52   2.0000     -10.275889      -279.6212
  53   2.0000     -10.275188      -279.6021
  54   2.0000     -10.272163      -279.5198
  55   2.0000     -10.271771      -279.5091
  56   2.0000     -10.270904      -279.4855
  57   2.0000     -10.265555      -279.3399
  58   2.0000      -8.041547      -218.8216
  59   2.0000      -8.037216      -218.7038
  60   2.0000      -8.036324      -218.6795
  61   2.0000      -8.034888      -218.6404
  62   2.0000      -8.033454      -218.6014
  63   2.0000      -8.030483      -218.5205
  64   2.0000      -6.011206      -163.5732
  65   2.0000      -6.007166      -163.4633
  66   2.0000      -6.007052      -163.4602
  67   2.0000      -6.006048      -163.4329
  68   2.0000      -6.004685      -163.3958
  69   2.0000      -6.003159      -163.3543
  70   2.0000      -6.002736      -163.3427
  71   2.0000      -6.002722      -163.3424
  72   2.0000      -6.001973      -163.3220
  73   2.0000      -6.000780      -163.2895
  74   2.0000      -6.000286      -163.2761
  75   2.0000      -5.999275      -163.2486
  76   2.0000      -5.998168      -163.2184
  77   2.0000      -5.997116      -163.1898
  78   2.0000      -5.996390      -163.1701
  79   2.0000      -5.995423      -163.1438
  80   2.0000      -5.994278      -163.1126
  81   2.0000      -5.991062      -163.0251
  82   2.0000      -1.376152       -37.4470
  83   2.0000      -1.375946       -37.4414
  84   2.0000      -1.281226       -34.8639
  85   2.0000      -1.278804       -34.7980
  86   2.0000      -1.276232       -34.7280
  87   2.0000      -1.273752       -34.6606
  88   2.0000      -1.212099       -32.9829
  89   2.0000      -1.206876       -32.8408
  90   2.0000      -0.992606       -27.0102
  91   2.0000      -0.991644       -26.9840
  92   2.0000      -0.986992       -26.8574
  93   2.0000      -0.971304       -26.4305
  94   2.0000      -0.969062       -26.3695
  95   2.0000      -0.964246       -26.2385
  96   2.0000      -0.919162       -25.0117
  97   2.0000      -0.917715       -24.9723
  98   2.0000      -0.916412       -24.9368
  99   2.0000      -0.913017       -24.8445
 100   2.0000      -0.896008       -24.3816
 101   2.0000      -0.889228       -24.1971
 102   2.0000      -0.875629       -23.8271
 103   2.0000      -0.868405       -23.6305
 104   2.0000      -0.856469       -23.3057
 105   2.0000      -0.845083       -22.9959
 106   2.0000      -0.843277       -22.9467
 107   2.0000      -0.841149       -22.8888
 108   2.0000      -0.839165       -22.8348
 109   2.0000      -0.825101       -22.4521
 110   2.0000      -0.819685       -22.3048
 111   2.0000      -0.818971       -22.2853
 112   2.0000      -0.813547       -22.1377
 113   2.0000      -0.806927       -21.9576
 114   2.0000      -0.794588       -21.6218
 115   2.0000      -0.791802       -21.5460
 116   2.0000      -0.785515       -21.3749
 117   2.0000      -0.770873       -20.9765
 118   2.0000      -0.757424       -20.6106
 119   2.0000      -0.742310       -20.1993
 120   2.0000      -0.724054       -19.7025
 121   2.0000      -0.713960       -19.4278
 122   2.0000      -0.710208       -19.3257
 123   2.0000      -0.702907       -19.1271
 124   2.0000      -0.694493       -18.8981
 125   2.0000      -0.685622       -18.6567
 126   2.0000      -0.683386       -18.5959
 127   2.0000      -0.680143       -18.5076
 128   2.0000      -0.676813       -18.4170
 129   2.0000      -0.666977       -18.1494
 130   2.0000      -0.659359       -17.9421
 131   2.0000      -0.658337       -17.9143
 132   2.0000      -0.656066       -17.8525
 133   2.0000      -0.654396       -17.8070
 134   2.0000      -0.652218       -17.7477
 135   2.0000      -0.640547       -17.4302
 136   2.0000      -0.635390       -17.2898
 137   2.0000      -0.630476       -17.1561
 138   2.0000      -0.623906       -16.9774
 139   2.0000      -0.621765       -16.9191
 140   2.0000      -0.616703       -16.7813
 141   2.0000      -0.613116       -16.6837
 142   2.0000      -0.610008       -16.5992
 143   2.0000      -0.604350       -16.4452
 144   2.0000      -0.599332       -16.3087
 145   2.0000      -0.598166       -16.2769
 146   2.0000      -0.593222       -16.1424
 147   2.0000      -0.589385       -16.0380
 148   2.0000      -0.577082       -15.7032
 149   2.0000      -0.575524       -15.6608
 150   2.0000      -0.562808       -15.3148
 151   2.0000      -0.560319       -15.2471
 152   2.0000      -0.556761       -15.1502
 153   2.0000      -0.553510       -15.0618
 154   2.0000      -0.551885       -15.0175
 155   2.0000      -0.544162       -14.8074
 156   2.0000      -0.539156       -14.6712
 157   2.0000      -0.536427       -14.5969
 158   2.0000      -0.535494       -14.5715
 159   2.0000      -0.534851       -14.5540
 160   2.0000      -0.534663       -14.5489
 161   2.0000      -0.529333       -14.4039
 162   2.0000      -0.522747       -14.2247
 163   2.0000      -0.520312       -14.1584
 164   2.0000      -0.515302       -14.0221
 165   2.0000      -0.509608       -13.8671
 166   2.0000      -0.506238       -13.7754
 167   2.0000      -0.503669       -13.7055
 168   2.0000      -0.499827       -13.6010
 169   2.0000      -0.498609       -13.5678
 170   2.0000      -0.495887       -13.4938
 171   2.0000      -0.494527       -13.4568
 172   2.0000      -0.493490       -13.4286
 173   2.0000      -0.493096       -13.4178
 174   2.0000      -0.492728       -13.4078
 175   2.0000      -0.492135       -13.3917
 176   2.0000      -0.490306       -13.3419
 177   2.0000      -0.489492       -13.3197
 178   2.0000      -0.489456       -13.3188
 179   2.0000      -0.485589       -13.2136
 180   2.0000      -0.483723       -13.1628
 181   2.0000      -0.479476       -13.0472
 182   2.0000      -0.478356       -13.0167
 183   2.0000      -0.473260       -12.8781
 184   2.0000      -0.472346       -12.8532
 185   2.0000      -0.470454       -12.8017
 186   2.0000      -0.465620       -12.6702
 187   2.0000      -0.463508       -12.6127
 188   2.0000      -0.463111       -12.6019
 189   2.0000      -0.459540       -12.5047
 190   2.0000      -0.458174       -12.4675
 191   2.0000      -0.457535       -12.4502
 192   2.0000      -0.457266       -12.4428
 193   2.0000      -0.451135       -12.2760
 194   2.0000      -0.450432       -12.2569
 195   2.0000      -0.449225       -12.2240
 196   2.0000      -0.444238       -12.0883
 197   2.0000      -0.438450       -11.9308
 198   2.0000      -0.428009       -11.6467
 199   2.0000      -0.424568       -11.5531
 200   2.0000      -0.422564       -11.4986
 201   2.0000      -0.418585       -11.3903
 202   2.0000      -0.417602       -11.3635
 203   2.0000      -0.416243       -11.3266
 204   2.0000      -0.414113       -11.2686
 205   2.0000      -0.410784       -11.1780
 206   2.0000      -0.396024       -10.7764
 207   2.0000      -0.393632       -10.7113
 208   2.0000      -0.391356       -10.6493
 209   2.0000      -0.389939       -10.6108
 210   2.0000      -0.383761       -10.4427
 211   2.0000      -0.374869       -10.2007
 212   2.0000      -0.368529       -10.0282
 213   2.0000      -0.363702        -9.8968
 214   2.0000      -0.348433        -9.4813
 215   2.0000      -0.336169        -9.1476
 216   2.0000      -0.335551        -9.1308
 217   2.0000      -0.332000        -9.0342
 218   2.0000      -0.329776        -8.9737
 219   2.0000      -0.323429        -8.8009
 220   2.0000      -0.319543        -8.6952
 221   2.0000      -0.315701        -8.5907
 222   2.0000      -0.305476        -8.3124
 223   2.0000      -0.284758        -7.7487
 224   2.0000      -0.262133        -7.1330
 225   2.0000      -0.229932        -6.2568
 226   2.0000      -0.211483        -5.7548
 227   2.0000      -0.189963        -5.1692
 228   0.0000      -0.092064        -2.5052
 229   0.0000      -0.068036        -1.8513
 230   0.0000      -0.055859        -1.5200
 231   0.0000      -0.017133        -0.4662
 232   0.0000       0.001476         0.0402

MULLIKEN ATOMIC CHARGES
-----------------------
   0 C :   -0.025158
   1 C :   -0.067884
   2 C :    0.056083
   3 C :    0.028545
   4 C :   -0.067936
   5 S :    0.091136
   6 C :   -0.052149
   7 C :    0.038007
   8 C :    0.022008
   9 C :   -0.006323
  10 S :    0.101367
  11 C :   -0.091915
  12 C :    0.182076
  13 O :   -0.210078
  14 C :    0.178231
  15 C :   -0.066769
  16 C :   -0.139769
  17 C :    0.529098
  18 F :   -0.159051
  19 F :   -0.164407
  20 F :   -0.168860
  21 C :   -0.026651
  22 C :    0.012067
  23 C :    0.000158
  24 C :   -0.024939
  25 C :    0.035174
  26 C :    0.019541
  27 C :   -0.035703
  28 S :    0.060443
  29 C :   -0.043429
  30 C :    0.029445
  31 C :    0.026451
  32 C :   -0.013895
  33 S :    0.107246
  34 C :   -0.048724
  35 C :    0.130116
  36 O :   -0.218765
  37 C :    0.205043
  38 C :   -0.075873
  39 C :   -0.097226
  40 C :    0.521467
  41 F :   -0.173231
  42 F :   -0.154622
  43 F :   -0.172425
  44 C :   -0.013854
  45 C :    0.003264
  46 C :   -0.012098
  47 C :   -0.018554
  48 C :    0.033965
  49 C :    0.025604
  50 C :   -0.045043
  51 S :    0.066411
  52 C :   -0.067677
  53 C :    0.029881
  54 C :    0.053101
  55 C :   -0.066388
  56 S :    0.079954
  57 C :   -0.027438
  58 H :    0.020217
  59 H :    0.024607
  60 H :   -0.010984
  61 H :   -0.010757
  62 H :   -0.013441
  63 H :   -0.012495
  64 H :    0.000807
  65 H :   -0.006958
  66 H :    0.000968
  67 H :   -0.005532
  68 H :   -0.016286
  69 H :   -0.013553
  70 H :   -0.014102
  71 H :   -0.014732
  72 H :   -0.010466
  73 H :    0.002204
  74 H :   -0.001784
  75 H :   -0.006818
  76 H :    0.001440
  77 H :   -0.016256
  78 H :   -0.006793
  79 H :   -0.012993
  80 H :   -0.011968
  81 H :   -0.013323
  82 H :    0.018228
  83 H :    0.021722
Sum of atomic charges:   -0.0000000

LOEWDIN ATOMIC CHARGES
----------------------
   0 C :   -0.071535
   1 C :   -0.139901
   2 C :   -0.027864
   3 C :   -0.027269
   4 C :   -0.171564
   5 S :    0.359800
   6 C :   -0.185338
   7 C :   -0.029163
   8 C :   -0.035930
   9 C :   -0.136528
  10 S :    0.394066
  11 C :   -0.094693
  12 C :    0.052997
  13 O :    0.012441
  14 C :    0.034518
  15 C :   -0.040093
  16 C :   -0.133700
  17 C :    0.163263
  18 F :   -0.060345
  19 F :   -0.066931
  20 F :   -0.067784
  21 C :   -0.050587
  22 C :   -0.032434
  23 C :   -0.061234
  24 C :   -0.145452
  25 C :   -0.031140
  26 C :   -0.041558
  27 C :   -0.175998
  28 S :    0.390184
  29 C :   -0.182064
  30 C :   -0.031823
  31 C :   -0.034973
  32 C :   -0.138517
  33 S :    0.394324
  34 C :   -0.080811
  35 C :    0.044188
  36 O :    0.010193
  37 C :    0.034911
  38 C :   -0.037693
  39 C :   -0.123920
  40 C :    0.170909
  41 F :   -0.072139
  42 F :   -0.054627
  43 F :   -0.071880
  44 C :   -0.043141
  45 C :   -0.019178
  46 C :   -0.061007
  47 C :   -0.141578
  48 C :   -0.034274
  49 C :   -0.030494
  50 C :   -0.180444
  51 S :    0.364981
  52 C :   -0.177438
  53 C :   -0.026549
  54 C :   -0.032280
  55 C :   -0.139488
  56 S :    0.352423
  57 C :   -0.076934
  58 H :    0.029075
  59 H :    0.027467
  60 H :    0.033782
  61 H :    0.032485
  62 H :    0.031559
  63 H :    0.032631
  64 H :    0.043540
  65 H :    0.034475
  66 H :    0.020213
  67 H :    0.032012
  68 H :    0.034400
  69 H :    0.032955
  70 H :    0.031413
  71 H :    0.031179
  72 H :    0.034131
  73 H :    0.041950
  74 H :    0.036154
  75 H :    0.037116
  76 H :    0.022567
  77 H :    0.033206
  78 H :    0.035741
  79 H :    0.031640
  80 H :    0.032331
  81 H :    0.032812
  82 H :    0.028084
  83 H :    0.026176

  Mayer bond orders larger than 0.100000
B(  0-C ,  1-C ) :   1.8631 B(  0-C , 58-H ) :   0.9507 B(  0-C , 59-H ) :   0.9420
B(  1-C ,  2-C ) :   1.0799 B(  1-C ,  5-S ) :   1.0067 B(  2-C ,  3-C ) :   1.6629
B(  2-C , 60-H ) :   0.9922 B(  3-C ,  4-C ) :   1.1499 B(  3-C , 61-H ) :   0.9922
B(  4-C ,  5-S ) :   1.0523 B(  4-C ,  6-C ) :   1.5540 B(  6-C ,  7-C ) :   1.1653
B(  6-C , 10-S ) :   1.0405 B(  7-C ,  8-C ) :   1.6095 B(  7-C , 62-H ) :   0.9921
B(  8-C ,  9-C ) :   1.1318 B(  8-C , 63-H ) :   1.0003 B(  9-C , 10-S ) :   1.0572
B(  9-C , 11-C ) :   1.5861 B( 11-C , 12-C ) :   1.1575 B( 11-C , 64-H ) :   0.9457
B( 12-C , 13-O ) :   1.1311 B( 12-C , 16-C ) :   1.4227 B( 13-O , 14-C ) :   1.1313
B( 14-C , 15-C ) :   1.3848 B( 14-C , 21-C ) :   1.2258 B( 15-C , 16-C ) :   1.2653
B( 15-C , 65-H ) :   1.0165 B( 16-C , 17-C ) :   0.9575 B( 17-C , 18-F ) :   1.1738
B( 17-C , 19-F ) :   1.1600 B( 17-C , 20-F ) :   1.1607 B( 21-C , 22-C ) :   1.5590
B( 21-C , 66-H ) :   0.9392 B( 22-C , 23-C ) :   1.2269 B( 22-C , 67-H ) :   0.9697
B( 23-C , 24-C ) :   1.5287 B( 23-C , 68-H ) :   0.9631 B( 24-C , 25-C ) :   1.1709
B( 24-C , 28-S ) :   1.0456 B( 25-C , 26-C ) :   1.5607 B( 25-C , 69-H ) :   0.9989
B( 26-C , 27-C ) :   1.2116 B( 26-C , 70-H ) :   0.9937 B( 27-C , 28-S ) :   1.0459
B( 27-C , 29-C ) :   1.4729 B( 29-C , 30-C ) :   1.2096 B( 29-C , 33-S ) :   1.0340
B( 30-C , 31-C ) :   1.5612 B( 30-C , 71-H ) :   0.9954 B( 31-C , 32-C ) :   1.1641
B( 31-C , 72-H ) :   1.0009 B( 32-C , 33-S ) :   1.0573 B( 32-C , 34-C ) :   1.5157
B( 34-C , 35-C ) :   1.2458 B( 34-C , 73-H ) :   0.9518 B( 35-C , 36-O ) :   1.1392
B( 35-C , 39-C ) :   1.3566 B( 36-O , 37-C ) :   1.0938 B( 37-C , 38-C ) :   1.4009
B( 37-C , 44-C ) :   1.1521 B( 38-C , 39-C ) :   1.3127 B( 38-C , 74-H ) :   1.0121
B( 39-C , 40-C ) :   0.9543 B( 40-C , 41-F ) :   1.1557 B( 40-C , 42-F ) :   1.1813
B( 40-C , 43-F ) :   1.1604 B( 44-C , 45-C ) :   1.5870 B( 44-C , 75-H ) :   0.9744
B( 45-C , 46-C ) :   1.1912 B( 45-C , 76-H ) :   0.9686 B( 46-C , 47-C ) :   1.5377
B( 46-C , 77-H ) :   0.9849 B( 47-C , 48-C ) :   1.1475 B( 47-C , 51-S ) :   1.0351
B( 48-C , 49-C ) :   1.5906 B( 48-C , 78-H ) :   1.0002 B( 49-C , 50-C ) :   1.1815
B( 49-C , 79-H ) :   0.9935 B( 50-C , 51-S ) :   1.0384 B( 50-C , 52-C ) :   1.5412
B( 52-C , 53-C ) :   1.1579 B( 52-C , 56-S ) :   1.0468 B( 53-C , 54-C ) :   1.6564
B( 53-C , 80-H ) :   0.9925 B( 54-C , 55-C ) :   1.0811 B( 54-C , 81-H ) :   0.9930
B( 55-C , 56-S ) :   1.0082 B( 55-C , 57-C ) :   1.8603 B( 57-C , 82-H ) :   0.9507
B( 57-C , 83-H ) :   0.9420

-----------------------------------------------------------------------------
         ABSORPTION SPECTRUM VIA TRANSITION ELECTRIC DIPOLE MOMENTS
-----------------------------------------------------------------------------
State   Energy  Wavelength   fosc         T2         TX        TY        TZ
        (cm-1)    (nm)                  (au**2)     (au)      (au)      (au)
-----------------------------------------------------------------------------
   0    8975.8   1114.1   0.854373640  31.33661  -1.74285   3.53425  -3.97595
   1   14244.5    702.0   0.165572408   3.82663  -1.34806  -1.36697  -0.37516
   2   15692.6    637.2   2.821559539  59.19278  -5.59053  -4.97359  -1.78946
   3   17781.7    562.4   0.040409118   0.74814  -0.81850  -0.14058  -0.24172
   4   19237.1    519.8   0.101225459   1.73231  -0.53162   0.57432   1.05823
   5   20510.7    487.6   0.094003577   1.50883   0.43268  -1.09891   0.33766
   6   22955.9    435.6   0.043218262   0.61979   0.25663   0.13596   0.73175
   7   23385.9    427.6   0.084977648   1.19626  -0.63007  -0.43901  -0.77881
   8   24441.3    409.1   0.068975318   0.92906  -0.32292  -0.35969  -0.83391
   9   26784.5    373.3   0.187608693   2.30592   1.29799   0.77187  -0.15925
  10   26954.9    371.0   0.072228044   0.88215   0.54426   0.76546  -0.00090
  11   27665.5    361.5   0.183870739   2.18801  -0.11617  -1.28328   0.72643
  12   29671.5    337.0   0.030755242   0.34124  -0.13724   0.32560  -0.46517
  13   30273.5    330.3   0.021927809   0.23846   0.09106  -0.26475   0.40009
  14   30932.3    323.3   0.018627747   0.19825   0.19589  -0.28931   0.27600
  15   31126.3    321.3   0.028760572   0.30419   0.11142   0.42973  -0.32727
  16   31518.8    317.3   0.147861455   1.54440  -0.07846  -1.12705   0.51768
  17   33001.2    303.0   0.165097490   1.64697  -0.49054   0.21168  -1.16685
  18   33300.6    300.3   0.095790608   0.94699   0.23974  -0.18266   0.92529
  19   33647.2    297.2   0.059118291   0.57843  -0.12563   0.29989  -0.68754
  20   34078.4    293.4   0.000678884   0.00656  -0.01243   0.04555  -0.06580
  21   34246.2    292.0   0.001001249   0.00963  -0.08084  -0.05468   0.01002
  22   34342.5    291.2   0.023121798   0.22165   0.12862  -0.04474   0.45067
  23   34605.9    289.0   0.008414149   0.08005   0.08114  -0.05278   0.26585
  24   34743.3    287.8   0.044995970   0.42636   0.00795   0.36726  -0.53983
  25   34981.8    285.9   0.074007699   0.69648  -0.10505   0.43797  -0.70259
  26   35738.3    279.8   0.000802220   0.00739  -0.00742  -0.03466  -0.07832
  27   36501.0    274.0   0.039423447   0.35557  -0.46889  -0.20781  -0.30418
  28   36581.4    273.4   0.067655305   0.60886  -0.11455  -0.49560   0.59171
  29   36949.6    270.6   0.082802564   0.73775   0.01487  -0.52776   0.67749
  30   37522.8    266.5   0.110956647   0.97350  -0.37541  -0.76422   0.49853
  31   38038.7    262.9   0.112991048   0.97790   0.63627  -0.14554   0.74288
  32   38949.6    256.7   0.144204504   1.21885  -0.52798   0.06750  -0.96723
  33   39281.4    254.6   0.076219686   0.63879   0.23989   0.73135   0.21533
  34   39764.0    251.5   0.014358551   0.11888  -0.24987   0.12738  -0.20054
  35   40039.2    249.8   0.004285066   0.03523   0.05711   0.15685   0.08584

FINAL SINGLE POINT ENERGY     -4827.167078468897

DIPOLE MOMENT
-------------
                                X             Y             Z
Electronic contribution:    -14.52861     -28.50174      16.48478
Nuclear contribution   :     14.73430      30.31686     -18.46824
                        -----------------------------------------
Total Dipole Moment    :      0.20568       1.81512      -1.98346
                        -----------------------------------------
Magnitude (a.u.)       :      2.69649
Magnitude (Debye)      :      6.85393

Rotational constants in cm-1:     0.000892     0.000525     0.000339
Rotational constants in MHz :    26.747377    15.739818    10.163641

                             ****ORCA TERMINATED NORMALLY****
TOTAL RUN TIME: 0 days 0 hours 6 minutes 46 seconds 180 msec
