                         Program Version 4.2.0 -  RELEASE  -
|  1> # ORCA input file
|  2> # SCF done       -177.487909133995          0.000621886112
|  3> ! CAM-B3LYP def2-SVP def2/J RIJCOSX Grid4 TightSCF
|  4> %maxcore 5000
|  5> %tddft
|  6>     Mode sTDDFT
|  7>     Ethresh 5.0
|  8>     maxcore 5000
|  9> end
| 10>
| 11> %pal
| 12>   nprocs 6
| 13>   end
| 14> * xyz 0 1
| 15>    C       -2.21043       -22.05743        -1.25780
| 16>    C       -1.08915       -21.33368        -1.14935
| 17>    C        0.23459       -21.69618        -1.57242
| 18>    C        1.17580       -20.76035        -1.32848
| 19>    C        0.68458       -19.58222        -0.69421
| 20>    S       -1.04415       -19.71875        -0.42285
| 21>    C        1.40244       -18.47681        -0.32143
| 22>    C        2.79847       -18.25429        -0.46827
| 23>    C        3.22088       -17.06035         0.00760
| 24>    C        2.19398       -16.24592         0.57747
| 25>    S        0.64759       -17.08302         0.43760
| 26>    C        2.40605       -15.05692         1.19871
| 27>    C        1.41252       -14.19987         1.78697
| 28>    C        0.14156       -14.14530         1.28624
| 29>    S       -0.91794       -13.04957         2.07648
| 30>    C        0.35232       -12.63111         3.18238
| 31>    C        1.56719       -13.32015         2.93089
| 32>    C        2.63247       -13.09026         3.81760
| 33>    C        3.97889       -13.71962         3.60661
| 34>    C        4.00428       -15.16679         4.10085
| 35>    C        2.40245       -12.23636         4.90760
| 36>    C        1.16206       -11.54882         4.94439
| 37>    N        0.15607       -11.73872         4.12466
| 38>    S        1.06702       -10.38286         6.22661
| 39>    C        2.62575       -10.85716         6.76583
| 40>    C        3.23291       -11.84054         6.02979
| 41>    C        4.48684       -12.41300         6.43551
| 42>    C        5.35619       -11.81865         7.29128
| 43>    C        6.59301       -12.37308         7.67692
| 44>    C        7.43991       -11.76698         8.56557
| 45>    C        8.74759       -12.16743         8.94340
| 46>    C        9.36452       -11.32735         9.81789
| 47>    C        8.57246       -10.22236        10.20885
| 48>    S        7.00817       -10.28859         9.41656
| 49>    C        8.88825        -9.17113        11.03884
| 50>    C       10.14373        -8.79693        11.57746
| 51>    C       10.13918        -7.58913        12.19674
| 52>    C        8.87290        -6.93105        12.20884
| 53>    S        7.66940        -7.98494        11.46710
| 54>    C        8.60619        -5.70239        12.72674
| 55>    C        7.31509        -5.06831        12.79368
| 56>    C        6.93507        -4.39370        13.92051
| 57>    S        5.26313        -3.98241        13.99296
| 58>    C        5.00656        -4.74468        12.44923
| 59>    C        6.21325        -5.20694        11.87003
| 60>    C        6.18113        -5.60685        10.52469
| 61>    C        7.41648        -5.50107         9.67379
| 62>    C        7.18971        -4.47835         8.55813
| 63>    C        4.91031        -5.87337         9.99159
| 64>    C        3.78644        -5.41537        10.72439
| 65>    N        3.82369        -4.78613        11.87959
| 66>    S        2.29106        -5.66531         9.87497
| 67>    C        3.13763        -6.46716         8.61037
| 68>    C        4.49656        -6.52689         8.76833
| 69>    C        5.35823        -7.30666         7.93016
| 70>    C        5.01789        -7.87718         6.74736
| 71>    C        5.89073        -8.72327         6.03312
| 72>    C        5.57025        -9.36218         4.86854
| 73>    C        6.38631       -10.26747         4.14067
| 74>    C        5.80058       -10.78324         3.03000
| 75>    C        4.47857       -10.32084         2.80639
| 76>    S        4.01818        -9.18393         4.05787
| 77>    C        3.61073       -10.68447         1.80686
| 78>    C        3.84061       -11.60877         0.74951
| 79>    C        2.77334       -11.81610        -0.05233
| 80>    C        1.61039       -11.05365         0.30109
| 81>    S        1.97961       -10.04897         1.71207
| 82>    C        0.41097       -11.06171        -0.29512
| 83>    H       -2.19165       -23.03593        -1.70434
| 84>    H       -3.15682       -21.69017        -0.90566
| 85>    H        0.41798       -22.64679        -2.04137
| 86>    H        2.21637       -20.86698        -1.57985
| 87>    H        3.44292       -18.99139        -0.91304
| 88>    H        4.24319       -16.72429        -0.01202
| 89>    H        3.43429       -14.73376         1.23171
| 90>    H       -0.22625       -14.67298         0.42882
| 91>    H        4.73654       -13.12600         4.11630
| 92>    H        4.22606       -13.68599         2.54689
| 93>    H        3.73430       -15.21856         5.15365
| 94>    H        4.99734       -15.59310         3.97393
| 95>    H        3.29367       -15.77145         3.54178
| 96>    H        3.01066       -10.39859         7.65543
| 97>    H        4.73554       -13.39821         6.07516
| 98>    H        5.13165       -10.83917         7.69104
| 99>    H        6.90572       -13.31128         7.23734
|100>    H        9.19422       -13.05884         8.53827
|101>    H       10.35917       -11.47178        10.20118
|102>    H       11.01651        -9.41372        11.45513
|103>    H       11.00556        -7.12534        12.63486
|104>    H        9.40780        -5.20685        13.25951
|105>    H        7.55464        -4.17687        14.76951
|106>    H        7.70185        -6.45457         9.23201
|107>    H        8.24527        -5.16501        10.29801
|108>    H        6.41930        -4.81678         7.87009
|109>    H        8.11150        -4.33183         8.00006
|110>    H        6.88424        -3.52156         8.97682
|111>    H        2.56259        -6.90283         7.81702
|112>    H        6.34485        -7.51052         8.31542
|113>    H        4.04331        -7.70496         6.31090
|114>    H        6.87407        -8.90709         6.44672
|115>    H        7.37941       -10.51042         4.47661
|116>    H        6.27498       -11.48269         2.36457
|117>    H        4.79814       -12.08367         0.62165
|118>    H        2.75288       -12.48685        -0.89319
|119>    H        0.22540       -11.69240        -1.14649
|120>    H       -0.39872       -10.44962         0.05688
|121> *
|122>
|123>                          ****END OF INPUT****

CARTESIAN COORDINATES (ANGSTROEM)
---------------------------------
  C     -2.210430  -22.057430   -1.257800
  C     -1.089150  -21.333680   -1.149350
  C      0.234590  -21.696180   -1.572420
  C      1.175800  -20.760350   -1.328480
  C      0.684580  -19.582220   -0.694210
  S     -1.044150  -19.718750   -0.422850
  C      1.402440  -18.476810   -0.321430
  C      2.798470  -18.254290   -0.468270
  C      3.220880  -17.060350    0.007600
  C      2.193980  -16.245920    0.577470
  S      0.647590  -17.083020    0.437600
  C      2.406050  -15.056920    1.198710
  C      1.412520  -14.199870    1.786970
  C      0.141560  -14.145300    1.286240
  S     -0.917940  -13.049570    2.076480
  C      0.352320  -12.631110    3.182380
  C      1.567190  -13.320150    2.930890
  C      2.632470  -13.090260    3.817600
  C      3.978890  -13.719620    3.606610
  C      4.004280  -15.166790    4.100850
  C      2.402450  -12.236360    4.907600
  C      1.162060  -11.548820    4.944390
  N      0.156070  -11.738720    4.124660
  S      1.067020  -10.382860    6.226610
  C      2.625750  -10.857160    6.765830
  C      3.232910  -11.840540    6.029790
  C      4.486840  -12.413000    6.435510
  C      5.356190  -11.818650    7.291280
  C      6.593010  -12.373080    7.676920
  C      7.439910  -11.766980    8.565570
  C      8.747590  -12.167430    8.943400
  C      9.364520  -11.327350    9.817890
  C      8.572460  -10.222360   10.208850
  S      7.008170  -10.288590    9.416560
  C      8.888250   -9.171130   11.038840
  C     10.143730   -8.796930   11.577460
  C     10.139180   -7.589130   12.196740
  C      8.872900   -6.931050   12.208840
  S      7.669400   -7.984940   11.467100
  C      8.606190   -5.702390   12.726740
  C      7.315090   -5.068310   12.793680
  C      6.935070   -4.393700   13.920510
  S      5.263130   -3.982410   13.992960
  C      5.006560   -4.744680   12.449230
  C      6.213250   -5.206940   11.870030
  C      6.181130   -5.606850   10.524690
  C      7.416480   -5.501070    9.673790
  C      7.189710   -4.478350    8.558130
  C      4.910310   -5.873370    9.991590
  C      3.786440   -5.415370   10.724390
  N      3.823690   -4.786130   11.879590
  S      2.291060   -5.665310    9.874970
  C      3.137630   -6.467160    8.610370
  C      4.496560   -6.526890    8.768330
  C      5.358230   -7.306660    7.930160
  C      5.017890   -7.877180    6.747360
  C      5.890730   -8.723270    6.033120
  C      5.570250   -9.362180    4.868540
  C      6.386310  -10.267470    4.140670
  C      5.800580  -10.783240    3.030000
  C      4.478570  -10.320840    2.806390
  S      4.018180   -9.183930    4.057870
  C      3.610730  -10.684470    1.806860
  C      3.840610  -11.608770    0.749510
  C      2.773340  -11.816100   -0.052330
  C      1.610390  -11.053650    0.301090
  S      1.979610  -10.048970    1.712070
  C      0.410970  -11.061710   -0.295120
  H     -2.191650  -23.035930   -1.704340
  H     -3.156820  -21.690170   -0.905660
  H      0.417980  -22.646790   -2.041370
  H      2.216370  -20.866980   -1.579850
  H      3.442920  -18.991390   -0.913040
  H      4.243190  -16.724290   -0.012020
  H      3.434290  -14.733760    1.231710
  H     -0.226250  -14.672980    0.428820
  H      4.736540  -13.126000    4.116300
  H      4.226060  -13.685990    2.546890
  H      3.734300  -15.218560    5.153650
  H      4.997340  -15.593100    3.973930
  H      3.293670  -15.771450    3.541780
  H      3.010660  -10.398590    7.655430
  H      4.735540  -13.398210    6.075160
  H      5.131650  -10.839170    7.691040
  H      6.905720  -13.311280    7.237340
  H      9.194220  -13.058840    8.538270
  H     10.359170  -11.471780   10.201180
  H     11.016510   -9.413720   11.455130
  H     11.005560   -7.125340   12.634860
  H      9.407800   -5.206850   13.259510
  H      7.554640   -4.176870   14.769510
  H      7.701850   -6.454570    9.232010
  H      8.245270   -5.165010   10.298010
  H      6.419300   -4.816780    7.870090
  H      8.111500   -4.331830    8.000060
  H      6.884240   -3.521560    8.976820
  H      2.562590   -6.902830    7.817020
  H      6.344850   -7.510520    8.315420
  H      4.043310   -7.704960    6.310900
  H      6.874070   -8.907090    6.446720
  H      7.379410  -10.510420    4.476610
  H      6.274980  -11.482690    2.364570
  H      4.798140  -12.083670    0.621650
  H      2.752880  -12.486850   -0.893190
  H      0.225400  -11.692400   -1.146490
  H     -0.398720  -10.449620    0.056880

 Total Charge           Charge          ....    0
 Multiplicity           Mult            ....    1
 Number of Electrons    NEL             ....  548
 Basis Dimension        Dim             .... 1182

ORBITAL ENERGIES
----------------

  NO   OCC          E(Eh)            E(eV)
   0   2.0000     -88.943360     -2420.2719
   1   2.0000     -88.940779     -2420.2016
   2   2.0000     -88.939884     -2420.1773
   3   2.0000     -88.939300     -2420.1614
   4   2.0000     -88.939041     -2420.1543
   5   2.0000     -88.938462     -2420.1386
   6   2.0000     -88.937165     -2420.1033
   7   2.0000     -88.933286     -2419.9977
   8   2.0000     -88.932123     -2419.9661
   9   2.0000     -88.929354     -2419.8908
  10   2.0000     -14.400787      -391.8653
  11   2.0000     -14.397442      -391.7743
  12   2.0000     -10.321807      -280.8706
  13   2.0000     -10.320229      -280.8277
  14   2.0000     -10.317861      -280.7633
  15   2.0000     -10.317599      -280.7562
  16   2.0000     -10.305136      -280.4170
  17   2.0000     -10.305096      -280.4159
  18   2.0000     -10.303668      -280.3771
  19   2.0000     -10.302881      -280.3556
  20   2.0000     -10.302740      -280.3518
  21   2.0000     -10.302397      -280.3425
  22   2.0000     -10.302314      -280.3402
  23   2.0000     -10.300235      -280.2836
  24   2.0000     -10.300013      -280.2776
  25   2.0000     -10.298732      -280.2427
  26   2.0000     -10.296320      -280.1771
  27   2.0000     -10.294441      -280.1260
  28   2.0000     -10.294186      -280.1190
  29   2.0000     -10.293642      -280.1042
  30   2.0000     -10.291360      -280.0421
  31   2.0000     -10.288375      -279.9609
  32   2.0000     -10.287044      -279.9247
  33   2.0000     -10.286306      -279.9046
  34   2.0000     -10.286230      -279.9025
  35   2.0000     -10.284415      -279.8532
  36   2.0000     -10.284171      -279.8465
  37   2.0000     -10.284007      -279.8420
  38   2.0000     -10.282267      -279.7947
  39   2.0000     -10.282184      -279.7925
  40   2.0000     -10.281869      -279.7839
  41   2.0000     -10.281812      -279.7823
  42   2.0000     -10.281272      -279.7676
  43   2.0000     -10.281070      -279.7621
  44   2.0000     -10.280089      -279.7354
  45   2.0000     -10.280072      -279.7350
  46   2.0000     -10.279650      -279.7235
  47   2.0000     -10.278081      -279.6808
  48   2.0000     -10.276966      -279.6505
  49   2.0000     -10.276583      -279.6400
  50   2.0000     -10.276173      -279.6289
  51   2.0000     -10.275981      -279.6236
  52   2.0000     -10.275902      -279.6215
  53   2.0000     -10.275459      -279.6094
  54   2.0000     -10.274729      -279.5896
  55   2.0000     -10.274593      -279.5859
  56   2.0000     -10.274582      -279.5856
  57   2.0000     -10.271901      -279.5126
  58   2.0000     -10.268157      -279.4108
  59   2.0000     -10.267862      -279.4027
  60   2.0000     -10.267324      -279.3881
  61   2.0000     -10.266267      -279.3593
  62   2.0000     -10.266235      -279.3584
  63   2.0000     -10.265551      -279.3398
  64   2.0000     -10.261735      -279.2360
  65   2.0000     -10.261439      -279.2280
  66   2.0000     -10.258763      -279.1551
  67   2.0000     -10.248882      -278.8863
  68   2.0000      -8.040340      -218.7888
  69   2.0000      -8.037821      -218.7202
  70   2.0000      -8.036751      -218.6911
  71   2.0000      -8.035706      -218.6627
  72   2.0000      -8.034953      -218.6422
  73   2.0000      -8.034374      -218.6264
  74   2.0000      -8.032612      -218.5785
  75   2.0000      -8.030057      -218.5090
  76   2.0000      -8.027611      -218.4424
  77   2.0000      -8.025092      -218.3739
  78   2.0000      -6.009709      -163.5325
  79   2.0000      -6.007162      -163.4632
  80   2.0000      -6.006054      -163.4330
  81   2.0000      -6.005636      -163.4217
  82   2.0000      -6.005070      -163.4063
  83   2.0000      -6.004716      -163.3966
  84   2.0000      -6.004248      -163.3839
  85   2.0000      -6.003059      -163.3516
  86   2.0000      -6.002487      -163.3360
  87   2.0000      -6.001970      -163.3219
  88   2.0000      -6.001889      -163.3197
  89   2.0000      -6.000983      -163.2950
  90   2.0000      -6.000757      -163.2889
  91   2.0000      -6.000179      -163.2732
  92   2.0000      -5.999919      -163.2661
  93   2.0000      -5.999444      -163.2532
  94   2.0000      -5.998522      -163.2281
  95   2.0000      -5.998451      -163.2262
  96   2.0000      -5.997409      -163.1978
  97   2.0000      -5.997339      -163.1959
  98   2.0000      -5.995997      -163.1594
  99   2.0000      -5.995834      -163.1549
 100   2.0000      -5.995047      -163.1335
 101   2.0000      -5.994968      -163.1314
 102   2.0000      -5.993509      -163.0917
 103   2.0000      -5.993303      -163.0861
 104   2.0000      -5.991052      -163.0248
 105   2.0000      -5.990493      -163.0096
 106   2.0000      -5.988412      -162.9530
 107   2.0000      -5.985669      -162.8783
 108   2.0000      -1.051380       -28.6095
 109   2.0000      -1.048888       -28.5417
 110   2.0000      -0.989776       -26.9332
 111   2.0000      -0.987639       -26.8750
 112   2.0000      -0.982969       -26.7479
 113   2.0000      -0.974006       -26.5040
 114   2.0000      -0.971475       -26.4352
 115   2.0000      -0.966221       -26.2922
 116   2.0000      -0.963583       -26.2204
 117   2.0000      -0.959335       -26.1048
 118   2.0000      -0.950906       -25.8755
 119   2.0000      -0.948367       -25.8064
 120   2.0000      -0.908042       -24.7091
 121   2.0000      -0.907925       -24.7059
 122   2.0000      -0.901851       -24.5406
 123   2.0000      -0.898007       -24.4360
 124   2.0000      -0.886192       -24.1145
 125   2.0000      -0.879992       -23.9458
 126   2.0000      -0.867399       -23.6031
 127   2.0000      -0.859461       -23.3871
 128   2.0000      -0.853482       -23.2244
 129   2.0000      -0.843395       -22.9500
 130   2.0000      -0.840968       -22.8839
 131   2.0000      -0.840794       -22.8792
 132   2.0000      -0.837609       -22.7925
 133   2.0000      -0.835604       -22.7379
 134   2.0000      -0.832272       -22.6473
 135   2.0000      -0.821358       -22.3503
 136   2.0000      -0.818619       -22.2758
 137   2.0000      -0.814827       -22.1726
 138   2.0000      -0.811013       -22.0688
 139   2.0000      -0.807393       -21.9703
 140   2.0000      -0.805212       -21.9109
 141   2.0000      -0.800239       -21.7756
 142   2.0000      -0.795226       -21.6392
 143   2.0000      -0.786439       -21.4001
 144   2.0000      -0.766623       -20.8609
 145   2.0000      -0.758601       -20.6426
 146   2.0000      -0.752466       -20.4756
 147   2.0000      -0.730370       -19.8744
 148   2.0000      -0.726715       -19.7749
 149   2.0000      -0.721121       -19.6227
 150   2.0000      -0.714680       -19.4474
 151   2.0000      -0.712331       -19.3835
 152   2.0000      -0.695187       -18.9170
 153   2.0000      -0.689991       -18.7756
 154   2.0000      -0.683223       -18.5914
 155   2.0000      -0.680422       -18.5152
 156   2.0000      -0.677682       -18.4407
 157   2.0000      -0.673709       -18.3325
 158   2.0000      -0.669757       -18.2250
 159   2.0000      -0.659481       -17.9454
 160   2.0000      -0.656306       -17.8590
 161   2.0000      -0.644808       -17.5461
 162   2.0000      -0.638271       -17.3682
 163   2.0000      -0.626599       -17.0506
 164   2.0000      -0.625127       -17.0106
 165   2.0000      -0.621817       -16.9205
 166   2.0000      -0.618939       -16.8422
 167   2.0000      -0.616857       -16.7855
 168   2.0000      -0.614803       -16.7296
 169   2.0000      -0.611792       -16.6477
 170   2.0000      -0.610718       -16.6185
 171   2.0000      -0.607408       -16.5284
 172   2.0000      -0.605384       -16.4733
 173   2.0000      -0.600178       -16.3317
 174   2.0000      -0.598576       -16.2881
 175   2.0000      -0.594459       -16.1760
 176   2.0000      -0.589790       -16.0490
 177   2.0000      -0.585235       -15.9250
 178   2.0000      -0.579162       -15.7598
 179   2.0000      -0.561376       -15.2758
 180   2.0000      -0.556320       -15.1382
 181   2.0000      -0.552772       -15.0417
 182   2.0000      -0.551125       -14.9969
 183   2.0000      -0.545007       -14.8304
 184   2.0000      -0.537845       -14.6355
 185   2.0000      -0.532565       -14.4918
 186   2.0000      -0.528552       -14.3826
 187   2.0000      -0.527305       -14.3487
 188   2.0000      -0.525712       -14.3053
 189   2.0000      -0.522872       -14.2281
 190   2.0000      -0.516796       -14.0627
 191   2.0000      -0.516246       -14.0478
 192   2.0000      -0.511278       -13.9126
 193   2.0000      -0.511091       -13.9075
 194   2.0000      -0.509055       -13.8521
 195   2.0000      -0.507471       -13.8090
 196   2.0000      -0.506199       -13.7744
 197   2.0000      -0.499730       -13.5984
 198   2.0000      -0.498798       -13.5730
 199   2.0000      -0.496985       -13.5237
 200   2.0000      -0.496829       -13.5194
 201   2.0000      -0.492766       -13.4088
 202   2.0000      -0.491333       -13.3698
 203   2.0000      -0.489966       -13.3326
 204   2.0000      -0.488856       -13.3024
 205   2.0000      -0.486301       -13.2329
 206   2.0000      -0.484957       -13.1963
 207   2.0000      -0.481596       -13.1049
 208   2.0000      -0.477725       -12.9996
 209   2.0000      -0.477344       -12.9892
 210   2.0000      -0.476216       -12.9585
 211   2.0000      -0.472171       -12.8484
 212   2.0000      -0.469369       -12.7722
 213   2.0000      -0.469113       -12.7652
 214   2.0000      -0.465597       -12.6695
 215   2.0000      -0.464129       -12.6296
 216   2.0000      -0.459108       -12.4930
 217   2.0000      -0.456824       -12.4308
 218   2.0000      -0.456215       -12.4142
 219   2.0000      -0.453199       -12.3322
 220   2.0000      -0.450772       -12.2661
 221   2.0000      -0.448793       -12.2123
 222   2.0000      -0.447316       -12.1721
 223   2.0000      -0.444783       -12.1032
 224   2.0000      -0.444287       -12.0897
 225   2.0000      -0.442410       -12.0386
 226   2.0000      -0.440036       -11.9740
 227   2.0000      -0.437394       -11.9021
 228   2.0000      -0.432063       -11.7570
 229   2.0000      -0.430232       -11.7072
 230   2.0000      -0.428549       -11.6614
 231   2.0000      -0.427161       -11.6236
 232   2.0000      -0.424153       -11.5418
 233   2.0000      -0.420201       -11.4342
 234   2.0000      -0.418087       -11.3767
 235   2.0000      -0.417468       -11.3599
 236   2.0000      -0.415997       -11.3199
 237   2.0000      -0.414219       -11.2715
 238   2.0000      -0.413427       -11.2499
 239   2.0000      -0.411823       -11.2063
 240   2.0000      -0.409975       -11.1560
 241   2.0000      -0.407498       -11.0886
 242   2.0000      -0.406137       -11.0516
 243   2.0000      -0.400844       -10.9075
 244   2.0000      -0.397773       -10.8240
 245   2.0000      -0.390920       -10.6375
 246   2.0000      -0.389442       -10.5973
 247   2.0000      -0.387816       -10.5530
 248   2.0000      -0.384340       -10.4584
 249   2.0000      -0.381201       -10.3730
 250   2.0000      -0.367993       -10.0136
 251   2.0000      -0.363945        -9.9035
 252   2.0000      -0.357395        -9.7252
 253   2.0000      -0.347232        -9.4487
 254   2.0000      -0.341097        -9.2817
 255   2.0000      -0.334153        -9.0928
 256   2.0000      -0.333356        -9.0711
 257   2.0000      -0.330445        -8.9919
 258   2.0000      -0.330073        -8.9817
 259   2.0000      -0.327318        -8.9068
 260   2.0000      -0.325764        -8.8645
 261   2.0000      -0.320670        -8.7259
 262   2.0000      -0.315031        -8.5724
 263   2.0000      -0.311039        -8.4638
 264   2.0000      -0.304059        -8.2739
 265   2.0000      -0.299066        -8.1380
 266   2.0000      -0.290164        -7.8958
 267   2.0000      -0.282828        -7.6961
 268   2.0000      -0.274852        -7.4791
 269   2.0000      -0.261849        -7.1253
 270   2.0000      -0.250716        -6.8223
 271   2.0000      -0.217990        -5.9318
 272   2.0000      -0.207707        -5.6520
 273   2.0000      -0.202052        -5.4981
 274   0.0000      -0.067993        -1.8502
 275   0.0000      -0.059959        -1.6316
 276   0.0000      -0.054941        -1.4950
 277   0.0000      -0.020163        -0.5487
 278   0.0000      -0.009089        -0.2473

MULLIKEN ATOMIC CHARGES
-----------------------
   0 C :   -0.028993
   1 C :   -0.065224
   2 C :    0.054538
   3 C :    0.029859
   4 C :   -0.071686
   5 S :    0.076099
   6 C :   -0.055373
   7 C :    0.036659
   8 C :    0.024130
   9 C :   -0.030867
  10 S :    0.074008
  11 C :   -0.051473
  12 C :    0.113464
  13 C :   -0.151271
  14 S :    0.132604
  15 C :   -0.183040
  16 C :    0.089440
  17 C :   -0.080382
  18 C :    0.016457
  19 C :    0.041735
  20 C :    0.101060
  21 C :   -0.187632
  22 N :    0.003089
  23 S :    0.130062
  24 C :   -0.132694
  25 C :    0.104823
  26 C :   -0.021550
  27 C :    0.002938
  28 C :   -0.015062
  29 C :   -0.025413
  30 C :    0.040128
  31 C :    0.029153
  32 C :   -0.041784
  33 S :    0.050697
  34 C :   -0.058670
  35 C :    0.032371
  36 C :    0.042239
  37 C :   -0.034680
  38 S :    0.058167
  39 C :   -0.039895
  40 C :    0.066102
  41 C :   -0.107524
  42 S :    0.128726
  43 C :   -0.162048
  44 C :    0.049617
  45 C :   -0.119739
  46 C :    0.079161
  47 C :    0.028728
  48 C :    0.070161
  49 C :   -0.163826
  50 N :   -0.018552
  51 S :    0.133390
  52 C :   -0.139960
  53 C :    0.118758
  54 C :   -0.023917
  55 C :   -0.000087
  56 C :   -0.026093
  57 C :   -0.012800
  58 C :    0.042918
  59 C :    0.025736
  60 C :   -0.052768
  61 S :    0.066005
  62 C :   -0.067701
  63 C :    0.004133
  64 C :    0.086746
  65 C :   -0.097881
  66 S :    0.085708
  67 C :    0.001705
  68 H :    0.017585
  69 H :    0.020850
  70 H :   -0.013761
  71 H :   -0.014046
  72 H :   -0.017118
  73 H :   -0.018027
  74 H :   -0.027774
  75 H :    0.026102
  76 H :    0.017840
  77 H :   -0.009211
  78 H :    0.019169
  79 H :    0.009246
  80 H :    0.028334
  81 H :    0.025863
  82 H :   -0.022450
  83 H :    0.013934
  84 H :   -0.023592
  85 H :   -0.016883
  86 H :   -0.016635
  87 H :   -0.016939
  88 H :   -0.016120
  89 H :   -0.013809
  90 H :    0.017596
  91 H :    0.025287
  92 H :    0.011029
  93 H :    0.029317
  94 H :    0.011386
  95 H :    0.014980
  96 H :    0.019716
  97 H :   -0.024501
  98 H :   -0.007331
  99 H :   -0.016983
 100 H :   -0.019210
 101 H :   -0.021654
 102 H :   -0.017394
 103 H :   -0.013129
 104 H :    0.014645
 105 H :    0.020964
Sum of atomic charges:   -0.0000000

LOEWDIN ATOMIC CHARGES
----------------------
   0 C :   -0.078972
   1 C :   -0.139118
   2 C :   -0.032251
   3 C :   -0.027079
   4 C :   -0.179099
   5 S :    0.346704
   6 C :   -0.182397
   7 C :   -0.034898
   8 C :   -0.035281
   9 C :   -0.145083
  10 S :    0.367182
  11 C :   -0.056696
  12 C :   -0.068951
  13 C :   -0.172007
  14 S :    0.431834
  15 C :   -0.134130
  16 C :   -0.065220
  17 C :    0.024080
  18 C :   -0.034401
  19 C :   -0.049720
  20 C :   -0.064911
  21 C :   -0.133736
  22 N :   -0.103158
  23 S :    0.422891
  24 C :   -0.161147
  25 C :   -0.069059
  26 C :   -0.017062
  27 C :   -0.031352
  28 C :   -0.054342
  29 C :   -0.152774
  30 C :   -0.034459
  31 C :   -0.036396
  32 C :   -0.180328
  33 S :    0.370200
  34 C :   -0.184887
  35 C :   -0.035366
  36 C :   -0.033994
  37 C :   -0.145588
  38 S :    0.398452
  39 C :   -0.058580
  40 C :   -0.072546
  41 C :   -0.158706
  42 S :    0.416855
  43 C :   -0.131427
  44 C :   -0.080028
  45 C :    0.013007
  46 C :   -0.040218
  47 C :   -0.046532
  48 C :   -0.064061
  49 C :   -0.131853
  50 N :   -0.108295
  51 S :    0.423947
  52 C :   -0.164357
  53 C :   -0.069174
  54 C :   -0.021980
  55 C :   -0.034778
  56 C :   -0.055157
  57 C :   -0.145235
  58 C :   -0.032410
  59 C :   -0.038682
  60 C :   -0.182713
  61 S :    0.374819
  62 C :   -0.180712
  63 C :   -0.038963
  64 C :   -0.025085
  65 C :   -0.144806
  66 S :    0.367054
  67 C :   -0.072170
  68 H :    0.027944
  69 H :    0.025996
  70 H :    0.032723
  71 H :    0.031305
  72 H :    0.030355
  73 H :    0.030339
  74 H :    0.026257
  75 H :    0.011514
  76 H :    0.028738
  77 H :    0.021901
  78 H :    0.024664
  79 H :    0.023490
  80 H :    0.029615
  81 H :    0.021983
  82 H :    0.027132
  83 H :    0.020629
  84 H :    0.029630
  85 H :    0.031788
  86 H :    0.030872
  87 H :    0.030768
  88 H :    0.031620
  89 H :    0.033841
  90 H :    0.022959
  91 H :    0.020330
  92 H :    0.031319
  93 H :    0.026573
  94 H :    0.025149
  95 H :    0.025586
  96 H :    0.021002
  97 H :    0.021355
  98 H :    0.018815
  99 H :    0.029905
 100 H :    0.031745
 101 H :    0.027075
 102 H :    0.026863
 103 H :    0.032093
 104 H :    0.026453
 105 H :    0.024980

  Mayer bond orders larger than 0.100000
B(  0-C ,  1-C ) :   1.8704 B(  0-C , 68-H ) :   0.9498 B(  0-C , 69-H ) :   0.9417
B(  1-C ,  2-C ) :   1.0757 B(  1-C ,  5-S ) :   1.0071 B(  2-C ,  3-C ) :   1.6709
B(  2-C , 70-H ) :   0.9922 B(  3-C ,  4-C ) :   1.1452 B(  3-C , 71-H ) :   0.9909
B(  4-C ,  5-S ) :   1.0394 B(  4-C ,  6-C ) :   1.5838 B(  6-C ,  7-C ) :   1.1518
B(  6-C , 10-S ) :   1.0253 B(  7-C ,  8-C ) :   1.6349 B(  7-C , 72-H ) :   0.9917
B(  8-C ,  9-C ) :   1.1030 B(  8-C , 73-H ) :   0.9970 B(  9-C , 10-S ) :   1.0191
B(  9-C , 11-C ) :   1.6916 B( 11-C , 12-C ) :   1.0294 B( 11-C , 74-H ) :   0.9568
B( 12-C , 13-C ) :   1.5696 B( 12-C , 16-C ) :   1.1331 B( 13-C , 14-S ) :   1.1201
B( 13-C , 75-H ) :   0.9531 B( 14-S , 15-C ) :   1.0949 B( 15-C , 16-C ) :   1.1906
B( 15-C , 22-N ) :   1.5520 B( 16-C , 17-C ) :   1.3741 B( 17-C , 18-C ) :   1.0659
B( 17-C , 20-C ) :   1.3961 B( 18-C , 19-C ) :   1.1043 B( 18-C , 76-H ) :   0.9069
B( 18-C , 77-H ) :   0.9167 B( 19-C , 78-H ) :   0.9539 B( 19-C , 79-H ) :   0.9658
B( 19-C , 80-H ) :   0.9593 B( 20-C , 21-C ) :   1.1867 B( 20-C , 25-C ) :   1.1100
B( 21-C , 22-N ) :   1.5478 B( 21-C , 23-S ) :   1.0899 B( 23-S , 24-C ) :   1.1234
B( 24-C , 25-C ) :   1.5754 B( 24-C , 81-H ) :   0.9541 B( 25-C , 26-C ) :   1.0581
B( 26-C , 27-C ) :   1.6806 B( 26-C , 82-H ) :   0.9702 B( 27-C , 28-C ) :   1.1338
B( 27-C , 83-H ) :   0.9636 B( 28-C , 29-C ) :   1.5746 B( 28-C , 84-H ) :   0.9862
B( 29-C , 30-C ) :   1.1305 B( 29-C , 33-S ) :   1.0246 B( 30-C , 31-C ) :   1.5989
B( 30-C , 85-H ) :   0.9989 B( 31-C , 32-C ) :   1.1781 B( 31-C , 86-H ) :   0.9935
B( 32-C , 33-S ) :   1.0404 B( 32-C , 34-C ) :   1.5265 B( 34-C , 35-C ) :   1.1672
B( 34-C , 38-S ) :   1.0349 B( 35-C , 36-C ) :   1.6220 B( 35-C , 87-H ) :   0.9925
B( 36-C , 37-C ) :   1.1146 B( 36-C , 88-H ) :   0.9977 B( 37-C , 38-S ) :   1.0268
B( 37-C , 39-C ) :   1.6597 B( 39-C , 40-C ) :   1.0655 B( 39-C , 89-H ) :   0.9615
B( 40-C , 41-C ) :   1.5753 B( 40-C , 44-C ) :   1.1085 B( 41-C , 42-S ) :   1.1262
B( 41-C , 90-H ) :   0.9684 B( 42-S , 43-C ) :   1.0885 B( 43-C , 44-C ) :   1.2057
B( 43-C , 50-N ) :   1.5510 B( 44-C , 45-C ) :   1.3823 B( 45-C , 46-C ) :   1.0752
B( 45-C , 48-C ) :   1.3607 B( 46-C , 47-C ) :   1.1031 B( 46-C , 91-H ) :   0.9070
B( 46-C , 92-H ) :   0.9126 B( 47-C , 93-H ) :   0.9650 B( 47-C , 94-H ) :   0.9640
B( 47-C , 95-H ) :   0.9638 B( 48-C , 49-C ) :   1.2115 B( 48-C , 53-C ) :   1.1216
B( 49-C , 50-N ) :   1.5341 B( 49-C , 51-S ) :   1.0939 B( 51-S , 52-C ) :   1.1258
B( 52-C , 53-C ) :   1.5655 B( 52-C , 96-H ) :   0.9577 B( 53-C , 54-C ) :   1.0581
B( 54-C , 55-C ) :   1.6727 B( 54-C , 97-H ) :   0.9811 B( 55-C , 56-C ) :   1.1292
B( 55-C , 98-H ) :   0.9734 B( 56-C , 57-C ) :   1.5782 B( 56-C , 99-H ) :   0.9875
B( 57-C , 58-C ) :   1.1243 B( 57-C , 61-S ) :   1.0252 B( 58-C , 59-C ) :   1.5959
B( 58-C ,100-H ) :   1.0016 B( 59-C , 60-C ) :   1.1666 B( 59-C ,101-H ) :   0.9928
B( 60-C , 61-S ) :   1.0436 B( 60-C , 62-C ) :   1.5525 B( 62-C , 63-C ) :   1.1535
B( 62-C , 66-S ) :   1.0479 B( 63-C , 64-C ) :   1.6556 B( 63-C ,102-H ) :   0.9846
B( 64-C , 65-C ) :   1.0730 B( 64-C ,103-H ) :   0.9910 B( 65-C , 66-S ) :   1.0132
B( 65-C , 67-C ) :   1.8702 B( 67-C ,104-H ) :   0.9483 B( 67-C ,105-H ) :   0.9335

-----------------------------------------------------------------------------
         ABSORPTION SPECTRUM VIA TRANSITION ELECTRIC DIPOLE MOMENTS
-----------------------------------------------------------------------------
State   Energy  Wavelength   fosc         T2         TX        TY        TZ
        (cm-1)    (nm)                  (au**2)     (au)      (au)      (au)
-----------------------------------------------------------------------------
   0   14681.2    681.1   0.045499257   1.02028  -0.49764  -0.78541  -0.39467
   1   15828.8    631.8   0.008664290   0.18020  -0.26575  -0.33064   0.01599
   2   16799.3    595.3   0.902481485  17.68570  -1.68791  -2.89336  -2.54266
   3   18516.7    540.1   1.799212386  31.98861  -2.06381  -3.07934  -4.27165
   4   20349.1    491.4   0.297884852   4.81923  -0.50999  -1.58316  -1.43274
   5   21467.8    465.8   0.586412949   8.99274   0.88638   2.72282   0.89069
   6   21735.4    460.1   0.107143796   1.62283  -0.40389  -1.08497   0.53156
   7   23439.5    426.6   0.017776377   0.24967   0.32535  -0.37744   0.03681
   8   23924.1    418.0   0.074489727   1.02503   0.99279  -0.18167   0.07997
   9   24313.0    411.3   0.010788498   0.14608  -0.17433  -0.23809  -0.24291
  10   24532.5    407.6   0.028928162   0.38820  -0.57979  -0.22253  -0.05029
  11   25492.9    392.3   0.125433666   1.61983  -1.12295   0.36341  -0.47619
  12   26149.8    382.4   0.037392398   0.47075   0.33233  -0.26440  -0.53889
  13   26727.0    374.2   0.071749811   0.88378   0.25573  -0.13438   0.89461
  14   27117.4    368.8   0.010111064   0.12275   0.31284  -0.15645   0.02014
  15   28082.1    356.1   0.015863916   0.18598  -0.42848   0.03635   0.03251
  16   29068.3    344.0   0.074722698   0.84627   0.62035  -0.61006   0.29876
  17   29176.1    342.7   0.274124194   3.09312  -1.44605   0.95914  -0.28658
  18   29511.8    338.8   0.017172027   0.19156   0.30515  -0.07685   0.30420
  19   29825.9    335.3   0.077958631   0.86049  -0.78195   0.49272   0.07915
  20   30317.3    329.8   0.297257475   3.22789   1.21106  -1.07842  -0.77345
  21   31211.8    320.4   0.055389257   0.58423   0.15337  -0.72882  -0.17183
  22   31387.9    318.6   0.035165279   0.36883  -0.51768  -0.18329   0.25930
  23   31535.4    317.1   0.054147893   0.56527  -0.67929   0.24553   0.20869
  24   31758.4    314.9   0.032723493   0.33922   0.30563   0.07479  -0.49012
  25   32076.8    311.8   0.116288122   1.19349   1.02915   0.14664   0.33593
  26   32174.2    310.8   0.102576256   1.04958   0.97153  -0.10115   0.30900
  27   32599.4    306.8   0.018662305   0.18847  -0.36774   0.10547   0.20520
  28   33186.7    301.3   0.024255459   0.24061   0.41519   0.02695   0.25982
  29   33321.4    300.1   0.088506787   0.87444  -0.89891   0.02255  -0.25667
  30   33482.3    298.7   0.003667679   0.03606   0.08461  -0.16520   0.04014
  31   33985.5    294.2   0.046007108   0.44566   0.58734  -0.05702   0.31216
  32   34025.2    293.9   0.004190502   0.04055  -0.19245  -0.05755   0.01395
  33   34128.6    293.0   0.029647245   0.28598  -0.53462   0.00846   0.00993
  34   34228.5    292.2   0.009631965   0.09264  -0.25074  -0.13202  -0.11108
  35   34511.1    289.8   0.003667404   0.03498   0.12358  -0.14035  -0.00390
  36   34865.3    286.8   0.018417056   0.17390  -0.32904   0.02219  -0.25522
  37   35040.3    285.4   0.065584569   0.61618   0.46720  -0.53720  -0.33064
  38   35214.8    284.0   0.043113065   0.40305   0.37263  -0.15036  -0.49152
  39   35494.8    281.7   0.032932403   0.30545   0.37860   0.32089   0.24318
  40   35673.0    280.3   0.008296412   0.07656   0.25242  -0.09751  -0.05779
  41   36088.3    277.1   0.024679882   0.22514  -0.20154   0.25870   0.34293
  42   36357.9    275.0   0.008513196   0.07708   0.16390  -0.18531  -0.12603
  43   36458.8    274.3   0.002095510   0.01892  -0.00714  -0.13244  -0.03648
  44   36614.7    273.1   0.023628060   0.21245  -0.43734   0.14064  -0.03746
  45   36989.2    270.3   0.049508703   0.44064  -0.37421  -0.28480  -0.46850
  46   37163.9    269.1   0.096010381   0.85050  -0.33818  -0.42875  -0.74317
  47   37255.6    268.4   0.062449042   0.55184  -0.06182  -0.35206  -0.65120
  48   37526.7    266.5   0.088603848   0.77730  -0.53710  -0.19057  -0.67269
  49   37560.8    266.2   0.042244883   0.37027  -0.46146  -0.14753  -0.36817
  50   37745.3    264.9   0.026355872   0.22987   0.08445  -0.33703  -0.33038
  51   37907.0    263.8   0.022859298   0.19853   0.16121   0.05524   0.41169
  52   38386.5    260.5   0.173287078   1.48615   1.09647  -0.26854   0.46022
  53   38457.2    260.0   0.231721280   1.98364  -0.27908   0.93292   1.01755
  54   38812.7    257.6   0.011636223   0.09870   0.09435   0.29937  -0.01315
  55   38879.2    257.2   0.026372549   0.22331  -0.01718  -0.41444  -0.22640
  56   39433.4    253.6   0.020183019   0.16850  -0.29130   0.01865  -0.28861
  57   39643.0    252.3   0.016378776   0.13602   0.34820  -0.11076  -0.05005
  58   39826.0    251.1   0.000770510   0.00637  -0.01953   0.06912   0.03479
  59   39866.8    250.8   0.001385501   0.01144  -0.10559   0.01545   0.00734
  60   39929.6    250.4   0.030623323   0.25248  -0.48008   0.14101   0.04609
  61   40217.6    248.6   0.054973381   0.45000  -0.20250  -0.31025  -0.55923
  62   40294.3    248.2   0.009604096   0.07847   0.00169  -0.10019  -0.26159

FINAL SINGLE POINT ENERGY     -6243.959492183450

DIPOLE MOMENT
-------------
                                X             Y             Z
Electronic contribution:    -33.76669      24.47395      22.60549
Nuclear contribution   :     37.18740     -26.50250     -23.81919
                        -----------------------------------------
Total Dipole Moment    :      3.42070      -2.02855      -1.21371
                        -----------------------------------------
Magnitude (a.u.)       :      4.15804
Magnitude (Debye)      :     10.56890

Rotational constants in cm-1:     0.002148     0.000334     0.000316
Rotational constants in MHz :    64.401517    10.017227     9.464031

                             ****ORCA TERMINATED NORMALLY****
TOTAL RUN TIME: 0 days 0 hours 13 minutes 20 seconds 449 msec
