                         Program Version 4.2.0 -  RELEASE  -
|  1> # ORCA input file
|  2> # SCF done       -143.294878595285          0.000310657757
|  3> ! CAM-B3LYP def2-SVP def2/J RIJCOSX Grid4 TightSCF
|  4> %maxcore 5000
|  5> %tddft
|  6>     Mode sTDDFT
|  7>     Ethresh 5.0
|  8>     maxcore 5000
|  9> end
| 10>
| 11> %pal
| 12>   nprocs 6
| 13>   end
| 14> * xyz 0 1
| 15>    C        1.78596        -3.47665        -3.39236
| 16>    O        1.65294        -3.67308        -2.05118
| 17>    C        0.34079        -3.51247        -1.79688
| 18>    C       -0.59956        -3.53578        -0.73962
| 19>    C       -0.29990        -3.80647         0.67348
| 20>    O       -1.12367        -3.82346         1.57532
| 21>    N        1.00709        -4.04336         0.91043
| 22>    C       -1.81798        -3.24293        -1.38025
| 23>    O       -1.65248        -3.05428        -2.71685
| 24>    C       -0.34942        -3.21699        -2.96817
| 25>    C        0.60228        -3.19462        -4.01129
| 26>    C       -3.14199        -3.09957        -0.88679
| 27>    C       -4.29160        -2.78133        -1.59194
| 28>    C       -5.38809        -2.71696        -0.67428
| 29>    C       -4.85184        -3.05710         0.63864
| 30>    O       -5.38892        -3.18342         1.72496
| 31>    N       -3.49795        -3.25033         0.42657
| 32>    C       -6.51898        -2.41857        -1.41928
| 33>    O       -6.16247        -2.33383        -2.74281
| 34>    C       -4.79587        -2.53110        -2.91841
| 35>    O       -4.28552        -2.47641        -4.00217
| 36>    C       -7.90870        -2.18287        -1.22178
| 37>    S       -8.72055        -2.30622        -2.81427
| 38>    C      -10.33015        -2.81904        -2.33643
| 39>    C      -11.11299        -3.66459        -3.05773
| 40>    S      -12.65092        -3.90031        -2.32153
| 41>    C      -12.22733        -2.86778        -1.01307
| 42>    C      -10.97469        -2.36096        -1.16026
| 43>    S      -10.23363        -1.22809        -0.04470
| 44>    C       -8.52400        -1.72097        -0.07715
| 45>    C       -7.84408        -1.50132         1.14805
| 46>    C       -8.28775        -0.67961         2.13734
| 47>    C       -7.60533        -0.47962         3.35891
| 48>    S       -8.08143         0.82976         4.41126
| 49>    C       -6.83926         0.40839         5.55807
| 50>    C       -6.12756        -0.70475         5.13237
| 51>    C       -6.54748        -1.19358         3.90506
| 52>    C       -6.62374         1.15137         6.69840
| 53>    C       -6.41362         1.83297         7.68689
| 54>    C       -6.12882         2.60174         8.79703
| 55>    C       -6.54638         3.89399         8.93609
| 56>    C       -6.22380         4.69644        10.04084
| 57>    C       -6.54011         6.02668        10.15195
| 58>    C       -6.22064         6.88931        11.23151
| 59>    C       -6.62283         8.17612        11.06043
| 60>    C       -7.28649         8.41301         9.83102
| 61>    S       -7.39296         6.92683         8.90667
| 62>    C       -7.78427         9.60345         9.35637
| 63>    C       -7.74592        10.87325         9.99779
| 64>    C       -8.30154        11.87609         9.28269
| 65>    C       -8.82803        11.47545         8.00934
| 66>    S       -8.56788         9.73684         7.79481
| 67>    C       -9.42679        12.24437         7.08977
| 68>    H        2.77816        -3.56479        -3.78721
| 69>    H        1.69692        -4.03391         0.18020
| 70>    H        1.29201        -4.23788         1.85565
| 71>    H        0.44337        -3.00189        -5.05054
| 72>    H       -2.81388        -3.49562         1.14791
| 73>    H      -10.87813        -4.14281        -3.98626
| 74>    H      -12.92510        -2.67645        -0.22387
| 75>    H       -6.91582        -2.02544         1.29194
| 76>    H       -9.18550        -0.09207         1.98857
| 77>    H       -5.32287        -1.12288         5.71060
| 78>    H       -6.10928        -2.04554         3.41815
| 79>    H       -5.51814         2.14372         9.56609
| 80>    H       -7.13519         4.34178         8.14546
| 81>    H       -5.66891         4.24936        10.85623
| 82>    H       -5.69821         6.52532        12.09903
| 83>    H       -6.45941         8.96122        11.77679
| 84>    H       -7.30312        10.99552        10.97041
| 85>    H       -8.36284        12.90095         9.60326
| 86>    H       -9.56389        13.29765         7.25974
| 87>    H       -9.78570        11.83974         6.16140
| 88> *
| 89>
| 90>                          ****END OF INPUT****

CARTESIAN COORDINATES (ANGSTROEM)
---------------------------------
  C      1.785960   -3.476650   -3.392360
  O      1.652940   -3.673080   -2.051180
  C      0.340790   -3.512470   -1.796880
  C     -0.599560   -3.535780   -0.739620
  C     -0.299900   -3.806470    0.673480
  O     -1.123670   -3.823460    1.575320
  N      1.007090   -4.043360    0.910430
  C     -1.817980   -3.242930   -1.380250
  O     -1.652480   -3.054280   -2.716850
  C     -0.349420   -3.216990   -2.968170
  C      0.602280   -3.194620   -4.011290
  C     -3.141990   -3.099570   -0.886790
  C     -4.291600   -2.781330   -1.591940
  C     -5.388090   -2.716960   -0.674280
  C     -4.851840   -3.057100    0.638640
  O     -5.388920   -3.183420    1.724960
  N     -3.497950   -3.250330    0.426570
  C     -6.518980   -2.418570   -1.419280
  O     -6.162470   -2.333830   -2.742810
  C     -4.795870   -2.531100   -2.918410
  O     -4.285520   -2.476410   -4.002170
  C     -7.908700   -2.182870   -1.221780
  S     -8.720550   -2.306220   -2.814270
  C    -10.330150   -2.819040   -2.336430
  C    -11.112990   -3.664590   -3.057730
  S    -12.650920   -3.900310   -2.321530
  C    -12.227330   -2.867780   -1.013070
  C    -10.974690   -2.360960   -1.160260
  S    -10.233630   -1.228090   -0.044700
  C     -8.524000   -1.720970   -0.077150
  C     -7.844080   -1.501320    1.148050
  C     -8.287750   -0.679610    2.137340
  C     -7.605330   -0.479620    3.358910
  S     -8.081430    0.829760    4.411260
  C     -6.839260    0.408390    5.558070
  C     -6.127560   -0.704750    5.132370
  C     -6.547480   -1.193580    3.905060
  C     -6.623740    1.151370    6.698400
  C     -6.413620    1.832970    7.686890
  C     -6.128820    2.601740    8.797030
  C     -6.546380    3.893990    8.936090
  C     -6.223800    4.696440   10.040840
  C     -6.540110    6.026680   10.151950
  C     -6.220640    6.889310   11.231510
  C     -6.622830    8.176120   11.060430
  C     -7.286490    8.413010    9.831020
  S     -7.392960    6.926830    8.906670
  C     -7.784270    9.603450    9.356370
  C     -7.745920   10.873250    9.997790
  C     -8.301540   11.876090    9.282690
  C     -8.828030   11.475450    8.009340
  S     -8.567880    9.736840    7.794810
  C     -9.426790   12.244370    7.089770
  H      2.778160   -3.564790   -3.787210
  H      1.696920   -4.033910    0.180200
  H      1.292010   -4.237880    1.855650
  H      0.443370   -3.001890   -5.050540
  H     -2.813880   -3.495620    1.147910
  H    -10.878130   -4.142810   -3.986260
  H    -12.925100   -2.676450   -0.223870
  H     -6.915820   -2.025440    1.291940
  H     -9.185500   -0.092070    1.988570
  H     -5.322870   -1.122880    5.710600
  H     -6.109280   -2.045540    3.418150
  H     -5.518140    2.143720    9.566090
  H     -7.135190    4.341780    8.145460
  H     -5.668910    4.249360   10.856230
  H     -5.698210    6.525320   12.099030
  H     -6.459410    8.961220   11.776790
  H     -7.303120   10.995520   10.970410
  H     -8.362840   12.900950    9.603260
  H     -9.563890   13.297650    7.259740
  H     -9.785700   11.839740    6.161400

 Total Charge           Charge          ....    0
 Multiplicity           Mult            ....    1
 Number of Electrons    NEL             ....  412
 Basis Dimension        Dim             ....  866

ORBITAL ENERGIES
----------------

  NO   OCC          E(Eh)            E(eV)
   0   2.0000     -88.953567     -2420.5496
   1   2.0000     -88.945834     -2420.3392
   2   2.0000     -88.938103     -2420.1288
   3   2.0000     -88.937370     -2420.1089
   4   2.0000     -88.934378     -2420.0275
   5   2.0000     -88.928923     -2419.8790
   6   2.0000     -19.320687      -525.7426
   7   2.0000     -19.315129      -525.5914
   8   2.0000     -19.268270      -524.3163
   9   2.0000     -19.202523      -522.5272
  10   2.0000     -19.193890      -522.2923
  11   2.0000     -19.185908      -522.0751
  12   2.0000     -14.446447      -393.1078
  13   2.0000     -14.440081      -392.9346
  14   2.0000     -10.401181      -283.0305
  15   2.0000     -10.394308      -282.8435
  16   2.0000     -10.376124      -282.3487
  17   2.0000     -10.368838      -282.1504
  18   2.0000     -10.366223      -282.0793
  19   2.0000     -10.350137      -281.6415
  20   2.0000     -10.344178      -281.4794
  21   2.0000     -10.343591      -281.4634
  22   2.0000     -10.343011      -281.4476
  23   2.0000     -10.321727      -280.8685
  24   2.0000     -10.314926      -280.6834
  25   2.0000     -10.311049      -280.5779
  26   2.0000     -10.306252      -280.4474
  27   2.0000     -10.304229      -280.3923
  28   2.0000     -10.303552      -280.3739
  29   2.0000     -10.302828      -280.3542
  30   2.0000     -10.302567      -280.3471
  31   2.0000     -10.300060      -280.2789
  32   2.0000     -10.297843      -280.2185
  33   2.0000     -10.293556      -280.1019
  34   2.0000     -10.292627      -280.0766
  35   2.0000     -10.290444      -280.0172
  36   2.0000     -10.289935      -280.0034
  37   2.0000     -10.286215      -279.9021
  38   2.0000     -10.284558      -279.8571
  39   2.0000     -10.283105      -279.8175
  40   2.0000     -10.281398      -279.7711
  41   2.0000     -10.280159      -279.7374
  42   2.0000     -10.279886      -279.7299
  43   2.0000     -10.275109      -279.5999
  44   2.0000     -10.272665      -279.5334
  45   2.0000     -10.271730      -279.5080
  46   2.0000     -10.271561      -279.5034
  47   2.0000     -10.266635      -279.3693
  48   2.0000     -10.264985      -279.3244
  49   2.0000     -10.264737      -279.3177
  50   2.0000     -10.264103      -279.3004
  51   2.0000     -10.262850      -279.2663
  52   2.0000     -10.257361      -279.1170
  53   2.0000      -8.049651      -219.0422
  54   2.0000      -8.041574      -218.8224
  55   2.0000      -8.033736      -218.6091
  56   2.0000      -8.033547      -218.6039
  57   2.0000      -8.031137      -218.5383
  58   2.0000      -8.023851      -218.3401
  59   2.0000      -6.019001      -163.7854
  60   2.0000      -6.014671      -163.6675
  61   2.0000      -6.011773      -163.5887
  62   2.0000      -6.010776      -163.5615
  63   2.0000      -6.006743      -163.4518
  64   2.0000      -6.003849      -163.3730
  65   2.0000      -6.003721      -163.3696
  66   2.0000      -6.003494      -163.3634
  67   2.0000      -6.000967      -163.2946
  68   2.0000      -5.999828      -163.2636
  69   2.0000      -5.999549      -163.2560
  70   2.0000      -5.997050      -163.1880
  71   2.0000      -5.994491      -163.1184
  72   2.0000      -5.994437      -163.1169
  73   2.0000      -5.993351      -163.0874
  74   2.0000      -5.991631      -163.0406
  75   2.0000      -5.990233      -163.0025
  76   2.0000      -5.983186      -162.8108
  77   2.0000      -1.242033       -33.7974
  78   2.0000      -1.224155       -33.3110
  79   2.0000      -1.200846       -32.6767
  80   2.0000      -1.141383       -31.0586
  81   2.0000      -1.124368       -30.5956
  82   2.0000      -1.103895       -30.0385
  83   2.0000      -1.052661       -28.6444
  84   2.0000      -1.008039       -27.4301
  85   2.0000      -0.992002       -26.9937
  86   2.0000      -0.988003       -26.8849
  87   2.0000      -0.972709       -26.4687
  88   2.0000      -0.965223       -26.2651
  89   2.0000      -0.949420       -25.8350
  90   2.0000      -0.926437       -25.2096
  91   2.0000      -0.921537       -25.0763
  92   2.0000      -0.906766       -24.6744
  93   2.0000      -0.900777       -24.5114
  94   2.0000      -0.897513       -24.4226
  95   2.0000      -0.879319       -23.9275
  96   2.0000      -0.873882       -23.7795
  97   2.0000      -0.871591       -23.7172
  98   2.0000      -0.859093       -23.3771
  99   2.0000      -0.847915       -23.0729
 100   2.0000      -0.840597       -22.8738
 101   2.0000      -0.831433       -22.6244
 102   2.0000      -0.821182       -22.3455
 103   2.0000      -0.814771       -22.1711
 104   2.0000      -0.808954       -22.0128
 105   2.0000      -0.803889       -21.8749
 106   2.0000      -0.785826       -21.3834
 107   2.0000      -0.778432       -21.1822
 108   2.0000      -0.764628       -20.8066
 109   2.0000      -0.757069       -20.6009
 110   2.0000      -0.753826       -20.5126
 111   2.0000      -0.743552       -20.2331
 112   2.0000      -0.735267       -20.0076
 113   2.0000      -0.725314       -19.7368
 114   2.0000      -0.708408       -19.2768
 115   2.0000      -0.696605       -18.9556
 116   2.0000      -0.686065       -18.6688
 117   2.0000      -0.685642       -18.6573
 118   2.0000      -0.668415       -18.1885
 119   2.0000      -0.663177       -18.0460
 120   2.0000      -0.655919       -17.8485
 121   2.0000      -0.652402       -17.7528
 122   2.0000      -0.645033       -17.5522
 123   2.0000      -0.643611       -17.5135
 124   2.0000      -0.630972       -17.1696
 125   2.0000      -0.615186       -16.7401
 126   2.0000      -0.613464       -16.6932
 127   2.0000      -0.611110       -16.6291
 128   2.0000      -0.609116       -16.5749
 129   2.0000      -0.608075       -16.5466
 130   2.0000      -0.599974       -16.3261
 131   2.0000      -0.596735       -16.2380
 132   2.0000      -0.594244       -16.1702
 133   2.0000      -0.593857       -16.1597
 134   2.0000      -0.587344       -15.9824
 135   2.0000      -0.582428       -15.8487
 136   2.0000      -0.573410       -15.6033
 137   2.0000      -0.566426       -15.4132
 138   2.0000      -0.565027       -15.3752
 139   2.0000      -0.563010       -15.3203
 140   2.0000      -0.554914       -15.1000
 141   2.0000      -0.549889       -14.9632
 142   2.0000      -0.545591       -14.8463
 143   2.0000      -0.542584       -14.7645
 144   2.0000      -0.533183       -14.5086
 145   2.0000      -0.532584       -14.4924
 146   2.0000      -0.522593       -14.2205
 147   2.0000      -0.520775       -14.1710
 148   2.0000      -0.517677       -14.0867
 149   2.0000      -0.515984       -14.0406
 150   2.0000      -0.513098       -13.9621
 151   2.0000      -0.508787       -13.8448
 152   2.0000      -0.507389       -13.8068
 153   2.0000      -0.499295       -13.5865
 154   2.0000      -0.497276       -13.5316
 155   2.0000      -0.494609       -13.4590
 156   2.0000      -0.492673       -13.4063
 157   2.0000      -0.490637       -13.3509
 158   2.0000      -0.483379       -13.1534
 159   2.0000      -0.482854       -13.1391
 160   2.0000      -0.481479       -13.1017
 161   2.0000      -0.476502       -12.9663
 162   2.0000      -0.473421       -12.8824
 163   2.0000      -0.472177       -12.8486
 164   2.0000      -0.469335       -12.7712
 165   2.0000      -0.464188       -12.6312
 166   2.0000      -0.461256       -12.5514
 167   2.0000      -0.458807       -12.4848
 168   2.0000      -0.456576       -12.4241
 169   2.0000      -0.449753       -12.2384
 170   2.0000      -0.448408       -12.2018
 171   2.0000      -0.445669       -12.1273
 172   2.0000      -0.433693       -11.8014
 173   2.0000      -0.431779       -11.7493
 174   2.0000      -0.425558       -11.5800
 175   2.0000      -0.423392       -11.5211
 176   2.0000      -0.420244       -11.4354
 177   2.0000      -0.417265       -11.3544
 178   2.0000      -0.414783       -11.2868
 179   2.0000      -0.407506       -11.0888
 180   2.0000      -0.404374       -11.0036
 181   2.0000      -0.394422       -10.7328
 182   2.0000      -0.391891       -10.6639
 183   2.0000      -0.385217       -10.4823
 184   2.0000      -0.383747       -10.4423
 185   2.0000      -0.368287       -10.0216
 186   2.0000      -0.363585        -9.8936
 187   2.0000      -0.362078        -9.8527
 188   2.0000      -0.360308        -9.8045
 189   2.0000      -0.354603        -9.6492
 190   2.0000      -0.353564        -9.6210
 191   2.0000      -0.346499        -9.4287
 192   2.0000      -0.343372        -9.3436
 193   2.0000      -0.333553        -9.0764
 194   2.0000      -0.333277        -9.0689
 195   2.0000      -0.331424        -9.0185
 196   2.0000      -0.326562        -8.8862
 197   2.0000      -0.317163        -8.6304
 198   2.0000      -0.313289        -8.5250
 199   2.0000      -0.308030        -8.3819
 200   2.0000      -0.297696        -8.1007
 201   2.0000      -0.284176        -7.7328
 202   2.0000      -0.265289        -7.2189
 203   2.0000      -0.253831        -6.9071
 204   2.0000      -0.232516        -6.3271
 205   2.0000      -0.205600        -5.5947
 206   0.0000      -0.086100        -2.3429
 207   0.0000      -0.067168        -1.8277
 208   0.0000      -0.036023        -0.9802
 209   0.0000      -0.005599        -0.1523
 210   0.0000       0.013552         0.3688

MULLIKEN ATOMIC CHARGES
-----------------------
   0 C :    0.150035
   1 O :   -0.222804
   2 C :    0.069706
   3 C :   -0.084140
   4 C :    0.106471
   5 O :   -0.244506
   6 N :   -0.073638
   7 C :    0.104154
   8 O :   -0.155518
   9 C :    0.204531
  10 C :   -0.082179
  11 C :    0.043566
  12 C :   -0.128292
  13 C :   -0.056127
  14 C :    0.182964
  15 O :   -0.206378
  16 N :   -0.078780
  17 C :    0.144104
  18 O :   -0.268483
  19 C :    0.214788
  20 O :   -0.130824
  21 C :   -0.102963
  22 S :    0.124395
  23 C :    0.011841
  24 C :   -0.124306
  25 S :    0.117886
  26 C :   -0.118693
  27 C :    0.002678
  28 S :    0.076835
  29 C :   -0.027129
  30 C :   -0.025020
  31 C :    0.085214
  32 C :   -0.098908
  33 S :    0.152344
  34 C :   -0.150116
  35 C :    0.056940
  36 C :    0.019233
  37 C :    0.052615
  38 C :   -0.003465
  39 C :   -0.108779
  40 C :    0.025793
  41 C :   -0.024086
  42 C :   -0.014069
  43 C :    0.036547
  44 C :    0.025487
  45 C :   -0.049159
  46 S :    0.075745
  47 C :   -0.066684
  48 C :    0.031028
  49 C :    0.050580
  50 C :   -0.064739
  51 S :    0.082120
  52 C :   -0.028439
  53 H :    0.023126
  54 H :    0.129321
  55 H :    0.138321
  56 H :    0.018099
  57 H :    0.146895
  58 H :    0.027116
  59 H :    0.026199
  60 H :   -0.017842
  61 H :    0.000563
  62 H :   -0.011705
  63 H :    0.006632
  64 H :    0.018349
  65 H :    0.013209
  66 H :   -0.016353
  67 H :   -0.014103
  68 H :   -0.013957
  69 H :   -0.013301
  70 H :   -0.012124
  71 H :    0.019788
  72 H :    0.022387
Sum of atomic charges:   -0.0000000

LOEWDIN ATOMIC CHARGES
----------------------
   0 C :    0.059435
   1 O :   -0.001749
   2 C :   -0.013642
   3 C :   -0.111644
   4 C :    0.082077
   5 O :   -0.211756
   6 N :    0.014140
   7 C :    0.060851
   8 O :    0.049284
   9 C :    0.010410
  10 C :   -0.067084
  11 C :    0.042689
  12 C :   -0.120007
  13 C :   -0.131147
  14 C :    0.080100
  15 O :   -0.199311
  16 N :    0.045366
  17 C :    0.101718
  18 O :   -0.063680
  19 C :    0.096729
  20 O :   -0.141201
  21 C :   -0.206867
  22 S :    0.369239
  23 C :   -0.219648
  24 C :   -0.201159
  25 S :    0.443987
  26 C :   -0.202157
  27 C :   -0.217953
  28 S :    0.367136
  29 C :   -0.121000
  30 C :   -0.049701
  31 C :   -0.016407
  32 C :   -0.174219
  33 S :    0.442959
  34 C :   -0.182258
  35 C :   -0.034573
  36 C :   -0.032084
  37 C :   -0.061570
  38 C :   -0.025287
  39 C :   -0.048327
  40 C :   -0.006318
  41 C :   -0.064952
  42 C :   -0.138697
  43 C :   -0.036371
  44 C :   -0.029455
  45 C :   -0.181408
  46 S :    0.366988
  47 C :   -0.176253
  48 C :   -0.027012
  49 C :   -0.031540
  50 C :   -0.139453
  51 S :    0.353098
  52 C :   -0.076148
  53 H :    0.028877
  54 H :    0.076076
  55 H :    0.088063
  56 H :    0.044924
  57 H :    0.073342
  58 H :    0.026334
  59 H :    0.025926
  60 H :    0.034288
  61 H :    0.021069
  62 H :    0.034947
  63 H :    0.035477
  64 H :    0.040748
  65 H :    0.029574
  66 H :    0.032007
  67 H :    0.032927
  68 H :    0.031129
  69 H :    0.031856
  70 H :    0.033130
  71 H :    0.028527
  72 H :    0.026610

  Mayer bond orders larger than 0.100000
B(  0-C ,  1-O ) :   1.0935 B(  0-C , 10-C ) :   1.5616 B(  0-C , 53-H ) :   1.0067
B(  1-O ,  2-C ) :   1.1134 B(  2-C ,  3-C ) :   1.1828 B(  2-C ,  9-C ) :   1.4082
B(  3-C ,  4-C ) :   0.9022 B(  3-C ,  7-C ) :   1.4139 B(  4-C ,  5-O ) :   2.0134
B(  4-C ,  6-N ) :   1.3480 B(  5-O , 57-H ) :   0.1312 B(  6-N , 54-H ) :   0.9341
B(  6-N , 55-H ) :   0.9301 B(  7-C ,  8-O ) :   1.2053 B(  7-C , 11-C ) :   1.1006
B(  8-O ,  9-C ) :   1.1409 B(  9-C , 10-C ) :   1.2046 B( 10-C , 56-H ) :   1.0217
B( 11-C , 12-C ) :   1.3876 B( 11-C , 16-N ) :   1.2797 B( 12-C , 13-C ) :   1.1667
B( 12-C , 19-C ) :   0.9748 B( 13-C , 14-C ) :   0.9542 B( 13-C , 17-C ) :   1.3978
B( 14-C , 15-O ) :   1.9836 B( 14-C , 16-N ) :   1.1249 B( 15-O , 60-H ) :   0.1273
B( 16-N , 57-H ) :   0.8483 B( 17-C , 18-O ) :   1.1308 B( 17-C , 21-C ) :   1.2017
B( 18-O , 19-C ) :   0.9920 B( 19-C , 20-O ) :   2.2682 B( 21-C , 22-S ) :   1.0056
B( 21-C , 29-C ) :   1.5562 B( 22-S , 23-C ) :   0.9743 B( 23-C , 24-C ) :   1.5920
B( 23-C , 27-C ) :   1.2582 B( 24-C , 25-S ) :   1.1720 B( 24-C , 58-H ) :   0.9701
B( 25-S , 26-C ) :   1.1736 B( 26-C , 27-C ) :   1.5914 B( 26-C , 59-H ) :   0.9715
B( 27-C , 28-S ) :   0.9844 B( 28-S , 29-C ) :   1.0312 B( 29-C , 30-C ) :   1.2102
B( 30-C , 31-C ) :   1.6556 B( 30-C , 60-H ) :   0.9447 B( 31-C , 32-C ) :   1.1486
B( 31-C , 61-H ) :   0.9483 B( 32-C , 33-S ) :   1.1049 B( 32-C , 36-C ) :   1.4589
B( 33-S , 34-C ) :   1.1162 B( 34-C , 35-C ) :   1.4530 B( 34-C , 37-C ) :   0.9979
B( 35-C , 36-C ) :   1.3004 B( 35-C , 62-H ) :   1.0025 B( 36-C , 63-H ) :   0.9777
B( 37-C , 38-C ) :   2.2317 B( 38-C , 39-C ) :   1.0130 B( 39-C , 40-C ) :   1.6413
B( 39-C , 64-H ) :   0.9658 B( 40-C , 41-C ) :   1.1654 B( 40-C , 65-H ) :   0.9769
B( 41-C , 42-C ) :   1.5697 B( 41-C , 66-H ) :   0.9789 B( 42-C , 43-C ) :   1.1387
B( 42-C , 46-S ) :   1.0350 B( 43-C , 44-C ) :   1.6032 B( 43-C , 67-H ) :   0.9983
B( 44-C , 45-C ) :   1.1757 B( 44-C , 68-H ) :   0.9925 B( 45-C , 46-S ) :   1.0362
B( 45-C , 47-C ) :   1.5520 B( 47-C , 48-C ) :   1.1552 B( 47-C , 51-S ) :   1.0458
B( 48-C , 49-C ) :   1.6601 B( 48-C , 69-H ) :   0.9910 B( 49-C , 50-C ) :   1.0808
B( 49-C , 70-H ) :   0.9929 B( 50-C , 51-S ) :   1.0077 B( 50-C , 52-C ) :   1.8645
B( 52-C , 71-H ) :   0.9506 B( 52-C , 72-H ) :   0.9410

-----------------------------------------------------------------------------
         ABSORPTION SPECTRUM VIA TRANSITION ELECTRIC DIPOLE MOMENTS
-----------------------------------------------------------------------------
State   Energy  Wavelength   fosc         T2         TX        TY        TZ
        (cm-1)    (nm)                  (au**2)     (au)      (au)      (au)
-----------------------------------------------------------------------------
   0   13342.3    749.5   1.181102160  29.14297   2.03663  -3.97628  -3.03056
   1   17472.7    572.3   0.697796347  13.14752   1.28466   3.35983   0.45686
   2   18966.9    527.2   0.454113115   7.88214  -1.76842   2.17958  -0.06523
   3   21874.3    457.2   0.194498592   2.92724   1.46230   0.04485   0.88708
   4   22911.0    436.5   0.080969680   1.16347   0.48402  -0.02737   0.96355
   5   24563.3    407.1   0.658764192   8.82914   1.90741  -0.49998   2.22282
   6   25123.2    398.0   0.303451588   3.97640   1.23523  -0.13909   1.55925
   7   28093.6    356.0   0.122285779   1.43299   0.03382  -0.05008  -1.19555
   8   28592.7    349.7   0.032453136   0.37366   0.25301  -0.27739   0.48239
   9   29086.6    343.8   0.049265831   0.55761   0.37508   0.07812  -0.64095
  10   29915.2    334.3   0.001063471   0.01170   0.09885   0.04350  -0.00630
  11   31051.2    322.0   0.084649797   0.89748   0.14011  -0.24865  -0.90334
  12   31368.1    318.8   0.247019091   2.59250   1.60324   0.11768  -0.09087
  13   31847.4    314.0   0.023537499   0.24331  -0.24046   0.03750  -0.42905
  14   32489.6    307.8   0.091942866   0.93164  -0.19851   0.13683   0.93462
  15   33394.3    299.5   0.071615866   0.70601  -0.24176   0.32094   0.73794
  16   33630.9    297.3   0.024413135   0.23898   0.20494  -0.15891  -0.41440
  17   33844.6    295.5   0.038053619   0.37015  -0.29352   0.41931   0.32890
  18   34101.7    293.2   0.056685552   0.54723   0.20771  -0.07634  -0.70588
  19   34343.2    291.2   0.025625866   0.24565   0.29210   0.12926   0.37897
  20   34520.9    289.7   0.000419460   0.00400   0.05470   0.02809  -0.01480
  21   35920.5    278.4   0.018119166   0.16606   0.31075  -0.16457   0.20596
  22   36089.7    277.1   0.012726560   0.11609  -0.19497  -0.21855  -0.17411
  23   36271.5    275.7   0.052004762   0.47201   0.26988   0.42583   0.46674
  24   36970.4    270.5   0.011615059   0.10343   0.14299   0.26231   0.11907
  25   37507.6    266.6   0.050617250   0.44428  -0.21946   0.11455  -0.61886
  26   37772.9    264.7   0.048803646   0.42535   0.50160   0.41571   0.03061
  27   38374.8    260.6   0.052915057   0.45395  -0.16032  -0.49632  -0.42652
  28   38712.5    258.3   0.065098928   0.55360  -0.36279   0.64656  -0.06276
  29   39749.9    251.6   0.019292086   0.15978  -0.11850   0.14386  -0.35361
  30   39859.6    250.9   0.015506289   0.12807  -0.03466   0.15520   0.32060

FINAL SINGLE POINT ENERGY     -4444.752881268161

DIPOLE MOMENT
-------------
                                X             Y             Z
Electronic contribution:     -8.59322     -30.73837     -37.18069
Nuclear contribution   :     11.46467      31.17724      38.09478
                        -----------------------------------------
Total Dipole Moment    :      2.87145       0.43887       0.91409
                        -----------------------------------------
Magnitude (a.u.)       :      3.04523
Magnitude (Debye)      :      7.74035

Rotational constants in cm-1:     0.001399     0.000419     0.000356
Rotational constants in MHz :    41.944006    12.569754    10.667552

                             ****ORCA TERMINATED NORMALLY****
TOTAL RUN TIME: 0 days 0 hours 5 minutes 0 seconds 658 msec
