                         Program Version 4.2.0 -  RELEASE  -
|  1> # ORCA input file
|  2> # SCF done       -159.301072563902          0.000667044638
|  3> ! CAM-B3LYP def2-SVP def2/J RIJCOSX Grid4 TightSCF
|  4> %maxcore 5000
|  5> %tddft
|  6>     Mode sTDDFT
|  7>     Ethresh 5.0
|  8>     maxcore 5000
|  9> end
| 10>
| 11> %pal
| 12>   nprocs 6
| 13>   end
| 14> * xyz 0 1
| 15>    C       -0.70240         0.73660        -3.53479
| 16>    O       -0.95809        -0.55417        -3.87891
| 17>    C       -2.03779        -0.90998        -3.15897
| 18>    C       -2.91082        -2.00390        -2.92417
| 19>    C       -2.82289        -3.33719        -3.55493
| 20>    O       -3.56304        -4.27567        -3.33780
| 21>    N       -1.79668        -3.42797        -4.43490
| 22>    C       -3.81268        -1.49881        -1.98215
| 23>    O       -3.54092        -0.20566        -1.64518
| 24>    C       -2.46018         0.14743        -2.36549
| 25>    C       -1.58331         1.22595        -2.61303
| 26>    C       -4.93695        -2.10475        -1.34882
| 27>    O       -5.25695        -3.38324        -1.68518
| 28>    C       -6.33200        -3.69498        -0.96230
| 29>    C       -7.22776        -4.76203        -0.74039
| 30>    C       -7.14201        -6.07755        -1.41331
| 31>    O       -7.92350        -6.99397        -1.23777
| 32>    N       -6.09575        -6.17310        -2.25734
| 33>    C       -8.11513        -4.24742         0.21117
| 34>    O       -7.80295        -2.96007         0.56260
| 35>    C       -6.71604        -2.62508        -0.15539
| 36>    C       -5.81055        -1.58368        -0.40110
| 37>    C       -9.25526        -4.81143         0.85318
| 38>    O       -9.90567        -4.01719         1.77289
| 39>    C      -10.93063        -4.75513         2.22117
| 40>    C      -12.02174        -4.69923         3.11837
| 41>    C      -12.37341        -3.55232         3.98232
| 42>    O      -13.31170        -3.50379         4.75248
| 43>    N      -11.51756        -2.51317         3.83378
| 44>    C      -12.62869        -5.95370         2.96665
| 45>    O      -11.98089        -6.73586         2.05790
| 46>    C      -10.94557        -6.00492         1.60357
| 47>    C       -9.86223        -6.04910         0.71639
| 48>    C      -13.78017        -6.50952         3.59150
| 49>    O      -14.45270        -5.75271         4.50091
| 50>    C      -15.47306        -6.50048         4.91840
| 51>    C      -16.57413        -6.45394         5.79984
| 52>    C      -16.91816        -5.29441         6.65903
| 53>    O      -17.86395        -5.24462         7.42242
| 54>    N      -16.05722        -4.26558         6.51107
| 55>    C      -17.17286        -7.70660         5.63017
| 56>    O      -16.51038        -8.48312         4.72037
| 57>    C      -15.47066        -7.74370         4.28560
| 58>    C      -14.37024        -7.75773         3.41867
| 59>    C      -18.32796        -8.27032         6.24601
| 60>    O      -19.00328        -7.51071         7.14884
| 61>    C      -20.01956        -8.26085         7.56975
| 62>    C      -21.12652        -8.23028         8.45085
| 63>    C      -21.54314        -7.11417         9.33125
| 64>    O      -22.51461        -7.16759        10.05721
| 65>    N      -20.73440        -6.03798         9.24101
| 66>    C      -21.70236        -9.46853         8.28704
| 67>    O      -21.05192       -10.24687         7.39115
| 68>    C      -20.01450        -9.50811         6.94670
| 69>    C      -18.90954        -9.52119         6.07931
| 70>    H        0.13586         1.19983        -4.01496
| 71>    H       -1.17321        -2.66310        -4.62163
| 72>    H       -1.65425        -4.30236        -4.91118
| 73>    H       -1.59224         2.20633        -2.18676
| 74>    H       -5.42807        -5.43642        -2.42915
| 75>    H       -5.97477        -7.04257        -2.74977
| 76>    H       -5.76868        -0.60244         0.02141
| 77>    H      -10.73935        -2.53751         3.19876
| 78>    H      -11.67662        -1.68430         4.38091
| 79>    H       -9.52951        -6.82751         0.06088
| 80>    H      -15.26150        -4.26707         5.89101
| 81>    H      -16.22133        -3.43951         7.06206
| 82>    H      -14.02922        -8.52836         2.76071
| 83>    H      -19.92742        -5.99419         8.63705
| 84>    H      -20.94923        -5.23382         9.80674
| 85>    H      -22.56985        -9.88391         8.75978
| 86>    H      -18.56386       -10.29437         5.42656
| 87> *
| 88>
| 89>                          ****END OF INPUT****

CARTESIAN COORDINATES (ANGSTROEM)
---------------------------------
  C     -0.702400    0.736600   -3.534790
  O     -0.958090   -0.554170   -3.878910
  C     -2.037790   -0.909980   -3.158970
  C     -2.910820   -2.003900   -2.924170
  C     -2.822890   -3.337190   -3.554930
  O     -3.563040   -4.275670   -3.337800
  N     -1.796680   -3.427970   -4.434900
  C     -3.812680   -1.498810   -1.982150
  O     -3.540920   -0.205660   -1.645180
  C     -2.460180    0.147430   -2.365490
  C     -1.583310    1.225950   -2.613030
  C     -4.936950   -2.104750   -1.348820
  O     -5.256950   -3.383240   -1.685180
  C     -6.332000   -3.694980   -0.962300
  C     -7.227760   -4.762030   -0.740390
  C     -7.142010   -6.077550   -1.413310
  O     -7.923500   -6.993970   -1.237770
  N     -6.095750   -6.173100   -2.257340
  C     -8.115130   -4.247420    0.211170
  O     -7.802950   -2.960070    0.562600
  C     -6.716040   -2.625080   -0.155390
  C     -5.810550   -1.583680   -0.401100
  C     -9.255260   -4.811430    0.853180
  O     -9.905670   -4.017190    1.772890
  C    -10.930630   -4.755130    2.221170
  C    -12.021740   -4.699230    3.118370
  C    -12.373410   -3.552320    3.982320
  O    -13.311700   -3.503790    4.752480
  N    -11.517560   -2.513170    3.833780
  C    -12.628690   -5.953700    2.966650
  O    -11.980890   -6.735860    2.057900
  C    -10.945570   -6.004920    1.603570
  C     -9.862230   -6.049100    0.716390
  C    -13.780170   -6.509520    3.591500
  O    -14.452700   -5.752710    4.500910
  C    -15.473060   -6.500480    4.918400
  C    -16.574130   -6.453940    5.799840
  C    -16.918160   -5.294410    6.659030
  O    -17.863950   -5.244620    7.422420
  N    -16.057220   -4.265580    6.511070
  C    -17.172860   -7.706600    5.630170
  O    -16.510380   -8.483120    4.720370
  C    -15.470660   -7.743700    4.285600
  C    -14.370240   -7.757730    3.418670
  C    -18.327960   -8.270320    6.246010
  O    -19.003280   -7.510710    7.148840
  C    -20.019560   -8.260850    7.569750
  C    -21.126520   -8.230280    8.450850
  C    -21.543140   -7.114170    9.331250
  O    -22.514610   -7.167590   10.057210
  N    -20.734400   -6.037980    9.241010
  C    -21.702360   -9.468530    8.287040
  O    -21.051920  -10.246870    7.391150
  C    -20.014500   -9.508110    6.946700
  C    -18.909540   -9.521190    6.079310
  H      0.135860    1.199830   -4.014960
  H     -1.173210   -2.663100   -4.621630
  H     -1.654250   -4.302360   -4.911180
  H     -1.592240    2.206330   -2.186760
  H     -5.428070   -5.436420   -2.429150
  H     -5.974770   -7.042570   -2.749770
  H     -5.768680   -0.602440    0.021410
  H    -10.739350   -2.537510    3.198760
  H    -11.676620   -1.684300    4.380910
  H     -9.529510   -6.827510    0.060880
  H    -15.261500   -4.267070    5.891010
  H    -16.221330   -3.439510    7.062060
  H    -14.029220   -8.528360    2.760710
  H    -19.927420   -5.994190    8.637050
  H    -20.949230   -5.233820    9.806740
  H    -22.569850   -9.883910    8.759780
  H    -18.563860  -10.294370    5.426560

 Total Charge           Charge          ....    0
 Multiplicity           Mult            ....    1
 Number of Electrons    NEL             ....  382
 Basis Dimension        Dim             ....  855

ORBITAL ENERGIES
----------------

  NO   OCC          E(Eh)            E(eV)
   0   2.0000     -19.316735      -525.6351
   1   2.0000     -19.314893      -525.5850
   2   2.0000     -19.308641      -525.4148
   3   2.0000     -19.307891      -525.3944
   4   2.0000     -19.307310      -525.3786
   5   2.0000     -19.305828      -525.3383
   6   2.0000     -19.303717      -525.2808
   7   2.0000     -19.300416      -525.1910
   8   2.0000     -19.292944      -524.9877
   9   2.0000     -19.291250      -524.9416
  10   2.0000     -19.181333      -521.9506
  11   2.0000     -19.175372      -521.7884
  12   2.0000     -19.173887      -521.7480
  13   2.0000     -19.161579      -521.4131
  14   2.0000     -19.151812      -521.1473
  15   2.0000     -14.431910      -392.7122
  16   2.0000     -14.425550      -392.5392
  17   2.0000     -14.416414      -392.2906
  18   2.0000     -14.407913      -392.0592
  19   2.0000     -14.401779      -391.8923
  20   2.0000     -10.384909      -282.5877
  21   2.0000     -10.378897      -282.4242
  22   2.0000     -10.374928      -282.3162
  23   2.0000     -10.366359      -282.0830
  24   2.0000     -10.366000      -282.0732
  25   2.0000     -10.362771      -281.9853
  26   2.0000     -10.362060      -281.9660
  27   2.0000     -10.356214      -281.8069
  28   2.0000     -10.354059      -281.7483
  29   2.0000     -10.351977      -281.6916
  30   2.0000     -10.346331      -281.5380
  31   2.0000     -10.346287      -281.5368
  32   2.0000     -10.344712      -281.4939
  33   2.0000     -10.338918      -281.3363
  34   2.0000     -10.338454      -281.3236
  35   2.0000     -10.337911      -281.3089
  36   2.0000     -10.335655      -281.2475
  37   2.0000     -10.334657      -281.2203
  38   2.0000     -10.333975      -281.2017
  39   2.0000     -10.330881      -281.1176
  40   2.0000     -10.329973      -281.0928
  41   2.0000     -10.329553      -281.0814
  42   2.0000     -10.329455      -281.0788
  43   2.0000     -10.319145      -280.7982
  44   2.0000     -10.318507      -280.7808
  45   2.0000     -10.302977      -280.3583
  46   2.0000     -10.298523      -280.2371
  47   2.0000     -10.298447      -280.2350
  48   2.0000     -10.296944      -280.1941
  49   2.0000     -10.295445      -280.1533
  50   2.0000     -10.293544      -280.1016
  51   2.0000     -10.289211      -279.9837
  52   2.0000     -10.286259      -279.9033
  53   2.0000     -10.284665      -279.8600
  54   2.0000     -10.275436      -279.6088
  55   2.0000      -1.238689       -33.7064
  56   2.0000      -1.235356       -33.6157
  57   2.0000      -1.231358       -33.5069
  58   2.0000      -1.228171       -33.4202
  59   2.0000      -1.220508       -33.2117
  60   2.0000      -1.219772       -33.1917
  61   2.0000      -1.217286       -33.1240
  62   2.0000      -1.210231       -32.9321
  63   2.0000      -1.207954       -32.8701
  64   2.0000      -1.200078       -32.6558
  65   2.0000      -1.122141       -30.5350
  66   2.0000      -1.116053       -30.3694
  67   2.0000      -1.113387       -30.2968
  68   2.0000      -1.101657       -29.9776
  69   2.0000      -1.091672       -29.7059
  70   2.0000      -0.992601       -27.0101
  71   2.0000      -0.986581       -26.8462
  72   2.0000      -0.979853       -26.6631
  73   2.0000      -0.970561       -26.4103
  74   2.0000      -0.962864       -26.2009
  75   2.0000      -0.929270       -25.2867
  76   2.0000      -0.923582       -25.1319
  77   2.0000      -0.921937       -25.0872
  78   2.0000      -0.918377       -24.9903
  79   2.0000      -0.914829       -24.8938
  80   2.0000      -0.912391       -24.8274
  81   2.0000      -0.908172       -24.7126
  82   2.0000      -0.906683       -24.6721
  83   2.0000      -0.898013       -24.4362
  84   2.0000      -0.894969       -24.3534
  85   2.0000      -0.883387       -24.0382
  86   2.0000      -0.865692       -23.5567
  87   2.0000      -0.846357       -23.0305
  88   2.0000      -0.823724       -22.4147
  89   2.0000      -0.798772       -21.7357
  90   2.0000      -0.777550       -21.1582
  91   2.0000      -0.758536       -20.6408
  92   2.0000      -0.751026       -20.4365
  93   2.0000      -0.743442       -20.2301
  94   2.0000      -0.737568       -20.0703
  95   2.0000      -0.736304       -20.0359
  96   2.0000      -0.733979       -19.9726
  97   2.0000      -0.727193       -19.7879
  98   2.0000      -0.720263       -19.5993
  99   2.0000      -0.716195       -19.4887
 100   2.0000      -0.695280       -18.9195
 101   2.0000      -0.679158       -18.4808
 102   2.0000      -0.675643       -18.3852
 103   2.0000      -0.670094       -18.2342
 104   2.0000      -0.666390       -18.1334
 105   2.0000      -0.664316       -18.0770
 106   2.0000      -0.660725       -17.9793
 107   2.0000      -0.653160       -17.7734
 108   2.0000      -0.647307       -17.6141
 109   2.0000      -0.632282       -17.2053
 110   2.0000      -0.625375       -17.0173
 111   2.0000      -0.623624       -16.9697
 112   2.0000      -0.618352       -16.8262
 113   2.0000      -0.611896       -16.6505
 114   2.0000      -0.606267       -16.4974
 115   2.0000      -0.604497       -16.4492
 116   2.0000      -0.600844       -16.3498
 117   2.0000      -0.599564       -16.3150
 118   2.0000      -0.595541       -16.2055
 119   2.0000      -0.595199       -16.1962
 120   2.0000      -0.589216       -16.0334
 121   2.0000      -0.588599       -16.0166
 122   2.0000      -0.586358       -15.9556
 123   2.0000      -0.582533       -15.8515
 124   2.0000      -0.578548       -15.7431
 125   2.0000      -0.574963       -15.6455
 126   2.0000      -0.572603       -15.5813
 127   2.0000      -0.569088       -15.4857
 128   2.0000      -0.561993       -15.2926
 129   2.0000      -0.558083       -15.1862
 130   2.0000      -0.554466       -15.0878
 131   2.0000      -0.551016       -14.9939
 132   2.0000      -0.544592       -14.8191
 133   2.0000      -0.543792       -14.7973
 134   2.0000      -0.542414       -14.7598
 135   2.0000      -0.540837       -14.7169
 136   2.0000      -0.539121       -14.6702
 137   2.0000      -0.531708       -14.4685
 138   2.0000      -0.525760       -14.3067
 139   2.0000      -0.522554       -14.2194
 140   2.0000      -0.522481       -14.2174
 141   2.0000      -0.520885       -14.1740
 142   2.0000      -0.514640       -14.0041
 143   2.0000      -0.514181       -13.9916
 144   2.0000      -0.511671       -13.9233
 145   2.0000      -0.507263       -13.8033
 146   2.0000      -0.504402       -13.7255
 147   2.0000      -0.500353       -13.6153
 148   2.0000      -0.499307       -13.5868
 149   2.0000      -0.498354       -13.5609
 150   2.0000      -0.496088       -13.4992
 151   2.0000      -0.495579       -13.4854
 152   2.0000      -0.491919       -13.3858
 153   2.0000      -0.485455       -13.2099
 154   2.0000      -0.482766       -13.1367
 155   2.0000      -0.480793       -13.0830
 156   2.0000      -0.476202       -12.9581
 157   2.0000      -0.474710       -12.9175
 158   2.0000      -0.472266       -12.8510
 159   2.0000      -0.463877       -12.6227
 160   2.0000      -0.461798       -12.5662
 161   2.0000      -0.449739       -12.2380
 162   2.0000      -0.445144       -12.1130
 163   2.0000      -0.436797       -11.8858
 164   2.0000      -0.432594       -11.7715
 165   2.0000      -0.422342       -11.4925
 166   2.0000      -0.404096       -10.9960
 167   2.0000      -0.397776       -10.8240
 168   2.0000      -0.389210       -10.5909
 169   2.0000      -0.376967       -10.2578
 170   2.0000      -0.361302        -9.8315
 171   2.0000      -0.357061        -9.7161
 172   2.0000      -0.352238        -9.5849
 173   2.0000      -0.349743        -9.5170
 174   2.0000      -0.346654        -9.4329
 175   2.0000      -0.345869        -9.4116
 176   2.0000      -0.340394        -9.2626
 177   2.0000      -0.338707        -9.2167
 178   2.0000      -0.335969        -9.1422
 179   2.0000      -0.334156        -9.0928
 180   2.0000      -0.332377        -9.0444
 181   2.0000      -0.330979        -9.0064
 182   2.0000      -0.328405        -8.9364
 183   2.0000      -0.324009        -8.8167
 184   2.0000      -0.316752        -8.6193
 185   2.0000      -0.316266        -8.6060
 186   2.0000      -0.309722        -8.4280
 187   2.0000      -0.308629        -8.3982
 188   2.0000      -0.280549        -7.6341
 189   2.0000      -0.248903        -6.7730
 190   2.0000      -0.222519        -6.0550
 191   0.0000      -0.060772        -1.6537
 192   0.0000      -0.035942        -0.9780
 193   0.0000      -0.009424        -0.2564
 194   0.0000       0.008509         0.2315
 195   0.0000       0.037579         1.0226

MULLIKEN ATOMIC CHARGES
-----------------------
   0 C :    0.144305
   1 O :   -0.220220
   2 C :    0.076128
   3 C :   -0.065885
   4 C :    0.065190
   5 O :   -0.204547
   6 N :   -0.089701
   7 C :    0.121242
   8 O :   -0.198215
   9 C :    0.190236
  10 C :   -0.088365
  11 C :    0.134760
  12 O :   -0.177102
  13 C :    0.096263
  14 C :   -0.072426
  15 C :    0.069733
  16 O :   -0.222851
  17 N :   -0.082589
  18 C :    0.127656
  19 O :   -0.198186
  20 C :    0.219875
  21 C :   -0.155940
  22 C :    0.112697
  23 O :   -0.228727
  24 C :    0.110778
  25 C :   -0.082077
  26 C :    0.066206
  27 O :   -0.202634
  28 N :   -0.090543
  29 C :    0.123693
  30 O :   -0.195350
  31 C :    0.235147
  32 C :   -0.144977
  33 C :    0.132849
  34 O :   -0.177434
  35 C :    0.097913
  36 C :   -0.067031
  37 C :    0.058074
  38 O :   -0.210092
  39 N :   -0.089554
  40 C :    0.117686
  41 O :   -0.202409
  42 C :    0.223171
  43 C :   -0.153745
  44 C :    0.132892
  45 O :   -0.170472
  46 C :    0.098914
  47 C :   -0.065235
  48 C :    0.052428
  49 O :   -0.209687
  50 N :   -0.093213
  51 C :    0.109550
  52 O :   -0.183975
  53 C :    0.191491
  54 C :   -0.145019
  55 H :    0.018866
  56 H :    0.122402
  57 H :    0.128700
  58 H :    0.005000
  59 H :    0.140725
  60 H :    0.128378
  61 H :   -0.001462
  62 H :    0.124714
  63 H :    0.127111
  64 H :    0.027271
  65 H :    0.138117
  66 H :    0.124616
  67 H :    0.002758
  68 H :    0.141302
  69 H :    0.125755
  70 H :    0.026368
  71 H :   -0.001298
Sum of atomic charges:    0.0000000

LOEWDIN ATOMIC CHARGES
----------------------
   0 C :    0.048435
   1 O :    0.001340
   2 C :   -0.012312
   3 C :   -0.120102
   4 C :    0.067929
   5 O :   -0.224070
   6 N :   -0.002671
   7 C :    0.061950
   8 O :    0.014650
   9 C :   -0.005676
  10 C :   -0.074180
  11 C :    0.017530
  12 O :    0.038508
  13 C :    0.004025
  14 C :   -0.117899
  15 C :    0.068149
  16 O :   -0.225116
  17 N :    0.007738
  18 C :    0.068254
  19 O :    0.011180
  20 C :   -0.005262
  21 C :   -0.055567
  22 C :    0.019915
  23 O :   -0.000139
  24 C :    0.002707
  25 C :   -0.123159
  26 C :    0.067743
  27 O :   -0.224048
  28 N :   -0.002404
  29 C :    0.066432
  30 O :    0.016329
  31 C :   -0.002564
  32 C :   -0.036538
  33 C :    0.016317
  34 O :    0.038691
  35 C :    0.005771
  36 C :   -0.116692
  37 C :    0.063687
  38 O :   -0.231841
  39 N :    0.003723
  40 C :    0.067288
  41 O :    0.009309
  42 C :   -0.003226
  43 C :   -0.051879
  44 C :    0.015771
  45 O :    0.040736
  46 C :   -0.000740
  47 C :   -0.120768
  48 C :    0.056974
  49 O :   -0.227059
  50 N :    0.001214
  51 C :    0.091470
  52 O :    0.015294
  53 C :   -0.010427
  54 C :   -0.053685
  55 H :    0.026669
  56 H :    0.070759
  57 H :    0.081670
  58 H :    0.039551
  59 H :    0.074736
  60 H :    0.083596
  61 H :    0.039628
  62 H :    0.071594
  63 H :    0.081061
  64 H :    0.043095
  65 H :    0.072972
  66 H :    0.081327
  67 H :    0.041230
  68 H :    0.077344
  69 H :    0.081165
  70 H :    0.033531
  71 H :    0.039041

  Mayer bond orders larger than 0.100000
B(  0-C ,  1-O ) :   1.0964 B(  0-C , 10-C ) :   1.5582 B(  0-C , 55-H ) :   1.0069
B(  1-O ,  2-C ) :   1.1165 B(  2-C ,  3-C ) :   1.1558 B(  2-C ,  9-C ) :   1.4356
B(  3-C ,  4-C ) :   0.8848 B(  3-C ,  7-C ) :   1.4515 B(  4-C ,  5-O ) :   2.1379
B(  4-C ,  6-N ) :   1.3014 B(  6-N , 56-H ) :   0.9353 B(  6-N , 57-H ) :   0.9332
B(  7-C ,  8-O ) :   1.1822 B(  7-C , 11-C ) :   1.0865 B(  8-O ,  9-C ) :   1.1114
B(  9-C , 10-C ) :   1.2082 B( 10-C , 58-H ) :   1.0207 B( 11-C , 12-O ) :   1.1540
B( 11-C , 13-C ) :   0.1052 B( 11-C , 21-C ) :   1.4199 B( 12-O , 13-C ) :   1.1465
B( 13-C , 14-C ) :   1.1860 B( 13-C , 20-C ) :   1.3721 B( 14-C , 15-C ) :   0.8803
B( 14-C , 18-C ) :   1.4653 B( 15-C , 16-O ) :   2.0903 B( 15-C , 17-N ) :   1.3465
B( 17-N , 59-H ) :   0.9118 B( 17-N , 60-H ) :   0.9334 B( 18-C , 19-O ) :   1.1518
B( 18-C , 22-C ) :   1.0985 B( 19-O , 20-C ) :   1.1208 B( 20-C , 21-C ) :   1.1976
B( 21-C , 61-H ) :   1.0431 B( 22-C , 23-O ) :   1.0928 B( 22-C , 24-C ) :   0.1007
B( 22-C , 32-C ) :   1.4991 B( 23-O , 24-C ) :   1.1221 B( 24-C , 25-C ) :   1.1664
B( 24-C , 31-C ) :   1.3863 B( 25-C , 26-C ) :   0.8799 B( 25-C , 29-C ) :   1.4282
B( 26-C , 27-O ) :   2.1425 B( 26-C , 28-N ) :   1.3032 B( 28-N , 62-H ) :   0.9341
B( 28-N , 63-H ) :   0.9336 B( 29-C , 30-O ) :   1.1884 B( 29-C , 33-C ) :   1.0974
B( 30-O , 31-C ) :   1.1059 B( 31-C , 32-C ) :   1.1616 B( 32-C , 64-H ) :   1.0076
B( 33-C , 34-O ) :   1.1522 B( 33-C , 35-C ) :   0.1050 B( 33-C , 43-C ) :   1.4122
B( 34-O , 35-C ) :   1.1458 B( 35-C , 36-C ) :   1.1750 B( 35-C , 42-C ) :   1.3727
B( 36-C , 37-C ) :   0.8706 B( 36-C , 40-C ) :   1.4401 B( 37-C , 38-O ) :   2.1445
B( 37-C , 39-N ) :   1.3283 B( 39-N , 65-H ) :   0.9140 B( 39-N , 66-H ) :   0.9347
B( 40-C , 41-O ) :   1.1777 B( 40-C , 44-C ) :   1.0868 B( 41-O , 42-C ) :   1.1068
B( 42-C , 43-C ) :   1.2014 B( 43-C , 67-H ) :   1.0442 B( 44-C , 45-O ) :   1.1615
B( 44-C , 46-C ) :   0.1060 B( 44-C , 54-C ) :   1.4309 B( 45-O , 46-C ) :   1.1488
B( 46-C , 47-C ) :   1.1768 B( 46-C , 53-C ) :   1.3873 B( 47-C , 48-C ) :   0.8819
B( 47-C , 51-C ) :   1.5387 B( 48-C , 49-O ) :   2.2241 B( 48-C , 50-N ) :   1.3056
B( 50-N , 68-H ) :   0.9167 B( 50-N , 69-H ) :   0.9363 B( 51-C , 52-O ) :   1.1408
B( 51-C , 70-H ) :   1.0045 B( 52-O , 53-C ) :   1.1327 B( 53-C , 54-C ) :   1.1908
B( 54-C , 71-H ) :   1.0410

-----------------------------------------------------------------------------
         ABSORPTION SPECTRUM VIA TRANSITION ELECTRIC DIPOLE MOMENTS
-----------------------------------------------------------------------------
State   Energy  Wavelength   fosc         T2         TX        TY        TZ
        (cm-1)    (nm)                  (au**2)     (au)      (au)      (au)
-----------------------------------------------------------------------------
   0   20453.8    488.9   3.012206724  48.48275   5.62330   2.56581  -3.20591
   1   26551.0    376.6   0.003805170   0.04718   0.01193  -0.12545  -0.17692
   2   28685.4    348.6   0.020488460   0.23514   0.35823   0.28378  -0.16212
   3   31755.7    314.9   0.220999489   2.29111   1.13490   0.88496  -0.46899
   4   33448.9    299.0   0.115079612   1.13264  -0.79748  -0.60718   0.35777
   5   34401.0    290.7   0.065675696   0.62851   0.63534   0.06259  -0.47003
   6   36354.8    275.1   0.060412999   0.54707   0.60336   0.24565  -0.35027
   7   39423.0    253.7   0.003017241   0.02520   0.05195  -0.10164  -0.11031

FINAL SINGLE POINT ENERGY     -2742.761054587401

DIPOLE MOMENT
-------------
                                X             Y             Z
Electronic contribution:     -5.61431      -6.29939       1.36148
Nuclear contribution   :     11.28782       8.73998      -4.72860
                        -----------------------------------------
Total Dipole Moment    :      5.67352       2.44059      -3.36712
                        -----------------------------------------
Magnitude (a.u.)       :      7.03440
Magnitude (Debye)      :     17.88002

Rotational constants in cm-1:     0.007414     0.000348     0.000333
Rotational constants in MHz :   222.257878    10.443195     9.975711

                             ****ORCA TERMINATED NORMALLY****
TOTAL RUN TIME: 0 days 0 hours 4 minutes 42 seconds 551 msec
