                         Program Version 4.2.0 -  RELEASE  -
|  1> # ORCA input file
|  2> # SCF done       -141.479290641204          0.000463610635
|  3> ! CAM-B3LYP def2-SVP def2/J RIJCOSX Grid4 TightSCF
|  4> %maxcore 5000
|  5> %tddft
|  6>     Mode sTDDFT
|  7>     Ethresh 5.0
|  8>     maxcore 5000
|  9> end
| 10>
| 11> %pal
| 12>   nprocs 6
| 13>   end
| 14> * xyz 0 1
| 15>    C        3.46478        -3.54512         0.38454
| 16>    S        3.64080        -2.07501         1.25165
| 17>    C        5.12860        -1.72627         0.40604
| 18>    C        5.43215        -2.72470        -0.48848
| 19>    C        4.48097        -3.75820        -0.49577
| 20>    C        5.84548        -0.56799         0.66526
| 21>    C        6.45653         0.45164         0.91221
| 22>    C        7.17086         1.61544         1.16952
| 23>    C        8.25884         1.97057         0.44925
| 24>    C        9.01789         3.16415         0.62098
| 25>    S        9.66090         3.90863        -0.80813
| 26>    C       10.18567         5.32803         0.04079
| 27>    C        9.97831         5.17388         1.41519
| 28>    C        9.30449         3.94355         1.74477
| 29>    C        9.11901         3.60770         3.11406
| 30>    C        8.67294         2.34108         3.55133
| 31>    N        8.37850         1.32884         4.00438
| 32>    C        9.50455         4.49622         4.10061
| 33>    C       10.16981         5.67975         3.78121
| 34>    C       10.45423         6.00234         2.46728
| 35>    C       11.34042         7.08291         2.25984
| 36>    N       12.11378         7.92777         2.19231
| 37>    C       10.64010         6.42812        -0.73592
| 38>    C       10.47904         7.73338        -0.41234
| 39>    C       10.91157         8.82239        -1.21272
| 40>    S       10.62124        10.44670        -0.66159
| 41>    C       11.35668        11.10712        -2.09562
| 42>    C       11.80012        10.09980        -2.93513
| 43>    C       11.55621         8.82542        -2.43835
| 44>    C       11.43665        12.47021        -2.30172
| 45>    C       11.48294        13.67526        -2.46484
| 46>    C       11.52734        15.03988        -2.68774
| 47>    C       11.34281        15.95553        -1.70047
| 48>    C       11.34135        17.35217        -1.91017
| 49>    S       11.40173        18.01130        -3.51744
| 50>    C       11.31936        19.65307        -2.96212
| 51>    C       11.26739        19.69121        -1.55985
| 52>    C       11.27241        18.38541        -0.96352
| 53>    C       11.22017        18.27275         0.45061
| 54>    C       11.22673        17.03918         1.13748
| 55>    N       11.22758        16.08730         1.77855
| 56>    C       11.16302        19.41255         1.23281
| 57>    C       11.15738        20.67989         0.65409
| 58>    C       11.20855        20.83434        -0.72001
| 59>    C       11.20439        22.16031        -1.20364
| 60>    N       11.19791        23.26721        -1.50866
| 61>    C       11.27950        20.73191        -3.87053
| 62>    C       11.26710        20.59936        -5.22252
| 63>    C       11.17972        21.68268        -6.13052
| 64>    S       11.09809        21.36133        -7.84303
| 65>    C       10.97652        23.06104        -8.19699
| 66>    C       11.00726        23.81248        -7.03889
| 67>    C       11.12030        23.04356        -5.88441
| 68>    C       10.85389        23.51635        -9.50148
| 69>    C       10.73475        23.88858       -10.64905
| 70>    C       10.59357        24.35340       -11.96346
| 71>    C       10.55074        23.54872       -13.02407
| 72>    H        2.61485        -4.16895         0.57893
| 73>    H        6.31015        -2.70262        -1.10866
| 74>    H        4.54675        -4.62552        -1.12820
| 75>    H        6.78916         2.24303         1.96312
| 76>    H        8.53518         1.36111        -0.40231
| 77>    H        9.34567         4.23668         5.13656
| 78>    H       10.52386         6.32319         4.57257
| 79>    H       11.05558         6.16998        -1.70067
| 80>    H        9.96399         8.00007         0.49953
| 81>    H       12.28691        10.30517        -3.87208
| 82>    H       11.83575         7.92637        -2.95702
| 83>    H       11.72076        15.36379        -3.70414
| 84>    H       11.18875        15.60608        -0.69054
| 85>    H       11.12468        19.31487         2.30731
| 86>    H       11.11468        21.55582         1.28382
| 87>    H       11.23538        21.71917        -3.43981
| 88>    H       11.30671        19.60813        -5.65708
| 89>    H       10.94500        24.88617        -7.04852
| 90>    H       11.15689        23.46350        -4.89543
| 91>    H       10.51639        25.42866       -12.07254
| 92>    H       10.62676        22.47921       -12.92206
| 93>    H       10.43902        23.93810       -14.02096
| 94> *
| 95>
| 96>                          ****END OF INPUT****

CARTESIAN COORDINATES (ANGSTROEM)
---------------------------------
  C      3.464780   -3.545120    0.384540
  S      3.640800   -2.075010    1.251650
  C      5.128600   -1.726270    0.406040
  C      5.432150   -2.724700   -0.488480
  C      4.480970   -3.758200   -0.495770
  C      5.845480   -0.567990    0.665260
  C      6.456530    0.451640    0.912210
  C      7.170860    1.615440    1.169520
  C      8.258840    1.970570    0.449250
  C      9.017890    3.164150    0.620980
  S      9.660900    3.908630   -0.808130
  C     10.185670    5.328030    0.040790
  C      9.978310    5.173880    1.415190
  C      9.304490    3.943550    1.744770
  C      9.119010    3.607700    3.114060
  C      8.672940    2.341080    3.551330
  N      8.378500    1.328840    4.004380
  C      9.504550    4.496220    4.100610
  C     10.169810    5.679750    3.781210
  C     10.454230    6.002340    2.467280
  C     11.340420    7.082910    2.259840
  N     12.113780    7.927770    2.192310
  C     10.640100    6.428120   -0.735920
  C     10.479040    7.733380   -0.412340
  C     10.911570    8.822390   -1.212720
  S     10.621240   10.446700   -0.661590
  C     11.356680   11.107120   -2.095620
  C     11.800120   10.099800   -2.935130
  C     11.556210    8.825420   -2.438350
  C     11.436650   12.470210   -2.301720
  C     11.482940   13.675260   -2.464840
  C     11.527340   15.039880   -2.687740
  C     11.342810   15.955530   -1.700470
  C     11.341350   17.352170   -1.910170
  S     11.401730   18.011300   -3.517440
  C     11.319360   19.653070   -2.962120
  C     11.267390   19.691210   -1.559850
  C     11.272410   18.385410   -0.963520
  C     11.220170   18.272750    0.450610
  C     11.226730   17.039180    1.137480
  N     11.227580   16.087300    1.778550
  C     11.163020   19.412550    1.232810
  C     11.157380   20.679890    0.654090
  C     11.208550   20.834340   -0.720010
  C     11.204390   22.160310   -1.203640
  N     11.197910   23.267210   -1.508660
  C     11.279500   20.731910   -3.870530
  C     11.267100   20.599360   -5.222520
  C     11.179720   21.682680   -6.130520
  S     11.098090   21.361330   -7.843030
  C     10.976520   23.061040   -8.196990
  C     11.007260   23.812480   -7.038890
  C     11.120300   23.043560   -5.884410
  C     10.853890   23.516350   -9.501480
  C     10.734750   23.888580  -10.649050
  C     10.593570   24.353400  -11.963460
  C     10.550740   23.548720  -13.024070
  H      2.614850   -4.168950    0.578930
  H      6.310150   -2.702620   -1.108660
  H      4.546750   -4.625520   -1.128200
  H      6.789160    2.243030    1.963120
  H      8.535180    1.361110   -0.402310
  H      9.345670    4.236680    5.136560
  H     10.523860    6.323190    4.572570
  H     11.055580    6.169980   -1.700670
  H      9.963990    8.000070    0.499530
  H     12.286910   10.305170   -3.872080
  H     11.835750    7.926370   -2.957020
  H     11.720760   15.363790   -3.704140
  H     11.188750   15.606080   -0.690540
  H     11.124680   19.314870    2.307310
  H     11.114680   21.555820    1.283820
  H     11.235380   21.719170   -3.439810
  H     11.306710   19.608130   -5.657080
  H     10.945000   24.886170   -7.048520
  H     11.156890   23.463500   -4.895430
  H     10.516390   25.428660  -12.072540
  H     10.626760   22.479210  -12.922060
  H     10.439020   23.938100  -14.020960

 Total Charge           Charge          ....    0
 Multiplicity           Mult            ....    1
 Number of Electrons    NEL             ....  418
 Basis Dimension        Dim             ....  928

ORBITAL ENERGIES
----------------

  NO   OCC          E(Eh)            E(eV)
   0   2.0000     -88.979792     -2421.2632
   1   2.0000     -88.979396     -2421.2525
   2   2.0000     -88.958676     -2420.6886
   3   2.0000     -88.957545     -2420.6579
   4   2.0000     -88.953517     -2420.5483
   5   2.0000     -14.421809      -392.4374
   6   2.0000     -14.417648      -392.3241
   7   2.0000     -14.411185      -392.1483
   8   2.0000     -14.410423      -392.1275
   9   2.0000     -10.335976      -281.2562
  10   2.0000     -10.335125      -281.2330
  11   2.0000     -10.331924      -281.1460
  12   2.0000     -10.331537      -281.1354
  13   2.0000     -10.324923      -280.9554
  14   2.0000     -10.322808      -280.8979
  15   2.0000     -10.322209      -280.8816
  16   2.0000     -10.321753      -280.8692
  17   2.0000     -10.321379      -280.8590
  18   2.0000     -10.316951      -280.7385
  19   2.0000     -10.314157      -280.6625
  20   2.0000     -10.314146      -280.6622
  21   2.0000     -10.313676      -280.6494
  22   2.0000     -10.313266      -280.6382
  23   2.0000     -10.311760      -280.5972
  24   2.0000     -10.311272      -280.5840
  25   2.0000     -10.311246      -280.5833
  26   2.0000     -10.311096      -280.5792
  27   2.0000     -10.310871      -280.5731
  28   2.0000     -10.310122      -280.5527
  29   2.0000     -10.308436      -280.5068
  30   2.0000     -10.307937      -280.4932
  31   2.0000     -10.307337      -280.4769
  32   2.0000     -10.305373      -280.4235
  33   2.0000     -10.304568      -280.4016
  34   2.0000     -10.297569      -280.2111
  35   2.0000     -10.296109      -280.1714
  36   2.0000     -10.295160      -280.1456
  37   2.0000     -10.292928      -280.0848
  38   2.0000     -10.292581      -280.0754
  39   2.0000     -10.292542      -280.0743
  40   2.0000     -10.292281      -280.0672
  41   2.0000     -10.291322      -280.0411
  42   2.0000     -10.290048      -280.0064
  43   2.0000     -10.289180      -279.9828
  44   2.0000     -10.279606      -279.7223
  45   2.0000     -10.278628      -279.6957
  46   2.0000     -10.277266      -279.6586
  47   2.0000     -10.276638      -279.6415
  48   2.0000     -10.275741      -279.6171
  49   2.0000     -10.274501      -279.5834
  50   2.0000     -10.274054      -279.5712
  51   2.0000     -10.273943      -279.5682
  52   2.0000     -10.273789      -279.5640
  53   2.0000     -10.273407      -279.5536
  54   2.0000     -10.271102      -279.4909
  55   2.0000     -10.270506      -279.4747
  56   2.0000     -10.269576      -279.4494
  57   2.0000      -8.075416      -219.7432
  58   2.0000      -8.074539      -219.7194
  59   2.0000      -8.054471      -219.1733
  60   2.0000      -8.053157      -219.1375
  61   2.0000      -8.049415      -219.0357
  62   2.0000      -6.044288      -164.4734
  63   2.0000      -6.043445      -164.4505
  64   2.0000      -6.040198      -164.3621
  65   2.0000      -6.039477      -164.3425
  66   2.0000      -6.038293      -164.3103
  67   2.0000      -6.037287      -164.2829
  68   2.0000      -6.023670      -163.9124
  69   2.0000      -6.022325      -163.8758
  70   2.0000      -6.019638      -163.8027
  71   2.0000      -6.018733      -163.7780
  72   2.0000      -6.018287      -163.7659
  73   2.0000      -6.016602      -163.7201
  74   2.0000      -6.015360      -163.6863
  75   2.0000      -6.014351      -163.6588
  76   2.0000      -6.011671      -163.5859
  77   2.0000      -1.026727       -27.9387
  78   2.0000      -1.023475       -27.8502
  79   2.0000      -1.006702       -27.3938
  80   2.0000      -1.000082       -27.2136
  81   2.0000      -0.998192       -27.1622
  82   2.0000      -0.993796       -27.0426
  83   2.0000      -0.986436       -26.8423
  84   2.0000      -0.985988       -26.8301
  85   2.0000      -0.977990       -26.6125
  86   2.0000      -0.963616       -26.2213
  87   2.0000      -0.959658       -26.1136
  88   2.0000      -0.930489       -25.3199
  89   2.0000      -0.927082       -25.2272
  90   2.0000      -0.904220       -24.6051
  91   2.0000      -0.902379       -24.5550
  92   2.0000      -0.898487       -24.4491
  93   2.0000      -0.895577       -24.3699
  94   2.0000      -0.890173       -24.2228
  95   2.0000      -0.865779       -23.5590
  96   2.0000      -0.859260       -23.3817
  97   2.0000      -0.858780       -23.3686
  98   2.0000      -0.855393       -23.2764
  99   2.0000      -0.847141       -23.0519
 100   2.0000      -0.836707       -22.7680
 101   2.0000      -0.834636       -22.7116
 102   2.0000      -0.826952       -22.5025
 103   2.0000      -0.824939       -22.4477
 104   2.0000      -0.815658       -22.1952
 105   2.0000      -0.799921       -21.7669
 106   2.0000      -0.787464       -21.4280
 107   2.0000      -0.781203       -21.2576
 108   2.0000      -0.778010       -21.1707
 109   2.0000      -0.774053       -21.0631
 110   2.0000      -0.748006       -20.3543
 111   2.0000      -0.732271       -19.9261
 112   2.0000      -0.730419       -19.8757
 113   2.0000      -0.718930       -19.5631
 114   2.0000      -0.701807       -19.0971
 115   2.0000      -0.696228       -18.9453
 116   2.0000      -0.692128       -18.8338
 117   2.0000      -0.681743       -18.5512
 118   2.0000      -0.677863       -18.4456
 119   2.0000      -0.670015       -18.2320
 120   2.0000      -0.664056       -18.0699
 121   2.0000      -0.662232       -18.0202
 122   2.0000      -0.644443       -17.5362
 123   2.0000      -0.640191       -17.4205
 124   2.0000      -0.638976       -17.3874
 125   2.0000      -0.627144       -17.0654
 126   2.0000      -0.622054       -16.9270
 127   2.0000      -0.616037       -16.7632
 128   2.0000      -0.611557       -16.6413
 129   2.0000      -0.606013       -16.4905
 130   2.0000      -0.604986       -16.4625
 131   2.0000      -0.602012       -16.3816
 132   2.0000      -0.597392       -16.2559
 133   2.0000      -0.592897       -16.1335
 134   2.0000      -0.590027       -16.0555
 135   2.0000      -0.584319       -15.9001
 136   2.0000      -0.579489       -15.7687
 137   2.0000      -0.567166       -15.4334
 138   2.0000      -0.556019       -15.1301
 139   2.0000      -0.545885       -14.8543
 140   2.0000      -0.539709       -14.6862
 141   2.0000      -0.535279       -14.5657
 142   2.0000      -0.532611       -14.4931
 143   2.0000      -0.529523       -14.4090
 144   2.0000      -0.527299       -14.3485
 145   2.0000      -0.521569       -14.1926
 146   2.0000      -0.513827       -13.9819
 147   2.0000      -0.510327       -13.8867
 148   2.0000      -0.507750       -13.8166
 149   2.0000      -0.506165       -13.7735
 150   2.0000      -0.504206       -13.7202
 151   2.0000      -0.496190       -13.5020
 152   2.0000      -0.493233       -13.4215
 153   2.0000      -0.487928       -13.2772
 154   2.0000      -0.487488       -13.2652
 155   2.0000      -0.483754       -13.1636
 156   2.0000      -0.480974       -13.0880
 157   2.0000      -0.480425       -13.0730
 158   2.0000      -0.478646       -13.0246
 159   2.0000      -0.478402       -13.0180
 160   2.0000      -0.476616       -12.9694
 161   2.0000      -0.475315       -12.9340
 162   2.0000      -0.473892       -12.8952
 163   2.0000      -0.472697       -12.8627
 164   2.0000      -0.471929       -12.8418
 165   2.0000      -0.470932       -12.8147
 166   2.0000      -0.465816       -12.6755
 167   2.0000      -0.459198       -12.4954
 168   2.0000      -0.455906       -12.4058
 169   2.0000      -0.452538       -12.3142
 170   2.0000      -0.450456       -12.2575
 171   2.0000      -0.447951       -12.1894
 172   2.0000      -0.444670       -12.1001
 173   2.0000      -0.441600       -12.0165
 174   2.0000      -0.440690       -11.9918
 175   2.0000      -0.439757       -11.9664
 176   2.0000      -0.438721       -11.9382
 177   2.0000      -0.436385       -11.8746
 178   2.0000      -0.434053       -11.8112
 179   2.0000      -0.427624       -11.6362
 180   2.0000      -0.422205       -11.4888
 181   2.0000      -0.421283       -11.4637
 182   2.0000      -0.420350       -11.4383
 183   2.0000      -0.419308       -11.4100
 184   2.0000      -0.414875       -11.2893
 185   2.0000      -0.412202       -11.2166
 186   2.0000      -0.408592       -11.1184
 187   2.0000      -0.407133       -11.0787
 188   2.0000      -0.405599       -11.0369
 189   2.0000      -0.402974       -10.9655
 190   2.0000      -0.390130       -10.6160
 191   2.0000      -0.375522       -10.2185
 192   2.0000      -0.363321        -9.8865
 193   2.0000      -0.345870        -9.4116
 194   2.0000      -0.343080        -9.3357
 195   2.0000      -0.341774        -9.3002
 196   2.0000      -0.341520        -9.2932
 197   2.0000      -0.338974        -9.2239
 198   2.0000      -0.338669        -9.2157
 199   2.0000      -0.336183        -9.1480
 200   2.0000      -0.328924        -8.9505
 201   2.0000      -0.326385        -8.8814
 202   2.0000      -0.325296        -8.8518
 203   2.0000      -0.319784        -8.7018
 204   2.0000      -0.301698        -8.2096
 205   2.0000      -0.283620        -7.7177
 206   2.0000      -0.266115        -7.2414
 207   2.0000      -0.239829        -6.5261
 208   2.0000      -0.222099        -6.0436
 209   0.0000      -0.097037        -2.6405
 210   0.0000      -0.083860        -2.2819
 211   0.0000      -0.050836        -1.3833
 212   0.0000      -0.042194        -1.1482
 213   0.0000      -0.031068        -0.8454

MULLIKEN ATOMIC CHARGES
-----------------------
   0 C :   -0.072368
   1 S :    0.152231
   2 C :   -0.191365
   3 C :    0.058356
   4 C :    0.037471
   5 C :    0.044716
   6 C :   -0.017041
   7 C :   -0.039893
   8 C :    0.031795
   9 C :   -0.187339
  10 S :    0.188224
  11 C :   -0.181766
  12 C :    0.157033
  13 C :    0.170001
  14 C :   -0.091910
  15 C :   -0.206530
  16 N :    0.131521
  17 C :    0.011034
  18 C :    0.012112
  19 C :   -0.086978
  20 C :   -0.216481
  21 N :    0.133209
  22 C :    0.034547
  23 C :    0.090532
  24 C :   -0.102347
  25 S :    0.184587
  26 C :   -0.159074
  27 C :    0.063167
  28 C :    0.007582
  29 C :    0.055763
  30 C :   -0.002331
  31 C :   -0.094606
  32 C :    0.000453
  33 C :   -0.132916
  34 S :    0.142785
  35 C :   -0.109394
  36 C :    0.153675
  37 C :    0.173184
  38 C :   -0.092648
  39 C :   -0.180714
  40 N :    0.114410
  41 C :    0.015547
  42 C :    0.014809
  43 C :   -0.088879
  44 C :   -0.179307
  45 N :    0.106664
  46 C :   -0.020881
  47 C :    0.065851
  48 C :   -0.088240
  49 S :    0.156996
  50 C :   -0.146901
  51 C :    0.059211
  52 C :    0.000197
  53 C :    0.085056
  54 C :   -0.074697
  55 C :   -0.088997
  56 C :   -0.000484
  57 H :    0.031576
  58 H :   -0.009137
  59 H :   -0.005192
  60 H :    0.039570
  61 H :    0.006020
  62 H :    0.007757
  63 H :    0.007927
  64 H :   -0.012429
  65 H :    0.003603
  66 H :   -0.011079
  67 H :   -0.014061
  68 H :    0.027725
  69 H :    0.024686
  70 H :    0.008561
  71 H :    0.006615
  72 H :    0.003770
  73 H :   -0.010112
  74 H :   -0.006607
  75 H :    0.005368
  76 H :    0.033472
  77 H :    0.032417
  78 H :    0.030921
Sum of atomic charges:   -0.0000000

LOEWDIN ATOMIC CHARGES
----------------------
   0 C :   -0.178367
   1 S :    0.451275
   2 C :   -0.193586
   3 C :   -0.036382
   4 C :   -0.066763
   5 C :   -0.044591
   6 C :   -0.028742
   7 C :   -0.016184
   8 C :   -0.041118
   9 C :   -0.172198
  10 S :    0.500233
  11 C :   -0.166753
  12 C :   -0.038137
  13 C :   -0.036242
  14 C :   -0.046620
  15 C :   -0.030234
  16 N :   -0.044585
  17 C :    0.011466
  18 C :    0.010025
  19 C :   -0.046980
  20 C :   -0.030415
  21 N :   -0.046176
  22 C :   -0.055230
  23 C :   -0.014881
  24 C :   -0.165606
  25 S :    0.470538
  26 C :   -0.187979
  27 C :   -0.030863
  28 C :   -0.051521
  29 C :   -0.049392
  30 C :   -0.026959
  31 C :   -0.043718
  32 C :   -0.025368
  33 C :   -0.168196
  34 S :    0.491753
  35 C :   -0.158900
  36 C :   -0.035378
  37 C :   -0.030670
  38 C :   -0.043898
  39 C :   -0.025553
  40 N :   -0.045431
  41 C :    0.011886
  42 C :    0.010937
  43 C :   -0.045714
  44 C :   -0.021544
  45 N :   -0.054675
  46 C :   -0.047052
  47 C :   -0.033280
  48 C :   -0.170893
  49 S :    0.448973
  50 C :   -0.185507
  51 C :   -0.031292
  52 C :   -0.046354
  53 C :   -0.060925
  54 C :   -0.023731
  55 C :   -0.043009
  56 C :   -0.014660
  57 H :    0.024615
  58 H :    0.033498
  59 H :    0.031485
  60 H :    0.045126
  61 H :    0.035898
  62 H :    0.045577
  63 H :    0.045628
  64 H :    0.028973
  65 H :    0.031869
  66 H :    0.035068
  67 H :    0.029259
  68 H :    0.034358
  69 H :    0.046791
  70 H :    0.046161
  71 H :    0.045439
  72 H :    0.039463
  73 H :    0.021047
  74 H :    0.036901
  75 H :    0.036182
  76 H :    0.045080
  77 H :    0.029359
  78 H :    0.027389

  Mayer bond orders larger than 0.100000
B(  0-C ,  1-S ) :   1.1764 B(  0-C ,  4-C ) :   1.5598 B(  0-C , 57-H ) :   0.9727
B(  1-S ,  2-C ) :   1.1240 B(  2-C ,  3-C ) :   1.5202 B(  2-C ,  5-C ) :   1.0019
B(  3-C ,  4-C ) :   1.2638 B(  3-C , 58-H ) :   1.0013 B(  4-C , 59-H ) :   0.9932
B(  5-C ,  6-C ) :   2.2906 B(  6-C ,  7-C ) :   1.0651 B(  7-C ,  8-C ) :   1.7171
B(  7-C , 60-H ) :   0.9334 B(  8-C ,  9-C ) :   1.1016 B(  8-C , 61-H ) :   0.9482
B(  9-C , 10-S ) :   1.1576 B(  9-C , 11-C ) :   0.1067 B(  9-C , 13-C ) :   1.3669
B( 10-S , 11-C ) :   1.1625 B( 11-C , 12-C ) :   1.3544 B( 11-C , 22-C ) :   1.1230
B( 12-C , 13-C ) :   1.1788 B( 12-C , 19-C ) :   1.2133 B( 13-C , 14-C ) :   1.2062
B( 14-C , 15-C ) :   1.0869 B( 14-C , 17-C ) :   1.5315 B( 15-C , 16-N ) :   3.0187
B( 17-C , 18-C ) :   1.2016 B( 17-C , 62-H ) :   0.9953 B( 18-C , 19-C ) :   1.5267
B( 18-C , 63-H ) :   0.9950 B( 19-C , 20-C ) :   1.0884 B( 20-C , 21-N ) :   3.0263
B( 22-C , 23-C ) :   1.6947 B( 22-C , 64-H ) :   0.9421 B( 23-C , 24-C ) :   1.1551
B( 23-C , 65-H ) :   0.9457 B( 24-C , 25-S ) :   1.1326 B( 24-C , 26-C ) :   0.1013
B( 24-C , 28-C ) :   1.4714 B( 25-S , 26-C ) :   1.1191 B( 26-C , 27-C ) :   1.4701
B( 26-C , 29-C ) :   0.9957 B( 27-C , 28-C ) :   1.3006 B( 27-C , 66-H ) :   0.9993
B( 28-C , 67-H ) :   0.9886 B( 29-C , 30-C ) :   2.2423 B( 30-C , 31-C ) :   1.0297
B( 31-C , 32-C ) :   1.6418 B( 31-C , 68-H ) :   0.9527 B( 32-C , 33-C ) :   1.1865
B( 32-C , 69-H ) :   0.9596 B( 33-C , 34-S ) :   1.1293 B( 33-C , 37-C ) :   1.3418
B( 34-S , 35-C ) :   1.1332 B( 35-C , 36-C ) :   1.3376 B( 35-C , 46-C ) :   1.1981
B( 36-C , 37-C ) :   1.1717 B( 36-C , 43-C ) :   1.2081 B( 37-C , 38-C ) :   1.2096
B( 38-C , 39-C ) :   1.0890 B( 38-C , 41-C ) :   1.5304 B( 39-C , 40-N ) :   2.9706
B( 41-C , 42-C ) :   1.2030 B( 41-C , 70-H ) :   0.9937 B( 42-C , 43-C ) :   1.5300
B( 42-C , 71-H ) :   0.9941 B( 43-C , 44-C ) :   1.0857 B( 44-C , 45-N ) :   2.9857
B( 46-C , 47-C ) :   1.6445 B( 46-C , 72-H ) :   0.9573 B( 47-C , 48-C ) :   1.1328
B( 47-C , 73-H ) :   0.9615 B( 48-C , 49-S ) :   1.1161 B( 48-C , 50-C ) :   0.1016
B( 48-C , 52-C ) :   1.4766 B( 49-S , 50-C ) :   1.1165 B( 50-C , 51-C ) :   1.4858
B( 50-C , 53-C ) :   0.9721 B( 51-C , 52-C ) :   1.2895 B( 51-C , 74-H ) :   1.0011
B( 52-C , 75-H ) :   0.9902 B( 53-C , 54-C ) :   2.3525 B( 54-C , 55-C ) :   1.0199
B( 55-C , 56-C ) :   1.9269 B( 55-C , 76-H ) :   0.9614 B( 56-C , 77-H ) :   0.9641
B( 56-C , 78-H ) :   0.9559

-----------------------------------------------------------------------------
         ABSORPTION SPECTRUM VIA TRANSITION ELECTRIC DIPOLE MOMENTS
-----------------------------------------------------------------------------
State   Energy  Wavelength   fosc         T2         TX        TY        TZ
        (cm-1)    (nm)                  (au**2)     (au)      (au)      (au)
-----------------------------------------------------------------------------
   0   13139.8    761.0   1.441263631  36.11010  -0.58922  -5.47070   2.41544
   1   15843.7    631.2   0.317394100   6.59504   1.40298   2.15068   0.03568
   2   20269.1    493.4   0.141569488   2.29938  -0.38087  -1.27944  -0.71928
   3   21251.1    470.6   0.553277698   8.57112  -0.13977   2.61997  -1.29897
   4   22948.4    435.8   0.409291148   5.87160  -0.44603  -1.72778   1.63934
   5   24658.6    405.5   0.241328854   3.22193  -1.10591  -1.06938  -0.92484
   6   25696.0    389.2   0.398618389   5.10702   0.92484   1.94903   0.67304
   7   27052.3    369.7   0.111978987   1.36272   0.22713   0.61068  -0.96861
   8   28130.7    355.5   0.241863965   2.83052  -0.93292  -0.03536   1.39962
   9   29478.1    339.2   0.165515554   1.84848  -0.51310  -0.55926  -1.12802
  10   30067.8    332.6   0.043527551   0.47658  -0.30151  -0.23172  -0.57618
  11   31405.6    318.4   0.011931408   0.12507   0.27200   0.22394  -0.03070
  12   31590.4    316.6   0.377704502   3.93616  -0.35914  -0.28178  -1.93075
  13   32451.4    308.2   0.019975641   0.20265   0.24594   0.37233   0.05940
  14   34286.4    291.7   0.081739243   0.78485   0.05020   0.09128   0.87977
  15   34843.5    287.0   0.012386959   0.11704  -0.09861  -0.15262   0.28986
  16   35001.3    285.7   0.205041159   1.92856   0.52809   0.41107   1.21684
  17   35252.4    283.7   0.012831289   0.11983   0.25379  -0.00413   0.23537
  18   35334.4    283.0   0.205312971   1.91291   0.03108   0.57797   1.25614
  19   35766.1    279.6   0.011089137   0.10207   0.22314   0.20574  -0.09976
  20   36138.1    276.7   0.038175043   0.34777   0.18733   0.52633  -0.18880
  21   36160.5    276.5   0.021314442   0.19405   0.22183   0.31239   0.21738
  22   36485.7    274.1   0.051420296   0.46397   0.20412  -0.63876   0.11954
  23   36827.5    271.5   0.174295796   1.55808  -0.12887  -0.29557   1.20586
  24   37274.3    268.3   0.031483267   0.27806   0.14019   0.29454   0.41432
  25   37344.8    267.8   0.045272496   0.39910   0.17516   0.51693   0.31813
  26   37765.4    264.8   0.205586936   1.79216  -0.44151  -1.07463  -0.66513
  27   38327.9    260.9   0.005638989   0.04844   0.08073  -0.19497   0.06248
  28   38508.5    259.7   0.206489092   1.76529   0.16410  -0.48921  -1.22435
  29   38777.2    257.9   0.023193719   0.19691  -0.28605  -0.04556   0.33617
  30   39184.7    255.2   0.103630364   0.87066   0.21431   0.86327  -0.28196
  31   40055.6    249.7   0.014645390   0.12037  -0.03386  -0.20266  -0.27956

FINAL SINGLE POINT ENERGY     -4048.711185331240

DIPOLE MOMENT
-------------
                                X             Y             Z
Electronic contribution:      1.37454     -12.57354      20.87637
Nuclear contribution   :     -1.95453      12.50151     -22.42108
                        -----------------------------------------
Total Dipole Moment    :     -0.57999      -0.07203      -1.54471
                        -----------------------------------------
Magnitude (a.u.)       :      1.65158
Magnitude (Debye)      :      4.19798

Rotational constants in cm-1:     0.002218     0.000228     0.000213
Rotational constants in MHz :    66.501125     6.824231     6.395137

                             ****ORCA TERMINATED NORMALLY****
TOTAL RUN TIME: 0 days 0 hours 9 minutes 50 seconds 31 msec
