                         Program Version 4.2.0 -  RELEASE  -
|  1> # ORCA input file
|  2> # SCF done       -195.970707126515          0.000526814126
|  3> ! CAM-B3LYP def2-SVP def2/J RIJCOSX Grid4 TightSCF
|  4> %maxcore 5000
|  5> %tddft
|  6>     Mode sTDDFT
|  7>     Ethresh 5.0
|  8>     maxcore 5000
|  9> end
| 10>
| 11> %pal
| 12>   nprocs 6
| 13>   end
| 14> * xyz 0 1
| 15>    C        9.19409        -8.59972        -0.89775
| 16>    C        9.19602        -9.84789        -0.33991
| 17>    F       10.24531       -10.66557        -0.55028
| 18>    C        8.14100       -10.31871         0.45242
| 19>    C        7.06848        -9.50084         0.67777
| 20>    C        7.01542        -8.20351         0.12927
| 21>    C        8.09784        -7.74411        -0.67571
| 22>    C        8.06463        -6.44728        -1.24154
| 23>    C        6.98966        -5.63709        -0.99954
| 24>    C        5.91681        -6.09708        -0.18246
| 25>    C        5.91600        -7.34648         0.36509
| 26>    C        4.91390        -5.02060        -0.04933
| 27>    O        3.85112        -5.06332         0.53018
| 28>    C        5.51278        -3.84537        -0.73214
| 29>    C        6.67386        -4.28550        -1.45601
| 30>    C        7.25323        -3.65737        -2.53192
| 31>    C        6.72570        -2.49563        -3.12471
| 32>    N        6.31131        -1.56348        -3.65279
| 33>    C        8.40381        -4.12126        -3.19338
| 34>    N        9.36875        -4.42104        -3.74070
| 35>    C        4.97410        -2.60348        -0.50558
| 36>    C        5.55751        -1.34260        -0.65790
| 37>    C        6.91083        -0.96995        -0.79573
| 38>    C        7.08647         0.43112        -0.92022
| 39>    N        8.28726         0.98920        -1.09181
| 40>    C        9.31957         0.17764        -1.12957
| 41>    C        9.16139        -1.22888        -0.93192
| 42>    N        7.98177        -1.78122        -0.76040
| 43>    C       10.33747        -2.14369        -0.91272
| 44>    C       10.65729         0.79029        -1.36243
| 45>    C        5.88018         1.15549        -0.84153
| 46>    S        4.54827         0.08849        -0.61121
| 47>    C        5.77584         2.53754        -0.93534
| 48>    C        4.59836         3.30247        -0.81936
| 49>    C        4.84258         4.69205        -0.92786
| 50>    N        3.85379         5.59099        -0.84810
| 51>    C        2.64034         5.11803        -0.67227
| 52>    C        2.39419         3.71102        -0.55131
| 53>    N        3.36219         2.82562        -0.62186
| 54>    C        1.01556         3.18786        -0.34189
| 55>    C        1.52701         6.10290        -0.60358
| 56>    C        6.20126         4.99259        -1.14770
| 57>    S        7.16484         3.54944        -1.20432
| 58>    C        6.69965         6.27261        -1.34876
| 59>    C        8.00979         6.63256        -1.71949
| 60>    C        8.16852         8.03140        -1.89185
| 61>    N        9.35691         8.54755        -2.23944
| 62>    C       10.34276         7.70060        -2.42383
| 63>    C       10.17079         6.28862        -2.26693
| 64>    N        9.01671         5.77238        -1.91148
| 65>    C       11.29461         5.33771        -2.49908
| 66>    C       11.66205         8.27555        -2.81120
| 67>    C        6.97961         8.76062        -1.66826
| 68>    S        5.69223         7.66736        -1.21583
| 69>    C        6.89720        10.15382        -1.69038
| 70>    C        5.81113        10.97379        -1.51305
| 71>    C        6.01917        12.35750        -1.01932
| 72>    O        7.05713        12.98058        -0.99995
| 73>    C        4.70264        12.77798        -0.49227
| 74>    C        4.36982        13.91545         0.18308
| 75>    C        3.04009        14.08746         0.63170
| 76>    C        2.07740        13.07009         0.36927
| 77>    C        0.75767        13.24348         0.82891
| 78>    C        0.42864        14.38056         1.51269
| 79>    C        1.35937        15.39337         1.77851
| 80>    C        2.64531        15.24091         1.33923
| 81>    F       -0.83281        14.54633         1.95411
| 82>    C        2.44800        11.90651        -0.34565
| 83>    C        3.73982        11.76532        -0.77119
| 84>    C        4.39551        10.71404        -1.54590
| 85>    C        3.75243         9.81652        -2.36439
| 86>    C        4.41656         9.08814        -3.37130
| 87>    N        4.91375         8.53719        -4.24767
| 88>    C        2.36569         9.58888        -2.34549
| 89>    N        1.24639         9.32876        -2.33010
| 90>    H       10.02304        -8.27247        -1.50582
| 91>    H        8.19755       -11.31293         0.86644
| 92>    H        6.24304        -9.84091         1.28501
| 93>    H        8.89779        -6.12373        -1.84553
| 94>    H        5.08860        -7.67900         0.97393
| 95>    H        3.97501        -2.61583        -0.07981
| 96>    H       11.09704        -1.78590        -0.22042
| 97>    H       10.78229        -2.19745        -1.90621
| 98>    H       10.01659        -3.13955        -0.61982
| 99>    H       10.53572         1.86224        -1.48882
|100>    H       11.11600         0.36662        -2.25442
|101>    H       11.32001         0.59877        -0.51965
|102>    H        0.36892         3.48459        -1.16612
|103>    H        0.59081         3.58883         0.57711
|104>    H        1.05048         2.10399        -0.28197
|105>    H        1.92136         7.10817        -0.71790
|106>    H        1.00402         6.02401         0.34828
|107>    H        0.80579         5.91634        -1.39764
|108>    H       11.67177         5.43577        -3.51573
|109>    H       10.93779         4.32376        -2.34349
|110>    H       12.11647         5.54244        -1.81447
|111>    H       11.58095         9.35754        -2.85611
|112>    H       11.96813         7.89704        -3.78539
|113>    H       12.42720         7.99837        -2.08773
|114>    H        7.85837        10.65577        -1.75430
|115>    H        5.11084        14.67692         0.37497
|116>    H        0.01355        12.48587         0.63859
|117>    H        1.04225        16.26877         2.32270
|118>    H        3.38056        16.00763         1.53215
|119>    H        1.70165        11.14956        -0.52899
|120> *
|121>
|122>                          ****END OF INPUT****

CARTESIAN COORDINATES (ANGSTROEM)
---------------------------------
  C      9.194090   -8.599720   -0.897750
  C      9.196020   -9.847890   -0.339910
  F     10.245310  -10.665570   -0.550280
  C      8.141000  -10.318710    0.452420
  C      7.068480   -9.500840    0.677770
  C      7.015420   -8.203510    0.129270
  C      8.097840   -7.744110   -0.675710
  C      8.064630   -6.447280   -1.241540
  C      6.989660   -5.637090   -0.999540
  C      5.916810   -6.097080   -0.182460
  C      5.916000   -7.346480    0.365090
  C      4.913900   -5.020600   -0.049330
  O      3.851120   -5.063320    0.530180
  C      5.512780   -3.845370   -0.732140
  C      6.673860   -4.285500   -1.456010
  C      7.253230   -3.657370   -2.531920
  C      6.725700   -2.495630   -3.124710
  N      6.311310   -1.563480   -3.652790
  C      8.403810   -4.121260   -3.193380
  N      9.368750   -4.421040   -3.740700
  C      4.974100   -2.603480   -0.505580
  C      5.557510   -1.342600   -0.657900
  C      6.910830   -0.969950   -0.795730
  C      7.086470    0.431120   -0.920220
  N      8.287260    0.989200   -1.091810
  C      9.319570    0.177640   -1.129570
  C      9.161390   -1.228880   -0.931920
  N      7.981770   -1.781220   -0.760400
  C     10.337470   -2.143690   -0.912720
  C     10.657290    0.790290   -1.362430
  C      5.880180    1.155490   -0.841530
  S      4.548270    0.088490   -0.611210
  C      5.775840    2.537540   -0.935340
  C      4.598360    3.302470   -0.819360
  C      4.842580    4.692050   -0.927860
  N      3.853790    5.590990   -0.848100
  C      2.640340    5.118030   -0.672270
  C      2.394190    3.711020   -0.551310
  N      3.362190    2.825620   -0.621860
  C      1.015560    3.187860   -0.341890
  C      1.527010    6.102900   -0.603580
  C      6.201260    4.992590   -1.147700
  S      7.164840    3.549440   -1.204320
  C      6.699650    6.272610   -1.348760
  C      8.009790    6.632560   -1.719490
  C      8.168520    8.031400   -1.891850
  N      9.356910    8.547550   -2.239440
  C     10.342760    7.700600   -2.423830
  C     10.170790    6.288620   -2.266930
  N      9.016710    5.772380   -1.911480
  C     11.294610    5.337710   -2.499080
  C     11.662050    8.275550   -2.811200
  C      6.979610    8.760620   -1.668260
  S      5.692230    7.667360   -1.215830
  C      6.897200   10.153820   -1.690380
  C      5.811130   10.973790   -1.513050
  C      6.019170   12.357500   -1.019320
  O      7.057130   12.980580   -0.999950
  C      4.702640   12.777980   -0.492270
  C      4.369820   13.915450    0.183080
  C      3.040090   14.087460    0.631700
  C      2.077400   13.070090    0.369270
  C      0.757670   13.243480    0.828910
  C      0.428640   14.380560    1.512690
  C      1.359370   15.393370    1.778510
  C      2.645310   15.240910    1.339230
  F     -0.832810   14.546330    1.954110
  C      2.448000   11.906510   -0.345650
  C      3.739820   11.765320   -0.771190
  C      4.395510   10.714040   -1.545900
  C      3.752430    9.816520   -2.364390
  C      4.416560    9.088140   -3.371300
  N      4.913750    8.537190   -4.247670
  C      2.365690    9.588880   -2.345490
  N      1.246390    9.328760   -2.330100
  H     10.023040   -8.272470   -1.505820
  H      8.197550  -11.312930    0.866440
  H      6.243040   -9.840910    1.285010
  H      8.897790   -6.123730   -1.845530
  H      5.088600   -7.679000    0.973930
  H      3.975010   -2.615830   -0.079810
  H     11.097040   -1.785900   -0.220420
  H     10.782290   -2.197450   -1.906210
  H     10.016590   -3.139550   -0.619820
  H     10.535720    1.862240   -1.488820
  H     11.116000    0.366620   -2.254420
  H     11.320010    0.598770   -0.519650
  H      0.368920    3.484590   -1.166120
  H      0.590810    3.588830    0.577110
  H      1.050480    2.103990   -0.281970
  H      1.921360    7.108170   -0.717900
  H      1.004020    6.024010    0.348280
  H      0.805790    5.916340   -1.397640
  H     11.671770    5.435770   -3.515730
  H     10.937790    4.323760   -2.343490
  H     12.116470    5.542440   -1.814470
  H     11.580950    9.357540   -2.856110
  H     11.968130    7.897040   -3.785390
  H     12.427200    7.998370   -2.087730
  H      7.858370   10.655770   -1.754300
  H      5.110840   14.676920    0.374970
  H      0.013550   12.485870    0.638590
  H      1.042250   16.268770    2.322700
  H      3.380560   16.007630    1.532150
  H      1.701650   11.149560   -0.528990

 Total Charge           Charge          ....    0
 Multiplicity           Mult            ....    1
 Number of Electrons    NEL             ....  530
 Basis Dimension        Dim             .... 1212

ORBITAL ENERGIES
----------------

  NO   OCC          E(Eh)            E(eV)
   0   2.0000     -88.986632     -2421.4493
   1   2.0000     -88.984649     -2421.3954
   2   2.0000     -88.981141     -2421.2999
   3   2.0000     -24.780779      -674.3193
   4   2.0000     -24.779725      -674.2906
   5   2.0000     -19.202712      -522.5324
   6   2.0000     -19.200700      -522.4776
   7   2.0000     -14.437422      -392.8622
   8   2.0000     -14.436777      -392.8447
   9   2.0000     -14.436542      -392.8383
  10   2.0000     -14.434876      -392.7929
  11   2.0000     -14.429019      -392.6336
  12   2.0000     -14.427314      -392.5872
  13   2.0000     -14.410709      -392.1353
  14   2.0000     -14.406685      -392.0258
  15   2.0000     -14.404140      -391.9566
  16   2.0000     -14.403402      -391.9365
  17   2.0000     -10.363628      -282.0086
  18   2.0000     -10.362564      -281.9797
  19   2.0000     -10.353937      -281.7450
  20   2.0000     -10.353308      -281.7278
  21   2.0000     -10.338850      -281.3344
  22   2.0000     -10.338625      -281.3283
  23   2.0000     -10.337624      -281.3011
  24   2.0000     -10.335828      -281.2522
  25   2.0000     -10.335482      -281.2428
  26   2.0000     -10.335275      -281.2371
  27   2.0000     -10.334586      -281.2184
  28   2.0000     -10.333660      -281.1932
  29   2.0000     -10.331663      -281.1388
  30   2.0000     -10.331022      -281.1214
  31   2.0000     -10.327784      -281.0333
  32   2.0000     -10.326915      -281.0096
  33   2.0000     -10.325822      -280.9799
  34   2.0000     -10.325733      -280.9775
  35   2.0000     -10.325386      -280.9680
  36   2.0000     -10.324999      -280.9575
  37   2.0000     -10.324814      -280.9525
  38   2.0000     -10.324101      -280.9331
  39   2.0000     -10.322301      -280.8841
  40   2.0000     -10.321842      -280.8716
  41   2.0000     -10.314562      -280.6735
  42   2.0000     -10.314382      -280.6686
  43   2.0000     -10.311103      -280.5794
  44   2.0000     -10.310464      -280.5620
  45   2.0000     -10.309382      -280.5326
  46   2.0000     -10.308735      -280.5149
  47   2.0000     -10.306753      -280.4610
  48   2.0000     -10.305821      -280.4356
  49   2.0000     -10.299241      -280.2566
  50   2.0000     -10.297895      -280.2200
  51   2.0000     -10.297803      -280.2175
  52   2.0000     -10.295446      -280.1533
  53   2.0000     -10.293980      -280.1134
  54   2.0000     -10.292493      -280.0730
  55   2.0000     -10.291699      -280.0514
  56   2.0000     -10.291435      -280.0442
  57   2.0000     -10.290832      -280.0278
  58   2.0000     -10.290683      -280.0237
  59   2.0000     -10.290503      -280.0188
  60   2.0000     -10.288543      -279.9655
  61   2.0000     -10.287826      -279.9460
  62   2.0000     -10.287214      -279.9293
  63   2.0000     -10.284281      -279.8495
  64   2.0000     -10.283475      -279.8276
  65   2.0000     -10.282552      -279.8025
  66   2.0000     -10.282042      -279.7886
  67   2.0000     -10.281220      -279.7662
  68   2.0000     -10.280647      -279.7506
  69   2.0000     -10.280363      -279.7429
  70   2.0000     -10.279785      -279.7272
  71   2.0000     -10.278986      -279.7054
  72   2.0000     -10.277067      -279.6532
  73   2.0000     -10.275674      -279.6153
  74   2.0000     -10.273455      -279.5549
  75   2.0000      -8.078973      -219.8400
  76   2.0000      -8.078498      -219.8271
  77   2.0000      -8.074109      -219.7077
  78   2.0000      -6.048271      -164.5818
  79   2.0000      -6.047580      -164.5630
  80   2.0000      -6.043729      -164.4582
  81   2.0000      -6.043364      -164.4483
  82   2.0000      -6.043270      -164.4457
  83   2.0000      -6.041608      -164.4005
  84   2.0000      -6.041210      -164.3897
  85   2.0000      -6.038895      -164.3267
  86   2.0000      -6.036826      -164.2704
  87   2.0000      -1.295268       -35.2460
  88   2.0000      -1.294203       -35.2171
  89   2.0000      -1.117511       -30.4090
  90   2.0000      -1.115923       -30.3658
  91   2.0000      -1.097850       -29.8740
  92   2.0000      -1.093910       -29.7668
  93   2.0000      -1.092091       -29.7173
  94   2.0000      -1.023264       -27.8444
  95   2.0000      -1.020758       -27.7762
  96   2.0000      -1.016700       -27.6658
  97   2.0000      -1.011710       -27.5300
  98   2.0000      -1.008142       -27.4329
  99   2.0000      -1.004108       -27.3232
 100   2.0000      -0.994674       -27.0664
 101   2.0000      -0.992847       -27.0168
 102   2.0000      -0.990987       -26.9661
 103   2.0000      -0.986107       -26.8333
 104   2.0000      -0.983848       -26.7719
 105   2.0000      -0.978410       -26.6239
 106   2.0000      -0.967722       -26.3331
 107   2.0000      -0.965894       -26.2833
 108   2.0000      -0.921282       -25.0693
 109   2.0000      -0.918871       -25.0038
 110   2.0000      -0.906672       -24.6718
 111   2.0000      -0.902372       -24.5548
 112   2.0000      -0.898110       -24.4388
 113   2.0000      -0.895414       -24.3655
 114   2.0000      -0.893948       -24.3256
 115   2.0000      -0.885404       -24.0931
 116   2.0000      -0.880724       -23.9657
 117   2.0000      -0.877201       -23.8699
 118   2.0000      -0.872622       -23.7453
 119   2.0000      -0.857533       -23.3347
 120   2.0000      -0.841197       -22.8901
 121   2.0000      -0.837761       -22.7966
 122   2.0000      -0.827418       -22.5152
 123   2.0000      -0.826170       -22.4812
 124   2.0000      -0.822534       -22.3823
 125   2.0000      -0.816947       -22.2302
 126   2.0000      -0.815464       -22.1899
 127   2.0000      -0.808975       -22.0133
 128   2.0000      -0.805422       -21.9166
 129   2.0000      -0.802829       -21.8461
 130   2.0000      -0.785848       -21.3840
 131   2.0000      -0.764511       -20.8034
 132   2.0000      -0.752684       -20.4816
 133   2.0000      -0.750029       -20.4093
 134   2.0000      -0.736609       -20.0442
 135   2.0000      -0.730372       -19.8744
 136   2.0000      -0.727654       -19.8005
 137   2.0000      -0.726293       -19.7634
 138   2.0000      -0.724581       -19.7168
 139   2.0000      -0.718595       -19.5540
 140   2.0000      -0.709105       -19.2957
 141   2.0000      -0.702192       -19.1076
 142   2.0000      -0.701707       -19.0944
 143   2.0000      -0.699886       -19.0449
 144   2.0000      -0.697586       -18.9823
 145   2.0000      -0.673208       -18.3189
 146   2.0000      -0.669008       -18.2046
 147   2.0000      -0.666589       -18.1388
 148   2.0000      -0.663273       -18.0486
 149   2.0000      -0.658892       -17.9294
 150   2.0000      -0.655491       -17.8368
 151   2.0000      -0.652749       -17.7622
 152   2.0000      -0.639861       -17.4115
 153   2.0000      -0.628706       -17.1080
 154   2.0000      -0.626800       -17.0561
 155   2.0000      -0.625014       -17.0075
 156   2.0000      -0.622921       -16.9505
 157   2.0000      -0.621874       -16.9221
 158   2.0000      -0.614191       -16.7130
 159   2.0000      -0.606570       -16.5056
 160   2.0000      -0.598235       -16.2788
 161   2.0000      -0.593339       -16.1456
 162   2.0000      -0.578606       -15.7447
 163   2.0000      -0.577789       -15.7224
 164   2.0000      -0.572119       -15.5681
 165   2.0000      -0.568641       -15.4735
 166   2.0000      -0.566746       -15.4219
 167   2.0000      -0.564015       -15.3476
 168   2.0000      -0.561713       -15.2850
 169   2.0000      -0.559784       -15.2325
 170   2.0000      -0.557631       -15.1739
 171   2.0000      -0.556090       -15.1320
 172   2.0000      -0.554470       -15.0879
 173   2.0000      -0.552999       -15.0479
 174   2.0000      -0.551856       -15.0168
 175   2.0000      -0.544760       -14.8237
 176   2.0000      -0.542123       -14.7519
 177   2.0000      -0.538971       -14.6661
 178   2.0000      -0.532885       -14.5005
 179   2.0000      -0.529084       -14.3971
 180   2.0000      -0.526802       -14.3350
 181   2.0000      -0.526204       -14.3187
 182   2.0000      -0.523141       -14.2354
 183   2.0000      -0.521436       -14.1890
 184   2.0000      -0.518639       -14.1129
 185   2.0000      -0.517315       -14.0768
 186   2.0000      -0.515888       -14.0380
 187   2.0000      -0.515607       -14.0304
 188   2.0000      -0.514843       -14.0096
 189   2.0000      -0.512053       -13.9337
 190   2.0000      -0.508319       -13.8321
 191   2.0000      -0.507208       -13.8018
 192   2.0000      -0.502837       -13.6829
 193   2.0000      -0.502333       -13.6692
 194   2.0000      -0.501441       -13.6449
 195   2.0000      -0.499969       -13.6048
 196   2.0000      -0.496422       -13.5083
 197   2.0000      -0.494548       -13.4573
 198   2.0000      -0.493987       -13.4421
 199   2.0000      -0.491379       -13.3711
 200   2.0000      -0.489480       -13.3194
 201   2.0000      -0.489342       -13.3157
 202   2.0000      -0.487095       -13.2545
 203   2.0000      -0.484830       -13.1929
 204   2.0000      -0.484081       -13.1725
 205   2.0000      -0.483928       -13.1684
 206   2.0000      -0.481565       -13.1041
 207   2.0000      -0.478064       -13.0088
 208   2.0000      -0.477612       -12.9965
 209   2.0000      -0.475120       -12.9287
 210   2.0000      -0.474234       -12.9046
 211   2.0000      -0.473331       -12.8800
 212   2.0000      -0.472657       -12.8617
 213   2.0000      -0.467085       -12.7100
 214   2.0000      -0.459882       -12.5140
 215   2.0000      -0.456152       -12.4125
 216   2.0000      -0.455239       -12.3877
 217   2.0000      -0.452902       -12.3241
 218   2.0000      -0.450715       -12.2646
 219   2.0000      -0.449521       -12.2321
 220   2.0000      -0.448082       -12.1929
 221   2.0000      -0.447428       -12.1751
 222   2.0000      -0.443647       -12.0723
 223   2.0000      -0.441985       -12.0270
 224   2.0000      -0.440052       -11.9744
 225   2.0000      -0.439640       -11.9632
 226   2.0000      -0.437833       -11.9140
 227   2.0000      -0.434528       -11.8241
 228   2.0000      -0.433859       -11.8059
 229   2.0000      -0.431389       -11.7387
 230   2.0000      -0.429826       -11.6962
 231   2.0000      -0.422579       -11.4990
 232   2.0000      -0.419993       -11.4286
 233   2.0000      -0.419100       -11.4043
 234   2.0000      -0.418467       -11.3871
 235   2.0000      -0.415121       -11.2960
 236   2.0000      -0.411893       -11.2082
 237   2.0000      -0.410453       -11.1690
 238   2.0000      -0.407079       -11.0772
 239   2.0000      -0.403293       -10.9742
 240   2.0000      -0.400802       -10.9064
 241   2.0000      -0.397599       -10.8192
 242   2.0000      -0.391181       -10.6446
 243   2.0000      -0.389653       -10.6030
 244   2.0000      -0.387364       -10.5407
 245   2.0000      -0.382254       -10.4017
 246   2.0000      -0.373966       -10.1761
 247   2.0000      -0.372569       -10.1381
 248   2.0000      -0.360894        -9.8204
 249   2.0000      -0.350861        -9.5474
 250   2.0000      -0.336735        -9.1630
 251   2.0000      -0.335526        -9.1301
 252   2.0000      -0.330011        -8.9801
 253   2.0000      -0.328995        -8.9524
 254   2.0000      -0.328241        -8.9319
 255   2.0000      -0.326211        -8.8766
 256   2.0000      -0.324202        -8.8220
 257   2.0000      -0.322705        -8.7812
 258   2.0000      -0.319048        -8.6817
 259   2.0000      -0.305534        -8.3140
 260   2.0000      -0.299743        -8.1564
 261   2.0000      -0.292914        -7.9706
 262   2.0000      -0.288084        -7.8392
 263   2.0000      -0.275772        -7.5041
 264   2.0000      -0.232461        -6.3256
 265   0.0000      -0.125837        -3.4242
 266   0.0000      -0.083966        -2.2848
 267   0.0000      -0.062867        -1.7107
 268   0.0000      -0.050183        -1.3655
 269   0.0000      -0.043769        -1.1910

MULLIKEN ATOMIC CHARGES
-----------------------
   0 C :   -0.102358
   1 C :    0.302496
   2 F :   -0.194208
   3 C :   -0.030634
   4 C :   -0.011612
   5 C :    0.099551
   6 C :    0.108889
   7 C :   -0.104895
   8 C :    0.050170
   9 C :    0.011071
  10 C :   -0.087030
  11 C :    0.133314
  12 O :   -0.151414
  13 C :   -0.148861
  14 C :    0.326209
  15 C :   -0.343019
  16 C :   -0.219344
  17 N :    0.166004
  18 C :   -0.186359
  19 N :    0.134208
  20 C :    0.062052
  21 C :   -0.172220
  22 C :    0.047648
  23 C :    0.009960
  24 N :   -0.003820
  25 C :   -0.166226
  26 C :   -0.155893
  27 N :    0.009289
  28 C :    0.128390
  29 C :    0.125194
  30 C :   -0.115056
  31 S :    0.248702
  32 C :   -0.165644
  33 C :    0.035919
  34 C :    0.019865
  35 N :   -0.000842
  36 C :   -0.159228
  37 C :   -0.169616
  38 N :    0.004855
  39 C :    0.127124
  40 C :    0.130442
  41 C :   -0.137075
  42 S :    0.278437
  43 C :   -0.132555
  44 C :    0.017617
  45 C :    0.062930
  46 N :    0.024661
  47 C :   -0.171171
  48 C :   -0.170906
  49 N :    0.008851
  50 C :    0.131122
  51 C :    0.129098
  52 C :   -0.152524
  53 S :    0.226438
  54 C :    0.024633
  55 C :   -0.138752
  56 C :    0.139756
  57 O :   -0.149901
  58 C :    0.006965
  59 C :   -0.086985
  60 C :    0.101352
  61 C :    0.105999
  62 C :   -0.100968
  63 C :    0.302138
  64 C :   -0.031682
  65 C :   -0.011192
  66 F :   -0.193821
  67 C :   -0.095801
  68 C :    0.050701
  69 C :    0.256976
  70 C :   -0.333694
  71 C :   -0.216912
  72 N :    0.166950
  73 C :   -0.154700
  74 N :    0.120807
  75 H :   -0.006364
  76 H :   -0.000453
  77 H :   -0.011760
  78 H :   -0.012237
  79 H :   -0.015273
  80 H :    0.011392
  81 H :    0.023443
  82 H :    0.047885
  83 H :    0.031428
  84 H :    0.030849
  85 H :    0.034566
  86 H :    0.029420
  87 H :    0.035424
  88 H :    0.030094
  89 H :    0.034396
  90 H :    0.034678
  91 H :    0.026048
  92 H :    0.040938
  93 H :    0.029834
  94 H :    0.027651
  95 H :    0.027813
  96 H :    0.037611
  97 H :    0.030460
  98 H :    0.027257
  99 H :    0.025595
 100 H :   -0.013906
 101 H :   -0.006528
 102 H :    0.000626
 103 H :   -0.010242
 104 H :   -0.010510
Sum of atomic charges:   -0.0000000

LOEWDIN ATOMIC CHARGES
----------------------
   0 C :   -0.045080
   1 C :    0.091426
   2 F :   -0.068331
   3 C :   -0.041283
   4 C :    0.003527
   5 C :   -0.021264
   6 C :    0.003097
   7 C :    0.001042
   8 C :   -0.010818
   9 C :   -0.058157
  10 C :    0.030959
  11 C :    0.081088
  12 O :   -0.153465
  13 C :   -0.094662
  14 C :    0.072297
  15 C :   -0.144789
  16 C :   -0.019060
  17 N :   -0.065076
  18 C :   -0.016617
  19 N :   -0.073917
  20 C :    0.038235
  21 C :   -0.195665
  22 C :   -0.027354
  23 C :   -0.049059
  24 N :   -0.049474
  25 C :    0.004386
  26 C :    0.021380
  27 N :   -0.040619
  28 C :   -0.051084
  29 C :   -0.052105
  30 C :   -0.163183
  31 S :    0.540052
  32 C :   -0.191206
  33 C :   -0.044857
  34 C :   -0.044416
  35 N :   -0.054990
  36 C :    0.015865
  37 C :    0.011445
  38 N :   -0.053100
  39 C :   -0.050375
  40 C :   -0.048969
  41 C :   -0.198097
  42 S :    0.567574
  43 C :   -0.157706
  44 C :   -0.058243
  45 C :   -0.016996
  46 N :   -0.043727
  47 C :    0.012619
  48 C :    0.000467
  49 N :   -0.051346
  50 C :   -0.051837
  51 C :   -0.050934
  52 C :   -0.204206
  53 S :    0.565840
  54 C :    0.058170
  55 C :   -0.112611
  56 C :    0.079645
  57 O :   -0.152581
  58 C :   -0.056073
  59 C :    0.029839
  60 C :   -0.019840
  61 C :    0.002199
  62 C :   -0.044560
  63 C :    0.091263
  64 C :   -0.040226
  65 C :    0.003583
  66 F :   -0.068176
  67 C :    0.004017
  68 C :   -0.014632
  69 C :    0.062632
  70 C :   -0.161421
  71 C :   -0.042047
  72 N :   -0.054480
  73 C :   -0.014250
  74 N :   -0.070946
  75 H :    0.041434
  76 H :    0.040373
  77 H :    0.034597
  78 H :    0.036344
  79 H :    0.038140
  80 H :    0.043447
  81 H :    0.036862
  82 H :    0.048248
  83 H :    0.040439
  84 H :    0.039040
  85 H :    0.042586
  86 H :    0.039582
  87 H :    0.043145
  88 H :    0.040694
  89 H :    0.041477
  90 H :    0.041513
  91 H :    0.039962
  92 H :    0.046271
  93 H :    0.040589
  94 H :    0.038235
  95 H :    0.038966
  96 H :    0.042936
  97 H :    0.041070
  98 H :    0.039082
  99 H :    0.053776
 100 H :    0.038595
 101 H :    0.041322
 102 H :    0.040682
 103 H :    0.035053
 104 H :    0.036800

  Mayer bond orders larger than 0.100000
B(  0-C ,  1-C ) :   1.4401 B(  0-C ,  6-C ) :   1.2034 B(  0-C , 75-H ) :   1.0064
B(  1-C ,  2-F ) :   1.0846 B(  1-C ,  3-C ) :   1.2581 B(  3-C ,  4-C ) :   1.4567
B(  3-C , 76-H ) :   0.9924 B(  4-C ,  5-C ) :   1.2385 B(  4-C , 77-H ) :   0.9965
B(  5-C ,  6-C ) :   1.2612 B(  5-C , 10-C ) :   1.1842 B(  6-C ,  7-C ) :   1.1938
B(  7-C ,  8-C ) :   1.4656 B(  7-C , 78-H ) :   0.9949 B(  8-C ,  9-C ) :   1.2154
B(  8-C , 14-C ) :   0.9977 B(  9-C , 10-C ) :   1.4775 B(  9-C , 11-C ) :   0.9157
B( 10-C , 79-H ) :   1.0151 B( 11-C , 12-O ) :   2.2622 B( 11-C , 13-C ) :   0.9544
B( 13-C , 14-C ) :   1.0927 B( 13-C , 20-C ) :   1.5687 B( 14-C , 15-C ) :   1.6000
B( 15-C , 16-C ) :   1.1733 B( 15-C , 18-C ) :   1.1612 B( 16-C , 17-N ) :   3.0046
B( 18-C , 19-N ) :   2.9436 B( 20-C , 21-C ) :   1.2336 B( 20-C , 80-H ) :   0.9247
B( 21-C , 22-C ) :   1.2781 B( 21-C , 30-C ) :   0.1112 B( 21-C , 31-S ) :   1.0873
B( 22-C , 23-C ) :   1.2617 B( 22-C , 27-N ) :   1.4189 B( 23-C , 24-N ) :   1.4236
B( 23-C , 30-C ) :   1.2413 B( 24-N , 25-C ) :   1.6861 B( 25-C , 26-C ) :   1.1490
B( 25-C , 29-C ) :   1.0984 B( 26-C , 27-N ) :   1.6657 B( 26-C , 28-C ) :   1.1015
B( 28-C , 81-H ) :   0.9378 B( 28-C , 82-H ) :   0.9335 B( 28-C , 83-H ) :   0.9405
B( 29-C , 84-H ) :   0.9430 B( 29-C , 85-H ) :   0.9352 B( 29-C , 86-H ) :   0.9352
B( 30-C , 31-S ) :   1.2091 B( 30-C , 32-C ) :   1.3391 B( 32-C , 33-C ) :   1.2552
B( 32-C , 41-C ) :   0.1238 B( 32-C , 42-S ) :   1.1439 B( 33-C , 34-C ) :   1.2739
B( 33-C , 38-N ) :   1.4217 B( 34-C , 35-N ) :   1.4102 B( 34-C , 41-C ) :   1.2571
B( 35-N , 36-C ) :   1.6908 B( 36-C , 37-C ) :   1.1398 B( 36-C , 40-C ) :   1.0993
B( 37-C , 38-N ) :   1.6984 B( 37-C , 39-C ) :   1.1013 B( 39-C , 87-H ) :   0.9384
B( 39-C , 88-H ) :   0.9390 B( 39-C , 89-H ) :   0.9424 B( 40-C , 90-H ) :   0.9404
B( 40-C , 91-H ) :   0.9354 B( 40-C , 92-H ) :   0.9368 B( 41-C , 42-S ) :   1.1237
B( 41-C , 43-C ) :   1.3440 B( 43-C , 44-C ) :   1.2217 B( 43-C , 52-C ) :   0.1149
B( 43-C , 53-S ) :   1.2291 B( 44-C , 45-C ) :   1.2655 B( 44-C , 49-N ) :   1.4315
B( 45-C , 46-N ) :   1.4419 B( 45-C , 52-C ) :   1.2709 B( 46-N , 47-C ) :   1.7076
B( 47-C , 48-C ) :   1.1468 B( 47-C , 51-C ) :   1.0987 B( 48-C , 49-N ) :   1.6953
B( 48-C , 50-C ) :   1.0961 B( 50-C , 93-H ) :   0.9348 B( 50-C , 94-H ) :   0.9437
B( 50-C , 95-H ) :   0.9365 B( 51-C , 96-H ) :   0.9414 B( 51-C , 97-H ) :   0.9387
B( 51-C , 98-H ) :   0.9396 B( 52-C , 53-S ) :   1.0656 B( 52-C , 54-C ) :   1.2801
B( 54-C , 55-C ) :   1.4841 B( 54-C , 99-H ) :   0.9530 B( 55-C , 56-C ) :   0.9585
B( 55-C , 69-C ) :   1.0811 B( 56-C , 57-O ) :   2.2649 B( 56-C , 58-C ) :   0.9143
B( 58-C , 59-C ) :   1.4835 B( 58-C , 68-C ) :   1.2177 B( 59-C , 60-C ) :   1.1841
B( 59-C ,100-H ) :   1.0144 B( 60-C , 61-C ) :   1.2601 B( 60-C , 65-C ) :   1.2388
B( 61-C , 62-C ) :   1.2036 B( 61-C , 67-C ) :   1.1960 B( 62-C , 63-C ) :   1.4408
B( 62-C ,101-H ) :   1.0057 B( 63-C , 64-C ) :   1.2591 B( 63-C , 66-F ) :   1.0851
B( 64-C , 65-C ) :   1.4568 B( 64-C ,102-H ) :   0.9924 B( 65-C ,103-H ) :   0.9963
B( 67-C , 68-C ) :   1.4696 B( 67-C ,104-H ) :   0.9934 B( 68-C , 69-C ) :   1.0038
B( 69-C , 70-C ) :   1.6057 B( 70-C , 71-C ) :   1.1517 B( 70-C , 73-C ) :   1.1488
B( 71-C , 72-N ) :   3.0264 B( 73-C , 74-N ) :   2.9233

-----------------------------------------------------------------------------
         ABSORPTION SPECTRUM VIA TRANSITION ELECTRIC DIPOLE MOMENTS
-----------------------------------------------------------------------------
State   Energy  Wavelength   fosc         T2         TX        TY        TZ
        (cm-1)    (nm)                  (au**2)     (au)      (au)      (au)
-----------------------------------------------------------------------------
   0    8943.9   1118.1   1.129509256  41.57554   0.65075  -6.41154   0.21018
   1   17001.2    588.2   0.025952218   0.50254   0.33978   0.37447   0.49685
   2   18069.0    553.4   0.008866256   0.16154  -0.05248  -0.18841  -0.35113
   3   20723.7    482.5   0.114559365   1.81986  -0.17388   1.33663   0.05510
   4   21294.8    469.6   0.091848681   1.41995   1.12124  -0.26738  -0.30212
   5   23020.2    434.4   0.005221078   0.07467   0.00904  -0.25114   0.10729
   6   23942.8    417.7   0.001029466   0.01416   0.06408   0.06889  -0.07283
   7   24343.6    410.8   0.060462257   0.81766   0.78763   0.38733   0.21744
   8   24833.1    402.7   0.005708476   0.07568  -0.15610   0.16775  -0.15221
   9   25133.6    397.9   0.027670954   0.36245   0.38030  -0.04997  -0.46403
  10   25278.3    395.6   0.076304734   0.99375  -0.72024  -0.67242  -0.15118
  11   25522.1    391.8   0.006064358   0.07822   0.12870  -0.21172   0.12975
  12   26158.3    382.3   0.024478269   0.30807  -0.08948   0.30783   0.45311
  13   26520.6    377.1   0.121588179   1.50933   0.14420   1.15541  -0.39187
  14   26941.6    371.2   0.014718429   0.17985   0.05921   0.24713   0.33952
  15   27330.2    365.9   0.040950681   0.49328  -0.14221  -0.68390   0.07303
  16   27439.4    364.4   0.057734188   0.69268  -0.24557   0.79514  -0.01147
  17   27518.4    363.4   0.081346014   0.97317   0.12578  -0.97637  -0.06357
  18   27734.0    360.6   0.148209784   1.75930   0.50255  -1.09859  -0.54758
  19   28092.8    356.0   0.074099062   0.86835   0.10398  -0.91796  -0.12198
  20   28614.4    349.5   0.441917957   5.08432  -2.20325   0.23011   0.42077
  21   29300.0    341.3   0.138782721   1.55935  -0.80207   0.95710  -0.00301
  22   31022.4    322.3   0.084507227   0.89680  -0.34433   0.38929  -0.79163
  23   31682.2    315.6   0.028882644   0.30012   0.08340  -0.47016   0.26854
  24   31758.0    314.9   0.413372112   4.28512  -1.07524   1.70918   0.45575
  25   32310.0    309.5   0.088079213   0.89745  -0.76685  -0.55252   0.06412
  26   33159.8    301.6   0.017889538   0.17761   0.08511   0.39485  -0.12024
  27   33282.7    300.5   0.036168209   0.35775  -0.11365   0.39999  -0.42994
  28   33360.9    299.8   0.097062569   0.95783   0.17548  -0.71900  -0.64038
  29   33780.4    296.0   0.013417337   0.13076  -0.03087   0.06606  -0.35418
  30   33943.1    294.6   0.244034935   2.36688   0.51105   1.28738  -0.66960
  31   34165.0    292.7   0.033846112   0.32614   0.16455  -0.54176  -0.07454
  32   34493.2    289.9   0.031251349   0.29827  -0.20013  -0.49384  -0.11975
  33   34662.5    288.5   0.128487291   1.22032  -0.57357   0.89782   0.29199
  34   34893.4    286.6   0.049163541   0.46385  -0.43481   0.47822   0.21470
  35   35017.6    285.6   0.078540531   0.73839  -0.57686  -0.52206   0.36480
  36   35519.6    281.5   0.032913676   0.30506   0.07707  -0.08570  -0.54016
  37   35788.3    279.4   0.013783826   0.12680   0.30787   0.17890   0.00153
  38   35923.6    278.4   0.037493005   0.34359   0.02507  -0.49415   0.31429
  39   36162.2    276.5   0.055563478   0.50584   0.09801   0.07767   0.70014
  40   36244.8    275.9   0.155163012   1.40935   0.49824   0.93681  -0.53244
  41   36394.4    274.8   0.016167238   0.14624  -0.21066  -0.31878  -0.01562
  42   36558.0    273.5   0.142964526   1.28742  -0.48402   1.01721  -0.13576
  43   36785.1    271.8   0.179238253   1.60411  -0.55400   1.12341  -0.18747
  44   36922.8    270.8   0.335447254   2.99093  -0.43619   1.14920   1.21655
  45   37022.1    270.1   0.146515961   1.30287   0.67640  -0.52596  -0.75413
  46   37165.6    269.1   0.031319746   0.27743  -0.04826  -0.39409  -0.34612
  47   37298.9    268.1   0.045805576   0.40429   0.39527   0.46024  -0.19037
  48   37626.8    265.8   0.016558753   0.14488  -0.26976  -0.23449   0.13084
  49   37934.2    263.6   0.021218986   0.18415   0.16606   0.35944  -0.16546
  50   38093.8    262.5   0.036681506   0.31701   0.54002  -0.01045   0.15899
  51   38199.8    261.8   0.036295794   0.31280  -0.48981  -0.26949  -0.01634
  52   38395.9    260.4   0.018470010   0.15836  -0.00742   0.25641   0.30424
  53   38575.8    259.2   0.117007119   0.99856  -0.98084   0.11287   0.15416
  54   38696.2    258.4   0.000628283   0.00535   0.04550  -0.03588   0.04459
  55   38732.1    258.2   0.048723418   0.41414  -0.59315  -0.04809   0.24494
  56   39043.5    256.1   0.041763382   0.35215   0.10829   0.51638  -0.27160
  57   39370.7    254.0   0.044505722   0.37215   0.47558  -0.27405  -0.26622
  58   39504.1    253.1   0.023003946   0.19171  -0.13182   0.41069  -0.07525
  59   39831.3    251.1   0.124706764   1.03072  -0.84000  -0.51231  -0.25033
  60   40221.3    248.6   0.071911406   0.58860   0.31573   0.69904  -0.01607

FINAL SINGLE POINT ENERGY     -4316.161885780116

DIPOLE MOMENT
-------------
                                X             Y             Z
Electronic contribution:    -23.12542      -2.74487      -0.00539
Nuclear contribution   :     24.57949       2.91839       2.89094
                        -----------------------------------------
Total Dipole Moment    :      1.45407       0.17352       2.88555
                        -----------------------------------------
Magnitude (a.u.)       :      3.23587
Magnitude (Debye)      :      8.22492

Rotational constants in cm-1:     0.002135     0.000292     0.000265
Rotational constants in MHz :    63.992939     8.742317     7.950794

                             ****ORCA TERMINATED NORMALLY****
TOTAL RUN TIME: 0 days 0 hours 17 minutes 42 seconds 406 msec
