                         Program Version 4.2.0 -  RELEASE  -
|  1> # ORCA input file
|  2> # SCF done       -186.682012005057          0.005187407004
|  3> ! CAM-B3LYP def2-SVP def2/J RIJCOSX Grid4 TightSCF
|  4> %maxcore 5000
|  5> %tddft
|  6>     Mode sTDDFT
|  7>     Ethresh 5.0
|  8>     maxcore 5000
|  9> end
| 10>
| 11> %pal
| 12>   nprocs 6
| 13>   end
| 14> * xyz 0 1
| 15>    C       -1.57094         0.72834         1.32823
| 16>    C       -0.82268         0.83094         0.17747
| 17>    C        0.53449         0.46792         0.08970
| 18>    N        1.65460         0.23438        -0.01733
| 19>    C       -1.28805         1.37307        -1.03421
| 20>    N       -1.60780         1.81569        -2.04659
| 21>    C       -1.10287         0.17911         2.59700
| 22>    C       -2.11078         0.36416         3.57504
| 23>    C       -1.96131        -0.03484         4.87819
| 24>    C       -0.75585        -0.64691         5.23875
| 25>    C        0.24360        -0.83201         4.25602
| 26>    C        0.08965        -0.43283         2.93469
| 27>    S        1.65862        -1.59008         4.91984
| 28>    C        0.89824        -1.64653         6.48603
| 29>    C       -0.35150        -1.12586         6.51362
| 30>   Br        1.82208        -2.39298         7.93647
| 31>    C       -3.27231         1.03727         2.95836
| 32>    O       -4.30325         1.36475         3.50584
| 33>    C       -2.90537         1.22791         1.53786
| 34>    C       -3.73773         1.84748         0.64080
| 35>    C       -4.93034         2.41053         1.01342
| 36>    C       -5.95045         2.98498         1.36084
| 37>    C       -7.07341         3.65083         1.77506
| 38>    S       -8.00486         4.64439         0.68613
| 39>    C       -9.10309         5.05171         1.97431
| 40>    C       -8.74389         4.43741         3.17105
| 41>    C       -7.60668         3.65886         3.06010
| 42>    C      -10.17423         5.88950         1.75771
| 43>    C      -11.12076         6.62776         1.54197
| 44>    C      -12.20282         7.44474         1.29756
| 45>    C      -12.37058         8.11748         0.11776
| 46>    C      -13.48602         8.91223        -0.16761
| 47>    C      -13.66639         9.60781        -1.34140
| 48>    C      -14.80142        10.36577        -1.71209
| 49>    C      -14.71688        10.93297        -2.94883
| 50>    C      -13.50141        10.66953        -3.61643
| 51>    S      -12.47046         9.66152        -2.62581
| 52>    C      -13.10777        11.11098        -4.86744
| 53>    C      -13.86683        11.86158        -5.79312
| 54>    C      -13.20983        12.13614        -6.95426
| 55>    C      -11.88849        11.62977        -7.00154
| 56>    S      -11.51612        10.77219        -5.51398
| 57>    C      -10.98750        11.75759        -8.02939
| 58>    C       -9.70555        11.26744        -7.96414
| 59>    C       -8.56611        10.83655        -7.89095
| 60>    C       -7.29573        10.32341        -7.76106
| 61>    S       -6.74326         9.70529        -6.22395
| 62>    C       -5.21178         9.25506        -6.93318
| 63>    C       -5.16117         9.58346        -8.27830
| 64>    C       -6.32177        10.18856        -8.73979
| 65>    C       -4.25461         8.61549        -6.17426
| 66>    C       -3.46393         8.01032        -5.47275
| 67>    C       -2.61851         7.25209        -4.68598
| 68>    C       -1.60140         6.49813        -5.18723
| 69>    C       -0.72828         5.67026        -4.44482
| 70>    C       -0.81803         5.12976        -3.19113
| 71>    C       -1.87668         4.99517        -2.21979
| 72>    C       -3.22567         4.93022        -2.46694
| 73>    C       -4.21675         4.84854        -1.47119
| 74>    N       -5.07655         4.84905        -0.70765
| 75>    C       -3.78838         4.89802        -3.75771
| 76>    N       -4.30021         4.83538        -4.78340
| 77>    C       -1.26072         4.66015        -0.93694
| 78>    C        0.10201         4.34651        -1.16112
| 79>    C        0.42966         4.59681        -2.57988
| 80>    O        1.49853         4.45338        -3.12670
| 81>    C        0.92223         3.86630        -0.17028
| 82>    C        0.37677         3.70989         1.10835
| 83>    C       -0.97078         4.07529         1.33475
| 84>    C       -1.80659         4.54276         0.32734
| 85>    S       -1.43026         3.82816         2.99556
| 86>    C        0.16820         3.21434         3.34458
| 87>    C        1.00571         3.20821         2.28293
| 88>   Br        0.57557         2.65107         5.08348
| 89>    H       -2.74561         0.12966         5.59976
| 90>    H        0.87925        -0.60227         2.22397
| 91>    H       -0.96187        -1.07744         7.39665
| 92>    H       -3.46619         1.93642        -0.40357
| 93>    H       -9.30532         4.57571         4.07829
| 94>    H       -7.15338         3.10247         3.86117
| 95>    H      -12.93855         7.54041         2.08737
| 96>    H      -11.60739         8.02809        -0.64526
| 97>    H      -14.27546         8.97866         0.57065
| 98>    H      -15.64924        10.46177        -1.05664
| 99>    H      -15.48959        11.53716        -3.38924
|100>    H      -14.87588        12.16876        -5.58419
|101>    H      -13.62964        12.68970        -7.77594
|102>    H      -11.29375        12.27005        -8.93199
|103>    H       -4.29728         9.38219        -8.88657
|104>    H       -6.47682        10.51506        -9.75292
|105>    H       -2.79996         7.30035        -3.61893
|106>    H       -1.40051         6.56678        -6.24840
|107>    H        0.21783         5.44713        -4.93099
|108>    H        1.94731         3.59685        -0.37733
|109>    H       -2.83222         4.79280         0.54484
|110>    H        2.02261         2.86135         2.31676
|111> *
|112>
|113>                          ****END OF INPUT****

CARTESIAN COORDINATES (ANGSTROEM)
---------------------------------
  C     -1.570940    0.728340    1.328230
  C     -0.822680    0.830940    0.177470
  C      0.534490    0.467920    0.089700
  N      1.654600    0.234380   -0.017330
  C     -1.288050    1.373070   -1.034210
  N     -1.607800    1.815690   -2.046590
  C     -1.102870    0.179110    2.597000
  C     -2.110780    0.364160    3.575040
  C     -1.961310   -0.034840    4.878190
  C     -0.755850   -0.646910    5.238750
  C      0.243600   -0.832010    4.256020
  C      0.089650   -0.432830    2.934690
  S      1.658620   -1.590080    4.919840
  C      0.898240   -1.646530    6.486030
  C     -0.351500   -1.125860    6.513620
  Br     1.822080   -2.392980    7.936470
  C     -3.272310    1.037270    2.958360
  O     -4.303250    1.364750    3.505840
  C     -2.905370    1.227910    1.537860
  C     -3.737730    1.847480    0.640800
  C     -4.930340    2.410530    1.013420
  C     -5.950450    2.984980    1.360840
  C     -7.073410    3.650830    1.775060
  S     -8.004860    4.644390    0.686130
  C     -9.103090    5.051710    1.974310
  C     -8.743890    4.437410    3.171050
  C     -7.606680    3.658860    3.060100
  C    -10.174230    5.889500    1.757710
  C    -11.120760    6.627760    1.541970
  C    -12.202820    7.444740    1.297560
  C    -12.370580    8.117480    0.117760
  C    -13.486020    8.912230   -0.167610
  C    -13.666390    9.607810   -1.341400
  C    -14.801420   10.365770   -1.712090
  C    -14.716880   10.932970   -2.948830
  C    -13.501410   10.669530   -3.616430
  S    -12.470460    9.661520   -2.625810
  C    -13.107770   11.110980   -4.867440
  C    -13.866830   11.861580   -5.793120
  C    -13.209830   12.136140   -6.954260
  C    -11.888490   11.629770   -7.001540
  S    -11.516120   10.772190   -5.513980
  C    -10.987500   11.757590   -8.029390
  C     -9.705550   11.267440   -7.964140
  C     -8.566110   10.836550   -7.890950
  C     -7.295730   10.323410   -7.761060
  S     -6.743260    9.705290   -6.223950
  C     -5.211780    9.255060   -6.933180
  C     -5.161170    9.583460   -8.278300
  C     -6.321770   10.188560   -8.739790
  C     -4.254610    8.615490   -6.174260
  C     -3.463930    8.010320   -5.472750
  C     -2.618510    7.252090   -4.685980
  C     -1.601400    6.498130   -5.187230
  C     -0.728280    5.670260   -4.444820
  C     -0.818030    5.129760   -3.191130
  C     -1.876680    4.995170   -2.219790
  C     -3.225670    4.930220   -2.466940
  C     -4.216750    4.848540   -1.471190
  N     -5.076550    4.849050   -0.707650
  C     -3.788380    4.898020   -3.757710
  N     -4.300210    4.835380   -4.783400
  C     -1.260720    4.660150   -0.936940
  C      0.102010    4.346510   -1.161120
  C      0.429660    4.596810   -2.579880
  O      1.498530    4.453380   -3.126700
  C      0.922230    3.866300   -0.170280
  C      0.376770    3.709890    1.108350
  C     -0.970780    4.075290    1.334750
  C     -1.806590    4.542760    0.327340
  S     -1.430260    3.828160    2.995560
  C      0.168200    3.214340    3.344580
  C      1.005710    3.208210    2.282930
  Br     0.575570    2.651070    5.083480
  H     -2.745610    0.129660    5.599760
  H      0.879250   -0.602270    2.223970
  H     -0.961870   -1.077440    7.396650
  H     -3.466190    1.936420   -0.403570
  H     -9.305320    4.575710    4.078290
  H     -7.153380    3.102470    3.861170
  H    -12.938550    7.540410    2.087370
  H    -11.607390    8.028090   -0.645260
  H    -14.275460    8.978660    0.570650
  H    -15.649240   10.461770   -1.056640
  H    -15.489590   11.537160   -3.389240
  H    -14.875880   12.168760   -5.584190
  H    -13.629640   12.689700   -7.775940
  H    -11.293750   12.270050   -8.931990
  H     -4.297280    9.382190   -8.886570
  H     -6.476820   10.515060   -9.752920
  H     -2.799960    7.300350   -3.618930
  H     -1.400510    6.566780   -6.248400
  H      0.217830    5.447130   -4.930990
  H      1.947310    3.596850   -0.377330
  H     -2.832220    4.792800    0.544840
  H      2.022610    2.861350    2.316760

 Total Charge           Charge          ....    0
 Multiplicity           Mult            ....    1
 Number of Electrons    NEL             ....  592
 Basis Dimension        Dim             .... 1206

ORBITAL ENERGIES
----------------

  NO   OCC          E(Eh)            E(eV)
   0   2.0000    -482.883609    -13139.9310
   1   2.0000    -482.883571    -13139.9300
   2   2.0000     -88.973711     -2421.0978
   3   2.0000     -88.972192     -2421.0564
   4   2.0000     -88.962740     -2420.7992
   5   2.0000     -88.960662     -2420.7427
   6   2.0000     -88.951447     -2420.4919
   7   2.0000     -88.950012     -2420.4529
   8   2.0000     -62.561321     -1702.3801
   9   2.0000     -62.560900     -1702.3686
  10   2.0000     -56.395262     -1534.5931
  11   2.0000     -56.394862     -1534.5822
  12   2.0000     -56.392562     -1534.5196
  13   2.0000     -56.392529     -1534.5187
  14   2.0000     -56.392153     -1534.5085
  15   2.0000     -56.392138     -1534.5081
  16   2.0000     -19.207359      -522.6588
  17   2.0000     -19.204612      -522.5841
  18   2.0000     -14.416033      -392.2802
  19   2.0000     -14.414511      -392.2388
  20   2.0000     -14.413503      -392.2114
  21   2.0000     -14.406660      -392.0252
  22   2.0000     -10.357748      -281.8486
  23   2.0000     -10.355968      -281.8002
  24   2.0000     -10.355341      -281.7832
  25   2.0000     -10.354556      -281.7618
  26   2.0000     -10.337582      -281.2999
  27   2.0000     -10.336744      -281.2771
  28   2.0000     -10.334633      -281.2197
  29   2.0000     -10.334064      -281.2042
  30   2.0000     -10.321407      -280.8598
  31   2.0000     -10.321380      -280.8590
  32   2.0000     -10.320622      -280.8384
  33   2.0000     -10.320615      -280.8382
  34   2.0000     -10.319814      -280.8164
  35   2.0000     -10.319734      -280.8142
  36   2.0000     -10.318679      -280.7855
  37   2.0000     -10.317770      -280.7608
  38   2.0000     -10.317569      -280.7553
  39   2.0000     -10.317360      -280.7496
  40   2.0000     -10.317112      -280.7429
  41   2.0000     -10.317032      -280.7407
  42   2.0000     -10.315523      -280.6997
  43   2.0000     -10.312373      -280.6139
  44   2.0000     -10.310612      -280.5660
  45   2.0000     -10.307312      -280.4762
  46   2.0000     -10.305064      -280.4150
  47   2.0000     -10.303247      -280.3656
  48   2.0000     -10.302437      -280.3436
  49   2.0000     -10.302100      -280.3344
  50   2.0000     -10.301843      -280.3274
  51   2.0000     -10.301077      -280.3066
  52   2.0000     -10.299699      -280.2690
  53   2.0000     -10.295698      -280.1602
  54   2.0000     -10.295430      -280.1529
  55   2.0000     -10.295284      -280.1489
  56   2.0000     -10.295115      -280.1443
  57   2.0000     -10.293663      -280.1048
  58   2.0000     -10.293204      -280.0923
  59   2.0000     -10.292647      -280.0772
  60   2.0000     -10.292388      -280.0701
  61   2.0000     -10.291785      -280.0537
  62   2.0000     -10.291771      -280.0533
  63   2.0000     -10.290999      -280.0323
  64   2.0000     -10.288785      -279.9721
  65   2.0000     -10.287539      -279.9382
  66   2.0000     -10.287486      -279.9367
  67   2.0000     -10.286814      -279.9184
  68   2.0000     -10.286356      -279.9060
  69   2.0000     -10.285950      -279.8949
  70   2.0000     -10.285112      -279.8721
  71   2.0000     -10.285042      -279.8702
  72   2.0000     -10.285006      -279.8692
  73   2.0000     -10.284664      -279.8599
  74   2.0000     -10.282005      -279.7876
  75   2.0000     -10.281290      -279.7681
  76   2.0000     -10.280133      -279.7366
  77   2.0000     -10.279992      -279.7328
  78   2.0000     -10.279260      -279.7129
  79   2.0000     -10.279024      -279.7065
  80   2.0000     -10.276557      -279.6393
  81   2.0000     -10.275178      -279.6018
  82   2.0000      -8.790748      -239.2084
  83   2.0000      -8.790192      -239.1933
  84   2.0000      -8.068549      -219.5564
  85   2.0000      -8.068238      -219.5479
  86   2.0000      -8.058062      -219.2710
  87   2.0000      -8.055717      -219.2072
  88   2.0000      -8.047667      -218.9881
  89   2.0000      -8.046227      -218.9490
  90   2.0000      -6.627026      -180.3305
  91   2.0000      -6.626392      -180.3133
  92   2.0000      -6.612505      -179.9354
  93   2.0000      -6.612280      -179.9293
  94   2.0000      -6.611984      -179.9212
  95   2.0000      -6.611771      -179.9154
  96   2.0000      -6.038346      -164.3118
  97   2.0000      -6.037908      -164.2998
  98   2.0000      -6.034017      -164.1939
  99   2.0000      -6.033653      -164.1840
 100   2.0000      -6.029830      -164.0800
 101   2.0000      -6.029470      -164.0702
 102   2.0000      -6.027446      -164.0151
 103   2.0000      -6.025023      -163.9492
 104   2.0000      -6.023192      -163.8994
 105   2.0000      -6.020706      -163.8317
 106   2.0000      -6.020052      -163.8140
 107   2.0000      -6.017881      -163.7549
 108   2.0000      -6.017350      -163.7404
 109   2.0000      -6.015965      -163.7027
 110   2.0000      -6.013398      -163.6329
 111   2.0000      -6.011970      -163.5940
 112   2.0000      -6.008623      -163.5029
 113   2.0000      -6.007058      -163.4604
 114   2.0000      -2.742894       -74.6379
 115   2.0000      -2.742325       -74.6224
 116   2.0000      -2.738822       -74.5271
 117   2.0000      -2.738692       -74.5236
 118   2.0000      -2.738237       -74.5112
 119   2.0000      -2.738085       -74.5071
 120   2.0000      -2.727128       -74.2089
 121   2.0000      -2.727118       -74.2087
 122   2.0000      -2.726625       -74.1952
 123   2.0000      -2.726611       -74.1949
 124   2.0000      -1.121448       -30.5162
 125   2.0000      -1.119854       -30.4728
 126   2.0000      -1.021501       -27.7965
 127   2.0000      -1.016291       -27.6547
 128   2.0000      -1.011010       -27.5110
 129   2.0000      -1.008419       -27.4405
 130   2.0000      -1.001852       -27.2618
 131   2.0000      -0.993938       -27.0464
 132   2.0000      -0.989515       -26.9261
 133   2.0000      -0.989023       -26.9127
 134   2.0000      -0.987502       -26.8713
 135   2.0000      -0.986190       -26.8356
 136   2.0000      -0.981262       -26.7015
 137   2.0000      -0.980237       -26.6736
 138   2.0000      -0.940987       -25.6056
 139   2.0000      -0.938091       -25.5268
 140   2.0000      -0.920601       -25.0508
 141   2.0000      -0.919854       -25.0305
 142   2.0000      -0.907462       -24.6933
 143   2.0000      -0.905226       -24.6325
 144   2.0000      -0.903576       -24.5876
 145   2.0000      -0.902998       -24.5718
 146   2.0000      -0.888982       -24.1904
 147   2.0000      -0.884718       -24.0744
 148   2.0000      -0.881996       -24.0003
 149   2.0000      -0.879943       -23.9445
 150   2.0000      -0.877029       -23.8652
 151   2.0000      -0.868934       -23.6449
 152   2.0000      -0.861591       -23.4451
 153   2.0000      -0.852495       -23.1976
 154   2.0000      -0.850141       -23.1335
 155   2.0000      -0.839346       -22.8398
 156   2.0000      -0.837935       -22.8014
 157   2.0000      -0.829141       -22.5621
 158   2.0000      -0.828109       -22.5340
 159   2.0000      -0.825660       -22.4674
 160   2.0000      -0.823666       -22.4131
 161   2.0000      -0.818376       -22.2691
 162   2.0000      -0.807234       -21.9660
 163   2.0000      -0.795464       -21.6457
 164   2.0000      -0.782768       -21.3002
 165   2.0000      -0.770500       -20.9664
 166   2.0000      -0.765790       -20.8382
 167   2.0000      -0.754275       -20.5249
 168   2.0000      -0.751163       -20.4402
 169   2.0000      -0.745191       -20.2777
 170   2.0000      -0.722729       -19.6665
 171   2.0000      -0.716323       -19.4921
 172   2.0000      -0.708036       -19.2666
 173   2.0000      -0.698489       -19.0068
 174   2.0000      -0.693175       -18.8622
 175   2.0000      -0.687478       -18.7072
 176   2.0000      -0.686833       -18.6897
 177   2.0000      -0.680771       -18.5247
 178   2.0000      -0.675531       -18.3821
 179   2.0000      -0.669791       -18.2259
 180   2.0000      -0.666098       -18.1254
 181   2.0000      -0.658787       -17.9265
 182   2.0000      -0.655911       -17.8483
 183   2.0000      -0.654378       -17.8065
 184   2.0000      -0.647281       -17.6134
 185   2.0000      -0.638831       -17.3835
 186   2.0000      -0.627843       -17.0845
 187   2.0000      -0.625126       -17.0106
 188   2.0000      -0.621761       -16.9190
 189   2.0000      -0.618783       -16.8379
 190   2.0000      -0.617123       -16.7928
 191   2.0000      -0.615143       -16.7389
 192   2.0000      -0.613950       -16.7064
 193   2.0000      -0.607044       -16.5185
 194   2.0000      -0.606551       -16.5051
 195   2.0000      -0.597900       -16.2697
 196   2.0000      -0.591547       -16.0968
 197   2.0000      -0.585821       -15.9410
 198   2.0000      -0.584418       -15.9028
 199   2.0000      -0.583769       -15.8852
 200   2.0000      -0.565272       -15.3818
 201   2.0000      -0.563316       -15.3286
 202   2.0000      -0.554484       -15.0883
 203   2.0000      -0.549988       -14.9659
 204   2.0000      -0.547996       -14.9117
 205   2.0000      -0.541996       -14.7485
 206   2.0000      -0.537317       -14.6211
 207   2.0000      -0.536033       -14.5862
 208   2.0000      -0.534594       -14.5471
 209   2.0000      -0.532361       -14.4863
 210   2.0000      -0.528883       -14.3916
 211   2.0000      -0.528611       -14.3842
 212   2.0000      -0.525709       -14.3053
 213   2.0000      -0.521831       -14.1997
 214   2.0000      -0.521494       -14.1906
 215   2.0000      -0.513693       -13.9783
 216   2.0000      -0.509928       -13.8758
 217   2.0000      -0.508435       -13.8352
 218   2.0000      -0.507074       -13.7982
 219   2.0000      -0.506846       -13.7920
 220   2.0000      -0.503945       -13.7130
 221   2.0000      -0.503111       -13.6903
 222   2.0000      -0.499350       -13.5880
 223   2.0000      -0.498394       -13.5620
 224   2.0000      -0.493770       -13.4362
 225   2.0000      -0.491434       -13.3726
 226   2.0000      -0.490259       -13.3406
 227   2.0000      -0.488947       -13.3049
 228   2.0000      -0.488317       -13.2878
 229   2.0000      -0.486998       -13.2519
 230   2.0000      -0.485613       -13.2142
 231   2.0000      -0.484975       -13.1969
 232   2.0000      -0.483295       -13.1511
 233   2.0000      -0.479404       -13.0452
 234   2.0000      -0.477372       -12.9899
 235   2.0000      -0.474473       -12.9111
 236   2.0000      -0.471954       -12.8425
 237   2.0000      -0.467648       -12.7254
 238   2.0000      -0.462883       -12.5957
 239   2.0000      -0.460009       -12.5175
 240   2.0000      -0.456882       -12.4324
 241   2.0000      -0.455032       -12.3821
 242   2.0000      -0.452987       -12.3264
 243   2.0000      -0.450738       -12.2652
 244   2.0000      -0.449977       -12.2445
 245   2.0000      -0.449115       -12.2211
 246   2.0000      -0.444298       -12.0900
 247   2.0000      -0.441398       -12.0110
 248   2.0000      -0.440964       -11.9993
 249   2.0000      -0.437875       -11.9152
 250   2.0000      -0.436748       -11.8845
 251   2.0000      -0.435182       -11.8419
 252   2.0000      -0.432542       -11.7701
 253   2.0000      -0.431382       -11.7385
 254   2.0000      -0.429959       -11.6998
 255   2.0000      -0.429920       -11.6987
 256   2.0000      -0.425874       -11.5886
 257   2.0000      -0.424413       -11.5489
 258   2.0000      -0.423688       -11.5291
 259   2.0000      -0.422653       -11.5010
 260   2.0000      -0.420298       -11.4369
 261   2.0000      -0.414431       -11.2772
 262   2.0000      -0.409646       -11.1470
 263   2.0000      -0.408892       -11.1265
 264   2.0000      -0.406266       -11.0551
 265   2.0000      -0.403483       -10.9793
 266   2.0000      -0.398710       -10.8494
 267   2.0000      -0.388949       -10.5838
 268   2.0000      -0.386587       -10.5196
 269   2.0000      -0.381863       -10.3910
 270   2.0000      -0.374299       -10.1852
 271   2.0000      -0.373116       -10.1530
 272   2.0000      -0.368917       -10.0387
 273   2.0000      -0.366989        -9.9863
 274   2.0000      -0.357669        -9.7327
 275   2.0000      -0.355355        -9.6697
 276   2.0000      -0.352398        -9.5892
 277   2.0000      -0.346814        -9.4373
 278   2.0000      -0.344043        -9.3619
 279   2.0000      -0.342206        -9.3119
 280   2.0000      -0.340903        -9.2765
 281   2.0000      -0.334770        -9.1096
 282   2.0000      -0.329528        -8.9669
 283   2.0000      -0.327743        -8.9183
 284   2.0000      -0.327170        -8.9028
 285   2.0000      -0.324675        -8.8349
 286   2.0000      -0.317749        -8.6464
 287   2.0000      -0.312688        -8.5087
 288   2.0000      -0.310565        -8.4509
 289   2.0000      -0.305495        -8.3129
 290   2.0000      -0.298481        -8.1221
 291   2.0000      -0.287960        -7.8358
 292   2.0000      -0.281400        -7.6573
 293   2.0000      -0.267235        -7.2718
 294   2.0000      -0.249030        -6.7764
 295   2.0000      -0.210960        -5.7405
 296   0.0000      -0.104767        -2.8509
 297   0.0000      -0.089482        -2.4349
 298   0.0000      -0.083972        -2.2850
 299   0.0000      -0.060148        -1.6367
 300   0.0000      -0.049090        -1.3358

MULLIKEN ATOMIC CHARGES
-----------------------
   0 C :    0.316999
   1 C :   -0.349278
   2 C :   -0.194304
   3 N :    0.150436
   4 C :   -0.174055
   5 N :    0.141311
   6 C :    0.036869
   7 C :   -0.032870
   8 C :   -0.077509
   9 C :    0.126033
  10 C :   -0.083470
  11 C :   -0.036258
  12 S :    0.181091
  13 C :   -0.121921
  14 C :    0.028467
  15 Br:    0.020029
  16 C :    0.152077
  17 O :   -0.135235
  18 C :   -0.107205
  19 C :   -0.115152
  20 C :    0.022341
  21 C :    0.155035
  22 C :   -0.216410
  23 S :    0.237144
  24 C :   -0.138397
  25 C :    0.043667
  26 C :    0.075139
  27 C :    0.062074
  28 C :   -0.005564
  29 C :   -0.107329
  30 C :    0.026252
  31 C :   -0.017455
  32 C :   -0.016694
  33 C :    0.037221
  34 C :    0.027524
  35 C :   -0.050518
  36 S :    0.091103
  37 C :   -0.056261
  38 C :    0.031459
  39 C :    0.036332
  40 C :   -0.022634
  41 S :    0.116669
  42 C :   -0.100333
  43 C :   -0.041931
  44 C :    0.075850
  45 C :   -0.146156
  46 S :    0.202739
  47 C :   -0.166581
  48 C :    0.062172
  49 C :    0.047799
  50 C :    0.089792
  51 C :   -0.016478
  52 C :   -0.056517
  53 C :    0.021294
  54 C :    0.030579
  55 C :   -0.107004
  56 C :    0.300741
  57 C :   -0.353885
  58 C :   -0.168356
  59 N :    0.153493
  60 C :   -0.211167
  61 N :    0.181191
  62 C :    0.002202
  63 C :    0.010363
  64 C :    0.141027
  65 O :   -0.141249
  66 C :   -0.082526
  67 C :    0.128648
  68 C :   -0.119197
  69 C :   -0.027265
  70 S :    0.179481
  71 C :   -0.127605
  72 C :    0.044997
  73 Br:    0.026618
  74 H :   -0.015587
  75 H :   -0.011338
  76 H :   -0.004738
  77 H :    0.047150
  78 H :   -0.005762
  79 H :    0.011137
  80 H :    0.023345
  81 H :    0.018528
  82 H :   -0.010832
  83 H :   -0.008808
  84 H :   -0.010134
  85 H :   -0.010902
  86 H :   -0.007796
  87 H :    0.018818
  88 H :   -0.002556
  89 H :   -0.005012
  90 H :    0.050464
  91 H :    0.013761
  92 H :    0.028398
  93 H :   -0.001745
  94 H :   -0.006749
  95 H :    0.000866
Sum of atomic charges:   -0.0000000

LOEWDIN ATOMIC CHARGES
----------------------
   0 C :    0.074861
   1 C :   -0.149084
   2 C :   -0.016359
   3 N :   -0.063674
   4 C :   -0.008345
   5 N :   -0.063232
   6 C :   -0.021281
   7 C :   -0.053505
   8 C :    0.018253
   9 C :   -0.035972
  10 C :   -0.147635
  11 C :   -0.011804
  12 S :    0.430119
  13 C :   -0.274010
  14 C :   -0.072292
  15 Br:    0.134376
  16 C :    0.073523
  17 O :   -0.138017
  18 C :   -0.095427
  19 C :    0.046930
  20 C :   -0.035210
  21 C :    0.017787
  22 C :   -0.196447
  23 S :    0.504176
  24 C :   -0.168160
  25 C :   -0.043933
  26 C :   -0.004749
  27 C :   -0.063423
  28 C :   -0.012703
  29 C :   -0.047720
  30 C :    0.000049
  31 C :   -0.058878
  32 C :   -0.137077
  33 C :   -0.032451
  34 C :   -0.028007
  35 C :   -0.173951
  36 S :    0.381920
  37 C :   -0.177017
  38 C :   -0.026187
  39 C :   -0.034841
  40 C :   -0.125852
  41 S :    0.390516
  42 C :   -0.081920
  43 C :   -0.029363
  44 C :   -0.057668
  45 C :   -0.173750
  46 S :    0.474589
  47 C :   -0.189462
  48 C :   -0.024419
  49 C :   -0.039126
  50 C :   -0.026835
  51 C :   -0.025010
  52 C :    0.020097
  53 C :   -0.026353
  54 C :    0.065311
  55 C :   -0.085729
  56 C :    0.072894
  57 C :   -0.143109
  58 C :   -0.011483
  59 N :   -0.059398
  60 C :   -0.016694
  61 N :   -0.035905
  62 C :   -0.013137
  63 C :   -0.047058
  64 C :    0.087420
  65 O :   -0.138865
  66 C :    0.023392
  67 C :   -0.036358
  68 C :   -0.145411
  69 C :   -0.021429
  70 S :    0.442199
  71 C :   -0.273979
  72 C :   -0.067139
  73 Br:    0.148632
  74 H :    0.039321
  75 H :    0.038803
  76 H :    0.038163
  77 H :    0.054630
  78 H :    0.035959
  79 H :    0.043773
  80 H :    0.042646
  81 H :    0.031530
  82 H :    0.034106
  83 H :    0.034907
  84 H :    0.033037
  85 H :    0.032718
  86 H :    0.035067
  87 H :    0.047058
  88 H :    0.038001
  89 H :    0.036673
  90 H :    0.048544
  91 H :    0.041093
  92 H :    0.048276
  93 H :    0.044858
  94 H :    0.039288
  95 H :    0.041352

  Mayer bond orders larger than 0.100000
B(  0-C ,  1-C ) :   1.6136 B(  0-C ,  6-C ) :   1.0026 B(  0-C , 18-C ) :   1.0843
B(  1-C ,  2-C ) :   1.1462 B(  1-C ,  4-C ) :   1.1665 B(  2-C ,  3-N ) :   2.9534
B(  4-C ,  5-N ) :   2.9251 B(  6-C ,  7-C ) :   1.2710 B(  6-C , 11-C ) :   1.4066
B(  7-C ,  8-C ) :   1.4331 B(  7-C , 16-C ) :   0.9239 B(  8-C ,  9-C ) :   1.2330
B(  8-C , 74-H ) :   1.0176 B(  9-C , 10-C ) :   1.3118 B(  9-C , 14-C ) :   1.1613
B( 10-C , 11-C ) :   1.3248 B( 10-C , 12-S ) :   1.0817 B( 11-C , 75-H ) :   0.9845
B( 12-S , 13-C ) :   1.0876 B( 13-C , 14-C ) :   1.6137 B( 13-C , 15-Br) :   1.0164
B( 14-C , 76-H ) :   1.0016 B( 16-C , 17-O ) :   2.2615 B( 16-C , 18-C ) :   0.9396
B( 18-C , 19-C ) :   1.5671 B( 19-C , 20-C ) :   1.0709 B( 19-C , 77-H ) :   0.9281
B( 20-C , 21-C ) :   2.0337 B( 21-C , 22-C ) :   1.0335 B( 22-C , 23-S ) :   1.1062
B( 22-C , 24-C ) :   0.1012 B( 22-C , 26-C ) :   1.4237 B( 23-S , 24-C ) :   1.1371
B( 24-C , 25-C ) :   1.4292 B( 24-C , 27-C ) :   0.9963 B( 25-C , 26-C ) :   1.3165
B( 25-C , 78-H ) :   1.0020 B( 26-C , 79-H ) :   1.0013 B( 27-C , 28-C ) :   2.2237
B( 28-C , 29-C ) :   1.0288 B( 29-C , 30-C ) :   1.6206 B( 29-C , 80-H ) :   0.9642
B( 30-C , 31-C ) :   1.1836 B( 30-C , 81-H ) :   0.9766 B( 31-C , 32-C ) :   1.5428
B( 31-C , 82-H ) :   0.9788 B( 32-C , 33-C ) :   1.1544 B( 32-C , 36-S ) :   1.0414
B( 33-C , 34-C ) :   1.5784 B( 33-C , 83-H ) :   0.9992 B( 34-C , 35-C ) :   1.1976
B( 34-C , 84-H ) :   0.9939 B( 35-C , 36-S ) :   1.0521 B( 35-C , 37-C ) :   1.4977
B( 37-C , 38-C ) :   1.1933 B( 37-C , 41-S ) :   1.0506 B( 38-C , 39-C ) :   1.5909
B( 38-C , 85-H ) :   0.9934 B( 39-C , 40-C ) :   1.1507 B( 39-C , 86-H ) :   0.9962
B( 40-C , 41-S ) :   1.0476 B( 40-C , 42-C ) :   1.5928 B( 42-C , 43-C ) :   1.0513
B( 42-C , 87-H ) :   0.9631 B( 43-C , 44-C ) :   2.2177 B( 44-C , 45-C ) :   1.0054
B( 45-C , 46-S ) :   1.1180 B( 45-C , 47-C ) :   0.1053 B( 45-C , 49-C ) :   1.4562
B( 46-S , 47-C ) :   1.1046 B( 47-C , 48-C ) :   1.4618 B( 47-C , 50-C ) :   1.0047
B( 48-C , 49-C ) :   1.2995 B( 48-C , 88-H ) :   0.9999 B( 49-C , 89-H ) :   0.9999
B( 50-C , 51-C ) :   2.2284 B( 51-C , 52-C ) :   1.0885 B( 52-C , 53-C ) :   1.6339
B( 52-C , 90-H ) :   0.9335 B( 53-C , 54-C ) :   1.1806 B( 53-C , 91-H ) :   0.9612
B( 54-C , 55-C ) :   1.6384 B( 54-C , 92-H ) :   0.9271 B( 55-C , 56-C ) :   1.0435
B( 55-C , 64-C ) :   0.9517 B( 56-C , 57-C ) :   1.6228 B( 56-C , 62-C ) :   1.0127
B( 57-C , 58-C ) :   1.1225 B( 57-C , 60-C ) :   1.1782 B( 58-C , 59-N ) :   2.9651
B( 60-C , 61-N ) :   2.9924 B( 62-C , 63-C ) :   1.2898 B( 62-C , 69-C ) :   1.4099
B( 63-C , 64-C ) :   0.9168 B( 63-C , 66-C ) :   1.4166 B( 64-C , 65-O ) :   2.2621
B( 66-C , 67-C ) :   1.2451 B( 66-C , 93-H ) :   1.0188 B( 67-C , 68-C ) :   1.3025
B( 67-C , 72-C ) :   1.1547 B( 68-C , 69-C ) :   1.3311 B( 68-C , 70-S ) :   1.0836
B( 69-C , 94-H ) :   0.9776 B( 70-S , 71-C ) :   1.0770 B( 71-C , 72-C ) :   1.6136
B( 71-C , 73-Br) :   1.0204 B( 72-C , 95-H ) :   1.0032

-----------------------------------------------------------------------------
         ABSORPTION SPECTRUM VIA TRANSITION ELECTRIC DIPOLE MOMENTS
-----------------------------------------------------------------------------
State   Energy  Wavelength   fosc         T2         TX        TY        TZ
        (cm-1)    (nm)                  (au**2)     (au)      (au)      (au)
-----------------------------------------------------------------------------
   0   10548.1    948.0   0.376849165  11.76172   0.21845   1.93306  -2.82440
   1   15422.3    648.4   1.024894185  21.87793  -3.32453   2.74630  -1.81198
   2   16889.9    592.1   0.689473956  13.43897   2.68136  -0.02893  -2.49969
   3   18347.7    545.0   1.328388959  23.83523  -3.57532   2.87471  -1.66984
   4   20772.8    481.4   0.513949202   8.14519  -1.51482  -0.48895   2.36885
   5   21803.3    458.6   0.079393958   1.19879   0.94453  -0.18899  -0.52051
   6   22590.3    442.7   0.041381217   0.60305   0.60035   0.06223  -0.48863
   7   22780.7    439.0   0.062840674   0.90813   0.82081  -0.43643   0.20961
   8   23328.0    428.7   0.408378138   5.76315   1.84231  -1.23038   0.92476
   9   24182.5    413.5   0.005635252   0.07672  -0.00144   0.16983  -0.21879
  10   24858.1    402.3   0.060616541   0.80278   0.08370   0.20012  -0.86933
  11   25211.5    396.6   0.109723060   1.43277   0.67116  -0.88455   0.44708
  12   25720.6    388.8   0.426793662   5.46276  -1.97829   1.11222  -0.55867
  13   26227.5    381.3   0.295877994   3.71391  -1.08428   0.58253  -1.48287
  14   26370.4    379.2   0.018795009   0.23464  -0.47505  -0.07532   0.05740
  15   27153.5    368.3   0.079762672   0.96705   0.50128  -0.41741   0.73589
  16   27579.7    362.6   0.047203713   0.56346  -0.73873  -0.11087   0.07381
  17   27906.2    358.3   0.000093000   0.00110   0.02079  -0.00241   0.02567
  18   28334.2    352.9   0.088638657   1.02988   0.05917   0.36519  -0.94500
  19   28814.5    347.0   0.008003024   0.09144  -0.23416   0.12915  -0.14117
  20   29324.9    341.0   0.006813752   0.07649   0.18675  -0.15025   0.13799
  21   29517.3    338.8   0.178410998   1.98985  -0.74927   0.64147  -1.00845
  22   29926.8    334.1   0.037614574   0.41378  -0.21283   0.52820  -0.29914
  23   30082.7    332.4   0.011452538   0.12533  -0.26192  -0.22070  -0.08955
  24   30465.5    328.2   0.062295790   0.67317   0.03761   0.09095  -0.81455
  25   30950.8    323.1   0.141869253   1.50901  -0.09802   0.46901  -1.13112
  26   31128.2    321.3   0.021241290   0.22465  -0.39464   0.26176  -0.01964
  27   31535.7    317.1   0.091679030   0.95707   0.15587   0.24903  -0.93314
  28   31851.3    314.0   0.284135597   2.93680   1.15147  -0.48810   1.17161
  29   32095.4    311.6   0.010364796   0.10631  -0.24322  -0.20552   0.07013
  30   32158.3    311.0   0.033138282   0.33924   0.11647  -0.03732  -0.56946
  31   32529.7    307.4   0.108194383   1.09497  -0.50635   0.50667  -0.76280
  32   32730.1    305.5   0.056217721   0.56546   0.64129  -0.30628   0.24577
  33   33083.8    302.3   0.002262749   0.02252  -0.11026  -0.06576   0.07769
  34   33283.1    300.5   0.110213704   1.09015   0.85337  -0.35530   0.48547
  35   33474.5    298.7   0.018164780   0.17865  -0.21165   0.07618  -0.35783
  36   33685.1    296.9   0.038915309   0.38033  -0.02633   0.06344  -0.61287
  37   33776.0    296.1   0.010912965   0.10637  -0.25175  -0.00373  -0.20730
  38   33860.0    295.3   0.010849222   0.10548   0.17688   0.02227   0.27148
  39   34001.5    294.1   0.016703558   0.16173  -0.32380   0.16424   0.17294
  40   34087.9    293.4   0.015050904   0.14536  -0.09227   0.25436  -0.26860
  41   34212.5    292.3   0.009274045   0.08924   0.04810  -0.07677   0.28466
  42   34362.7    291.0   0.003721242   0.03565  -0.05286  -0.08072   0.16230
  43   34704.0    288.2   0.027600356   0.26182  -0.47904  -0.07180  -0.16490
  44   34966.2    286.0   0.014752786   0.13890   0.00876   0.01412   0.37232
  45   34998.5    285.7   0.008900526   0.08372   0.03394  -0.28684   0.01712
  46   35195.7    284.1   0.050601429   0.47331   0.16184  -0.11791   0.65819
  47   35630.6    280.7   0.068185314   0.63000  -0.60400   0.25714  -0.44617
  48   35725.5    279.9   0.047916048   0.44155  -0.58216   0.21743  -0.23530
  49   35841.0    279.0   0.068773083   0.63171   0.28806  -0.28940   0.68189
  50   35921.2    278.4   0.280475090   2.57051   0.10265  -0.36082   1.55878
  51   36234.2    276.0   0.013546354   0.12308  -0.31754  -0.03322  -0.14540
  52   36430.2    274.5   0.026331184   0.23795  -0.11233   0.06302  -0.47049
  53   36810.3    271.7   0.032666565   0.29215  -0.08953   0.38089  -0.37291
  54   36899.9    271.0   0.034465599   0.30749   0.05603   0.29496  -0.46621
  55   37210.3    268.7   0.125282998   1.10842  -0.93980   0.18534   0.43686
  56   37424.1    267.2   0.031247647   0.27488   0.10224  -0.08020   0.50793
  57   37634.0    265.7   0.022510469   0.19692  -0.40489  -0.16734   0.07056
  58   37889.0    263.9   0.009932362   0.08630   0.28354  -0.05366   0.05501
  59   37960.0    263.4   0.008751535   0.07590  -0.06561   0.08589  -0.25341
  60   38147.2    262.1   0.003056017   0.02637   0.02078  -0.15474  -0.04468
  61   38313.7    261.0   0.013979892   0.12012   0.32291  -0.10880   0.06339
  62   38403.3    260.4   0.023916739   0.20503  -0.35749   0.27426  -0.04476
  63   38634.6    258.8   0.026792261   0.22830   0.22022   0.01294  -0.42384
  64   39093.4    255.8   0.023940956   0.20161  -0.35640   0.15322  -0.22608
  65   39215.7    255.0   0.016843008   0.14140  -0.01982   0.02875   0.37440
  66   39354.0    254.1   0.070734042   0.59172   0.71775  -0.23409  -0.14750
  67   39595.1    252.6   0.010014642   0.08327  -0.05391  -0.06029   0.27699
  68   39814.8    251.2   0.053683212   0.44388   0.26132   0.35682  -0.49827
  69   39932.7    250.4   0.026330046   0.21707  -0.42828   0.17253  -0.06227
  70   40035.4    249.8   0.013714420   0.11277  -0.30915   0.07936   0.10441
  71   40066.7    249.6   0.042195646   0.34670   0.48803  -0.09771  -0.31461

FINAL SINGLE POINT ENERGY    -10201.626216473111

DIPOLE MOMENT
-------------
                                X             Y             Z
Electronic contribution:    147.12837    -118.82311     152.86064
Nuclear contribution   :   -149.94840     121.09453    -151.52574
                        -----------------------------------------
Total Dipole Moment    :     -2.82003       2.27142       1.33490
                        -----------------------------------------
Magnitude (a.u.)       :      3.85926
Magnitude (Debye)      :      9.80946

Rotational constants in cm-1:     0.001226     0.000260     0.000223
Rotational constants in MHz :    36.763180     7.799840     6.673967

                             ****ORCA TERMINATED NORMALLY****
TOTAL RUN TIME: 0 days 0 hours 11 minutes 20 seconds 429 msec
