                         Program Version 4.2.0 -  RELEASE  -
|  1> # ORCA input file
|  2> # SCF done       -169.882924878710          0.000535459185
|  3> ! CAM-B3LYP def2-SVP def2/J RIJCOSX Grid4 TightSCF
|  4> %maxcore 5000
|  5> %tddft
|  6>     Mode sTDDFT
|  7>     Ethresh 5.0
|  8>     maxcore 5000
|  9> end
| 10>
| 11> %pal
| 12>   nprocs 6
| 13>   end
| 14> * xyz 0 1
| 15>    C       -2.07070         0.82000         7.29901
| 16>    C       -2.14207         0.11452         6.13558
| 17>    C       -1.98395         0.95694         5.01897
| 18>    C       -1.79545         2.29540         5.38067
| 19>    S       -1.81271         2.51653         7.07246
| 20>    C       -1.64121         3.07787         4.19847
| 21>    C       -1.73138         2.21277         3.09310
| 22>    C       -1.95532         0.85471         3.57058
| 23>    C       -2.10949        -0.27128         2.81666
| 24>    C       -2.06669        -0.24701         1.40652
| 25>    N       -2.03336        -0.23918         0.26058
| 26>    C       -2.32481        -1.53952         3.39617
| 27>    N       -2.49995        -2.57256         3.86200
| 28>    C       -1.58241         2.88311         1.88481
| 29>    C       -1.37491         4.24193         2.07667
| 30>    S       -1.37802         4.70320         3.76634
| 31>    C       -1.18620         5.16805         1.01638
| 32>    C       -0.84006         6.51925         0.96222
| 33>    C       -0.48914         7.35145         2.10916
| 34>    O       -0.82586         7.08195         3.23722
| 35>    O        0.27457         8.42861         1.87565
| 36>    C       -0.81834         6.79432        -0.44454
| 37>    N       -1.10318         5.70734        -1.12111
| 38>    O       -1.31869         4.71057        -0.23938
| 39>    C       -0.59134         8.02831        -1.15851
| 40>    C       -0.00343         8.14256        -2.39469
| 41>    C       -0.01327         9.46484        -2.85566
| 42>    C       -0.64856        10.34517        -1.96476
| 43>    S       -1.21769         9.56142        -0.56083
| 44>    C       -0.61829        11.65194        -2.51520
| 45>    C        0.04164        11.59849        -3.75158
| 46>    C        0.44640        10.22053        -4.00589
| 47>    C        1.12325         9.75202        -5.09322
| 48>    C        1.51581        10.59938        -6.15075
| 49>    N        1.83727        11.28613        -7.01084
| 50>    C        1.48644         8.39500        -5.22843
| 51>    N        1.79401         7.29655        -5.34123
| 52>    C        0.12980        12.84132        -4.37539
| 53>    C       -0.46377        13.84432        -3.62756
| 54>    S       -1.13933        13.23120        -2.12314
| 55>    C       -0.55913        15.22871        -3.95228
| 56>    C       -1.23954        16.13280        -3.17025
| 57>    C       -1.35592        17.49238        -3.44424
| 58>    C       -0.72486        18.08288        -4.62742
| 59>    C       -0.01221        17.38143        -5.53643
| 60>    S        0.26449        15.69324        -5.43562
| 61>    C       -1.04552        19.46578        -4.57289
| 62>    C       -1.82995        19.73563        -3.44695
| 63>    C       -2.16178        21.10818        -3.36382
| 64>    C       -1.63661        21.81478        -4.39856
| 65>    S       -0.72153        20.86229        -5.51612
| 66>    C       -2.03821        18.50058        -2.72771
| 67>    C       -2.78453        18.29110        -1.54960
| 68>    C       -3.49559        19.24733        -0.88815
| 69>    C       -4.24706        18.98639         0.27434
| 70>    C       -4.98428        19.92567         0.93629
| 71>    C       -5.78134        19.62266         2.13993
| 72>    O       -5.88178        18.55075         2.69846
| 73>    C       -6.43604        20.89919         2.52053
| 74>    C       -7.29698        21.17065         3.56693
| 75>    C       -7.77825        22.46690         3.70109
| 76>    C       -7.40554        23.46355         2.80977
| 77>    C       -6.54031        23.19399         1.75731
| 78>    C       -6.06008        21.90497         1.62082
| 79>    C       -5.13836        21.35046         0.59832
| 80>    O       -4.62763        21.96552        -0.31831
| 81>    H       -2.15482         0.44288         8.29869
| 82>    H       -2.29801        -0.94763         6.08922
| 83>    H       -1.61248         2.43732         0.90709
| 84>    H        0.52944         8.52178         0.94727
| 85>    H        0.41356         7.29929        -2.91318
| 86>    H        0.59600        13.02042        -5.32729
| 87>    H       -1.71522        15.74077        -2.28053
| 88>    H        0.43654        17.84006        -6.40327
| 89>    H       -2.75042        21.57380        -2.59530
| 90>    H       -1.72973        22.86689        -4.58429
| 91>    H       -2.79672        17.28190        -1.15508
| 92>    H       -3.51446        20.25881        -1.25561
| 93>    H       -4.25671        17.97827         0.67667
| 94>    H       -7.58190        20.38982         4.25541
| 95>    H       -8.45291        22.70409         4.51057
| 96>    H       -7.79509        24.46291         2.93732
| 97>    H       -6.24557        23.96270         1.05917
| 98> *
| 99>
|100>                          ****END OF INPUT****

CARTESIAN COORDINATES (ANGSTROEM)
---------------------------------
  C     -2.070700    0.820000    7.299010
  C     -2.142070    0.114520    6.135580
  C     -1.983950    0.956940    5.018970
  C     -1.795450    2.295400    5.380670
  S     -1.812710    2.516530    7.072460
  C     -1.641210    3.077870    4.198470
  C     -1.731380    2.212770    3.093100
  C     -1.955320    0.854710    3.570580
  C     -2.109490   -0.271280    2.816660
  C     -2.066690   -0.247010    1.406520
  N     -2.033360   -0.239180    0.260580
  C     -2.324810   -1.539520    3.396170
  N     -2.499950   -2.572560    3.862000
  C     -1.582410    2.883110    1.884810
  C     -1.374910    4.241930    2.076670
  S     -1.378020    4.703200    3.766340
  C     -1.186200    5.168050    1.016380
  C     -0.840060    6.519250    0.962220
  C     -0.489140    7.351450    2.109160
  O     -0.825860    7.081950    3.237220
  O      0.274570    8.428610    1.875650
  C     -0.818340    6.794320   -0.444540
  N     -1.103180    5.707340   -1.121110
  O     -1.318690    4.710570   -0.239380
  C     -0.591340    8.028310   -1.158510
  C     -0.003430    8.142560   -2.394690
  C     -0.013270    9.464840   -2.855660
  C     -0.648560   10.345170   -1.964760
  S     -1.217690    9.561420   -0.560830
  C     -0.618290   11.651940   -2.515200
  C      0.041640   11.598490   -3.751580
  C      0.446400   10.220530   -4.005890
  C      1.123250    9.752020   -5.093220
  C      1.515810   10.599380   -6.150750
  N      1.837270   11.286130   -7.010840
  C      1.486440    8.395000   -5.228430
  N      1.794010    7.296550   -5.341230
  C      0.129800   12.841320   -4.375390
  C     -0.463770   13.844320   -3.627560
  S     -1.139330   13.231200   -2.123140
  C     -0.559130   15.228710   -3.952280
  C     -1.239540   16.132800   -3.170250
  C     -1.355920   17.492380   -3.444240
  C     -0.724860   18.082880   -4.627420
  C     -0.012210   17.381430   -5.536430
  S      0.264490   15.693240   -5.435620
  C     -1.045520   19.465780   -4.572890
  C     -1.829950   19.735630   -3.446950
  C     -2.161780   21.108180   -3.363820
  C     -1.636610   21.814780   -4.398560
  S     -0.721530   20.862290   -5.516120
  C     -2.038210   18.500580   -2.727710
  C     -2.784530   18.291100   -1.549600
  C     -3.495590   19.247330   -0.888150
  C     -4.247060   18.986390    0.274340
  C     -4.984280   19.925670    0.936290
  C     -5.781340   19.622660    2.139930
  O     -5.881780   18.550750    2.698460
  C     -6.436040   20.899190    2.520530
  C     -7.296980   21.170650    3.566930
  C     -7.778250   22.466900    3.701090
  C     -7.405540   23.463550    2.809770
  C     -6.540310   23.193990    1.757310
  C     -6.060080   21.904970    1.620820
  C     -5.138360   21.350460    0.598320
  O     -4.627630   21.965520   -0.318310
  H     -2.154820    0.442880    8.298690
  H     -2.298010   -0.947630    6.089220
  H     -1.612480    2.437320    0.907090
  H      0.529440    8.521780    0.947270
  H      0.413560    7.299290   -2.913180
  H      0.596000   13.020420   -5.327290
  H     -1.715220   15.740770   -2.280530
  H      0.436540   17.840060   -6.403270
  H     -2.750420   21.573800   -2.595300
  H     -1.729730   22.866890   -4.584290
  H     -2.796720   17.281900   -1.155080
  H     -3.514460   20.258810   -1.255610
  H     -4.256710   17.978270    0.676670
  H     -7.581900   20.389820    4.255410
  H     -8.452910   22.704090    4.510570
  H     -7.795090   24.462910    2.937320
  H     -6.245570   23.962700    1.059170

 Total Charge           Charge          ....    0
 Multiplicity           Mult            ....    1
 Number of Electrons    NEL             ....  488
 Basis Dimension        Dim             .... 1033

ORBITAL ENERGIES
----------------

  NO   OCC          E(Eh)            E(eV)
   0   2.0000     -89.009307     -2422.0664
   1   2.0000     -89.003842     -2421.9177
   2   2.0000     -88.991579     -2421.5840
   3   2.0000     -88.990101     -2421.5438
   4   2.0000     -88.988510     -2421.5005
   5   2.0000     -88.960838     -2420.7475
   6   2.0000     -19.335283      -526.1398
   7   2.0000     -19.277574      -524.5695
   8   2.0000     -19.219438      -522.9875
   9   2.0000     -19.200617      -522.4754
  10   2.0000     -19.194794      -522.3169
  11   2.0000     -14.475742      -393.9050
  12   2.0000     -14.440745      -392.9526
  13   2.0000     -14.438986      -392.9048
  14   2.0000     -14.427830      -392.6012
  15   2.0000     -14.427347      -392.5881
  16   2.0000     -10.428293      -283.7683
  17   2.0000     -10.384866      -282.5866
  18   2.0000     -10.377023      -282.3732
  19   2.0000     -10.362957      -281.9904
  20   2.0000     -10.362002      -281.9644
  21   2.0000     -10.350840      -281.6607
  22   2.0000     -10.350362      -281.6477
  23   2.0000     -10.350091      -281.6403
  24   2.0000     -10.348718      -281.6029
  25   2.0000     -10.345616      -281.5185
  26   2.0000     -10.344212      -281.4803
  27   2.0000     -10.343862      -281.4708
  28   2.0000     -10.342350      -281.4297
  29   2.0000     -10.340758      -281.3863
  30   2.0000     -10.340540      -281.3804
  31   2.0000     -10.339285      -281.3462
  32   2.0000     -10.338313      -281.3198
  33   2.0000     -10.329877      -281.0903
  34   2.0000     -10.329082      -281.0686
  35   2.0000     -10.328241      -281.0457
  36   2.0000     -10.327988      -281.0388
  37   2.0000     -10.327525      -281.0262
  38   2.0000     -10.317756      -280.7604
  39   2.0000     -10.317280      -280.7475
  40   2.0000     -10.316331      -280.7216
  41   2.0000     -10.314411      -280.6694
  42   2.0000     -10.313745      -280.6513
  43   2.0000     -10.312981      -280.6305
  44   2.0000     -10.311150      -280.5806
  45   2.0000     -10.308974      -280.5214
  46   2.0000     -10.308861      -280.5184
  47   2.0000     -10.302265      -280.3389
  48   2.0000     -10.301486      -280.3177
  49   2.0000     -10.301388      -280.3150
  50   2.0000     -10.298528      -280.2372
  51   2.0000     -10.298438      -280.2347
  52   2.0000     -10.294690      -280.1328
  53   2.0000     -10.293695      -280.1057
  54   2.0000     -10.293633      -280.1040
  55   2.0000     -10.285710      -279.8884
  56   2.0000     -10.281876      -279.7841
  57   2.0000     -10.281493      -279.7736
  58   2.0000     -10.281470      -279.7730
  59   2.0000     -10.280722      -279.7527
  60   2.0000     -10.280309      -279.7414
  61   2.0000     -10.276137      -279.6279
  62   2.0000     -10.275510      -279.6108
  63   2.0000     -10.274985      -279.5965
  64   2.0000     -10.267516      -279.3933
  65   2.0000     -10.261646      -279.2336
  66   2.0000      -8.103747      -220.5142
  67   2.0000      -8.097952      -220.3565
  68   2.0000      -8.085231      -220.0103
  69   2.0000      -8.084194      -219.9821
  70   2.0000      -8.083535      -219.9642
  71   2.0000      -8.056351      -219.2245
  72   2.0000      -6.072945      -165.2532
  73   2.0000      -6.068748      -165.1390
  74   2.0000      -6.067254      -165.0984
  75   2.0000      -6.066199      -165.0697
  76   2.0000      -6.063140      -164.9864
  77   2.0000      -6.060248      -164.9077
  78   2.0000      -6.054866      -164.7613
  79   2.0000      -6.053642      -164.7280
  80   2.0000      -6.052761      -164.7040
  81   2.0000      -6.050216      -164.6347
  82   2.0000      -6.048949      -164.6003
  83   2.0000      -6.048297      -164.5825
  84   2.0000      -6.047084      -164.5495
  85   2.0000      -6.046636      -164.5373
  86   2.0000      -6.046204      -164.5256
  87   2.0000      -6.025785      -163.9699
  88   2.0000      -6.021493      -163.8532
  89   2.0000      -6.018425      -163.7697
  90   2.0000      -1.275366       -34.7045
  91   2.0000      -1.203168       -32.7399
  92   2.0000      -1.117996       -30.4222
  93   2.0000      -1.114059       -30.3151
  94   2.0000      -1.106828       -30.1183
  95   2.0000      -1.058834       -28.8123
  96   2.0000      -1.043430       -28.3932
  97   2.0000      -1.032441       -28.0941
  98   2.0000      -1.022665       -27.8281
  99   2.0000      -1.019677       -27.7468
 100   2.0000      -1.016788       -27.6682
 101   2.0000      -1.013154       -27.5693
 102   2.0000      -1.005313       -27.3560
 103   2.0000      -1.001287       -27.2464
 104   2.0000      -0.991392       -26.9771
 105   2.0000      -0.978594       -26.6289
 106   2.0000      -0.968026       -26.3413
 107   2.0000      -0.965908       -26.2837
 108   2.0000      -0.957318       -26.0499
 109   2.0000      -0.938688       -25.5430
 110   2.0000      -0.933290       -25.3961
 111   2.0000      -0.924233       -25.1497
 112   2.0000      -0.915435       -24.9102
 113   2.0000      -0.901060       -24.5191
 114   2.0000      -0.899502       -24.4767
 115   2.0000      -0.890235       -24.2245
 116   2.0000      -0.881923       -23.9983
 117   2.0000      -0.870408       -23.6850
 118   2.0000      -0.866112       -23.5681
 119   2.0000      -0.855199       -23.2711
 120   2.0000      -0.853534       -23.2258
 121   2.0000      -0.844056       -22.9679
 122   2.0000      -0.838795       -22.8248
 123   2.0000      -0.828344       -22.5404
 124   2.0000      -0.814477       -22.1630
 125   2.0000      -0.805460       -21.9177
 126   2.0000      -0.798351       -21.7242
 127   2.0000      -0.787339       -21.4246
 128   2.0000      -0.777346       -21.1527
 129   2.0000      -0.771357       -20.9897
 130   2.0000      -0.762339       -20.7443
 131   2.0000      -0.750916       -20.4335
 132   2.0000      -0.732663       -19.9368
 133   2.0000      -0.726295       -19.7635
 134   2.0000      -0.723200       -19.6793
 135   2.0000      -0.721909       -19.6442
 136   2.0000      -0.718538       -19.5524
 137   2.0000      -0.701624       -19.0922
 138   2.0000      -0.700854       -19.0712
 139   2.0000      -0.693864       -18.8810
 140   2.0000      -0.679663       -18.4946
 141   2.0000      -0.678177       -18.4541
 142   2.0000      -0.666947       -18.1485
 143   2.0000      -0.663832       -18.0638
 144   2.0000      -0.659865       -17.9558
 145   2.0000      -0.654965       -17.8225
 146   2.0000      -0.649288       -17.6680
 147   2.0000      -0.642775       -17.4908
 148   2.0000      -0.640235       -17.4217
 149   2.0000      -0.630099       -17.1459
 150   2.0000      -0.627040       -17.0626
 151   2.0000      -0.626189       -17.0395
 152   2.0000      -0.621608       -16.9148
 153   2.0000      -0.617278       -16.7970
 154   2.0000      -0.615572       -16.7506
 155   2.0000      -0.602355       -16.3909
 156   2.0000      -0.599351       -16.3092
 157   2.0000      -0.588388       -16.0109
 158   2.0000      -0.585212       -15.9244
 159   2.0000      -0.576982       -15.7005
 160   2.0000      -0.571237       -15.5441
 161   2.0000      -0.566706       -15.4209
 162   2.0000      -0.561474       -15.2785
 163   2.0000      -0.559595       -15.2274
 164   2.0000      -0.556516       -15.1436
 165   2.0000      -0.552223       -15.0268
 166   2.0000      -0.550096       -14.9689
 167   2.0000      -0.547453       -14.8970
 168   2.0000      -0.544703       -14.8221
 169   2.0000      -0.538324       -14.6485
 170   2.0000      -0.533497       -14.5172
 171   2.0000      -0.526610       -14.3298
 172   2.0000      -0.524667       -14.2769
 173   2.0000      -0.523132       -14.2351
 174   2.0000      -0.521857       -14.2005
 175   2.0000      -0.520270       -14.1573
 176   2.0000      -0.517708       -14.0876
 177   2.0000      -0.517309       -14.0767
 178   2.0000      -0.514392       -13.9973
 179   2.0000      -0.513995       -13.9865
 180   2.0000      -0.507978       -13.8228
 181   2.0000      -0.504905       -13.7392
 182   2.0000      -0.504657       -13.7324
 183   2.0000      -0.501962       -13.6591
 184   2.0000      -0.500794       -13.6273
 185   2.0000      -0.494835       -13.4651
 186   2.0000      -0.491791       -13.3823
 187   2.0000      -0.490635       -13.3508
 188   2.0000      -0.486674       -13.2431
 189   2.0000      -0.484112       -13.1733
 190   2.0000      -0.481400       -13.0996
 191   2.0000      -0.479402       -13.0452
 192   2.0000      -0.473579       -12.8867
 193   2.0000      -0.472573       -12.8594
 194   2.0000      -0.470300       -12.7975
 195   2.0000      -0.469661       -12.7801
 196   2.0000      -0.467248       -12.7145
 197   2.0000      -0.466850       -12.7036
 198   2.0000      -0.458718       -12.4823
 199   2.0000      -0.458308       -12.4712
 200   2.0000      -0.456614       -12.4251
 201   2.0000      -0.456498       -12.4219
 202   2.0000      -0.455140       -12.3850
 203   2.0000      -0.450043       -12.2463
 204   2.0000      -0.449293       -12.2259
 205   2.0000      -0.447860       -12.1869
 206   2.0000      -0.447025       -12.1642
 207   2.0000      -0.445938       -12.1346
 208   2.0000      -0.445213       -12.1149
 209   2.0000      -0.438308       -11.9270
 210   2.0000      -0.437879       -11.9153
 211   2.0000      -0.437453       -11.9037
 212   2.0000      -0.436699       -11.8832
 213   2.0000      -0.435601       -11.8533
 214   2.0000      -0.434665       -11.8278
 215   2.0000      -0.430289       -11.7088
 216   2.0000      -0.429433       -11.6855
 217   2.0000      -0.427565       -11.6346
 218   2.0000      -0.424234       -11.5440
 219   2.0000      -0.422090       -11.4856
 220   2.0000      -0.420440       -11.4408
 221   2.0000      -0.411077       -11.1860
 222   2.0000      -0.408984       -11.1290
 223   2.0000      -0.403574       -10.9818
 224   2.0000      -0.401112       -10.9148
 225   2.0000      -0.393239       -10.7006
 226   2.0000      -0.390530       -10.6269
 227   2.0000      -0.368277       -10.0213
 228   2.0000      -0.362966        -9.8768
 229   2.0000      -0.362755        -9.8711
 230   2.0000      -0.347982        -9.4691
 231   2.0000      -0.346759        -9.4358
 232   2.0000      -0.345679        -9.4064
 233   2.0000      -0.334047        -9.0899
 234   2.0000      -0.333613        -9.0781
 235   2.0000      -0.329533        -8.9670
 236   2.0000      -0.328669        -8.9435
 237   2.0000      -0.319688        -8.6992
 238   2.0000      -0.312209        -8.4956
 239   2.0000      -0.307912        -8.3787
 240   2.0000      -0.302774        -8.2389
 241   2.0000      -0.278069        -7.5666
 242   2.0000      -0.274323        -7.4647
 243   2.0000      -0.237873        -6.4729
 244   0.0000      -0.117977        -3.2103
 245   0.0000      -0.100976        -2.7477
 246   0.0000      -0.085594        -2.3291
 247   0.0000      -0.050811        -1.3826
 248   0.0000      -0.044312        -1.2058

MULLIKEN ATOMIC CHARGES
-----------------------
   0 C :   -0.077425
   1 C :    0.033555
   2 C :   -0.026335
   3 C :   -0.119186
   4 S :    0.192084
   5 C :   -0.071346
   6 C :    0.029639
   7 C :    0.297507
   8 C :   -0.295139
   9 C :   -0.195659
  10 N :    0.178011
  11 C :   -0.190780
  12 N :    0.174149
  13 C :   -0.041055
  14 C :   -0.136333
  15 S :    0.248244
  16 C :    0.215072
  17 C :   -0.174691
  18 C :    0.178170
  19 O :   -0.199712
  20 O :   -0.149762
  21 C :    0.036583
  22 N :    0.024325
  23 O :   -0.169916
  24 C :   -0.212258
  25 C :    0.023847
  26 C :    0.003322
  27 C :   -0.097797
  28 S :    0.207970
  29 C :   -0.094306
  30 C :    0.023306
  31 C :    0.297543
  32 C :   -0.288821
  33 C :   -0.185938
  34 N :    0.175733
  35 C :   -0.193232
  36 N :    0.190582
  37 C :   -0.054295
  38 C :   -0.063684
  39 S :    0.181197
  40 C :   -0.018374
  41 C :   -0.088497
  42 C :    0.066409
  43 C :    0.062568
  44 C :   -0.115719
  45 S :    0.140582
  46 C :   -0.113788
  47 C :    0.052311
  48 C :   -0.009636
  49 C :   -0.065701
  50 S :    0.131265
  51 C :    0.095879
  52 C :    0.001410
  53 C :   -0.010075
  54 C :   -0.003170
  55 C :   -0.151690
  56 C :    0.157806
  57 O :   -0.157269
  58 C :    0.000840
  59 C :   -0.027816
  60 C :    0.037598
  61 C :    0.039513
  62 C :   -0.027708
  63 C :   -0.000949
  64 C :    0.170534
  65 O :   -0.171404
  66 H :    0.038062
  67 H :    0.015051
  68 H :    0.025160
  69 H :    0.183050
  70 H :    0.024316
  71 H :    0.023706
  72 H :   -0.006066
  73 H :    0.042688
  74 H :    0.018519
  75 H :    0.029867
  76 H :   -0.032402
  77 H :    0.004449
  78 H :   -0.003287
  79 H :   -0.008667
  80 H :   -0.005289
  81 H :   -0.006523
  82 H :   -0.010725
Sum of atomic charges:    0.0000000

LOEWDIN ATOMIC CHARGES
----------------------
   0 C :   -0.171776
   1 C :   -0.035374
   2 C :   -0.068521
   3 C :   -0.188795
   4 S :    0.485379
   5 C :   -0.172959
   6 C :   -0.077812
   7 C :    0.080906
   8 C :   -0.103455
   9 C :   -0.019050
  10 N :   -0.029880
  11 C :   -0.016904
  12 N :   -0.033471
  13 C :    0.005121
  14 C :   -0.213693
  15 S :    0.553596
  16 C :    0.078440
  17 C :   -0.175556
  18 C :    0.081292
  19 O :   -0.180037
  20 O :   -0.021391
  21 C :   -0.051503
  22 N :   -0.030336
  23 O :    0.040966
  24 C :   -0.206103
  25 C :    0.004061
  26 C :   -0.073846
  27 C :   -0.170767
  28 S :    0.493809
  29 C :   -0.185988
  30 C :   -0.060605
  31 C :    0.078331
  32 C :   -0.092465
  33 C :   -0.015953
  34 N :   -0.026542
  35 C :   -0.019833
  36 N :   -0.019432
  37 C :   -0.039430
  38 C :   -0.174535
  39 S :    0.483310
  40 C :   -0.178884
  41 C :   -0.029389
  42 C :   -0.006303
  43 C :   -0.047370
  44 C :   -0.137053
  45 S :    0.471851
  46 C :   -0.201411
  47 C :   -0.032475
  48 C :   -0.058719
  49 C :   -0.159858
  50 S :    0.425594
  51 C :   -0.051015
  52 C :    0.022123
  53 C :   -0.044202
  54 C :    0.073454
  55 C :   -0.138098
  56 C :    0.074282
  57 O :   -0.157530
  58 C :   -0.043849
  59 C :    0.006238
  60 C :   -0.007221
  61 C :   -0.007875
  62 C :    0.005768
  63 C :   -0.043608
  64 C :    0.081023
  65 O :   -0.164030
  66 H :    0.028733
  67 H :    0.043308
  68 H :    0.046316
  69 H :    0.072811
  70 H :    0.050425
  71 H :    0.035750
  72 H :    0.027295
  73 H :    0.039729
  74 H :    0.039718
  75 H :    0.025804
  76 H :    0.026279
  77 H :    0.030907
  78 H :    0.036448
  79 H :    0.036776
  80 H :    0.031698
  81 H :    0.031460
  82 H :    0.035899

  Mayer bond orders larger than 0.100000
B(  0-C ,  1-C ) :   1.5422 B(  0-C ,  4-S ) :   1.1596 B(  0-C , 66-H ) :   0.9648
B(  1-C ,  2-C ) :   1.2773 B(  1-C , 67-H ) :   0.9963 B(  2-C ,  3-C ) :   1.4563
B(  2-C ,  7-C ) :   1.0182 B(  3-C ,  4-S ) :   1.1350 B(  3-C ,  5-C ) :   1.1780
B(  5-C ,  6-C ) :   1.4129 B(  5-C , 15-S ) :   1.1264 B(  6-C ,  7-C ) :   0.9837
B(  6-C , 13-C ) :   1.2943 B(  7-C ,  8-C ) :   1.7132 B(  8-C ,  9-C ) :   1.1350
B(  8-C , 11-C ) :   1.1296 B(  9-C , 10-N ) :   2.9970 B( 11-C , 12-N ) :   3.0018
B( 13-C , 14-C ) :   1.3972 B( 13-C , 68-H ) :   1.0115 B( 14-C , 15-S ) :   1.1098
B( 14-C , 16-C ) :   1.1487 B( 16-C , 17-C ) :   1.4414 B( 16-C , 23-O ) :   1.2157
B( 17-C , 18-C ) :   0.9496 B( 17-C , 21-C ) :   1.1477 B( 18-C , 19-O ) :   2.0684
B( 18-C , 20-O ) :   1.2682 B( 20-O , 69-H ) :   0.9419 B( 21-C , 22-N ) :   1.7495
B( 21-C , 24-C ) :   0.9775 B( 22-N , 23-O ) :   0.9819 B( 24-C , 25-C ) :   1.5044
B( 24-C , 28-S ) :   1.1091 B( 25-C , 26-C ) :   1.2494 B( 25-C , 70-H ) :   1.0112
B( 26-C , 27-C ) :   1.4425 B( 26-C , 31-C ) :   0.9875 B( 27-C , 28-S ) :   1.1258
B( 27-C , 29-C ) :   1.1855 B( 29-C , 30-C ) :   1.4547 B( 29-C , 39-S ) :   1.1190
B( 30-C , 31-C ) :   0.9951 B( 30-C , 37-C ) :   1.3055 B( 31-C , 32-C ) :   1.7241
B( 32-C , 33-C ) :   1.1330 B( 32-C , 35-C ) :   1.1322 B( 33-C , 34-N ) :   2.9873
B( 35-C , 36-N ) :   2.9991 B( 37-C , 38-C ) :   1.4569 B( 37-C , 71-H ) :   0.9779
B( 38-C , 39-S ) :   1.1129 B( 38-C , 40-C ) :   1.1638 B( 40-C , 41-C ) :   1.5134
B( 40-C , 45-S ) :   1.0663 B( 41-C , 42-C ) :   1.2671 B( 41-C , 72-H ) :   0.9587
B( 42-C , 43-C ) :   1.0534 B( 42-C , 51-C ) :   1.3539 B( 43-C , 44-C ) :   1.6014
B( 43-C , 46-C ) :   1.1805 B( 44-C , 45-S ) :   1.1405 B( 44-C , 73-H ) :   0.9399
B( 46-C , 47-C ) :   1.4499 B( 46-C , 50-S ) :   1.0819 B( 47-C , 48-C ) :   1.2150
B( 47-C , 51-C ) :   1.0781 B( 48-C , 49-C ) :   1.5910 B( 48-C , 74-H ) :   0.9961
B( 49-C , 50-S ) :   1.1525 B( 49-C , 75-H ) :   0.9622 B( 51-C , 52-C ) :   1.1647
B( 52-C , 53-C ) :   1.5397 B( 52-C , 76-H ) :   0.9710 B( 53-C , 54-C ) :   1.1479
B( 53-C , 77-H ) :   0.9834 B( 54-C , 55-C ) :   1.5696 B( 54-C , 78-H ) :   0.9826
B( 55-C , 56-C ) :   0.9601 B( 55-C , 64-C ) :   0.9755 B( 56-C , 57-O ) :   2.2592
B( 56-C , 58-C ) :   0.9106 B( 58-C , 59-C ) :   1.3899 B( 58-C , 63-C ) :   1.3536
B( 59-C , 60-C ) :   1.3565 B( 59-C , 79-H ) :   1.0031 B( 60-C , 61-C ) :   1.3827
B( 60-C , 80-H ) :   0.9886 B( 61-C , 62-C ) :   1.3565 B( 61-C , 81-H ) :   0.9880
B( 62-C , 63-C ) :   1.3883 B( 62-C , 82-H ) :   1.0032 B( 63-C , 64-C ) :   0.9322
B( 64-C , 65-O ) :   2.1747

-----------------------------------------------------------------------------
         ABSORPTION SPECTRUM VIA TRANSITION ELECTRIC DIPOLE MOMENTS
-----------------------------------------------------------------------------
State   Energy  Wavelength   fosc         T2         TX        TY        TZ
        (cm-1)    (nm)                  (au**2)     (au)      (au)      (au)
-----------------------------------------------------------------------------
   0   11460.2    872.6   0.192897351   5.54125  -0.57239   2.28322   0.02252
   1   17218.1    580.8   0.065656715   1.25537  -0.03815   0.95804  -0.57971
   2   17888.2    559.0   0.861530616  15.85552  -1.99440   2.86196   1.92016
   3   18534.1    539.5   0.258774501   4.59649  -0.77630   1.94232   0.47035
   4   23000.7    434.8   0.000632886   0.00906   0.04810  -0.07904   0.02229
   5   23156.1    431.9   0.000569249   0.00809   0.01071  -0.06343   0.06289
   6   23474.9    426.0   0.190777200   2.67546   0.56499  -1.50516  -0.30126
   7   24665.2    405.4   0.258294519   3.44752  -1.00702  -0.33420   1.52373
   8   26310.6    380.1   0.000033099   0.00041  -0.00036  -0.00812   0.01866
   9   26393.9    378.9   0.347141426   4.32990  -1.10580  -0.34193   1.72922
  10   27635.4    361.9   0.282733333   3.36811   0.45452   1.41059  -1.08248
  11   29729.6    336.4   0.045705453   0.50612   0.26830   0.40878  -0.51675
  12   29913.5    334.3   1.393730831  15.33865   0.62569   3.14568  -2.24763
  13   29974.0    333.6   0.000136759   0.00150   0.02879  -0.02167   0.01427
  14   30466.3    328.2   0.016680033   0.18024   0.04564   0.30558  -0.29117
  15   30691.1    325.8   0.396798564   4.25631  -1.15400   0.89347   1.45819
  16   30943.9    323.2   0.084189490   0.89569  -0.13022   0.93467   0.07156
  17   31226.5    320.2   0.243803869   2.57035   1.08338  -0.30172  -1.14263
  18   31608.4    316.4   0.889631126   9.26579   0.06850  -2.33474  -1.95194
  19   32205.0    310.5   0.025970166   0.26548  -0.00487   0.50487  -0.10276
  20   32727.1    305.6   0.000018788   0.00019  -0.01122   0.00758   0.00241
  21   32983.9    303.2   0.004465887   0.04457   0.13993   0.14818   0.05509
  22   33311.8    300.2   0.514705239   5.08671  -0.06214  -1.51467   1.66992
  23   33516.4    298.4   0.203593045   1.99978  -0.19725  -0.82227   1.13346
  24   33692.9    296.8   0.132081870   1.29057  -0.66933   0.40551   0.82348
  25   34447.5    290.3   0.000860719   0.00823  -0.06646   0.05180  -0.03355
  26   34491.0    289.9   0.192263206   1.83513  -0.07917  -1.31952   0.29617
  27   34719.8    288.0   0.222389536   2.10869   0.60792  -1.12393  -0.68986
  28   34910.4    286.4   0.070580558   0.66559  -0.20910   0.78419   0.08317
  29   35412.6    282.4   0.106324085   0.98844  -0.13250  -0.98521  -0.01581
  30   36036.4    277.5   0.077147969   0.70479  -0.05606   0.80533  -0.23041
  31   36372.2    274.9   0.015826989   0.14325   0.01467   0.27100   0.26381
  32   36446.2    274.4   0.003692823   0.03336  -0.13093   0.09949   0.07947
  33   37233.3    268.6   0.049224946   0.43524   0.24946  -0.59008  -0.15752
  34   37330.5    267.9   0.024443455   0.21556   0.14419  -0.42266  -0.12700
  35   37690.1    265.3   0.000065477   0.00057  -0.00764   0.02170   0.00654
  36   37778.2    264.7   0.050394914   0.43916   0.18366  -0.52049  -0.36676
  37   37832.7    264.3   0.016858703   0.14670  -0.20214   0.32362  -0.03339
  38   38114.6    262.4   0.013261350   0.11454   0.02819  -0.02937  -0.33599
  39   38628.5    258.9   0.000040940   0.00035  -0.00758  -0.01056  -0.01341
  40   39155.2    255.4   0.026209031   0.22036  -0.09217  -0.43333  -0.15522
  41   39165.3    255.3   0.004888458   0.04109  -0.14601  -0.09550   0.10320
  42   39324.0    254.3   0.008520578   0.07133   0.18874  -0.10890  -0.15443
  43   39430.2    253.6   0.022541983   0.18821   0.19445  -0.17809  -0.34450
  44   39438.7    253.6   0.000000113   0.00000   0.00039  -0.00059  -0.00067
  45   40151.5    249.1   0.000528717   0.00434  -0.03931   0.05178  -0.01043

FINAL SINGLE POINT ENERGY     -4950.478490764173

DIPOLE MOMENT
-------------
                                X             Y             Z
Electronic contribution:     19.47391     -56.52056      -6.65237
Nuclear contribution   :    -19.31925      59.01502       7.75496
                        -----------------------------------------
Total Dipole Moment    :      0.15465       2.49446       1.10260
                        -----------------------------------------
Magnitude (a.u.)       :      2.73166
Magnitude (Debye)      :      6.94333

Rotational constants in cm-1:     0.001212     0.000284     0.000234
Rotational constants in MHz :    36.338640     8.502625     7.003568

                             ****ORCA TERMINATED NORMALLY****
TOTAL RUN TIME: 0 days 0 hours 8 minutes 6 seconds 323 msec
