                         Program Version 4.2.0 -  RELEASE  -
|  1> # ORCA input file
|  2> # SCF done       -208.775914577961          0.000726892142
|  3> ! CAM-B3LYP def2-SVP def2/J RIJCOSX Grid4 TightSCF
|  4> %maxcore 5000
|  5> %tddft
|  6>     Mode sTDDFT
|  7>     Ethresh 5.0
|  8>     maxcore 5000
|  9> end
| 10>
| 11> %pal
| 12>   nprocs 6
| 13>   end
| 14> * xyz 0 1
| 15>    C       -0.44193         0.81092        -0.39897
| 16>    C        0.18399         1.59737        -1.33233
| 17>    C        0.68206         1.11272        -2.55964
| 18>    N        1.11127         0.77358        -3.56860
| 19>    C        0.49434         2.95660        -1.13912
| 20>    N        0.79310         4.05888        -1.01611
| 21>    C       -0.56486        -0.64081        -0.48293
| 22>    C       -0.79155        -1.15443         0.82745
| 23>    C       -0.91501        -2.49379         1.06025
| 24>    C       -0.82701        -3.39305        -0.02674
| 25>    C       -0.62000        -2.88336        -1.34126
| 26>    C       -0.48971        -1.49127        -1.55225
| 27>    C       -0.54310        -3.79028        -2.41747
| 28>    C       -0.66098        -5.13729        -2.20753
| 29>    C       -0.86387        -5.63856        -0.91317
| 30>    C       -0.94494        -4.78522         0.15378
| 31>    C       -0.88054        -0.03319         1.77877
| 32>    O       -1.01078        -0.07754         2.98111
| 33>    C       -0.83891         1.19822         0.93778
| 34>    C       -1.22802         2.38277         1.48740
| 35>    C       -1.64710         3.55671         0.82584
| 36>    C       -2.12085         3.69826        -0.47033
| 37>    C       -2.47155         5.00866        -0.76357
| 38>    C       -2.26349         5.88959         0.31856
| 39>    S       -1.66966         5.08811         1.69718
| 40>    C       -2.61537         7.19559        -0.09830
| 41>    C       -3.04998         7.14320        -1.43432
| 42>    C       -2.96300         5.76672        -1.89912
| 43>    C       -3.24199         5.28691        -3.14485
| 44>    C       -3.70628         6.11659        -4.18696
| 45>    N       -4.08976         6.79029        -5.03156
| 46>    C       -3.07721         3.92149        -3.46034
| 47>    N       -2.94415         2.80844        -3.70208
| 48>    C       -3.41083         8.38945        -1.94099
| 49>    C       -3.24677         9.39710        -1.00615
| 50>    S       -2.64462         8.78739         0.52766
| 51>    C       -3.49022        10.78104        -1.18732
| 52>    C       -3.21516        11.80725        -0.30466
| 53>    C       -3.55617        13.04916        -0.84205
| 54>    C       -4.10692        12.96737        -2.14304
| 55>    S       -4.19550        11.34049        -2.70058
| 56>    C       -4.37372        14.27286        -2.54686
| 57>    C       -3.97132        15.11680        -1.48456
| 58>    N       -3.49297        14.35942        -0.44853
| 59>    C       -2.94969        14.85147         0.78684
| 60>    C       -4.15135        16.47380        -1.75564
| 61>    C       -4.69766        16.67175        -3.00871
| 62>    S       -5.00091        15.16994        -3.87629
| 63>    C       -4.99710        17.90724        -3.63474
| 64>    C       -5.63149        18.09826        -4.84987
| 65>    C       -5.74246        19.44887        -5.17363
| 66>    C       -5.18066        20.29738        -4.20294
| 67>    S       -4.53098        19.42532        -2.88200
| 68>    C       -5.32085        21.64127        -4.62091
| 69>    C       -5.98741        21.63888        -5.87110
| 70>    C       -6.27384        20.26560        -6.25366
| 71>    C       -6.90097        19.83003        -7.38324
| 72>    C       -7.36855        20.71735        -8.37609
| 73>    N       -7.74702        21.42983        -9.19053
| 74>    C       -7.12151        18.45993        -7.63886
| 75>    N       -7.30531        17.34654        -7.84195
| 76>    C       -6.16880        22.91410        -6.36841
| 77>    C       -5.63316        23.90023        -5.53040
| 78>    S       -4.89499        23.20188        -4.08695
| 79>    C       -5.71484        25.26321        -5.84990
| 80>    C       -5.19821        26.35831        -5.20497
| 81>    C       -5.33734        27.74010        -5.62567
| 82>    C       -6.13478        28.22680        -6.62926
| 83>    C       -6.22719        29.59228        -6.97109
| 84>    N       -6.34713        30.68527        -7.30166
| 85>    C       -6.99262        27.45955        -7.44461
| 86>    N       -7.72254        26.90914        -8.14013
| 87>    C       -4.49540        28.55128        -4.75098
| 88>    C       -3.89591        27.69831        -3.78009
| 89>    C       -4.33804        26.31773        -4.01754
| 90>    O       -4.03573        25.33502        -3.35863
| 91>    C       -3.04928        28.17436        -2.82124
| 92>    C       -2.75365        29.55580        -2.78980
| 93>    C       -3.34752        30.41658        -3.75702
| 94>    C       -4.22289        29.89290        -4.73707
| 95>    C       -3.04481        31.79247        -3.71796
| 96>    C       -2.19544        32.29601        -2.77022
| 97>    C       -1.61025        31.44737        -1.81917
| 98>    C       -1.88389        30.10626        -1.82838
| 99>    H       -1.07938        -2.86455         2.06111
|100>    H       -0.34765        -1.12973        -2.55868
|101>    H       -0.38410        -3.39908        -3.41154
|102>    H       -0.59819        -5.82426        -3.03814
|103>    H       -0.95606        -6.70421        -0.76552
|104>    H       -1.10147        -5.16589         1.15256
|105>    H       -1.28624         2.38992         2.57152
|106>    H       -2.23934         2.86820        -1.14276
|107>    H       -3.76830         8.57652        -2.93758
|108>    H       -2.77746        11.63947         0.66281
|109>    H       -3.43751        15.78923         1.04907
|110>    H       -1.87250        15.02421         0.70387
|111>    H       -3.12954        14.12427         1.57765
|112>    H       -3.90334        17.28545        -1.09579
|113>    H       -5.98735        17.28141        -5.45151
|114>    H       -6.65908        23.15634        -7.29483
|115>    H       -6.26241        25.44775        -6.76649
|116>    H       -2.60834        27.50562        -2.09685
|117>    H       -4.65180        30.57172        -5.45664
|118>    H       -3.49810        32.44199        -4.45235
|119>    H       -1.96985        33.35165        -2.74883
|120>    H       -0.94150        31.86106        -1.07921
|121>    H       -1.43612        29.44779        -1.09834
|122> *
|123>
|124>                          ****END OF INPUT****

CARTESIAN COORDINATES (ANGSTROEM)
---------------------------------
  C     -0.441930    0.810920   -0.398970
  C      0.183990    1.597370   -1.332330
  C      0.682060    1.112720   -2.559640
  N      1.111270    0.773580   -3.568600
  C      0.494340    2.956600   -1.139120
  N      0.793100    4.058880   -1.016110
  C     -0.564860   -0.640810   -0.482930
  C     -0.791550   -1.154430    0.827450
  C     -0.915010   -2.493790    1.060250
  C     -0.827010   -3.393050   -0.026740
  C     -0.620000   -2.883360   -1.341260
  C     -0.489710   -1.491270   -1.552250
  C     -0.543100   -3.790280   -2.417470
  C     -0.660980   -5.137290   -2.207530
  C     -0.863870   -5.638560   -0.913170
  C     -0.944940   -4.785220    0.153780
  C     -0.880540   -0.033190    1.778770
  O     -1.010780   -0.077540    2.981110
  C     -0.838910    1.198220    0.937780
  C     -1.228020    2.382770    1.487400
  C     -1.647100    3.556710    0.825840
  C     -2.120850    3.698260   -0.470330
  C     -2.471550    5.008660   -0.763570
  C     -2.263490    5.889590    0.318560
  S     -1.669660    5.088110    1.697180
  C     -2.615370    7.195590   -0.098300
  C     -3.049980    7.143200   -1.434320
  C     -2.963000    5.766720   -1.899120
  C     -3.241990    5.286910   -3.144850
  C     -3.706280    6.116590   -4.186960
  N     -4.089760    6.790290   -5.031560
  C     -3.077210    3.921490   -3.460340
  N     -2.944150    2.808440   -3.702080
  C     -3.410830    8.389450   -1.940990
  C     -3.246770    9.397100   -1.006150
  S     -2.644620    8.787390    0.527660
  C     -3.490220   10.781040   -1.187320
  C     -3.215160   11.807250   -0.304660
  C     -3.556170   13.049160   -0.842050
  C     -4.106920   12.967370   -2.143040
  S     -4.195500   11.340490   -2.700580
  C     -4.373720   14.272860   -2.546860
  C     -3.971320   15.116800   -1.484560
  N     -3.492970   14.359420   -0.448530
  C     -2.949690   14.851470    0.786840
  C     -4.151350   16.473800   -1.755640
  C     -4.697660   16.671750   -3.008710
  S     -5.000910   15.169940   -3.876290
  C     -4.997100   17.907240   -3.634740
  C     -5.631490   18.098260   -4.849870
  C     -5.742460   19.448870   -5.173630
  C     -5.180660   20.297380   -4.202940
  S     -4.530980   19.425320   -2.882000
  C     -5.320850   21.641270   -4.620910
  C     -5.987410   21.638880   -5.871100
  C     -6.273840   20.265600   -6.253660
  C     -6.900970   19.830030   -7.383240
  C     -7.368550   20.717350   -8.376090
  N     -7.747020   21.429830   -9.190530
  C     -7.121510   18.459930   -7.638860
  N     -7.305310   17.346540   -7.841950
  C     -6.168800   22.914100   -6.368410
  C     -5.633160   23.900230   -5.530400
  S     -4.894990   23.201880   -4.086950
  C     -5.714840   25.263210   -5.849900
  C     -5.198210   26.358310   -5.204970
  C     -5.337340   27.740100   -5.625670
  C     -6.134780   28.226800   -6.629260
  C     -6.227190   29.592280   -6.971090
  N     -6.347130   30.685270   -7.301660
  C     -6.992620   27.459550   -7.444610
  N     -7.722540   26.909140   -8.140130
  C     -4.495400   28.551280   -4.750980
  C     -3.895910   27.698310   -3.780090
  C     -4.338040   26.317730   -4.017540
  O     -4.035730   25.335020   -3.358630
  C     -3.049280   28.174360   -2.821240
  C     -2.753650   29.555800   -2.789800
  C     -3.347520   30.416580   -3.757020
  C     -4.222890   29.892900   -4.737070
  C     -3.044810   31.792470   -3.717960
  C     -2.195440   32.296010   -2.770220
  C     -1.610250   31.447370   -1.819170
  C     -1.883890   30.106260   -1.828380
  H     -1.079380   -2.864550    2.061110
  H     -0.347650   -1.129730   -2.558680
  H     -0.384100   -3.399080   -3.411540
  H     -0.598190   -5.824260   -3.038140
  H     -0.956060   -6.704210   -0.765520
  H     -1.101470   -5.165890    1.152560
  H     -1.286240    2.389920    2.571520
  H     -2.239340    2.868200   -1.142760
  H     -3.768300    8.576520   -2.937580
  H     -2.777460   11.639470    0.662810
  H     -3.437510   15.789230    1.049070
  H     -1.872500   15.024210    0.703870
  H     -3.129540   14.124270    1.577650
  H     -3.903340   17.285450   -1.095790
  H     -5.987350   17.281410   -5.451510
  H     -6.659080   23.156340   -7.294830
  H     -6.262410   25.447750   -6.766490
  H     -2.608340   27.505620   -2.096850
  H     -4.651800   30.571720   -5.456640
  H     -3.498100   32.441990   -4.452350
  H     -1.969850   33.351650   -2.748830
  H     -0.941500   31.861060   -1.079210
  H     -1.436120   29.447790   -1.098340

 Total Charge           Charge          ....    0
 Multiplicity           Mult            ....    1
 Number of Electrons    NEL             ....  600
 Basis Dimension        Dim             .... 1315

ORBITAL ENERGIES
----------------

  NO   OCC          E(Eh)            E(eV)
   0   2.0000     -88.995075     -2421.6791
   1   2.0000     -88.994905     -2421.6745
   2   2.0000     -88.994186     -2421.6549
   3   2.0000     -88.988990     -2421.5135
   4   2.0000     -88.971439     -2421.0359
   5   2.0000     -88.971271     -2421.0314
   6   2.0000     -19.222978      -523.0838
   7   2.0000     -19.211801      -522.7797
   8   2.0000     -14.482659      -394.0932
   9   2.0000     -14.433005      -392.7420
  10   2.0000     -14.432017      -392.7151
  11   2.0000     -14.431139      -392.6913
  12   2.0000     -14.430059      -392.6619
  13   2.0000     -14.415096      -392.2547
  14   2.0000     -14.414020      -392.2254
  15   2.0000     -14.411385      -392.1537
  16   2.0000     -14.410204      -392.1216
  17   2.0000     -10.370777      -282.2032
  18   2.0000     -10.367878      -282.1243
  19   2.0000     -10.366374      -282.0834
  20   2.0000     -10.363477      -282.0045
  21   2.0000     -10.354623      -281.7636
  22   2.0000     -10.354092      -281.7492
  23   2.0000     -10.343442      -281.4594
  24   2.0000     -10.339974      -281.3650
  25   2.0000     -10.339353      -281.3481
  26   2.0000     -10.339291      -281.3464
  27   2.0000     -10.338492      -281.3247
  28   2.0000     -10.337137      -281.2878
  29   2.0000     -10.336703      -281.2760
  30   2.0000     -10.335812      -281.2517
  31   2.0000     -10.334919      -281.2274
  32   2.0000     -10.334279      -281.2100
  33   2.0000     -10.333130      -281.1788
  34   2.0000     -10.332751      -281.1684
  35   2.0000     -10.332004      -281.1481
  36   2.0000     -10.331251      -281.1276
  37   2.0000     -10.329750      -281.0868
  38   2.0000     -10.326013      -280.9851
  39   2.0000     -10.325836      -280.9803
  40   2.0000     -10.325831      -280.9802
  41   2.0000     -10.325734      -280.9775
  42   2.0000     -10.325109      -280.9605
  43   2.0000     -10.324225      -280.9364
  44   2.0000     -10.324167      -280.9349
  45   2.0000     -10.323212      -280.9089
  46   2.0000     -10.316686      -280.7313
  47   2.0000     -10.316666      -280.7308
  48   2.0000     -10.314685      -280.6768
  49   2.0000     -10.312881      -280.6278
  50   2.0000     -10.312787      -280.6252
  51   2.0000     -10.312349      -280.6133
  52   2.0000     -10.311312      -280.5851
  53   2.0000     -10.311075      -280.5786
  54   2.0000     -10.309494      -280.5356
  55   2.0000     -10.308945      -280.5207
  56   2.0000     -10.305840      -280.4362
  57   2.0000     -10.304430      -280.3978
  58   2.0000     -10.304229      -280.3923
  59   2.0000     -10.304115      -280.3892
  60   2.0000     -10.302270      -280.3390
  61   2.0000     -10.301326      -280.3133
  62   2.0000     -10.300638      -280.2946
  63   2.0000     -10.300101      -280.2800
  64   2.0000     -10.298136      -280.2265
  65   2.0000     -10.297866      -280.2192
  66   2.0000     -10.297596      -280.2118
  67   2.0000     -10.297293      -280.2036
  68   2.0000     -10.297066      -280.1974
  69   2.0000     -10.296080      -280.1706
  70   2.0000     -10.294897      -280.1384
  71   2.0000     -10.294680      -280.1325
  72   2.0000     -10.294413      -280.1252
  73   2.0000     -10.293350      -280.0963
  74   2.0000     -10.289403      -279.9889
  75   2.0000     -10.287318      -279.9322
  76   2.0000     -10.286827      -279.9188
  77   2.0000     -10.286692      -279.9151
  78   2.0000     -10.286284      -279.9040
  79   2.0000     -10.285714      -279.8885
  80   2.0000     -10.283892      -279.8389
  81   2.0000     -10.283426      -279.8262
  82   2.0000     -10.283070      -279.8166
  83   2.0000     -10.282364      -279.7973
  84   2.0000      -8.089807      -220.1348
  85   2.0000      -8.089442      -220.1249
  86   2.0000      -8.088763      -220.1064
  87   2.0000      -8.081199      -219.9006
  88   2.0000      -8.066063      -219.4887
  89   2.0000      -8.065853      -219.4830
  90   2.0000      -6.058957      -164.8726
  91   2.0000      -6.058753      -164.8670
  92   2.0000      -6.058061      -164.8482
  93   2.0000      -6.054838      -164.7605
  94   2.0000      -6.054633      -164.7549
  95   2.0000      -6.053912      -164.7353
  96   2.0000      -6.052263      -164.6905
  97   2.0000      -6.051657      -164.6740
  98   2.0000      -6.050999      -164.6560
  99   2.0000      -6.050653      -164.6466
 100   2.0000      -6.045891      -164.5171
 101   2.0000      -6.043731      -164.4583
 102   2.0000      -6.035811      -164.2428
 103   2.0000      -6.035610      -164.2373
 104   2.0000      -6.031703      -164.1310
 105   2.0000      -6.031515      -164.1259
 106   2.0000      -6.027303      -164.0112
 107   2.0000      -6.027105      -164.0059
 108   2.0000      -1.137942       -30.9650
 109   2.0000      -1.126997       -30.6671
 110   2.0000      -1.109271       -30.1848
 111   2.0000      -1.049718       -28.5643
 112   2.0000      -1.047455       -28.5027
 113   2.0000      -1.024572       -27.8800
 114   2.0000      -1.022768       -27.8309
 115   2.0000      -1.016931       -27.6721
 116   2.0000      -1.016700       -27.6658
 117   2.0000      -1.010154       -27.4877
 118   2.0000      -1.008423       -27.4406
 119   2.0000      -1.006817       -27.3969
 120   2.0000      -1.005398       -27.3583
 121   2.0000      -0.998254       -27.1639
 122   2.0000      -0.996184       -27.1075
 123   2.0000      -0.991248       -26.9732
 124   2.0000      -0.990510       -26.9532
 125   2.0000      -0.986763       -26.8512
 126   2.0000      -0.985167       -26.8078
 127   2.0000      -0.971618       -26.4391
 128   2.0000      -0.969204       -26.3734
 129   2.0000      -0.961038       -26.1512
 130   2.0000      -0.959151       -26.0998
 131   2.0000      -0.927834       -25.2476
 132   2.0000      -0.926595       -25.2139
 133   2.0000      -0.919627       -25.0243
 134   2.0000      -0.916869       -24.9493
 135   2.0000      -0.904507       -24.6129
 136   2.0000      -0.897549       -24.4235
 137   2.0000      -0.893109       -24.3027
 138   2.0000      -0.881470       -23.9860
 139   2.0000      -0.878886       -23.9157
 140   2.0000      -0.877395       -23.8751
 141   2.0000      -0.877115       -23.8675
 142   2.0000      -0.870855       -23.6972
 143   2.0000      -0.863581       -23.4992
 144   2.0000      -0.863272       -23.4908
 145   2.0000      -0.861521       -23.4432
 146   2.0000      -0.851070       -23.1588
 147   2.0000      -0.850147       -23.1337
 148   2.0000      -0.835448       -22.7337
 149   2.0000      -0.828632       -22.5482
 150   2.0000      -0.825560       -22.4646
 151   2.0000      -0.821788       -22.3620
 152   2.0000      -0.807445       -21.9717
 153   2.0000      -0.797858       -21.7108
 154   2.0000      -0.782873       -21.3030
 155   2.0000      -0.779334       -21.2068
 156   2.0000      -0.772785       -21.0285
 157   2.0000      -0.766265       -20.8511
 158   2.0000      -0.762621       -20.7520
 159   2.0000      -0.757659       -20.6170
 160   2.0000      -0.743891       -20.2423
 161   2.0000      -0.729109       -19.8401
 162   2.0000      -0.715952       -19.4820
 163   2.0000      -0.707719       -19.2580
 164   2.0000      -0.705190       -19.1892
 165   2.0000      -0.704497       -19.1703
 166   2.0000      -0.699751       -19.0412
 167   2.0000      -0.699096       -19.0234
 168   2.0000      -0.693655       -18.8753
 169   2.0000      -0.689684       -18.7672
 170   2.0000      -0.685249       -18.6466
 171   2.0000      -0.684755       -18.6331
 172   2.0000      -0.676231       -18.4012
 173   2.0000      -0.672967       -18.3124
 174   2.0000      -0.662951       -18.0398
 175   2.0000      -0.660546       -17.9744
 176   2.0000      -0.657904       -17.9025
 177   2.0000      -0.652745       -17.7621
 178   2.0000      -0.641640       -17.4599
 179   2.0000      -0.636067       -17.3083
 180   2.0000      -0.633231       -17.2311
 181   2.0000      -0.629944       -17.1417
 182   2.0000      -0.625943       -17.0328
 183   2.0000      -0.623583       -16.9685
 184   2.0000      -0.621144       -16.9022
 185   2.0000      -0.619906       -16.8685
 186   2.0000      -0.611311       -16.6346
 187   2.0000      -0.606640       -16.5075
 188   2.0000      -0.604813       -16.4578
 189   2.0000      -0.602938       -16.4068
 190   2.0000      -0.600767       -16.3477
 191   2.0000      -0.595587       -16.2067
 192   2.0000      -0.591178       -16.0868
 193   2.0000      -0.581164       -15.8143
 194   2.0000      -0.577305       -15.7093
 195   2.0000      -0.569724       -15.5030
 196   2.0000      -0.563469       -15.3328
 197   2.0000      -0.559256       -15.2181
 198   2.0000      -0.553259       -15.0550
 199   2.0000      -0.551044       -14.9947
 200   2.0000      -0.550343       -14.9756
 201   2.0000      -0.548130       -14.9154
 202   2.0000      -0.546655       -14.8752
 203   2.0000      -0.543192       -14.7810
 204   2.0000      -0.540861       -14.7176
 205   2.0000      -0.538977       -14.6663
 206   2.0000      -0.538386       -14.6502
 207   2.0000      -0.534295       -14.5389
 208   2.0000      -0.531479       -14.4623
 209   2.0000      -0.529483       -14.4080
 210   2.0000      -0.527796       -14.3621
 211   2.0000      -0.521670       -14.1954
 212   2.0000      -0.518038       -14.0965
 213   2.0000      -0.517776       -14.0894
 214   2.0000      -0.516144       -14.0450
 215   2.0000      -0.514352       -13.9962
 216   2.0000      -0.512542       -13.9470
 217   2.0000      -0.509901       -13.8751
 218   2.0000      -0.509399       -13.8614
 219   2.0000      -0.509224       -13.8567
 220   2.0000      -0.506862       -13.7924
 221   2.0000      -0.506348       -13.7784
 222   2.0000      -0.504098       -13.7172
 223   2.0000      -0.502288       -13.6680
 224   2.0000      -0.502138       -13.6639
 225   2.0000      -0.497497       -13.5376
 226   2.0000      -0.496472       -13.5097
 227   2.0000      -0.495597       -13.4859
 228   2.0000      -0.494668       -13.4606
 229   2.0000      -0.489923       -13.3315
 230   2.0000      -0.488181       -13.2841
 231   2.0000      -0.486750       -13.2451
 232   2.0000      -0.485562       -13.2128
 233   2.0000      -0.484520       -13.1845
 234   2.0000      -0.482342       -13.1252
 235   2.0000      -0.478886       -13.0312
 236   2.0000      -0.477509       -12.9937
 237   2.0000      -0.471474       -12.8295
 238   2.0000      -0.466958       -12.7066
 239   2.0000      -0.466108       -12.6834
 240   2.0000      -0.463190       -12.6040
 241   2.0000      -0.462132       -12.5753
 242   2.0000      -0.461064       -12.5462
 243   2.0000      -0.459884       -12.5141
 244   2.0000      -0.458584       -12.4787
 245   2.0000      -0.455714       -12.4006
 246   2.0000      -0.449511       -12.2318
 247   2.0000      -0.448585       -12.2066
 248   2.0000      -0.447025       -12.1642
 249   2.0000      -0.444891       -12.1061
 250   2.0000      -0.444287       -12.0897
 251   2.0000      -0.443533       -12.0691
 252   2.0000      -0.442370       -12.0375
 253   2.0000      -0.441052       -12.0016
 254   2.0000      -0.440582       -11.9889
 255   2.0000      -0.440427       -11.9846
 256   2.0000      -0.440071       -11.9749
 257   2.0000      -0.439752       -11.9662
 258   2.0000      -0.436417       -11.8755
 259   2.0000      -0.435302       -11.8452
 260   2.0000      -0.434066       -11.8115
 261   2.0000      -0.433973       -11.8090
 262   2.0000      -0.430991       -11.7279
 263   2.0000      -0.430106       -11.7038
 264   2.0000      -0.429155       -11.6779
 265   2.0000      -0.428250       -11.6533
 266   2.0000      -0.425637       -11.5822
 267   2.0000      -0.425388       -11.5754
 268   2.0000      -0.423984       -11.5372
 269   2.0000      -0.423170       -11.5150
 270   2.0000      -0.422804       -11.5051
 271   2.0000      -0.417138       -11.3509
 272   2.0000      -0.414094       -11.2681
 273   2.0000      -0.413482       -11.2514
 274   2.0000      -0.407292       -11.0830
 275   2.0000      -0.404859       -11.0168
 276   2.0000      -0.403372       -10.9763
 277   2.0000      -0.400522       -10.8988
 278   2.0000      -0.390443       -10.6245
 279   2.0000      -0.383616       -10.4387
 280   2.0000      -0.377853       -10.2819
 281   2.0000      -0.372280       -10.1303
 282   2.0000      -0.364105        -9.9078
 283   2.0000      -0.353571        -9.6211
 284   2.0000      -0.352260        -9.5855
 285   2.0000      -0.347529        -9.4567
 286   2.0000      -0.343798        -9.3552
 287   2.0000      -0.339336        -9.2338
 288   2.0000      -0.334646        -9.1062
 289   2.0000      -0.329454        -8.9649
 290   2.0000      -0.325161        -8.8481
 291   2.0000      -0.321275        -8.7423
 292   2.0000      -0.317267        -8.6333
 293   2.0000      -0.313637        -8.5345
 294   2.0000      -0.298068        -8.1108
 295   2.0000      -0.293145        -7.9769
 296   2.0000      -0.289403        -7.8751
 297   2.0000      -0.287617        -7.8265
 298   2.0000      -0.266172        -7.2429
 299   2.0000      -0.235252        -6.4015
 300   0.0000      -0.114586        -3.1180
 301   0.0000      -0.109115        -2.9692
 302   0.0000      -0.088801        -2.4164
 303   0.0000      -0.087957        -2.3934
 304   0.0000      -0.061412        -1.6711

MULLIKEN ATOMIC CHARGES
-----------------------
   0 C :    0.273531
   1 C :   -0.337422
   2 C :   -0.170788
   3 N :    0.159072
   4 C :   -0.201941
   5 N :    0.163196
   6 C :    0.026959
   7 C :    0.015105
   8 C :   -0.079757
   9 C :    0.092715
  10 C :    0.089683
  11 C :   -0.075140
  12 C :   -0.014971
  13 C :    0.034769
  14 C :    0.032920
  15 C :   -0.012938
  16 C :    0.137809
  17 O :   -0.148198
  18 C :   -0.142124
  19 C :    0.080222
  20 C :   -0.117000
  21 C :    0.001883
  22 C :   -0.009411
  23 C :   -0.065649
  24 S :    0.209712
  25 C :   -0.108212
  26 C :    0.024425
  27 C :    0.306470
  28 C :   -0.290001
  29 C :   -0.189695
  30 N :    0.179009
  31 C :   -0.183718
  32 N :    0.172386
  33 C :   -0.066038
  34 C :   -0.039499
  35 S :    0.181856
  36 C :   -0.057141
  37 C :   -0.108675
  38 C :    0.160367
  39 C :   -0.114623
  40 S :    0.156633
  41 C :   -0.114134
  42 C :    0.161100
  43 N :   -0.169550
  44 C :    0.123610
  45 C :   -0.108100
  46 C :   -0.059712
  47 S :    0.157515
  48 C :   -0.037515
  49 C :   -0.066181
  50 C :    0.023571
  51 C :   -0.110868
  52 S :    0.184081
  53 C :   -0.064809
  54 C :    0.043438
  55 C :    0.303314
  56 C :   -0.294092
  57 C :   -0.195217
  58 N :    0.184554
  59 C :   -0.187505
  60 N :    0.174839
  61 C :   -0.057240
  62 C :   -0.054053
  63 S :    0.239541
  64 C :   -0.031461
  65 C :   -0.097598
  66 C :    0.330369
  67 C :   -0.354086
  68 C :   -0.184310
  69 N :    0.147007
  70 C :   -0.197793
  71 N :    0.153743
  72 C :    0.044335
  73 C :   -0.001067
  74 C :    0.169011
  75 O :   -0.196334
  76 C :   -0.082525
  77 C :    0.098340
  78 C :    0.096296
  79 C :   -0.083037
  80 C :   -0.019835
  81 C :    0.035646
  82 C :    0.036039
  83 C :   -0.017821
  84 H :   -0.013246
  85 H :   -0.000139
  86 H :   -0.009653
  87 H :   -0.003908
  88 H :   -0.004818
  89 H :   -0.018786
  90 H :    0.020912
  91 H :    0.026413
  92 H :    0.017786
  93 H :   -0.018233
  94 H :    0.041507
  95 H :    0.047196
  96 H :    0.042039
  97 H :   -0.017179
  98 H :    0.017764
  99 H :    0.026944
 100 H :    0.019060
 101 H :   -0.015694
 102 H :   -0.008329
 103 H :   -0.008252
 104 H :   -0.004222
 105 H :   -0.005704
 106 H :   -0.018750
Sum of atomic charges:   -0.0000000

LOEWDIN ATOMIC CHARGES
----------------------
   0 C :    0.066138
   1 C :   -0.139537
   2 C :   -0.018692
   3 N :   -0.049341
   4 C :   -0.015670
   5 N :   -0.051000
   6 C :   -0.022845
   7 C :   -0.057416
   8 C :    0.031761
   9 C :   -0.009398
  10 C :   -0.005388
  11 C :    0.018960
  12 C :   -0.005183
  13 C :   -0.013260
  14 C :   -0.013712
  15 C :   -0.009770
  16 C :    0.083006
  17 O :   -0.147855
  18 C :   -0.092897
  19 C :    0.042816
  20 C :   -0.183837
  21 C :    0.009755
  22 C :   -0.070166
  23 C :   -0.155064
  24 S :    0.494902
  25 C :   -0.191274
  26 C :   -0.052552
  27 C :    0.082384
  28 C :   -0.095990
  29 C :   -0.017410
  30 N :   -0.027136
  31 C :   -0.013225
  32 N :   -0.030774
  33 C :   -0.040340
  34 C :   -0.164033
  35 S :    0.472890
  36 C :   -0.177337
  37 C :   -0.077665
  38 C :   -0.014037
  39 C :   -0.217921
  40 S :    0.433403
  41 C :   -0.216482
  42 C :   -0.014915
  43 N :    0.028743
  44 C :    0.040633
  45 C :   -0.075706
  46 C :   -0.179983
  47 S :    0.433851
  48 C :   -0.160179
  49 C :   -0.043489
  50 C :   -0.049375
  51 C :   -0.194422
  52 S :    0.473367
  53 C :   -0.162909
  54 C :   -0.081335
  55 C :    0.077918
  56 C :   -0.098826
  57 C :   -0.019946
  58 N :   -0.023365
  59 C :   -0.016853
  60 N :   -0.029848
  61 C :    0.014216
  62 C :   -0.185652
  63 S :    0.543457
  64 C :    0.056360
  65 C :   -0.114095
  66 C :    0.076629
  67 C :   -0.143757
  68 C :   -0.017154
  69 N :   -0.056526
  70 C :   -0.023976
  71 N :   -0.050665
  72 C :   -0.024174
  73 C :   -0.055118
  74 C :    0.085910
  75 O :   -0.180750
  76 C :    0.030549
  77 C :   -0.009412
  78 C :   -0.006143
  79 C :    0.019577
  80 C :   -0.005055
  81 C :   -0.013530
  82 C :   -0.013075
  83 C :   -0.010509
  84 H :    0.038781
  85 H :    0.040507
  86 H :    0.034930
  87 H :    0.033215
  88 H :    0.032601
  89 H :    0.031323
  90 H :    0.045373
  91 H :    0.043052
  92 H :    0.037712
  93 H :    0.026306
  94 H :    0.035373
  95 H :    0.030914
  96 H :    0.035369
  97 H :    0.026660
  98 H :    0.037652
  99 H :    0.047943
 100 H :    0.053789
 101 H :    0.037846
 102 H :    0.039283
 103 H :    0.035110
 104 H :    0.033332
 105 H :    0.032537
 106 H :    0.031117

  Mayer bond orders larger than 0.100000
B(  0-C ,  1-C ) :   1.6453 B(  0-C ,  6-C ) :   0.9969 B(  0-C , 18-C ) :   1.0405
B(  1-C ,  2-C ) :   1.1308 B(  1-C ,  4-C ) :   1.1720 B(  2-C ,  3-N ) :   2.9922
B(  4-C ,  5-N ) :   2.9973 B(  6-C ,  7-C ) :   1.2148 B(  6-C , 11-C ) :   1.4592
B(  7-C ,  8-C ) :   1.4753 B(  7-C , 16-C ) :   0.9212 B(  8-C ,  9-C ) :   1.1830
B(  8-C , 84-H ) :   1.0160 B(  9-C , 10-C ) :   1.2578 B(  9-C , 15-C ) :   1.2464
B( 10-C , 11-C ) :   1.2051 B( 10-C , 12-C ) :   1.2413 B( 11-C , 85-H ) :   0.9944
B( 12-C , 13-C ) :   1.4890 B( 12-C , 86-H ) :   0.9980 B( 13-C , 14-C ) :   1.2608
B( 13-C , 87-H ) :   0.9891 B( 14-C , 15-C ) :   1.4872 B( 14-C , 88-H ) :   0.9893
B( 15-C , 89-H ) :   0.9978 B( 16-C , 17-O ) :   2.2648 B( 16-C , 18-C ) :   0.9430
B( 18-C , 19-C ) :   1.6599 B( 19-C , 20-C ) :   1.1386 B( 19-C , 90-H ) :   0.9314
B( 20-C , 21-C ) :   1.3967 B( 20-C , 24-S ) :   1.0820 B( 21-C , 22-C ) :   1.3600
B( 21-C , 91-H ) :   0.9809 B( 22-C , 23-C ) :   1.4033 B( 22-C , 27-C ) :   1.0018
B( 23-C , 24-S ) :   1.1552 B( 23-C , 25-C ) :   1.2025 B( 25-C , 26-C ) :   1.4415
B( 25-C , 35-S ) :   1.1014 B( 26-C , 27-C ) :   0.9917 B( 26-C , 33-C ) :   1.3044
B( 27-C , 28-C ) :   1.7182 B( 28-C , 29-C ) :   1.1332 B( 28-C , 31-C ) :   1.1352
B( 29-C , 30-N ) :   2.9926 B( 31-C , 32-N ) :   2.9827 B( 33-C , 34-C ) :   1.4476
B( 33-C , 92-H ) :   0.9878 B( 34-C , 35-S ) :   1.1165 B( 34-C , 36-C ) :   1.1783
B( 36-C , 37-C ) :   1.4713 B( 36-C , 40-S ) :   1.1013 B( 37-C , 38-C ) :   1.2406
B( 37-C , 93-H ) :   1.0014 B( 38-C , 39-C ) :   1.3870 B( 38-C , 43-N ) :   1.1502
B( 39-C , 40-S ) :   1.0342 B( 39-C , 41-C ) :   1.3950 B( 41-C , 42-C ) :   1.3862
B( 41-C , 47-S ) :   1.0356 B( 42-C , 43-N ) :   1.1480 B( 42-C , 45-C ) :   1.2413
B( 43-N , 44-C ) :   0.9683 B( 44-C , 94-H ) :   0.9720 B( 44-C , 95-H ) :   0.9734
B( 44-C , 96-H ) :   0.9721 B( 45-C , 46-C ) :   1.4663 B( 45-C , 97-H ) :   1.0028
B( 46-C , 47-S ) :   1.0992 B( 46-C , 48-C ) :   1.1822 B( 48-C , 49-C ) :   1.4418
B( 48-C , 52-S ) :   1.1180 B( 49-C , 50-C ) :   1.3039 B( 49-C , 98-H ) :   0.9889
B( 50-C , 51-C ) :   1.4341 B( 50-C , 55-C ) :   0.9935 B( 51-C , 52-S ) :   1.0989
B( 51-C , 53-C ) :   1.2128 B( 53-C , 54-C ) :   1.3437 B( 53-C , 63-S ) :   1.1272
B( 54-C , 55-C ) :   0.9876 B( 54-C , 61-C ) :   1.3394 B( 55-C , 56-C ) :   1.7181
B( 56-C , 57-C ) :   1.1351 B( 56-C , 59-C ) :   1.1314 B( 57-C , 58-N ) :   2.9949
B( 59-C , 60-N ) :   2.9911 B( 61-C , 62-C ) :   1.3213 B( 61-C , 99-H ) :   1.0081
B( 62-C , 63-S ) :   1.0623 B( 62-C , 64-C ) :   1.2808 B( 64-C , 65-C ) :   1.4757
B( 64-C ,100-H ) :   0.9414 B( 65-C , 66-C ) :   1.0805 B( 65-C , 74-C ) :   0.9872
B( 66-C , 67-C ) :   1.6220 B( 66-C , 72-C ) :   0.9835 B( 67-C , 68-C ) :   1.1504
B( 67-C , 70-C ) :   1.1439 B( 68-C , 69-N ) :   2.9614 B( 70-C , 71-N ) :   2.9681
B( 72-C , 73-C ) :   1.2146 B( 72-C , 79-C ) :   1.4600 B( 73-C , 74-C ) :   0.9624
B( 73-C , 76-C ) :   1.4708 B( 74-C , 75-O ) :   2.1056 B( 76-C , 77-C ) :   1.1768
B( 76-C ,101-H ) :   1.0159 B( 77-C , 78-C ) :   1.2578 B( 77-C , 83-C ) :   1.2450
B( 78-C , 79-C ) :   1.2006 B( 78-C , 80-C ) :   1.2430 B( 79-C ,102-H ) :   0.9889
B( 80-C , 81-C ) :   1.4876 B( 80-C ,103-H ) :   0.9969 B( 81-C , 82-C ) :   1.2623
B( 81-C ,104-H ) :   0.9882 B( 82-C , 83-C ) :   1.4876 B( 82-C ,105-H ) :   0.9886
B( 83-C ,106-H ) :   0.9972

-----------------------------------------------------------------------------
         ABSORPTION SPECTRUM VIA TRANSITION ELECTRIC DIPOLE MOMENTS
-----------------------------------------------------------------------------
State   Energy  Wavelength   fosc         T2         TX        TY        TZ
        (cm-1)    (nm)                  (au**2)     (au)      (au)      (au)
-----------------------------------------------------------------------------
   0   11119.6    899.3   0.856338103  25.35325  -0.91613   4.84942  -0.99855
   1   12279.8    814.3   0.134163088   3.59682  -0.00884  -1.83541   0.47750
   2   17798.5    561.8   1.800807911  33.30891  -1.16778   5.59006  -0.83455
   3   19295.7    518.3   0.252548818   4.30885   0.55927   1.94145  -0.47627
   4   20148.2    496.3   0.025292125   0.41326  -0.55454  -0.18810   0.26527
   5   21065.2    474.7   0.219576078   3.43159  -0.04243   1.84990   0.08749
   6   24516.3    407.9   0.003345008   0.04492  -0.00978  -0.09011  -0.19158
   7   24936.8    401.0   0.122496768   1.61718   0.40720  -1.02764   0.62875
   8   25401.7    393.7   0.317558857   4.11564   0.07502  -1.91489   0.66573
   9   25517.2    391.9   0.006273470   0.08094   0.16115  -0.19935   0.12340
  10   25906.2    386.0   0.019309163   0.24538   0.13412  -0.32946   0.34474
  11   26300.2    380.2   0.020290957   0.25399   0.36849   0.30637  -0.15604
  12   26762.3    373.7   0.153734615   1.89114  -0.83926   0.71704  -0.82014
  13   27303.9    366.2   0.468402096   5.64768  -0.26817   2.36024  -0.07108
  14   27359.7    365.5   0.025660325   0.30876   0.12809  -0.34422  -0.41697
  15   27927.1    358.1   0.036561255   0.43099  -0.00189  -0.62018   0.21532
  16   28293.9    353.4   0.031333527   0.36458  -0.41564  -0.22613  -0.37509
  17   28600.5    349.6   0.017759559   0.20443  -0.26293  -0.33852  -0.14387
  18   28805.8    347.2   0.104793732   1.19765  -0.50918  -0.75148  -0.61128
  19   29073.0    344.0   0.079603111   0.90140  -0.16906  -0.92861   0.10244
  20   29486.1    339.1   0.006804759   0.07597   0.18484  -0.14043   0.14862
  21   30006.3    333.3   0.140188338   1.53807  -0.28281  -1.20350  -0.09830
  22   30713.7    325.6   0.085020947   0.91132   0.11035  -0.31347   0.89492
  23   30889.8    323.7   0.613149399   6.53472   0.83362   0.90184   2.24198
  24   30986.4    322.7   0.009468872   0.10060   0.11527   0.18055   0.23391
  25   31549.5    317.0   0.001321155   0.01379   0.07149   0.06509  -0.06662
  26   31893.7    313.5   0.043618987   0.45024  -0.03936   0.36625  -0.56085
  27   32191.1    310.6   0.411440598   4.20772  -0.85243  -1.04789  -1.54370
  28   32444.5    308.2   0.142563280   1.44658   0.88671  -0.70468   0.40467
  29   32953.7    303.5   0.128101177   1.27975   0.29933   1.03105   0.35649
  30   33241.7    300.8   0.255529250   2.53066   0.81918   1.02360   0.90102
  31   33407.0    299.3   0.007819562   0.07706  -0.01965   0.19129   0.20020
  32   33437.8    299.1   0.369145236   3.63442  -0.86859  -1.47670  -0.83626
  33   33641.3    297.3   0.282761324   2.76709   0.82472   0.97435   1.06657
  34   34157.3    292.8   0.265490284   2.55882  -0.45799  -1.53037  -0.08395
  35   34191.1    292.5   0.059063702   0.56870   0.23961   0.71436   0.03129
  36   34391.2    290.8   0.120349039   1.15205   0.29481   0.90578   0.49466
  37   34488.5    290.0   0.149128900   1.42352   0.16703  -0.40822   1.10859
  38   34529.5    289.6   0.121762056   1.16091  -0.30570   0.16960  -1.01916
  39   34703.7    288.2   0.095749733   0.90832   0.20676  -0.77209   0.51908
  40   34916.8    286.4   0.169457565   1.59772  -0.21950  -1.24385   0.04884
  41   35343.8    282.9   0.194527100   1.81193   0.61608  -0.20714   1.17876
  42   35435.3    282.2   0.004762147   0.04424   0.16860  -0.05734   0.11193
  43   35551.4    281.3   0.060566348   0.56085   0.08830   0.73938  -0.07980
  44   35623.2    280.7   0.067225071   0.62126  -0.18191  -0.34775  -0.68355
  45   35732.8    279.9   0.286002468   2.63499  -0.45595  -1.55628  -0.07125
  46   36010.5    277.7   0.047337162   0.43276  -0.24534  -0.51552  -0.32682
  47   36352.8    275.1   0.048882825   0.44268  -0.14659  -0.63452  -0.13632
  48   36629.6    273.0   0.025444381   0.22868   0.31416  -0.05973   0.35555
  49   36775.3    271.9   0.072193978   0.64628  -0.62922   0.18031  -0.46675
  50   36972.5    270.5   0.124211579   1.10601   0.62333  -0.38182   0.75610
  51   37109.8    269.5   0.027273178   0.24195   0.08692  -0.27257  -0.40012
  52   37234.6    268.6   0.011887798   0.10511  -0.07550   0.13848  -0.28325
  53   38114.0    262.4   0.018683198   0.16138   0.09621   0.22248   0.32035
  54   38261.8    261.4   0.063854941   0.54942  -0.30341  -0.17470  -0.65333
  55   38514.6    259.6   0.040749958   0.34832   0.14139   0.33045   0.46811
  56   38937.5    256.8   0.237487902   2.00793  -0.37129   0.98687  -0.94666
  57   38975.4    256.6   0.049285531   0.41630   0.44886  -0.25223   0.38885
  58   39301.0    254.4   0.020126258   0.16859   0.10242  -0.33860   0.20846
  59   39451.0    253.5   0.007692601   0.06419   0.03654   0.15729   0.19524
  60   39540.2    252.9   0.011467589   0.09548  -0.11543   0.24878  -0.14235
  61   39929.6    250.4   0.016133946   0.13302   0.07942   0.25335  -0.25006
  62   40138.8    249.1   0.019629680   0.16100   0.04830   0.36609  -0.15699

FINAL SINGLE POINT ENERGY     -5594.352862316759

DIPOLE MOMENT
-------------
                                X             Y             Z
Electronic contribution:    -15.36809       0.26926     -14.31744
Nuclear contribution   :     17.13992      -0.38675      20.24395
                        -----------------------------------------
Total Dipole Moment    :      1.77183      -0.11750       5.92651
                        -----------------------------------------
Magnitude (a.u.)       :      6.18681
Magnitude (Debye)      :     15.72563

Rotational constants in cm-1:     0.002233     0.000113     0.000109
Rotational constants in MHz :    66.950457     3.377371     3.267167

                             ****ORCA TERMINATED NORMALLY****
TOTAL RUN TIME: 0 days 0 hours 11 minutes 42 seconds 5 msec
