                         Program Version 4.2.0 -  RELEASE  -
|  1> # ORCA input file
|  2> # SCF done       -158.046564636368          0.000870638971
|  3> ! CAM-B3LYP def2-SVP def2/J RIJCOSX Grid4 TightSCF
|  4> %maxcore 5000
|  5> %tddft
|  6>     Mode sTDDFT
|  7>     Ethresh 5.0
|  8>     maxcore 5000
|  9> end
| 10>
| 11> %pal
| 12>   nprocs 6
| 13>   end
| 14> * xyz 0 1
| 15>    C       -1.21603        -1.45088        -2.65007
| 16>    N       -0.02445        -1.07187        -3.00049
| 17>    O        0.33314        -0.05156        -2.21374
| 18>    C       -0.66082         0.22633        -1.33705
| 19>    C       -0.41484         1.31441        -0.41077
| 20>    O       -1.17211         1.70685         0.44122
| 21>    C       -1.71362        -0.66121        -1.57206
| 22>    C       -2.98622        -0.81107        -0.94875
| 23>    C       -3.54727        -0.09335         0.08757
| 24>    C       -4.82459        -0.55799         0.40832
| 25>    C       -5.23246        -1.63859        -0.39472
| 26>    S       -4.05396        -2.08192        -1.53918
| 27>    C       -6.53118        -2.04151         0.00679
| 28>    C       -6.94607        -1.21843         1.06520
| 29>    C       -5.88983        -0.25439         1.34999
| 30>    C       -5.91821         0.72308         2.29881
| 31>    C       -7.03440         0.90028         3.14536
| 32>    N       -7.94130         1.04349         3.83206
| 33>    C       -4.85857         1.63208         2.51404
| 34>    N       -4.02217         2.38846         2.71657
| 35>    C       -8.21780        -1.54254         1.53666
| 36>    C       -8.77142        -2.60307         0.84217
| 37>    S       -7.70428        -3.21015        -0.41408
| 38>    C      -10.03794        -3.20599         1.04983
| 39>    C      -10.60470        -4.24409         0.33296
| 40>    C      -11.86312        -4.58969         0.82414
| 41>    C      -12.25375        -3.80913         1.92527
| 42>    S      -11.07789        -2.64682         2.35203
| 43>    C      -13.53274        -4.24400         2.35628
| 44>    C      -13.95265        -5.29653         1.52493
| 45>    C      -12.91788        -5.54895         0.53434
| 46>    C      -12.93040        -6.48939        -0.45254
| 47>    C      -14.01620        -7.37279        -0.63091
| 48>    N      -14.89774        -8.09174        -0.77287
| 49>    C      -11.85705        -6.64059        -1.35609
| 50>    N      -10.98428        -6.76210        -2.08941
| 51>    C      -15.20425        -5.80065         1.87742
| 52>    C      -15.73537        -5.14421         2.97234
| 53>    S      -14.67309        -3.87747         3.57223
| 54>    C      -16.97327        -5.39520         3.61698
| 55>    C      -17.47102        -4.77790         4.75068
| 56>    C      -18.71700        -5.28667         5.11484
| 57>    C      -19.17118        -6.29403         4.24908
| 58>    S      -18.06427        -6.61987         2.98889
| 59>    C      -20.43754        -6.74356         4.70592
| 60>    C      -20.78051        -6.02184         5.86070
| 61>    C      -19.71178        -5.08410         6.15947
| 62>    C      -19.64620        -4.20665         7.20093
| 63>    C      -20.67627        -4.10785         8.16031
| 64>    N      -21.51547        -4.03236         8.93761
| 65>    C      -18.54286        -3.34671         7.38664
| 66>    N      -17.64508        -2.64986         7.53704
| 67>    C      -22.01772        -6.39933         6.38613
| 68>    C      -22.62006        -7.39475         5.64308
| 69>    S      -21.63446        -7.87646         4.26822
| 70>    C      -23.88407        -7.99244         5.92972
| 71>    C      -24.63895        -8.94903         5.24972
| 72>    O      -25.76886        -9.17903         5.94831
| 73>    N      -25.78596        -8.42076         7.04593
| 74>    C      -24.69714        -7.71212         7.06782
| 75>    C      -24.42092        -9.66428         4.00183
| 76>    O      -25.16380       -10.48343         3.53117
| 77>    H       -1.70206        -2.26251        -3.15327
| 78>    H        0.57782         1.77049        -0.56896
| 79>    H       -3.03724         0.72069         0.57187
| 80>    H       -8.72875        -1.04385         2.34055
| 81>    H      -10.11328        -4.71313        -0.50049
| 82>    H      -15.71257        -6.60536         1.37709
| 83>    H      -16.93943        -4.00308         5.27336
| 84>    H      -22.46242        -5.96922         7.26427
| 85>    H      -24.51121        -7.03247         7.87353
| 86>    H      -23.47603        -9.37720         3.50169
| 87> *
| 88>
| 89>                          ****END OF INPUT****

CARTESIAN COORDINATES (ANGSTROEM)
---------------------------------
  C     -1.216030   -1.450880   -2.650070
  N     -0.024450   -1.071870   -3.000490
  O      0.333140   -0.051560   -2.213740
  C     -0.660820    0.226330   -1.337050
  C     -0.414840    1.314410   -0.410770
  O     -1.172110    1.706850    0.441220
  C     -1.713620   -0.661210   -1.572060
  C     -2.986220   -0.811070   -0.948750
  C     -3.547270   -0.093350    0.087570
  C     -4.824590   -0.557990    0.408320
  C     -5.232460   -1.638590   -0.394720
  S     -4.053960   -2.081920   -1.539180
  C     -6.531180   -2.041510    0.006790
  C     -6.946070   -1.218430    1.065200
  C     -5.889830   -0.254390    1.349990
  C     -5.918210    0.723080    2.298810
  C     -7.034400    0.900280    3.145360
  N     -7.941300    1.043490    3.832060
  C     -4.858570    1.632080    2.514040
  N     -4.022170    2.388460    2.716570
  C     -8.217800   -1.542540    1.536660
  C     -8.771420   -2.603070    0.842170
  S     -7.704280   -3.210150   -0.414080
  C    -10.037940   -3.205990    1.049830
  C    -10.604700   -4.244090    0.332960
  C    -11.863120   -4.589690    0.824140
  C    -12.253750   -3.809130    1.925270
  S    -11.077890   -2.646820    2.352030
  C    -13.532740   -4.244000    2.356280
  C    -13.952650   -5.296530    1.524930
  C    -12.917880   -5.548950    0.534340
  C    -12.930400   -6.489390   -0.452540
  C    -14.016200   -7.372790   -0.630910
  N    -14.897740   -8.091740   -0.772870
  C    -11.857050   -6.640590   -1.356090
  N    -10.984280   -6.762100   -2.089410
  C    -15.204250   -5.800650    1.877420
  C    -15.735370   -5.144210    2.972340
  S    -14.673090   -3.877470    3.572230
  C    -16.973270   -5.395200    3.616980
  C    -17.471020   -4.777900    4.750680
  C    -18.717000   -5.286670    5.114840
  C    -19.171180   -6.294030    4.249080
  S    -18.064270   -6.619870    2.988890
  C    -20.437540   -6.743560    4.705920
  C    -20.780510   -6.021840    5.860700
  C    -19.711780   -5.084100    6.159470
  C    -19.646200   -4.206650    7.200930
  C    -20.676270   -4.107850    8.160310
  N    -21.515470   -4.032360    8.937610
  C    -18.542860   -3.346710    7.386640
  N    -17.645080   -2.649860    7.537040
  C    -22.017720   -6.399330    6.386130
  C    -22.620060   -7.394750    5.643080
  S    -21.634460   -7.876460    4.268220
  C    -23.884070   -7.992440    5.929720
  C    -24.638950   -8.949030    5.249720
  O    -25.768860   -9.179030    5.948310
  N    -25.785960   -8.420760    7.045930
  C    -24.697140   -7.712120    7.067820
  C    -24.420920   -9.664280    4.001830
  O    -25.163800  -10.483430    3.531170
  H     -1.702060   -2.262510   -3.153270
  H      0.577820    1.770490   -0.568960
  H     -3.037240    0.720690    0.571870
  H     -8.728750   -1.043850    2.340550
  H    -10.113280   -4.713130   -0.500490
  H    -15.712570   -6.605360    1.377090
  H    -16.939430   -4.003080    5.273360
  H    -22.462420   -5.969220    7.264270
  H    -24.511210   -7.032470    7.873530
  H    -23.476030   -9.377200    3.501690

 Total Charge           Charge          ....    0
 Multiplicity           Mult            ....    1
 Number of Electrons    NEL             ....  458
 Basis Dimension        Dim             ....  942

ORBITAL ENERGIES
----------------

  NO   OCC          E(Eh)            E(eV)
   0   2.0000     -89.006414     -2421.9877
   1   2.0000     -89.003962     -2421.9209
   2   2.0000     -89.002659     -2421.8855
   3   2.0000     -89.001709     -2421.8596
   4   2.0000     -89.000082     -2421.8154
   5   2.0000     -88.998908     -2421.7834
   6   2.0000     -19.335075      -526.1341
   7   2.0000     -19.328928      -525.9669
   8   2.0000     -19.237323      -523.4742
   9   2.0000     -19.230987      -523.3017
  10   2.0000     -14.485506      -394.1706
  11   2.0000     -14.480483      -394.0340
  12   2.0000     -14.442371      -392.9969
  13   2.0000     -14.442091      -392.9893
  14   2.0000     -14.441175      -392.9643
  15   2.0000     -14.441071      -392.9615
  16   2.0000     -14.436472      -392.8364
  17   2.0000     -14.431358      -392.6972
  18   2.0000     -10.382939      -282.5341
  19   2.0000     -10.380390      -282.4648
  20   2.0000     -10.377909      -282.3973
  21   2.0000     -10.376119      -282.3486
  22   2.0000     -10.371390      -282.2199
  23   2.0000     -10.364581      -282.0346
  24   2.0000     -10.363024      -281.9922
  25   2.0000     -10.358301      -281.8637
  26   2.0000     -10.357291      -281.8362
  27   2.0000     -10.356930      -281.8264
  28   2.0000     -10.348052      -281.5848
  29   2.0000     -10.344178      -281.4794
  30   2.0000     -10.344012      -281.4749
  31   2.0000     -10.343486      -281.4606
  32   2.0000     -10.342840      -281.4430
  33   2.0000     -10.342742      -281.4403
  34   2.0000     -10.342712      -281.4395
  35   2.0000     -10.342375      -281.4303
  36   2.0000     -10.342103      -281.4229
  37   2.0000     -10.341341      -281.4022
  38   2.0000     -10.341259      -281.4000
  39   2.0000     -10.341158      -281.3972
  40   2.0000     -10.340589      -281.3817
  41   2.0000     -10.340106      -281.3686
  42   2.0000     -10.339727      -281.3583
  43   2.0000     -10.336622      -281.2738
  44   2.0000     -10.334558      -281.2176
  45   2.0000     -10.330624      -281.1106
  46   2.0000     -10.330203      -281.0991
  47   2.0000     -10.329359      -281.0762
  48   2.0000     -10.328682      -281.0577
  49   2.0000     -10.326854      -281.0080
  50   2.0000     -10.317610      -280.7564
  51   2.0000     -10.317446      -280.7520
  52   2.0000     -10.315840      -280.7083
  53   2.0000     -10.314904      -280.6828
  54   2.0000     -10.314664      -280.6763
  55   2.0000     -10.314610      -280.6748
  56   2.0000     -10.314415      -280.6695
  57   2.0000     -10.313285      -280.6387
  58   2.0000     -10.313109      -280.6340
  59   2.0000     -10.311270      -280.5839
  60   2.0000     -10.308750      -280.5154
  61   2.0000     -10.303993      -280.3859
  62   2.0000      -8.100629      -220.4293
  63   2.0000      -8.098337      -220.3669
  64   2.0000      -8.097083      -220.3328
  65   2.0000      -8.096144      -220.3073
  66   2.0000      -8.094570      -220.2645
  67   2.0000      -8.093661      -220.2397
  68   2.0000      -6.069937      -165.1714
  69   2.0000      -6.067657      -165.1093
  70   2.0000      -6.066394      -165.0750
  71   2.0000      -6.065691      -165.0558
  72   2.0000      -6.065452      -165.0493
  73   2.0000      -6.063891      -165.0069
  74   2.0000      -6.063451      -164.9949
  75   2.0000      -6.062970      -164.9818
  76   2.0000      -6.062909      -164.9801
  77   2.0000      -6.062195      -164.9607
  78   2.0000      -6.061256      -164.9352
  79   2.0000      -6.060599      -164.9173
  80   2.0000      -6.059712      -164.8931
  81   2.0000      -6.059338      -164.8830
  82   2.0000      -6.058724      -164.8663
  83   2.0000      -6.058398      -164.8574
  84   2.0000      -6.056782      -164.8134
  85   2.0000      -6.056023      -164.7928
  86   2.0000      -1.276920       -34.7468
  87   2.0000      -1.273865       -34.6636
  88   2.0000      -1.150072       -31.2950
  89   2.0000      -1.144627       -31.1469
  90   2.0000      -1.059247       -28.8236
  91   2.0000      -1.056164       -28.7397
  92   2.0000      -1.051977       -28.6257
  93   2.0000      -1.034434       -28.1484
  94   2.0000      -1.033007       -28.1095
  95   2.0000      -1.027019       -27.9466
  96   2.0000      -1.020989       -27.7825
  97   2.0000      -1.019476       -27.7413
  98   2.0000      -1.018267       -27.7084
  99   2.0000      -1.012049       -27.5392
 100   2.0000      -1.010080       -27.4857
 101   2.0000      -1.001217       -27.2445
 102   2.0000      -0.983761       -26.7695
 103   2.0000      -0.978958       -26.6388
 104   2.0000      -0.973479       -26.4897
 105   2.0000      -0.968330       -26.3496
 106   2.0000      -0.963149       -26.2086
 107   2.0000      -0.940445       -25.5908
 108   2.0000      -0.936389       -25.4804
 109   2.0000      -0.926642       -25.2152
 110   2.0000      -0.912251       -24.8236
 111   2.0000      -0.904758       -24.6197
 112   2.0000      -0.883997       -24.0548
 113   2.0000      -0.882320       -24.0091
 114   2.0000      -0.877492       -23.8778
 115   2.0000      -0.872308       -23.7367
 116   2.0000      -0.865566       -23.5532
 117   2.0000      -0.860131       -23.4054
 118   2.0000      -0.851262       -23.1640
 119   2.0000      -0.828492       -22.5444
 120   2.0000      -0.806291       -21.9403
 121   2.0000      -0.793476       -21.5916
 122   2.0000      -0.791706       -21.5434
 123   2.0000      -0.786350       -21.3977
 124   2.0000      -0.778750       -21.1909
 125   2.0000      -0.767522       -20.8853
 126   2.0000      -0.758321       -20.6350
 127   2.0000      -0.743733       -20.2380
 128   2.0000      -0.728743       -19.8301
 129   2.0000      -0.722302       -19.6548
 130   2.0000      -0.715011       -19.4564
 131   2.0000      -0.713538       -19.4164
 132   2.0000      -0.705340       -19.1933
 133   2.0000      -0.699693       -19.0396
 134   2.0000      -0.695790       -18.9334
 135   2.0000      -0.690355       -18.7855
 136   2.0000      -0.684990       -18.6395
 137   2.0000      -0.678388       -18.4599
 138   2.0000      -0.659007       -17.9325
 139   2.0000      -0.652201       -17.7473
 140   2.0000      -0.644234       -17.5305
 141   2.0000      -0.641197       -17.4479
 142   2.0000      -0.636778       -17.3276
 143   2.0000      -0.632966       -17.2239
 144   2.0000      -0.630328       -17.1521
 145   2.0000      -0.629694       -17.1349
 146   2.0000      -0.626587       -17.0503
 147   2.0000      -0.617353       -16.7990
 148   2.0000      -0.614004       -16.7079
 149   2.0000      -0.610163       -16.6034
 150   2.0000      -0.598121       -16.2757
 151   2.0000      -0.594398       -16.1744
 152   2.0000      -0.587577       -15.9888
 153   2.0000      -0.582189       -15.8422
 154   2.0000      -0.574535       -15.6339
 155   2.0000      -0.562878       -15.3167
 156   2.0000      -0.561855       -15.2888
 157   2.0000      -0.558299       -15.1921
 158   2.0000      -0.554503       -15.0888
 159   2.0000      -0.553554       -15.0630
 160   2.0000      -0.550705       -14.9855
 161   2.0000      -0.544034       -14.8039
 162   2.0000      -0.537401       -14.6234
 163   2.0000      -0.531749       -14.4696
 164   2.0000      -0.527922       -14.3655
 165   2.0000      -0.524727       -14.2786
 166   2.0000      -0.520436       -14.1618
 167   2.0000      -0.519230       -14.1290
 168   2.0000      -0.517605       -14.0847
 169   2.0000      -0.513663       -13.9775
 170   2.0000      -0.512776       -13.9534
 171   2.0000      -0.510458       -13.8903
 172   2.0000      -0.508508       -13.8372
 173   2.0000      -0.506859       -13.7923
 174   2.0000      -0.504578       -13.7303
 175   2.0000      -0.502268       -13.6674
 176   2.0000      -0.498722       -13.5709
 177   2.0000      -0.497311       -13.5325
 178   2.0000      -0.495585       -13.4855
 179   2.0000      -0.494671       -13.4607
 180   2.0000      -0.491490       -13.3741
 181   2.0000      -0.490878       -13.3575
 182   2.0000      -0.488149       -13.2832
 183   2.0000      -0.481400       -13.0996
 184   2.0000      -0.479841       -13.0571
 185   2.0000      -0.472798       -12.8655
 186   2.0000      -0.471982       -12.8433
 187   2.0000      -0.469508       -12.7760
 188   2.0000      -0.469293       -12.7701
 189   2.0000      -0.467989       -12.7346
 190   2.0000      -0.466110       -12.6835
 191   2.0000      -0.460904       -12.5418
 192   2.0000      -0.458623       -12.4798
 193   2.0000      -0.455977       -12.4078
 194   2.0000      -0.452622       -12.3165
 195   2.0000      -0.452224       -12.3057
 196   2.0000      -0.451602       -12.2887
 197   2.0000      -0.451313       -12.2809
 198   2.0000      -0.450173       -12.2498
 199   2.0000      -0.449356       -12.2276
 200   2.0000      -0.448784       -12.2120
 201   2.0000      -0.446446       -12.1484
 202   2.0000      -0.443510       -12.0685
 203   2.0000      -0.442369       -12.0375
 204   2.0000      -0.438467       -11.9313
 205   2.0000      -0.435956       -11.8630
 206   2.0000      -0.434118       -11.8129
 207   2.0000      -0.429011       -11.6740
 208   2.0000      -0.419768       -11.4225
 209   2.0000      -0.411832       -11.2065
 210   2.0000      -0.407015       -11.0754
 211   2.0000      -0.399117       -10.8605
 212   2.0000      -0.399047       -10.8586
 213   2.0000      -0.393503       -10.7078
 214   2.0000      -0.386135       -10.5073
 215   2.0000      -0.377592       -10.2748
 216   2.0000      -0.365228        -9.9384
 217   2.0000      -0.364400        -9.9158
 218   2.0000      -0.361087        -9.8257
 219   2.0000      -0.357319        -9.7231
 220   2.0000      -0.356269        -9.6946
 221   2.0000      -0.351218        -9.5571
 222   2.0000      -0.343779        -9.3547
 223   2.0000      -0.334931        -9.1139
 224   2.0000      -0.332475        -9.0471
 225   2.0000      -0.328534        -8.9399
 226   2.0000      -0.307902        -8.3784
 227   2.0000      -0.276596        -7.5266
 228   2.0000      -0.248880        -6.7724
 229   0.0000      -0.120869        -3.2890
 230   0.0000      -0.114936        -3.1276
 231   0.0000      -0.110429        -3.0049
 232   0.0000      -0.069308        -1.8860
 233   0.0000      -0.065636        -1.7860

MULLIKEN ATOMIC CHARGES
-----------------------
   0 C :   -0.010584
   1 N :    0.048474
   2 O :   -0.168209
   3 C :    0.059277
   4 C :    0.164875
   5 O :   -0.153651
   6 C :    0.004366
   7 C :   -0.057032
   8 C :   -0.050921
   9 C :    0.010160
  10 C :   -0.091141
  11 S :    0.172353
  12 C :   -0.099621
  13 C :    0.022293
  14 C :    0.303558
  15 C :   -0.294382
  16 C :   -0.189622
  17 N :    0.170015
  18 C :   -0.195030
  19 N :    0.199676
  20 C :   -0.070180
  21 C :   -0.047260
  22 S :    0.195586
  23 C :   -0.050855
  24 C :   -0.066779
  25 C :    0.019057
  26 C :   -0.099708
  27 S :    0.203038
  28 C :   -0.097896
  29 C :    0.018134
  30 C :    0.297130
  31 C :   -0.291502
  32 C :   -0.187985
  33 N :    0.174672
  34 C :   -0.187586
  35 N :    0.174947
  36 C :   -0.066038
  37 C :   -0.052662
  38 S :    0.201213
  39 C :   -0.045765
  40 C :   -0.071656
  41 C :    0.023908
  42 C :   -0.098535
  43 S :    0.201842
  44 C :   -0.084349
  45 C :    0.021091
  46 C :    0.297906
  47 C :   -0.290675
  48 C :   -0.186183
  49 N :    0.176694
  50 C :   -0.187127
  51 N :    0.176711
  52 C :   -0.057214
  53 C :   -0.045675
  54 S :    0.171282
  55 C :    0.010760
  56 C :    0.035313
  57 O :   -0.145755
  58 N :    0.048723
  59 C :    0.002874
  60 C :    0.133794
  61 O :   -0.146786
  62 H :    0.028207
  63 H :    0.013592
  64 H :    0.022848
  65 H :    0.012884
  66 H :    0.012353
  67 H :    0.012581
  68 H :    0.014130
  69 H :    0.007121
  70 H :    0.029467
  71 H :   -0.004540
Sum of atomic charges:   -0.0000000

LOEWDIN ATOMIC CHARGES
----------------------
   0 C :   -0.032773
   1 N :    0.001985
   2 O :    0.036384
   3 C :   -0.024635
   4 C :    0.100671
   5 O :   -0.110935
   6 C :   -0.064606
   7 C :   -0.171235
   8 C :   -0.008210
   9 C :   -0.072764
  10 C :   -0.172408
  11 S :    0.474584
  12 C :   -0.184907
  13 C :   -0.060810
  14 C :    0.077410
  15 C :   -0.092846
  16 C :   -0.014083
  17 N :   -0.032671
  18 C :   -0.024649
  19 N :   -0.011513
  20 C :   -0.039167
  21 C :   -0.177535
  22 S :    0.483941
  23 C :   -0.178476
  24 C :   -0.038105
  25 C :   -0.067054
  26 C :   -0.180771
  27 S :    0.490011
  28 C :   -0.177155
  29 C :   -0.068830
  30 C :    0.082220
  31 C :   -0.099063
  32 C :   -0.016202
  33 N :   -0.030352
  34 C :   -0.016089
  35 N :   -0.030330
  36 C :   -0.036287
  37 C :   -0.181579
  38 S :    0.489071
  39 C :   -0.175187
  40 C :   -0.040034
  41 C :   -0.062607
  42 C :   -0.185402
  43 S :    0.488453
  44 C :   -0.170809
  45 C :   -0.072758
  46 C :    0.081366
  47 C :   -0.096903
  48 C :   -0.016137
  49 N :   -0.028515
  50 C :   -0.016365
  51 N :   -0.027822
  52 C :   -0.018084
  53 C :   -0.170301
  54 S :    0.486239
  55 C :   -0.076500
  56 C :   -0.028098
  57 O :    0.053903
  58 N :    0.004759
  59 C :   -0.020136
  60 C :    0.077891
  61 O :   -0.102538
  62 H :    0.031203
  63 H :    0.013415
  64 H :    0.040203
  65 H :    0.035918
  66 H :    0.035861
  67 H :    0.036162
  68 H :    0.036184
  69 H :    0.040988
  70 H :    0.036857
  71 H :   -0.011444

  Mayer bond orders larger than 0.100000
B(  0-C ,  1-N ) :   1.7327 B(  0-C ,  6-C ) :   1.1947 B(  0-C , 62-H ) :   0.9836
B(  1-N ,  2-O ) :   1.0515 B(  2-O ,  3-C ) :   1.1125 B(  3-C ,  4-C ) :   1.0188
B(  3-C ,  6-C ) :   1.4632 B(  4-C ,  5-O ) :   2.1213 B(  4-C , 63-H ) :   0.9475
B(  6-C ,  7-C ) :   1.1105 B(  7-C ,  8-C ) :   1.4869 B(  7-C , 11-S ) :   1.0876
B(  8-C ,  9-C ) :   1.2564 B(  8-C , 64-H ) :   0.9766 B(  9-C , 10-C ) :   1.4349
B(  9-C , 14-C ) :   0.9944 B( 10-C , 11-S ) :   1.1360 B( 10-C , 12-C ) :   1.1853
B( 12-C , 13-C ) :   1.4516 B( 12-C , 22-S ) :   1.1138 B( 13-C , 14-C ) :   0.9906
B( 13-C , 20-C ) :   1.2997 B( 14-C , 15-C ) :   1.7177 B( 15-C , 16-C ) :   1.1349
B( 15-C , 18-C ) :   1.1339 B( 16-C , 17-N ) :   2.9869 B( 18-C , 19-N ) :   3.0026
B( 20-C , 21-C ) :   1.4562 B( 20-C , 65-H ) :   0.9870 B( 21-C , 22-S ) :   1.1123
B( 21-C , 23-C ) :   1.1680 B( 23-C , 24-C ) :   1.4582 B( 23-C , 27-S ) :   1.1102
B( 24-C , 25-C ) :   1.2991 B( 24-C , 66-H ) :   0.9874 B( 25-C , 26-C ) :   1.4456
B( 25-C , 30-C ) :   0.9947 B( 26-C , 27-S ) :   1.1208 B( 26-C , 28-C ) :   1.1869
B( 28-C , 29-C ) :   1.4440 B( 28-C , 38-S ) :   1.1241 B( 29-C , 30-C ) :   0.9951
B( 29-C , 36-C ) :   1.3000 B( 30-C , 31-C ) :   1.7162 B( 31-C , 32-C ) :   1.1331
B( 31-C , 34-C ) :   1.1328 B( 32-C , 33-N ) :   2.9916 B( 34-C , 35-N ) :   2.9915
B( 36-C , 37-C ) :   1.4603 B( 36-C , 67-H ) :   0.9870 B( 37-C , 38-S ) :   1.1068
B( 37-C , 39-C ) :   1.1671 B( 39-C , 40-C ) :   1.4570 B( 39-C , 43-S ) :   1.1141
B( 40-C , 41-C ) :   1.3011 B( 40-C , 68-H ) :   0.9869 B( 41-C , 42-C ) :   1.4497
B( 41-C , 46-C ) :   0.9924 B( 42-C , 43-S ) :   1.1152 B( 42-C , 44-C ) :   1.1785
B( 44-C , 45-C ) :   1.4450 B( 44-C , 54-S ) :   1.1302 B( 45-C , 46-C ) :   0.9967
B( 45-C , 52-C ) :   1.2728 B( 46-C , 47-C ) :   1.7176 B( 47-C , 48-C ) :   1.1331
B( 47-C , 50-C ) :   1.1333 B( 48-C , 49-N ) :   2.9900 B( 50-C , 51-N ) :   2.9905
B( 52-C , 53-C ) :   1.4919 B( 52-C , 69-H ) :   0.9946 B( 53-C , 54-S ) :   1.0993
B( 53-C , 55-C ) :   1.0805 B( 55-C , 56-C ) :   1.4161 B( 55-C , 59-C ) :   1.2059
B( 56-C , 57-O ) :   1.1458 B( 56-C , 60-C ) :   0.9850 B( 57-O , 58-N ) :   1.0555
B( 58-N , 59-C ) :   1.7354 B( 59-C , 70-H ) :   0.9878 B( 60-C , 61-O ) :   2.2027
B( 60-C , 71-H ) :   0.9615

-----------------------------------------------------------------------------
         ABSORPTION SPECTRUM VIA TRANSITION ELECTRIC DIPOLE MOMENTS
-----------------------------------------------------------------------------
State   Energy  Wavelength   fosc         T2         TX        TY        TZ
        (cm-1)    (nm)                  (au**2)     (au)      (au)      (au)
-----------------------------------------------------------------------------
   0   11082.7    902.3   0.348196056  10.34321  -2.90147  -1.03080   0.92850
   1   12208.8    819.1   0.080887746   2.18114  -1.32553  -0.44514   0.47535
   2   13030.8    767.4   0.084202453   2.12730   1.32575   0.53633  -0.28641
   3   20427.0    489.5   0.027645044   0.44554  -0.61032  -0.23497   0.13355
   4   21531.8    464.4   0.343483683   5.25171  -2.06231  -0.71690   0.69616
   5   22660.0    441.3   0.353619305   5.13750  -2.05231  -0.77101   0.57537
   6   24620.4    406.2   1.899330168  25.39696   4.55331   1.76657  -1.24240
   7   26600.4    375.9   0.015232537   0.18852  -0.33522  -0.08970   0.26096
   8   27273.9    366.7   0.069272172   0.83616   0.82600   0.34625  -0.18435
   9   28620.0    349.4   0.004374547   0.05032  -0.18387  -0.12843   0.00416
  10   29407.8    340.0   0.026435944   0.29594   0.30226  -0.08555  -0.44414
  11   29929.7    334.1   0.003312275   0.03643  -0.08832  -0.16249   0.04720
  12   31474.7    317.7   0.008360240   0.08744   0.13145  -0.10777  -0.24197
  13   31613.2    316.3   1.718503252  17.89608   0.17991  -2.79848  -3.16737
  14   31719.3    315.3   0.034535117   0.35844  -0.41707  -0.33135  -0.27330
  15   31924.1    313.2   0.047523467   0.49008  -0.47798  -0.39301  -0.32734
  16   32431.9    308.3   0.387527158   3.93374  -0.20140  -1.43442  -1.35485
  17   32939.8    303.6   0.142192018   1.42112  -0.95868  -0.01023   0.70848
  18   33227.8    301.0   0.478771329   4.74353   1.90617   1.03492  -0.19748
  19   33394.0    299.5   0.053147882   0.52395  -0.41680  -0.51894  -0.28449
  20   33516.7    298.4   0.062154311   0.61050   0.34923   0.58465   0.38305
  21   33876.9    295.2   0.010909591   0.10602  -0.25924  -0.02136   0.19584
  22   34022.3    293.9   0.035921275   0.34759  -0.50887  -0.27400   0.11645
  23   34815.4    287.2   0.209678167   1.98270   1.30116   0.41674  -0.34061
  24   34933.2    286.3   0.000029759   0.00028   0.01191   0.00043  -0.01177
  25   35260.9    283.6   0.034593851   0.32298   0.34213   0.39489   0.22359
  26   35456.4    282.0   0.016435722   0.15261  -0.08283  -0.29000  -0.24829
  27   35785.9    279.4   0.055012915   0.50609  -0.49530  -0.49373  -0.13037
  28   36310.1    275.4   0.025164540   0.22816  -0.40160  -0.25778  -0.02058
  29   37090.7    269.6   0.030178324   0.26786   0.30326  -0.18458  -0.37659
  30   37889.0    263.9   0.038801194   0.33714  -0.08563  -0.38603  -0.42519
  31   38478.2    259.9   0.003392901   0.02903  -0.12754   0.06606   0.09165
  32   38652.9    258.7   0.000426945   0.00364   0.02461  -0.03865  -0.03920
  33   39090.5    255.8   0.030638879   0.25803   0.27068  -0.23325  -0.36105
  34   39279.2    254.6   0.010035461   0.08411  -0.08433   0.14590   0.23603
  35   39689.0    252.0   0.007220229   0.05989  -0.21462  -0.11760  -0.00041
  36   40048.5    249.7   0.071586794   0.58847  -0.39811  -0.56228  -0.33737
  37   40166.9    249.0   0.015034048   0.12322   0.31184   0.15985  -0.02057

FINAL SINGLE POINT ENERGY     -4806.710804650929

DIPOLE MOMENT
-------------
                                X             Y             Z
Electronic contribution:     -0.81349      -1.44521      -1.59227
Nuclear contribution   :      2.15519       1.13676       0.36429
                        -----------------------------------------
Total Dipole Moment    :      1.34170      -0.30845      -1.22798
                        -----------------------------------------
Magnitude (a.u.)       :      1.84478
Magnitude (Debye)      :      4.68906

Rotational constants in cm-1:     0.003375     0.000257     0.000239
Rotational constants in MHz :   101.173224     7.705289     7.164136

                             ****ORCA TERMINATED NORMALLY****
TOTAL RUN TIME: 0 days 0 hours 6 minutes 16 seconds 142 msec
