                         Program Version 4.2.0 -  RELEASE  -
|  1> # ORCA input file
|  2> # SCF done       -155.053885587665          0.000946658005
|  3> ! CAM-B3LYP def2-SVP def2/J RIJCOSX Grid4 TightSCF
|  4> %maxcore 5000
|  5> %tddft
|  6>     Mode sTDDFT
|  7>     Ethresh 5.0
|  8>     maxcore 5000
|  9> end
| 10>
| 11> %pal
| 12>   nprocs 6
| 13>   end
| 14> * xyz 0 1
| 15>    C        4.89096         2.34298         4.39786
| 16>    C        4.91429         3.36870         5.29175
| 17>    S        4.26452         4.81143         4.60395
| 18>    C        3.94910         4.02156         3.07716
| 19>   Cl        3.25574         4.85366         1.77657
| 20>    C        4.33857         2.71553         3.12924
| 21>    C        4.34829         1.56248         2.23007
| 22>    O        3.96044         1.51120         1.08054
| 23>    C        4.93253         0.45462         3.02326
| 24>    C        5.27367         0.94562         4.35411
| 25>    C        5.84815         0.26607         5.39388
| 26>    C        6.10993         0.90216         6.62730
| 27>    N        6.32541         1.40307         7.63618
| 28>    C        6.24501        -1.08623         5.38768
| 29>    N        6.59090        -2.17935         5.45053
| 30>    C        5.11459        -0.82419         2.58775
| 31>    C        4.82661        -1.41806         1.33684
| 32>    S        4.13021        -0.65901        -0.06337
| 33>    C        4.19259        -2.13534        -0.94356
| 34>    C        3.56784        -2.19598        -2.25440
| 35>    O        3.26541        -3.20413        -2.84284
| 36>    C        4.75314        -3.17643        -0.19811
| 37>    C        5.09220        -2.76083         1.08949
| 38>    C        4.99597        -4.50270        -0.71038
| 39>    S        4.71621        -5.91842         0.25628
| 40>    C        5.20908        -7.00742        -1.02290
| 41>    C        5.58076        -6.27194        -2.13557
| 42>    C        5.46453        -4.86984        -1.94536
| 43>    C        5.96573        -4.13581        -3.11251
| 44>    O        6.15992        -2.95097        -3.21610
| 45>    C        6.25429        -5.19521        -4.16101
| 46>    C        6.09547        -6.54638        -3.48078
| 47>    O        6.35881        -7.61261        -3.98274
| 48>    C        5.15582        -8.40419        -0.75868
| 49>    C        5.43345        -9.36841        -1.66443
| 50>    C        5.35908       -10.76536        -1.39133
| 51>    S        5.50581       -11.89250        -2.69507
| 52>    C        5.26469       -13.24056        -1.63507
| 53>    C        5.34182       -14.56629        -2.19055
| 54>    O        5.14502       -15.60779        -1.60174
| 55>    C        5.10625       -12.81721        -0.31090
| 56>    C        5.18577       -11.42278        -0.18954
| 57>    C        4.95132       -13.67969         0.83878
| 58>    C        4.17517       -14.76953         0.97420
| 59>    C        4.43165       -15.72493         2.10510
| 60>    O        5.07293       -15.49873         3.10067
| 61>    C        3.77882       -16.96449         1.67520
| 62>    C        3.69428       -18.25406         2.11019
| 63>    S        2.72143       -19.20651         1.01505
| 64>    C        2.42897       -17.85165        -0.01113
| 65>    C        3.05189       -16.73839         0.45838
| 66>    C        3.17238       -15.34592         0.08513
| 67>    C        2.35344       -14.68602        -0.78594
| 68>    C        1.38537       -15.37322        -1.54887
| 69>    N        0.59519       -15.91723        -2.17718
| 70>    C        2.34314       -13.28951        -0.96704
| 71>    N        2.26685       -12.15419        -1.11979
| 72>   Cl        4.39167       -18.93851         3.49307
| 73>    H        5.26658         3.38204         6.30410
| 74>    H        5.54755        -1.52425         3.29287
| 75>    H        3.33659        -1.19597        -2.66428
| 76>    H        5.53454        -3.41078         1.82496
| 77>    H        7.24150        -5.07672        -4.61091
| 78>    H        5.52531        -5.10721        -4.97117
| 79>    H        4.84649        -8.67111         0.24268
| 80>    H        5.71371        -9.09187        -2.67155
| 81>    H        5.60757       -14.56428        -3.26448
| 82>    H        5.09031       -10.91775         0.75440
| 83>    H        5.57442       -13.43220         1.69319
| 84>    H        1.83464       -17.97504        -0.89458
| 85> *
| 86>
| 87>                          ****END OF INPUT****

CARTESIAN COORDINATES (ANGSTROEM)
---------------------------------
  C      4.890960    2.342980    4.397860
  C      4.914290    3.368700    5.291750
  S      4.264520    4.811430    4.603950
  C      3.949100    4.021560    3.077160
  Cl     3.255740    4.853660    1.776570
  C      4.338570    2.715530    3.129240
  C      4.348290    1.562480    2.230070
  O      3.960440    1.511200    1.080540
  C      4.932530    0.454620    3.023260
  C      5.273670    0.945620    4.354110
  C      5.848150    0.266070    5.393880
  C      6.109930    0.902160    6.627300
  N      6.325410    1.403070    7.636180
  C      6.245010   -1.086230    5.387680
  N      6.590900   -2.179350    5.450530
  C      5.114590   -0.824190    2.587750
  C      4.826610   -1.418060    1.336840
  S      4.130210   -0.659010   -0.063370
  C      4.192590   -2.135340   -0.943560
  C      3.567840   -2.195980   -2.254400
  O      3.265410   -3.204130   -2.842840
  C      4.753140   -3.176430   -0.198110
  C      5.092200   -2.760830    1.089490
  C      4.995970   -4.502700   -0.710380
  S      4.716210   -5.918420    0.256280
  C      5.209080   -7.007420   -1.022900
  C      5.580760   -6.271940   -2.135570
  C      5.464530   -4.869840   -1.945360
  C      5.965730   -4.135810   -3.112510
  O      6.159920   -2.950970   -3.216100
  C      6.254290   -5.195210   -4.161010
  C      6.095470   -6.546380   -3.480780
  O      6.358810   -7.612610   -3.982740
  C      5.155820   -8.404190   -0.758680
  C      5.433450   -9.368410   -1.664430
  C      5.359080  -10.765360   -1.391330
  S      5.505810  -11.892500   -2.695070
  C      5.264690  -13.240560   -1.635070
  C      5.341820  -14.566290   -2.190550
  O      5.145020  -15.607790   -1.601740
  C      5.106250  -12.817210   -0.310900
  C      5.185770  -11.422780   -0.189540
  C      4.951320  -13.679690    0.838780
  C      4.175170  -14.769530    0.974200
  C      4.431650  -15.724930    2.105100
  O      5.072930  -15.498730    3.100670
  C      3.778820  -16.964490    1.675200
  C      3.694280  -18.254060    2.110190
  S      2.721430  -19.206510    1.015050
  C      2.428970  -17.851650   -0.011130
  C      3.051890  -16.738390    0.458380
  C      3.172380  -15.345920    0.085130
  C      2.353440  -14.686020   -0.785940
  C      1.385370  -15.373220   -1.548870
  N      0.595190  -15.917230   -2.177180
  C      2.343140  -13.289510   -0.967040
  N      2.266850  -12.154190   -1.119790
  Cl     4.391670  -18.938510    3.493070
  H      5.266580    3.382040    6.304100
  H      5.547550   -1.524250    3.292870
  H      3.336590   -1.195970   -2.664280
  H      5.534540   -3.410780    1.824960
  H      7.241500   -5.076720   -4.610910
  H      5.525310   -5.107210   -4.971170
  H      4.846490   -8.671110    0.242680
  H      5.713710   -9.091870   -2.671550
  H      5.607570  -14.564280   -3.264480
  H      5.090310  -10.917750    0.754400
  H      5.574420  -13.432200    1.693190
  H      1.834640  -17.975040   -0.894580

 Total Charge           Charge          ....    0
 Multiplicity           Mult            ....    1
 Number of Electrons    NEL             ....  448
 Basis Dimension        Dim             ....  900

ORBITAL ENERGIES
----------------

  NO   OCC          E(Eh)            E(eV)
   0   2.0000    -101.626332     -2765.3931
   1   2.0000    -101.613774     -2765.0514
   2   2.0000     -89.002853     -2421.8908
   3   2.0000     -88.989535     -2421.5284
   4   2.0000     -88.989032     -2421.5147
   5   2.0000     -88.987488     -2421.4727
   6   2.0000     -88.978624     -2421.2315
   7   2.0000     -19.238627      -523.5097
   8   2.0000     -19.223566      -523.0998
   9   2.0000     -19.222188      -523.0623
  10   2.0000     -19.220918      -523.0278
  11   2.0000     -19.218271      -522.9557
  12   2.0000     -19.217572      -522.9367
  13   2.0000     -14.432942      -392.7403
  14   2.0000     -14.428553      -392.6209
  15   2.0000     -14.416541      -392.2940
  16   2.0000     -14.415028      -392.2529
  17   2.0000     -10.392335      -282.7898
  18   2.0000     -10.386258      -282.6244
  19   2.0000     -10.375931      -282.3434
  20   2.0000     -10.374158      -282.2952
  21   2.0000     -10.372934      -282.2619
  22   2.0000     -10.372252      -282.2433
  23   2.0000     -10.371341      -282.2185
  24   2.0000     -10.369889      -282.1790
  25   2.0000     -10.360072      -281.9119
  26   2.0000     -10.358441      -281.8675
  27   2.0000     -10.345556      -281.5169
  28   2.0000     -10.343213      -281.4531
  29   2.0000     -10.341920      -281.4180
  30   2.0000     -10.338963      -281.3375
  31   2.0000     -10.337886      -281.3082
  32   2.0000     -10.337652      -281.3018
  33   2.0000     -10.334977      -281.2290
  34   2.0000     -10.334033      -281.2033
  35   2.0000     -10.330552      -281.1086
  36   2.0000     -10.327117      -281.0151
  37   2.0000     -10.324124      -280.9337
  38   2.0000     -10.322326      -280.8848
  39   2.0000     -10.320339      -280.8307
  40   2.0000     -10.320247      -280.8282
  41   2.0000     -10.318883      -280.7911
  42   2.0000     -10.318400      -280.7779
  43   2.0000     -10.317767      -280.7607
  44   2.0000     -10.316930      -280.7379
  45   2.0000     -10.314952      -280.6841
  46   2.0000     -10.313743      -280.6512
  47   2.0000     -10.313176      -280.6358
  48   2.0000     -10.310166      -280.5539
  49   2.0000     -10.307802      -280.4896
  50   2.0000     -10.304939      -280.4117
  51   2.0000     -10.304798      -280.4078
  52   2.0000     -10.298376      -280.2330
  53   2.0000     -10.296741      -280.1886
  54   2.0000     -10.295631      -280.1584
  55   2.0000     -10.294429      -280.1256
  56   2.0000     -10.293708      -280.1060
  57   2.0000     -10.283798      -279.8364
  58   2.0000      -9.581139      -260.7161
  59   2.0000      -9.568610      -260.3751
  60   2.0000      -8.098513      -220.3717
  61   2.0000      -8.085242      -220.0106
  62   2.0000      -8.082948      -219.9482
  63   2.0000      -8.082445      -219.9345
  64   2.0000      -8.074235      -219.7111
  65   2.0000      -7.351791      -200.0524
  66   2.0000      -7.341164      -199.7632
  67   2.0000      -7.340612      -199.7482
  68   2.0000      -7.339231      -199.7106
  69   2.0000      -7.328639      -199.4224
  70   2.0000      -7.328119      -199.4083
  71   2.0000      -6.067897      -165.1159
  72   2.0000      -6.063260      -164.9897
  73   2.0000      -6.060793      -164.9226
  74   2.0000      -6.054588      -164.7537
  75   2.0000      -6.052022      -164.6839
  76   2.0000      -6.051544      -164.6709
  77   2.0000      -6.050017      -164.6293
  78   2.0000      -6.047830      -164.5698
  79   2.0000      -6.047540      -164.5619
  80   2.0000      -6.047014      -164.5476
  81   2.0000      -6.045488      -164.5061
  82   2.0000      -6.045290      -164.5007
  83   2.0000      -6.043184      -164.4434
  84   2.0000      -6.039167      -164.3341
  85   2.0000      -6.036862      -164.2714
  86   2.0000      -1.156093       -31.4589
  87   2.0000      -1.141193       -31.0534
  88   2.0000      -1.138224       -30.9726
  89   2.0000      -1.135416       -30.8963
  90   2.0000      -1.133135       -30.8342
  91   2.0000      -1.130955       -30.7749
  92   2.0000      -1.048434       -28.5293
  93   2.0000      -1.034093       -28.1391
  94   2.0000      -1.028445       -27.9854
  95   2.0000      -1.023554       -27.8523
  96   2.0000      -1.015032       -27.6204
  97   2.0000      -1.009389       -27.4669
  98   2.0000      -1.009096       -27.4589
  99   2.0000      -1.006123       -27.3780
 100   2.0000      -0.998156       -27.1612
 101   2.0000      -0.993664       -27.0390
 102   2.0000      -0.984156       -26.7803
 103   2.0000      -0.964878       -26.2557
 104   2.0000      -0.950932       -25.8762
 105   2.0000      -0.932048       -25.3623
 106   2.0000      -0.927633       -25.2422
 107   2.0000      -0.919602       -25.0236
 108   2.0000      -0.910566       -24.7778
 109   2.0000      -0.905648       -24.6439
 110   2.0000      -0.895135       -24.3579
 111   2.0000      -0.881979       -23.9999
 112   2.0000      -0.862288       -23.4640
 113   2.0000      -0.851350       -23.1664
 114   2.0000      -0.842727       -22.9318
 115   2.0000      -0.841488       -22.8981
 116   2.0000      -0.828505       -22.5448
 117   2.0000      -0.827581       -22.5196
 118   2.0000      -0.812573       -22.1112
 119   2.0000      -0.796617       -21.6770
 120   2.0000      -0.779520       -21.2118
 121   2.0000      -0.767626       -20.8882
 122   2.0000      -0.755919       -20.5696
 123   2.0000      -0.750743       -20.4287
 124   2.0000      -0.748350       -20.3636
 125   2.0000      -0.723166       -19.6784
 126   2.0000      -0.717405       -19.5216
 127   2.0000      -0.702362       -19.1122
 128   2.0000      -0.699743       -19.0410
 129   2.0000      -0.694453       -18.8970
 130   2.0000      -0.688675       -18.7398
 131   2.0000      -0.686596       -18.6832
 132   2.0000      -0.673317       -18.3219
 133   2.0000      -0.671832       -18.2815
 134   2.0000      -0.660491       -17.9729
 135   2.0000      -0.653147       -17.7730
 136   2.0000      -0.645599       -17.5676
 137   2.0000      -0.627765       -17.0823
 138   2.0000      -0.621503       -16.9119
 139   2.0000      -0.617397       -16.8002
 140   2.0000      -0.614370       -16.7179
 141   2.0000      -0.609543       -16.5865
 142   2.0000      -0.608567       -16.5600
 143   2.0000      -0.597996       -16.2723
 144   2.0000      -0.594752       -16.1840
 145   2.0000      -0.581678       -15.8283
 146   2.0000      -0.570534       -15.5250
 147   2.0000      -0.568569       -15.4715
 148   2.0000      -0.565946       -15.4002
 149   2.0000      -0.565572       -15.3900
 150   2.0000      -0.563036       -15.3210
 151   2.0000      -0.560413       -15.2496
 152   2.0000      -0.554157       -15.0794
 153   2.0000      -0.553389       -15.0585
 154   2.0000      -0.544901       -14.8275
 155   2.0000      -0.538521       -14.6539
 156   2.0000      -0.534445       -14.5430
 157   2.0000      -0.533491       -14.5170
 158   2.0000      -0.531935       -14.4747
 159   2.0000      -0.529819       -14.4171
 160   2.0000      -0.525002       -14.2860
 161   2.0000      -0.524509       -14.2726
 162   2.0000      -0.520888       -14.1741
 163   2.0000      -0.518949       -14.1213
 164   2.0000      -0.518718       -14.1150
 165   2.0000      -0.516353       -14.0507
 166   2.0000      -0.514054       -13.9881
 167   2.0000      -0.513614       -13.9762
 168   2.0000      -0.509467       -13.8633
 169   2.0000      -0.507589       -13.8122
 170   2.0000      -0.502932       -13.6855
 171   2.0000      -0.501805       -13.6548
 172   2.0000      -0.498920       -13.5763
 173   2.0000      -0.496154       -13.5010
 174   2.0000      -0.491808       -13.3828
 175   2.0000      -0.489862       -13.3298
 176   2.0000      -0.485229       -13.2038
 177   2.0000      -0.480974       -13.0880
 178   2.0000      -0.479282       -13.0419
 179   2.0000      -0.472288       -12.8516
 180   2.0000      -0.471207       -12.8222
 181   2.0000      -0.466640       -12.6979
 182   2.0000      -0.464983       -12.6528
 183   2.0000      -0.463204       -12.6044
 184   2.0000      -0.461126       -12.5479
 185   2.0000      -0.456651       -12.4261
 186   2.0000      -0.454999       -12.3812
 187   2.0000      -0.452331       -12.3086
 188   2.0000      -0.450279       -12.2527
 189   2.0000      -0.450149       -12.2492
 190   2.0000      -0.447724       -12.1832
 191   2.0000      -0.443199       -12.0601
 192   2.0000      -0.441983       -12.0270
 193   2.0000      -0.438390       -11.9292
 194   2.0000      -0.436777       -11.8853
 195   2.0000      -0.434832       -11.8324
 196   2.0000      -0.432714       -11.7747
 197   2.0000      -0.430358       -11.7106
 198   2.0000      -0.427429       -11.6309
 199   2.0000      -0.426010       -11.5923
 200   2.0000      -0.424356       -11.5473
 201   2.0000      -0.420673       -11.4471
 202   2.0000      -0.411685       -11.2025
 203   2.0000      -0.409089       -11.1319
 204   2.0000      -0.402283       -10.9467
 205   2.0000      -0.399606       -10.8738
 206   2.0000      -0.386409       -10.5147
 207   2.0000      -0.368648       -10.0314
 208   2.0000      -0.363142        -9.8816
 209   2.0000      -0.356507        -9.7010
 210   2.0000      -0.352933        -9.6038
 211   2.0000      -0.349659        -9.5147
 212   2.0000      -0.348361        -9.4794
 213   2.0000      -0.346790        -9.4366
 214   2.0000      -0.339958        -9.2507
 215   2.0000      -0.338262        -9.2046
 216   2.0000      -0.332514        -9.0482
 217   2.0000      -0.330107        -8.9827
 218   2.0000      -0.328724        -8.9450
 219   2.0000      -0.324497        -8.8300
 220   2.0000      -0.319052        -8.6818
 221   2.0000      -0.304758        -8.2929
 222   2.0000      -0.303004        -8.2452
 223   2.0000      -0.272275        -7.4090
 224   0.0000      -0.110980        -3.0199
 225   0.0000      -0.094131        -2.5614
 226   0.0000      -0.077505        -2.1090
 227   0.0000      -0.065385        -1.7792
 228   0.0000      -0.055614        -1.5133

MULLIKEN ATOMIC CHARGES
-----------------------
   0 C :    0.024041
   1 C :   -0.125004
   2 S :    0.193628
   3 C :   -0.169773
   4 Cl:    0.005230
   5 C :    0.079940
   6 C :    0.170714
   7 O :   -0.158367
   8 C :   -0.098944
   9 C :    0.309570
  10 C :   -0.334670
  11 C :   -0.193364
  12 N :    0.159833
  13 C :   -0.179264
  14 N :    0.153399
  15 C :   -0.013391
  16 C :   -0.060500
  17 S :    0.235124
  18 C :   -0.164389
  19 C :    0.206853
  20 O :   -0.183643
  21 C :    0.149748
  22 C :   -0.035125
  23 C :   -0.182165
  24 S :    0.185663
  25 C :   -0.133339
  26 C :   -0.003267
  27 C :    0.089132
  28 C :    0.029299
  29 O :   -0.155868
  30 C :    0.063780
  31 C :    0.038169
  32 O :   -0.156045
  33 C :    0.056633
  34 C :    0.074653
  35 C :   -0.060132
  36 S :    0.189990
  37 C :   -0.191072
  38 C :    0.205712
  39 O :   -0.201588
  40 C :    0.083944
  41 C :   -0.000916
  42 C :   -0.003124
  43 C :   -0.103396
  44 C :    0.131118
  45 O :   -0.125638
  46 C :    0.094638
  47 C :   -0.174359
  48 S :    0.184593
  49 C :   -0.120238
  50 C :    0.019942
  51 C :    0.310949
  52 C :   -0.326995
  53 C :   -0.191434
  54 N :    0.161099
  55 C :   -0.198540
  56 N :    0.174588
  57 Cl:   -0.002010
  58 H :    0.056196
  59 H :    0.013046
  60 H :   -0.007504
  61 H :    0.009420
  62 H :    0.059189
  63 H :    0.080530
  64 H :   -0.016332
  65 H :    0.005947
  66 H :   -0.009961
  67 H :   -0.010688
  68 H :    0.031878
  69 H :    0.052858
Sum of atomic charges:    0.0000000

LOEWDIN ATOMIC CHARGES
----------------------
   0 C :   -0.059382
   1 C :   -0.145869
   2 S :    0.481828
   3 C :   -0.270431
   4 Cl:    0.196835
   5 C :   -0.117741
   6 C :    0.083165
   7 O :   -0.151786
   8 C :   -0.092402
   9 C :    0.075764
  10 C :   -0.134690
  11 C :   -0.015373
  12 N :   -0.046825
  13 C :   -0.022386
  14 N :   -0.045059
  15 C :    0.060377
  16 C :   -0.178989
  17 S :    0.556258
  18 C :   -0.207370
  19 C :    0.099211
  20 O :   -0.128958
  21 C :   -0.056872
  22 C :   -0.013509
  23 C :   -0.142663
  24 S :    0.482942
  25 C :   -0.128015
  26 C :   -0.093878
  27 C :   -0.078748
  28 C :    0.085325
  29 O :   -0.134029
  30 C :   -0.065213
  31 C :    0.086064
  32 O :   -0.134434
  33 C :   -0.035537
  34 C :   -0.009880
  35 C :   -0.140818
  36 S :    0.500540
  37 C :   -0.233478
  38 C :    0.085263
  39 O :   -0.144794
  40 C :   -0.030842
  41 C :   -0.031711
  42 C :    0.060376
  43 C :   -0.057274
  44 C :    0.084869
  45 O :   -0.129421
  46 C :   -0.115120
  47 C :   -0.272979
  48 S :    0.477197
  49 C :   -0.147598
  50 C :   -0.048187
  51 C :    0.082438
  52 C :   -0.131743
  53 C :   -0.015495
  54 N :   -0.050024
  55 C :   -0.020860
  56 N :   -0.049894
  57 Cl:    0.190706
  58 H :    0.038912
  59 H :    0.052873
  60 H :   -0.000025
  61 H :    0.037429
  62 H :    0.058395
  63 H :    0.070788
  64 H :    0.029127
  65 H :    0.032357
  66 H :   -0.000507
  67 H :    0.032977
  68 H :    0.050443
  69 H :    0.038346

  Mayer bond orders larger than 0.100000
B(  0-C ,  1-C ) :   1.5461 B(  0-C ,  5-C ) :   1.2264 B(  0-C ,  9-C ) :   0.9968
B(  1-C ,  2-S ) :   1.1645 B(  1-C , 58-H ) :   0.9531 B(  2-S ,  3-C ) :   1.1531
B(  3-C ,  4-Cl) :   1.1341 B(  3-C ,  5-C ) :   1.4667 B(  5-C ,  6-C ) :   0.9712
B(  6-C ,  7-O ) :   2.1557 B(  6-C ,  8-C ) :   0.9580 B(  8-C ,  9-C ) :   1.0682
B(  8-C , 15-C ) :   1.5786 B(  9-C , 10-C ) :   1.6520 B( 10-C , 11-C ) :   1.1478
B( 10-C , 13-C ) :   1.1392 B( 11-C , 12-N ) :   2.9904 B( 13-C , 14-N ) :   2.9595
B( 15-C , 16-C ) :   1.2065 B( 15-C , 59-H ) :   0.9390 B( 16-C , 17-S ) :   1.1382
B( 16-C , 22-C ) :   1.3746 B( 17-S , 18-C ) :   1.1397 B( 18-C , 19-C ) :   0.9876
B( 18-C , 21-C ) :   1.4249 B( 19-C , 20-O ) :   2.1416 B( 19-C , 60-H ) :   0.9486
B( 21-C , 22-C ) :   1.3170 B( 21-C , 23-C ) :   1.0200 B( 22-C , 61-H ) :   1.0078
B( 23-C , 24-S ) :   1.1589 B( 23-C , 27-C ) :   1.5459 B( 24-S , 25-C ) :   1.1465
B( 25-C , 26-C ) :   1.4620 B( 25-C , 33-C ) :   1.1445 B( 26-C , 27-C ) :   1.2124
B( 26-C , 31-C ) :   0.9481 B( 27-C , 28-C ) :   0.9269 B( 28-C , 29-O ) :   2.2127
B( 28-C , 30-C ) :   0.9930 B( 30-C , 31-C ) :   1.0031 B( 30-C , 62-H ) :   0.9008
B( 30-C , 63-H ) :   0.8912 B( 31-C , 32-O ) :   2.1418 B( 32-O , 65-H ) :   0.1118
B( 33-C , 34-C ) :   1.7129 B( 33-C , 64-H ) :   0.9507 B( 34-C , 35-C ) :   1.1064
B( 34-C , 65-H ) :   0.9300 B( 35-C , 36-S ) :   1.1736 B( 35-C , 41-C ) :   1.4492
B( 36-S , 37-C ) :   1.1172 B( 37-C , 38-C ) :   1.0431 B( 37-C , 40-C ) :   1.4221
B( 38-C , 39-O ) :   2.0825 B( 38-C , 66-H ) :   0.9549 B( 40-C , 41-C ) :   1.3068
B( 40-C , 42-C ) :   1.0050 B( 41-C , 67-H ) :   0.9998 B( 42-C , 43-C ) :   1.8119
B( 42-C , 68-H ) :   0.9415 B( 43-C , 44-C ) :   0.9288 B( 43-C , 51-C ) :   0.9844
B( 44-C , 45-O ) :   2.2863 B( 44-C , 46-C ) :   0.9257 B( 46-C , 47-C ) :   1.4764
B( 46-C , 50-C ) :   1.2252 B( 47-C , 48-S ) :   1.1564 B( 47-C , 57-Cl) :   1.1265
B( 48-S , 49-C ) :   1.1576 B( 49-C , 50-C ) :   1.5534 B( 49-C , 69-H ) :   0.9557
B( 50-C , 51-C ) :   1.0191 B( 51-C , 52-C ) :   1.6926 B( 52-C , 53-C ) :   1.1318
B( 52-C , 55-C ) :   1.1638 B( 53-C , 54-N ) :   3.0089 B( 55-C , 56-N ) :   3.0121

-----------------------------------------------------------------------------
         ABSORPTION SPECTRUM VIA TRANSITION ELECTRIC DIPOLE MOMENTS
-----------------------------------------------------------------------------
State   Energy  Wavelength   fosc         T2         TX        TY        TZ
        (cm-1)    (nm)                  (au**2)     (au)      (au)      (au)
-----------------------------------------------------------------------------
   0   21169.2    472.4   0.048687353   0.75716  -0.34149   0.18895  -0.77772
   1   22778.5    439.0   0.364198720   5.26367  -0.14643   2.13657   0.82299
   2   24675.2    405.3   1.448321217  19.32321   0.44744   4.03882   1.67658
   3   26414.1    378.6   0.185819747   2.31596  -0.08233  -0.86186   1.25155
   4   26661.5    375.1   0.251378407   3.10398  -0.28407   0.99122  -1.42855
   5   26970.1    370.8   0.070562657   0.86133  -0.18614  -0.90913   0.01245
   6   27696.0    361.1   0.087673403   1.04214   0.80177  -0.61163   0.15881
   7   28701.8    348.4   0.085751665   0.98358  -0.12992  -0.92762   0.32592
   8   28964.3    345.3   0.020132186   0.22882  -0.02629   0.40982   0.24531
   9   29474.8    339.3   0.079042976   0.88285  -0.23234   0.19462   0.88938
  10   29624.3    337.6   0.077974029   0.86652  -0.00324  -0.37270  -0.85299
  11   30450.0    328.4   0.027487615   0.29718   0.53074  -0.01458   0.12365
  12   30748.9    325.2   0.090044014   0.96405   0.72745   0.65052  -0.10810
  13   31055.6    322.0   0.016360065   0.17343   0.20870   0.28641   0.21873
  14   31950.9    313.0   0.053039807   0.54651  -0.18801   0.69457   0.16949
  15   32415.4    308.5   0.020337109   0.20654   0.20120  -0.30857   0.26617
  16   33005.7    303.0   0.029791247   0.29715  -0.10416  -0.51047   0.16036
  17   33405.5    299.4   0.088345583   0.87065  -0.23715  -0.86389  -0.26095
  18   34048.2    293.7   0.163104655   1.57706  -0.37675   1.19757  -0.03092
  19   34324.0    291.3   0.024181418   0.23193   0.03933   0.45604   0.14970
  20   34548.9    289.4   0.035157155   0.33501   0.06400   0.22807  -0.52811
  21   34827.9    287.1   0.006562242   0.06203   0.11854  -0.15926  -0.15039
  22   35212.0    284.0   0.012319800   0.11518  -0.22610  -0.07977   0.24021
  23   35421.3    282.3   0.047465711   0.44115  -0.27298   0.60535   0.01362
  24   35558.7    281.2   0.057441465   0.53181   0.35561  -0.49268  -0.40325
  25   35722.7    279.9   0.261458304   2.40954  -0.15388   1.40643  -0.63860
  26   35936.7    278.3   0.037760052   0.34592  -0.06499  -0.33343   0.48012
  27   35986.4    277.9   0.087722433   0.80250   0.42403  -0.78032   0.11750
  28   36267.4    275.7   0.065940917   0.59857  -0.18417   0.41745  -0.62481
  29   36949.6    270.6   0.056827561   0.50632   0.22214   0.54361  -0.40183
  30   37511.2    266.6   0.012269419   0.10768  -0.13016  -0.11156   0.27981
  31   37658.8    265.5   0.020071997   0.17547  -0.16183   0.35911   0.14255
  32   37772.3    264.7   0.328721961   2.86504  -0.76741   1.37802  -0.61416
  33   37975.1    263.3   0.091530954   0.79350   0.28769  -0.82631   0.16718
  34   38213.2    261.7   0.021896578   0.18864  -0.18518   0.20218  -0.33685
  35   38496.2    259.8   0.451096282   3.85768  -0.56858   1.38892  -1.26701
  36   38904.4    257.0   0.012900791   0.10917  -0.03378   0.17546  -0.27792
  37   39040.0    256.1   0.138481183   1.16777  -0.13296   1.04565  -0.23812
  38   39153.6    255.4   0.031665347   0.26625  -0.00877   0.43001   0.28506
  39   39737.4    251.7   0.088647184   0.73441   0.34112  -0.40612   0.67314
  40   39927.4    250.5   0.008070673   0.06654  -0.04193   0.14104   0.21188
  41   40325.7    248.0   0.042501424   0.34697   0.18034   0.14606  -0.54140

FINAL SINGLE POINT ENERGY     -5147.469641404715

DIPOLE MOMENT
-------------
                                X             Y             Z
Electronic contribution:     -8.20152       5.28260      17.99086
Nuclear contribution   :      8.45163      -3.39798     -17.61841
                        -----------------------------------------
Total Dipole Moment    :      0.25010       1.88461       0.37245
                        -----------------------------------------
Magnitude (a.u.)       :      1.93728
Magnitude (Debye)      :      4.92417

Rotational constants in cm-1:     0.002319     0.000310     0.000285
Rotational constants in MHz :    69.536519     9.297323     8.554791

                             ****ORCA TERMINATED NORMALLY****
TOTAL RUN TIME: 0 days 0 hours 5 minutes 48 seconds 523 msec
