                         Program Version 4.2.0 -  RELEASE  -
|  1> # ORCA input file
|  2> # SCF done       -179.826073740864          0.000549272456
|  3> ! CAM-B3LYP def2-SVP def2/J RIJCOSX Grid4 TightSCF
|  4> %maxcore 5000
|  5> %tddft
|  6>     Mode sTDDFT
|  7>     Ethresh 5.0
|  8>     maxcore 5000
|  9> end
| 10>
| 11> %pal
| 12>   nprocs 6
| 13>   end
| 14> * xyz 0 1
| 15>    C        1.00512         2.46645         0.41224
| 16>    C        0.25236         3.59254         0.54085
| 17>    S        0.06779         4.03445         2.19860
| 18>    C        1.02587         2.67531         2.73693
| 19>   Cl        1.32678         2.39964         4.37975
| 20>    C        1.44886         1.94040         1.66896
| 21>    C        2.25179         0.73891         1.44364
| 22>    O        2.80182         0.04565         2.27551
| 23>    C        2.25177         0.53982        -0.02452
| 24>    C        1.50499         1.62211        -0.65503
| 25>    C        1.29977         1.85493        -1.98827
| 26>    C        0.54594         2.96453        -2.42895
| 27>    N       -0.06521         3.85987        -2.80329
| 28>    C        1.79165         1.07427        -3.05329
| 29>    N        2.16725         0.48386        -3.96383
| 30>    C        2.81659        -0.51253        -0.68385
| 31>    C        3.54554        -1.61836        -0.19082
| 32>    S        4.01864        -1.92289         1.45540
| 33>    C        4.79994        -3.38040         0.99682
| 34>    C        5.56093        -4.12954         1.98905
| 35>    O        6.47973        -4.86828         1.74187
| 36>    C        4.69015        -3.64571        -0.37164
| 37>    C        3.98536        -2.63838        -1.03011
| 38>    C        5.12776        -4.90708        -0.93149
| 39>    N        5.77105        -5.09792        -2.12353
| 40>    C        6.31535        -4.07989        -2.98938
| 41>    C        7.43146        -3.29519        -2.30746
| 42>    C        6.03639        -6.46971        -2.34727
| 43>    O        6.61713        -6.88011        -3.33257
| 44>    C        5.46413        -7.14043        -1.20438
| 45>    C        4.91340        -6.13912        -0.35610
| 46>    C        4.34723        -6.78263         0.80483
| 47>    O        3.77634        -6.34133         1.78111
| 48>    N        4.60421        -8.14818         0.59214
| 49>    C        4.15943        -9.14348         1.53611
| 50>    C        2.90336        -9.86535         1.05319
| 51>    C        5.27204        -8.37274        -0.59274
| 52>    C        5.69122        -9.66273        -1.02312
| 53>    C        6.32049        -9.86162        -2.20323
| 54>    C        6.80019       -11.12418        -2.70244
| 55>    C        7.33342       -11.17353        -3.99647
| 56>    C        7.81114       -12.35623        -4.52311
| 57>    N        8.46277       -12.28273        -5.81062
| 58>    O        7.93389       -11.60721        -6.66418
| 59>    O        9.51493       -12.87125        -5.93767
| 60>    C        7.76112       -13.56169        -3.80197
| 61>    C        7.26610       -13.49064        -2.49363
| 62>    C        6.79692       -12.31381        -1.95894
| 63>    C        8.10777       -14.85138        -4.34995
| 64>    C        7.90095       -15.23262        -5.62761
| 65>    C        8.20734       -16.53771        -6.09692
| 66>    C        7.83343       -17.08338        -7.28321
| 67>    C        8.54097       -18.30199        -7.79056
| 68>    O        9.25499       -19.03529        -7.15133
| 69>    C        8.19794       -18.35128        -9.21692
| 70>    C        8.53790       -19.09920       -10.30408
| 71>    S        7.69615       -18.53027       -11.72683
| 72>    C        6.88579       -17.29610       -10.83273
| 73>    C        7.24966       -17.31924        -9.52316
| 74>    C        6.91337       -16.60963        -8.30247
| 75>    C        5.80880       -15.81509        -8.14586
| 76>    C        4.98205       -15.49009        -9.24306
| 77>    N        4.30768       -15.21354       -10.12856
| 78>    C        5.31356       -15.34352        -6.91334
| 79>    N        4.84211       -14.97750        -5.93262
| 80>   Cl        9.60792       -20.40993       -10.37839
| 81>    H       -0.20872         4.19406        -0.21723
| 82>    H        2.69046        -0.53811        -1.76008
| 83>    H        5.25025        -3.91348         3.02655
| 84>    H        3.75624        -2.64820        -2.08116
| 85>    H        5.52145        -3.40558        -3.32140
| 86>    H        6.70849        -4.61312        -3.85976
| 87>    H        7.05532        -2.76454        -1.43539
| 88>    H        7.84982        -2.57253        -3.00240
| 89>    H        8.22123        -3.96992        -1.98650
| 90>    H        3.93867        -8.60094         2.45972
| 91>    H        4.96787        -9.85350         1.73321
| 92>    H        2.09705        -9.14996         0.91198
| 93>    H        2.59160       -10.59748         1.79300
| 94>    H        3.08154       -10.37431         0.10829
| 95>    H        5.48896       -10.48918        -0.35817
| 96>    H        6.48523        -9.00991        -2.84976
| 97>    H        7.39054       -10.27238        -4.58991
| 98>    H        7.22794       -14.39684        -1.90807
| 99>    H        6.42463       -12.31456        -0.94685
|100>    H        8.45333       -15.58831        -3.63635
|101>    H        7.48027       -14.53882        -6.34099
|102>    H        8.86648       -17.14520        -5.48637
|103>    H        6.20919       -16.63684       -11.33931
|104> *
|105>
|106>                          ****END OF INPUT****

CARTESIAN COORDINATES (ANGSTROEM)
---------------------------------
  C      1.005120    2.466450    0.412240
  C      0.252360    3.592540    0.540850
  S      0.067790    4.034450    2.198600
  C      1.025870    2.675310    2.736930
  Cl     1.326780    2.399640    4.379750
  C      1.448860    1.940400    1.668960
  C      2.251790    0.738910    1.443640
  O      2.801820    0.045650    2.275510
  C      2.251770    0.539820   -0.024520
  C      1.504990    1.622110   -0.655030
  C      1.299770    1.854930   -1.988270
  C      0.545940    2.964530   -2.428950
  N     -0.065210    3.859870   -2.803290
  C      1.791650    1.074270   -3.053290
  N      2.167250    0.483860   -3.963830
  C      2.816590   -0.512530   -0.683850
  C      3.545540   -1.618360   -0.190820
  S      4.018640   -1.922890    1.455400
  C      4.799940   -3.380400    0.996820
  C      5.560930   -4.129540    1.989050
  O      6.479730   -4.868280    1.741870
  C      4.690150   -3.645710   -0.371640
  C      3.985360   -2.638380   -1.030110
  C      5.127760   -4.907080   -0.931490
  N      5.771050   -5.097920   -2.123530
  C      6.315350   -4.079890   -2.989380
  C      7.431460   -3.295190   -2.307460
  C      6.036390   -6.469710   -2.347270
  O      6.617130   -6.880110   -3.332570
  C      5.464130   -7.140430   -1.204380
  C      4.913400   -6.139120   -0.356100
  C      4.347230   -6.782630    0.804830
  O      3.776340   -6.341330    1.781110
  N      4.604210   -8.148180    0.592140
  C      4.159430   -9.143480    1.536110
  C      2.903360   -9.865350    1.053190
  C      5.272040   -8.372740   -0.592740
  C      5.691220   -9.662730   -1.023120
  C      6.320490   -9.861620   -2.203230
  C      6.800190  -11.124180   -2.702440
  C      7.333420  -11.173530   -3.996470
  C      7.811140  -12.356230   -4.523110
  N      8.462770  -12.282730   -5.810620
  O      7.933890  -11.607210   -6.664180
  O      9.514930  -12.871250   -5.937670
  C      7.761120  -13.561690   -3.801970
  C      7.266100  -13.490640   -2.493630
  C      6.796920  -12.313810   -1.958940
  C      8.107770  -14.851380   -4.349950
  C      7.900950  -15.232620   -5.627610
  C      8.207340  -16.537710   -6.096920
  C      7.833430  -17.083380   -7.283210
  C      8.540970  -18.301990   -7.790560
  O      9.254990  -19.035290   -7.151330
  C      8.197940  -18.351280   -9.216920
  C      8.537900  -19.099200  -10.304080
  S      7.696150  -18.530270  -11.726830
  C      6.885790  -17.296100  -10.832730
  C      7.249660  -17.319240   -9.523160
  C      6.913370  -16.609630   -8.302470
  C      5.808800  -15.815090   -8.145860
  C      4.982050  -15.490090   -9.243060
  N      4.307680  -15.213540  -10.128560
  C      5.313560  -15.343520   -6.913340
  N      4.842110  -14.977500   -5.932620
  Cl     9.607920  -20.409930  -10.378390
  H     -0.208720    4.194060   -0.217230
  H      2.690460   -0.538110   -1.760080
  H      5.250250   -3.913480    3.026550
  H      3.756240   -2.648200   -2.081160
  H      5.521450   -3.405580   -3.321400
  H      6.708490   -4.613120   -3.859760
  H      7.055320   -2.764540   -1.435390
  H      7.849820   -2.572530   -3.002400
  H      8.221230   -3.969920   -1.986500
  H      3.938670   -8.600940    2.459720
  H      4.967870   -9.853500    1.733210
  H      2.097050   -9.149960    0.911980
  H      2.591600  -10.597480    1.793000
  H      3.081540  -10.374310    0.108290
  H      5.488960  -10.489180   -0.358170
  H      6.485230   -9.009910   -2.849760
  H      7.390540  -10.272380   -4.589910
  H      7.227940  -14.396840   -1.908070
  H      6.424630  -12.314560   -0.946850
  H      8.453330  -15.588310   -3.636350
  H      7.480270  -14.538820   -6.340990
  H      8.866480  -17.145200   -5.486370
  H      6.209190  -16.636840  -11.339310

 Total Charge           Charge          ....    0
 Multiplicity           Mult            ....    1
 Number of Electrons    NEL             ....  492
 Basis Dimension        Dim             .... 1059

ORBITAL ENERGIES
----------------

  NO   OCC          E(Eh)            E(eV)
   0   2.0000    -101.624890     -2765.3539
   1   2.0000    -101.615290     -2765.0926
   2   2.0000     -89.001011     -2421.8406
   3   2.0000     -88.991116     -2421.5714
   4   2.0000     -88.987415     -2421.4707
   5   2.0000     -19.249753      -523.8124
   6   2.0000     -19.247904      -523.7621
   7   2.0000     -19.236618      -523.4550
   8   2.0000     -19.218571      -522.9639
   9   2.0000     -19.217732      -522.9411
  10   2.0000     -19.193962      -522.2943
  11   2.0000     -19.191120      -522.2169
  12   2.0000     -14.652770      -398.7222
  13   2.0000     -14.456724      -393.3875
  14   2.0000     -14.454356      -393.3230
  15   2.0000     -14.431020      -392.6880
  16   2.0000     -14.426740      -392.5716
  17   2.0000     -14.419319      -392.3696
  18   2.0000     -14.418282      -392.3414
  19   2.0000     -10.390402      -282.7372
  20   2.0000     -10.384602      -282.5794
  21   2.0000     -10.376129      -282.3488
  22   2.0000     -10.374143      -282.2948
  23   2.0000     -10.374042      -282.2920
  24   2.0000     -10.373631      -282.2808
  25   2.0000     -10.367856      -282.1237
  26   2.0000     -10.358205      -281.8611
  27   2.0000     -10.356313      -281.8096
  28   2.0000     -10.349449      -281.6228
  29   2.0000     -10.348543      -281.5982
  30   2.0000     -10.342455      -281.4325
  31   2.0000     -10.341369      -281.4030
  32   2.0000     -10.340346      -281.3751
  33   2.0000     -10.339500      -281.3521
  34   2.0000     -10.337385      -281.2945
  35   2.0000     -10.335501      -281.2433
  36   2.0000     -10.333187      -281.1803
  37   2.0000     -10.328818      -281.0614
  38   2.0000     -10.327179      -281.0168
  39   2.0000     -10.321021      -280.8493
  40   2.0000     -10.320621      -280.8384
  41   2.0000     -10.320600      -280.8378
  42   2.0000     -10.318917      -280.7920
  43   2.0000     -10.318505      -280.7808
  44   2.0000     -10.318184      -280.7721
  45   2.0000     -10.317910      -280.7646
  46   2.0000     -10.314664      -280.6763
  47   2.0000     -10.312961      -280.6299
  48   2.0000     -10.311298      -280.5847
  49   2.0000     -10.310857      -280.5727
  50   2.0000     -10.310817      -280.5716
  51   2.0000     -10.308784      -280.5163
  52   2.0000     -10.308438      -280.5069
  53   2.0000     -10.307402      -280.4787
  54   2.0000     -10.304726      -280.4058
  55   2.0000     -10.303629      -280.3760
  56   2.0000     -10.302425      -280.3432
  57   2.0000     -10.301533      -280.3190
  58   2.0000     -10.299322      -280.2588
  59   2.0000     -10.298384      -280.2333
  60   2.0000     -10.296817      -280.1906
  61   2.0000     -10.295923      -280.1663
  62   2.0000     -10.266720      -279.3716
  63   2.0000     -10.262985      -279.2700
  64   2.0000     -10.260897      -279.2132
  65   2.0000     -10.258665      -279.1525
  66   2.0000      -9.579663      -260.6759
  67   2.0000      -9.570078      -260.4151
  68   2.0000      -8.096767      -220.3242
  69   2.0000      -8.086839      -220.0541
  70   2.0000      -8.080828      -219.8905
  71   2.0000      -7.350311      -200.0121
  72   2.0000      -7.340688      -199.7503
  73   2.0000      -7.339697      -199.7233
  74   2.0000      -7.339140      -199.7081
  75   2.0000      -7.330132      -199.4630
  76   2.0000      -7.329593      -199.4484
  77   2.0000      -6.066153      -165.0684
  78   2.0000      -6.061522      -164.9424
  79   2.0000      -6.059002      -164.8738
  80   2.0000      -6.056218      -164.7981
  81   2.0000      -6.051640      -164.6735
  82   2.0000      -6.049925      -164.6268
  83   2.0000      -6.049063      -164.6034
  84   2.0000      -6.045413      -164.5041
  85   2.0000      -6.043659      -164.4563
  86   2.0000      -1.329973       -36.1904
  87   2.0000      -1.154127       -31.4054
  88   2.0000      -1.148687       -31.2574
  89   2.0000      -1.136520       -30.9263
  90   2.0000      -1.134657       -30.8756
  91   2.0000      -1.131772       -30.7971
  92   2.0000      -1.127127       -30.6707
  93   2.0000      -1.066159       -29.0117
  94   2.0000      -1.057761       -28.7831
  95   2.0000      -1.046725       -28.4828
  96   2.0000      -1.036290       -28.1989
  97   2.0000      -1.026508       -27.9327
  98   2.0000      -1.016078       -27.6489
  99   2.0000      -1.013381       -27.5755
 100   2.0000      -1.007487       -27.4151
 101   2.0000      -0.999084       -27.1864
 102   2.0000      -0.997078       -27.1319
 103   2.0000      -0.996557       -27.1177
 104   2.0000      -0.986678       -26.8489
 105   2.0000      -0.963145       -26.2085
 106   2.0000      -0.954321       -25.9684
 107   2.0000      -0.938527       -25.5386
 108   2.0000      -0.929707       -25.2986
 109   2.0000      -0.922149       -25.0929
 110   2.0000      -0.919107       -25.0102
 111   2.0000      -0.909320       -24.7438
 112   2.0000      -0.904521       -24.6133
 113   2.0000      -0.898315       -24.4444
 114   2.0000      -0.885297       -24.0901
 115   2.0000      -0.877980       -23.8910
 116   2.0000      -0.870769       -23.6948
 117   2.0000      -0.855514       -23.2797
 118   2.0000      -0.845494       -23.0071
 119   2.0000      -0.840967       -22.8839
 120   2.0000      -0.830799       -22.6072
 121   2.0000      -0.821697       -22.3595
 122   2.0000      -0.806758       -21.9530
 123   2.0000      -0.802266       -21.8308
 124   2.0000      -0.795833       -21.6557
 125   2.0000      -0.783156       -21.3108
 126   2.0000      -0.769917       -20.9505
 127   2.0000      -0.765657       -20.8346
 128   2.0000      -0.762214       -20.7409
 129   2.0000      -0.751370       -20.4458
 130   2.0000      -0.739646       -20.1268
 131   2.0000      -0.724616       -19.7178
 132   2.0000      -0.715982       -19.4829
 133   2.0000      -0.711674       -19.3656
 134   2.0000      -0.704742       -19.1770
 135   2.0000      -0.700931       -19.0733
 136   2.0000      -0.694875       -18.9085
 137   2.0000      -0.687224       -18.7003
 138   2.0000      -0.685887       -18.6639
 139   2.0000      -0.679192       -18.4818
 140   2.0000      -0.674439       -18.3524
 141   2.0000      -0.656247       -17.8574
 142   2.0000      -0.651986       -17.7414
 143   2.0000      -0.650948       -17.7132
 144   2.0000      -0.648894       -17.6573
 145   2.0000      -0.639942       -17.4137
 146   2.0000      -0.629067       -17.1178
 147   2.0000      -0.625638       -17.0245
 148   2.0000      -0.625361       -17.0169
 149   2.0000      -0.617403       -16.8004
 150   2.0000      -0.615591       -16.7511
 151   2.0000      -0.612084       -16.6556
 152   2.0000      -0.606225       -16.4962
 153   2.0000      -0.605989       -16.4898
 154   2.0000      -0.598948       -16.2982
 155   2.0000      -0.595202       -16.1963
 156   2.0000      -0.587782       -15.9944
 157   2.0000      -0.578774       -15.7492
 158   2.0000      -0.574696       -15.6383
 159   2.0000      -0.570955       -15.5365
 160   2.0000      -0.564819       -15.3695
 161   2.0000      -0.562402       -15.3037
 162   2.0000      -0.561339       -15.2748
 163   2.0000      -0.558365       -15.1939
 164   2.0000      -0.555291       -15.1102
 165   2.0000      -0.550905       -14.9909
 166   2.0000      -0.545561       -14.8455
 167   2.0000      -0.539485       -14.6801
 168   2.0000      -0.536456       -14.5977
 169   2.0000      -0.535303       -14.5663
 170   2.0000      -0.532540       -14.4911
 171   2.0000      -0.531094       -14.4518
 172   2.0000      -0.530384       -14.4325
 173   2.0000      -0.527038       -14.3414
 174   2.0000      -0.525999       -14.3132
 175   2.0000      -0.521899       -14.2016
 176   2.0000      -0.520137       -14.1536
 177   2.0000      -0.519233       -14.1290
 178   2.0000      -0.518680       -14.1140
 179   2.0000      -0.514462       -13.9992
 180   2.0000      -0.513489       -13.9727
 181   2.0000      -0.509000       -13.8506
 182   2.0000      -0.507612       -13.8128
 183   2.0000      -0.505075       -13.7438
 184   2.0000      -0.504069       -13.7164
 185   2.0000      -0.501481       -13.6460
 186   2.0000      -0.497753       -13.5445
 187   2.0000      -0.497128       -13.5276
 188   2.0000      -0.491357       -13.3705
 189   2.0000      -0.487353       -13.2616
 190   2.0000      -0.485631       -13.2147
 191   2.0000      -0.483236       -13.1495
 192   2.0000      -0.475823       -12.9478
 193   2.0000      -0.475555       -12.9405
 194   2.0000      -0.472054       -12.8452
 195   2.0000      -0.465514       -12.6673
 196   2.0000      -0.463252       -12.6057
 197   2.0000      -0.461449       -12.5567
 198   2.0000      -0.460403       -12.5282
 199   2.0000      -0.458862       -12.4863
 200   2.0000      -0.455453       -12.3935
 201   2.0000      -0.455034       -12.3821
 202   2.0000      -0.454720       -12.3736
 203   2.0000      -0.453518       -12.3409
 204   2.0000      -0.451543       -12.2871
 205   2.0000      -0.451114       -12.2754
 206   2.0000      -0.448698       -12.2097
 207   2.0000      -0.448171       -12.1953
 208   2.0000      -0.444903       -12.1064
 209   2.0000      -0.443130       -12.0582
 210   2.0000      -0.440828       -11.9955
 211   2.0000      -0.440049       -11.9743
 212   2.0000      -0.437184       -11.8964
 213   2.0000      -0.433723       -11.8022
 214   2.0000      -0.430639       -11.7183
 215   2.0000      -0.429952       -11.6996
 216   2.0000      -0.427107       -11.6222
 217   2.0000      -0.425224       -11.5709
 218   2.0000      -0.423135       -11.5141
 219   2.0000      -0.422974       -11.5097
 220   2.0000      -0.411701       -11.2029
 221   2.0000      -0.411299       -11.1920
 222   2.0000      -0.409248       -11.1362
 223   2.0000      -0.403938       -10.9917
 224   2.0000      -0.401067       -10.9136
 225   2.0000      -0.391817       -10.6619
 226   2.0000      -0.386743       -10.5238
 227   2.0000      -0.383135       -10.4256
 228   2.0000      -0.380727       -10.3601
 229   2.0000      -0.376403       -10.2424
 230   2.0000      -0.354440        -9.6448
 231   2.0000      -0.350899        -9.5484
 232   2.0000      -0.349884        -9.5208
 233   2.0000      -0.347923        -9.4675
 234   2.0000      -0.343091        -9.3360
 235   2.0000      -0.342263        -9.3135
 236   2.0000      -0.338894        -9.2218
 237   2.0000      -0.337496        -9.1837
 238   2.0000      -0.333079        -9.0635
 239   2.0000      -0.330350        -8.9893
 240   2.0000      -0.325429        -8.8554
 241   2.0000      -0.314463        -8.5570
 242   2.0000      -0.312514        -8.5039
 243   2.0000      -0.302148        -8.2219
 244   2.0000      -0.293074        -7.9749
 245   2.0000      -0.244607        -6.6561
 246   0.0000      -0.108015        -2.9392
 247   0.0000      -0.102664        -2.7936
 248   0.0000      -0.076333        -2.0771
 249   0.0000      -0.063140        -1.7181
 250   0.0000      -0.053134        -1.4459

MULLIKEN ATOMIC CHARGES
-----------------------
   0 C :    0.025717
   1 C :   -0.127117
   2 S :    0.192154
   3 C :   -0.171084
   4 Cl:    0.004620
   5 C :    0.079574
   6 C :    0.171151
   7 O :   -0.157625
   8 C :   -0.101793
   9 C :    0.307223
  10 C :   -0.330915
  11 C :   -0.194226
  12 N :    0.158598
  13 C :   -0.181771
  14 N :    0.152958
  15 C :   -0.014599
  16 C :   -0.059709
  17 S :    0.236415
  18 C :   -0.158085
  19 C :    0.212255
  20 O :   -0.177195
  21 C :    0.069302
  22 C :   -0.024885
  23 C :    0.091428
  24 N :   -0.251702
  25 C :    0.105833
  26 C :   -0.002568
  27 C :    0.168573
  28 O :   -0.205930
  29 C :   -0.084524
  30 C :   -0.003418
  31 C :    0.144414
  32 O :   -0.209588
  33 N :   -0.266079
  34 C :    0.102964
  35 C :    0.002124
  36 C :    0.137765
  37 C :    0.006371
  38 C :    0.005269
  39 C :    0.104629
  40 C :   -0.034867
  41 C :    0.123116
  42 N :    0.218529
  43 O :   -0.222652
  44 O :   -0.221882
  45 C :    0.098789
  46 C :   -0.010493
  47 C :    0.015614
  48 C :    0.002477
  49 C :    0.032211
  50 C :    0.010645
  51 C :   -0.119146
  52 C :    0.140722
  53 O :   -0.126416
  54 C :    0.084462
  55 C :   -0.172334
  56 S :    0.184928
  57 C :   -0.125691
  58 C :    0.020587
  59 C :    0.273605
  60 C :   -0.312208
  61 C :   -0.185794
  62 N :    0.153232
  63 C :   -0.212935
  64 N :    0.174571
  65 Cl:   -0.000228
  66 H :    0.056414
  67 H :    0.011841
  68 H :   -0.004366
  69 H :    0.012969
  70 H :    0.015825
  71 H :    0.047672
  72 H :    0.025532
  73 H :    0.024837
  74 H :    0.030563
  75 H :    0.043276
  76 H :    0.021610
  77 H :    0.030259
  78 H :    0.024203
  79 H :    0.016167
  80 H :   -0.031243
  81 H :    0.012327
  82 H :    0.016148
  83 H :   -0.010989
  84 H :   -0.013699
  85 H :    0.009625
  86 H :    0.038039
  87 H :    0.022865
  88 H :    0.054756
Sum of atomic charges:   -0.0000000

LOEWDIN ATOMIC CHARGES
----------------------
   0 C :   -0.059195
   1 C :   -0.146108
   2 S :    0.480412
   3 C :   -0.270971
   4 Cl:    0.196105
   5 C :   -0.117322
   6 C :    0.082987
   7 O :   -0.152537
   8 C :   -0.094931
   9 C :    0.076104
  10 C :   -0.135842
  11 C :   -0.015564
  12 N :   -0.047669
  13 C :   -0.022482
  14 N :   -0.045912
  15 C :    0.060526
  16 C :   -0.181371
  17 S :    0.558275
  18 C :   -0.200239
  19 C :    0.099539
  20 O :   -0.122245
  21 C :   -0.053191
  22 C :   -0.007481
  23 C :    0.075763
  24 N :    0.003482
  25 C :    0.036694
  26 C :   -0.060176
  27 C :    0.084261
  28 O :   -0.197321
  29 C :   -0.122476
  30 C :   -0.112463
  31 C :    0.084419
  32 O :   -0.200317
  33 N :   -0.001420
  34 C :    0.036187
  35 C :   -0.061575
  36 C :    0.083226
  37 C :   -0.040770
  38 C :    0.033793
  39 C :   -0.018857
  40 C :    0.020549
  41 C :   -0.012818
  42 N :    0.278450
  43 O :   -0.190925
  44 O :   -0.193443
  45 C :   -0.009176
  46 C :    0.003651
  47 C :    0.010026
  48 C :    0.030149
  49 C :   -0.014126
  50 C :    0.071325
  51 C :   -0.082253
  52 C :    0.080460
  53 O :   -0.132058
  54 C :   -0.117816
  55 C :   -0.272559
  56 S :    0.474363
  57 C :   -0.150546
  58 C :   -0.056734
  59 C :    0.070805
  60 C :   -0.132188
  61 C :   -0.015419
  62 N :   -0.046995
  63 C :   -0.025469
  64 N :   -0.045711
  65 Cl:    0.191596
  66 H :    0.038810
  67 H :    0.052621
  68 H :    0.001150
  69 H :    0.039244
  70 H :    0.019935
  71 H :    0.038527
  72 H :    0.023856
  73 H :    0.031704
  74 H :    0.032822
  75 H :    0.038411
  76 H :    0.021779
  77 H :    0.032909
  78 H :    0.030701
  79 H :    0.021954
  80 H :    0.026066
  81 H :    0.039417
  82 H :    0.048759
  83 H :    0.036558
  84 H :    0.032364
  85 H :    0.038566
  86 H :    0.031890
  87 H :    0.047466
  88 H :    0.038016

  Mayer bond orders larger than 0.100000
B(  0-C ,  1-C ) :   1.5469 B(  0-C ,  5-C ) :   1.2248 B(  0-C ,  9-C ) :   0.9960
B(  1-C ,  2-S ) :   1.1633 B(  1-C , 66-H ) :   0.9536 B(  2-S ,  3-C ) :   1.1518
B(  3-C ,  4-Cl) :   1.1330 B(  3-C ,  5-C ) :   1.4694 B(  5-C ,  6-C ) :   0.9704
B(  6-C ,  7-O ) :   2.1565 B(  6-C ,  8-C ) :   0.9602 B(  8-C ,  9-C ) :   1.0707
B(  8-C , 15-C ) :   1.5677 B(  9-C , 10-C ) :   1.6509 B( 10-C , 11-C ) :   1.1478
B( 10-C , 13-C ) :   1.1382 B( 11-C , 12-N ) :   2.9904 B( 13-C , 14-N ) :   2.9614
B( 15-C , 16-C ) :   1.2095 B( 15-C , 67-H ) :   0.9421 B( 16-C , 17-S ) :   1.1329
B( 16-C , 22-C ) :   1.3640 B( 17-S , 18-C ) :   1.1489 B( 18-C , 19-C ) :   0.9654
B( 18-C , 21-C ) :   1.4319 B( 19-C , 20-O ) :   2.1583 B( 19-C , 68-H ) :   0.9485
B( 21-C , 22-C ) :   1.3120 B( 21-C , 23-C ) :   0.9695 B( 22-C , 69-H ) :   1.0124
B( 23-C , 24-N ) :   1.2155 B( 23-C , 30-C ) :   1.4682 B( 24-N , 25-C ) :   0.9476
B( 24-N , 27-C ) :   1.0401 B( 25-C , 26-C ) :   1.1172 B( 25-C , 70-H ) :   0.9502
B( 25-C , 71-H ) :   0.9280 B( 26-C , 72-H ) :   0.9680 B( 26-C , 73-H ) :   0.9665
B( 26-C , 74-H ) :   0.9644 B( 27-C , 28-O ) :   2.0273 B( 27-C , 29-C ) :   0.9950
B( 28-O , 81-H ) :   0.1110 B( 29-C , 30-C ) :   1.2118 B( 29-C , 36-C ) :   1.3725
B( 30-C , 31-C ) :   0.9656 B( 31-C , 32-O ) :   2.0988 B( 31-C , 33-N ) :   1.0480
B( 33-N , 34-C ) :   0.9468 B( 33-N , 36-C ) :   1.1529 B( 34-C , 35-C ) :   1.1201
B( 34-C , 75-H ) :   0.9265 B( 34-C , 76-H ) :   0.9491 B( 35-C , 77-H ) :   0.9632
B( 35-C , 78-H ) :   0.9679 B( 35-C , 79-H ) :   0.9688 B( 36-C , 37-C ) :   1.1407
B( 37-C , 38-C ) :   1.6221 B( 37-C , 80-H ) :   0.9569 B( 38-C , 39-C ) :   1.0742
B( 38-C , 81-H ) :   0.9670 B( 39-C , 40-C ) :   1.2847 B( 39-C , 47-C ) :   1.3250
B( 40-C , 41-C ) :   1.3944 B( 40-C , 82-H ) :   1.0060 B( 41-C , 42-N ) :   0.8510
B( 41-C , 45-C ) :   1.3578 B( 42-N , 43-O ) :   1.5383 B( 42-N , 44-O ) :   1.5441
B( 43-O , 44-O ) :   0.2761 B( 45-C , 46-C ) :   1.3299 B( 45-C , 48-C ) :   1.0510
B( 46-C , 47-C ) :   1.4165 B( 46-C , 83-H ) :   0.9898 B( 47-C , 84-H ) :   0.9902
B( 48-C , 49-C ) :   1.7143 B( 48-C , 85-H ) :   0.9675 B( 49-C , 50-C ) :   1.1319
B( 49-C , 86-H ) :   0.9439 B( 50-C , 51-C ) :   1.6517 B( 50-C , 87-H ) :   0.9578
B( 51-C , 52-C ) :   0.9338 B( 51-C , 59-C ) :   1.0343 B( 52-C , 53-O ) :   2.2822
B( 52-C , 54-C ) :   0.9261 B( 54-C , 55-C ) :   1.4862 B( 54-C , 58-C ) :   1.2209
B( 55-C , 56-S ) :   1.1514 B( 55-C , 65-Cl) :   1.1284 B( 56-S , 57-C ) :   1.1584
B( 57-C , 58-C ) :   1.5537 B( 57-C , 88-H ) :   0.9551 B( 58-C , 59-C ) :   1.0113
B( 59-C , 60-C ) :   1.6625 B( 60-C , 61-C ) :   1.1349 B( 60-C , 63-C ) :   1.1498
B( 61-C , 62-N ) :   2.9984 B( 63-C , 64-N ) :   3.0153

-----------------------------------------------------------------------------
         ABSORPTION SPECTRUM VIA TRANSITION ELECTRIC DIPOLE MOMENTS
-----------------------------------------------------------------------------
State   Energy  Wavelength   fosc         T2         TX        TY        TZ
        (cm-1)    (nm)                  (au**2)     (au)      (au)      (au)
-----------------------------------------------------------------------------
   0   14488.1    690.2   0.018946090   0.43051   0.17545   0.52890   0.34641
   1   17302.2    578.0   0.824415203  15.68633   0.60579  -3.76480  -1.07035
   2   21984.6    454.9   0.172775379   2.58725   0.38007  -0.68069   1.40693
   3   25040.1    399.4   0.605641949   7.96261   0.57337  -2.52216  -1.12807
   4   25524.0    391.8   0.445483205   5.74590  -1.53420   0.87196  -1.62229
   5   26514.9    377.1   0.066731109   0.82854  -0.48251   0.70640  -0.31101
   6   26807.7    373.0   0.059986010   0.73666  -0.21270   0.80087   0.22366
   7   27486.9    363.8   0.005705865   0.06834  -0.16010   0.14451  -0.14774
   8   27818.9    359.5   0.011900507   0.14083  -0.05729  -0.16903  -0.33012
   9   28511.4    350.7   0.166323889   1.92049  -0.42187   0.92362   0.94310
  10   28742.5    347.9   0.010239324   0.11728   0.09208   0.28073   0.17319
  11   29255.9    341.8   0.148545077   1.67155  -0.66319   1.08697   0.22412
  12   29306.3    341.2   0.006863157   0.07710  -0.02750  -0.03212  -0.27442
  13   29407.8    340.0   0.046915535   0.52521  -0.36918   0.62340   0.01691
  14   29712.9    336.6   0.029698073   0.32905   0.45972  -0.33978   0.04747
  15   30095.1    332.3   0.013227555   0.14470   0.17707  -0.33107   0.06112
  16   31422.6    318.2   0.325580694   3.41108   1.02382  -1.37405  -0.68910
  17   31968.7    312.8   0.003300556   0.03399  -0.08165   0.02835  -0.16285
  18   32231.6    310.3   0.035840375   0.36607  -0.19279   0.34002   0.46183
  19   32351.8    309.1   0.007142031   0.07268  -0.07945   0.17442   0.18959
  20   32597.9    306.8   0.129447718   1.30732  -0.32341   0.65441   0.88004
  21   32679.6    306.0   0.082639920   0.83251  -0.45047   0.56316   0.55896
  22   32783.9    305.0   0.096001096   0.96403   0.59713  -0.73663   0.25466
  23   33522.7    298.3   0.293927580   2.88654  -0.64903   0.57626   1.46056
  24   33700.6    296.7   0.072483429   0.70807  -0.46075   0.50871   0.48682
  25   34491.4    289.9   0.043175921   0.41210   0.35051  -0.23895  -0.48181
  26   34758.3    287.7   0.026157349   0.24775  -0.14747   0.31111   0.35946
  27   35061.2    285.2   0.003034853   0.02850  -0.05364   0.10121  -0.12400
  28   35092.3    285.0   0.024216621   0.22718  -0.02328   0.46013  -0.12215
  29   35445.9    282.1   0.161689701   1.50173   0.12514  -0.47275  -1.12365
  30   35610.7    280.8   0.142539032   1.31774   0.65831  -0.66834  -0.66158
  31   36157.0    276.6   0.020035287   0.18242   0.36433  -0.22290  -0.00183
  32   36496.2    274.0   0.068467822   0.61761  -0.62172   0.42502   0.22458
  33   36938.9    270.7   0.344499549   3.07030  -0.12528   0.42994   1.69403
  34   37102.8    269.5   0.304984234   2.70612   0.64934  -0.53711  -1.41280
  35   37410.5    267.3   0.219696989   1.93333  -0.33473   0.75524   1.11843
  36   37817.6    264.4   0.022969063   0.19995  -0.25333   0.27797   0.24189
  37   37952.8    263.5   0.186701577   1.61949  -0.74278   0.71655   0.74453
  38   38140.7    262.2   0.099432254   0.85825  -0.40066   0.56735   0.61305
  39   38319.5    261.0   0.008901744   0.07648  -0.20727   0.14864   0.10687
  40   38349.0    260.8   0.069983137   0.60078  -0.10400   0.13666  -0.75584
  41   39392.8    253.9   0.108711060   0.90852  -0.38900   0.84007   0.22688
  42   39502.2    253.2   0.017187327   0.14324   0.21014  -0.23440  -0.21009
  43   40139.1    249.1   0.154704425   1.26885   0.39557  -0.93655  -0.48503

FINAL SINGLE POINT ENERGY     -4825.415167690373

DIPOLE MOMENT
-------------
                                X             Y             Z
Electronic contribution:     -8.37536       6.29190     -18.61657
Nuclear contribution   :      8.23681      -5.83605      21.12917
                        -----------------------------------------
Total Dipole Moment    :     -0.13855       0.45585       2.51259
                        -----------------------------------------
Magnitude (a.u.)       :      2.55737
Magnitude (Debye)      :      6.50031

Rotational constants in cm-1:     0.002681     0.000218     0.000209
Rotational constants in MHz :    80.362961     6.525374     6.251065

                             ****ORCA TERMINATED NORMALLY****
TOTAL RUN TIME: 0 days 0 hours 8 minutes 10 seconds 565 msec
