                         Program Version 4.2.0 -  RELEASE  -
|  1> # ORCA input file
|  2> # SCF done       -173.507885099599          0.000547122212
|  3> ! CAM-B3LYP def2-SVP def2/J RIJCOSX Grid4 TightSCF
|  4> %maxcore 5000
|  5> %tddft
|  6>     Mode sTDDFT
|  7>     Ethresh 5.0
|  8>     maxcore 5000
|  9> end
| 10>
| 11> %pal
| 12>   nprocs 6
| 13>   end
| 14> * xyz 0 1
| 15>    C        9.27959         2.00675         0.64451
| 16>    C       10.25824         2.94405         0.77240
| 17>    S       11.73484         2.40640         0.06029
| 18>    C       11.02454         0.88519        -0.42321
| 19>   Cl       11.92287        -0.28748        -1.25069
| 20>    C        9.71715         0.82869        -0.03884
| 21>    C        8.61875        -0.13266        -0.14083
| 22>    O        8.66073        -1.22070        -0.67200
| 23>    C        7.46405         0.52391         0.54426
| 24>    C        7.88504         1.84850         1.00396
| 25>    C        7.15197         2.80812         1.64784
| 26>    C        7.73438         4.03958         2.02257
| 27>    N        8.18583         5.04593         2.33711
| 28>    C        5.79098         2.74466         2.01218
| 29>    N        4.69115         2.78151         2.33978
| 30>    C        6.21139         0.03267         0.76681
| 31>    C        5.59873        -1.20260         0.43416
| 32>    S        3.94784        -1.42331         0.96327
| 33>    C        3.89788        -3.00209         0.29072
| 34>    C        2.64826        -3.74004         0.30798
| 35>    O        1.64663        -3.36333         0.85994
| 36>    C        5.10796        -3.34855        -0.31818
| 37>    C        6.05587        -2.32059        -0.23915
| 38>    C        5.36009        -4.66449        -0.86020
| 39>    N        6.01626        -4.93216        -2.03032
| 40>    C        6.51108        -3.98489        -3.00310
| 41>    C        8.03228        -3.87014        -2.96158
| 42>    C        6.10868        -6.32284        -2.26400
| 43>    O        6.60736        -6.79863        -3.26487
| 44>    C        5.48439        -6.92389        -1.11010
| 45>    C        5.01710        -5.86864        -0.27674
| 46>    C        4.44390        -6.45301         0.91644
| 47>    O        3.94468        -5.96089         1.90488
| 48>    N        4.59205        -7.83916         0.71921
| 49>    C        4.07087        -8.78220         1.67833
| 50>    C        2.73475        -9.36898         1.22926
| 51>    C        5.20562        -8.13228        -0.47931
| 52>    C        5.48931        -9.45280        -0.91200
| 53>    C        6.06668        -9.71699        -2.11207
| 54>    C        6.37514       -11.01829        -2.58829
| 55>    S        7.05643       -11.20278        -4.17990
| 56>    C        7.12089       -12.92807        -4.01956
| 57>    C        6.63718       -13.32968        -2.76337
| 58>    C        6.22203       -12.24772        -1.97640
| 59>    C        6.55799       -14.70868        -2.29755
| 60>    O        6.85949       -15.69851        -2.91693
| 61>    C        7.61360       -13.76869        -5.04103
| 62>    C        8.04552       -13.32447        -6.25229
| 63>    C        8.53774       -14.19782        -7.24480
| 64>    C        9.10521       -13.86634        -8.44032
| 65>    C        9.20444       -14.90940        -9.50810
| 66>    O        9.04656       -16.09806        -9.36809
| 67>    C        9.47554       -14.15043       -10.73551
| 68>    C        9.60102       -14.40957       -12.06691
| 69>    S        9.92366       -12.93527       -12.95020
| 70>    C        9.89274       -11.98881       -11.50627
| 71>    C        9.64428       -12.76248       -10.41667
| 72>    C        9.54170       -12.59258        -8.97735
| 73>    C        9.97581       -11.48118        -8.30217
| 74>    C       10.39972       -10.32739        -8.99479
| 75>    N       10.72978        -9.37489        -9.54273
| 76>    C       10.15514       -11.38336        -6.90788
| 77>    N       10.37030       -11.25569        -5.78761
| 78>   Cl        9.48443       -15.90307       -12.85777
| 79>    H       10.22121         3.91090         1.23340
| 80>    H        5.53934         0.68907         1.30721
| 81>    H        2.67795        -4.67839        -0.27449
| 82>    H        7.05680        -2.39381        -0.62018
| 83>    H        6.03873        -3.01713        -2.82251
| 84>    H        6.21168        -4.35290        -3.98987
| 85>    H        8.37986        -3.50105        -2.00044
| 86>    H        8.36396        -3.18217        -3.73409
| 87>    H        8.47749        -4.84392        -3.14810
| 88>    H        3.92972        -8.21934         2.60540
| 89>    H        4.80677        -9.57177         1.85552
| 90>    H        2.00268        -8.57385         1.11223
| 91>    H        2.36955       -10.06793         1.97649
| 92>    H        2.83479        -9.88972         0.27908
| 93>    H        5.22793       -10.26228        -0.24697
| 94>    H        6.31614        -8.89424        -2.76940
| 95>    H        5.82452       -12.36857        -0.98458
| 96>    H        6.17193       -14.78464        -1.26243
| 97>    H        7.65492       -14.82417        -4.80388
| 98>    H        7.98556       -12.26689        -6.47059
| 99>    H        8.39232       -15.26094        -7.08247
|100>    H       10.05208       -10.93069       -11.56861
|101> *
|102>
|103>                          ****END OF INPUT****

CARTESIAN COORDINATES (ANGSTROEM)
---------------------------------
  C      9.279590    2.006750    0.644510
  C     10.258240    2.944050    0.772400
  S     11.734840    2.406400    0.060290
  C     11.024540    0.885190   -0.423210
  Cl    11.922870   -0.287480   -1.250690
  C      9.717150    0.828690   -0.038840
  C      8.618750   -0.132660   -0.140830
  O      8.660730   -1.220700   -0.672000
  C      7.464050    0.523910    0.544260
  C      7.885040    1.848500    1.003960
  C      7.151970    2.808120    1.647840
  C      7.734380    4.039580    2.022570
  N      8.185830    5.045930    2.337110
  C      5.790980    2.744660    2.012180
  N      4.691150    2.781510    2.339780
  C      6.211390    0.032670    0.766810
  C      5.598730   -1.202600    0.434160
  S      3.947840   -1.423310    0.963270
  C      3.897880   -3.002090    0.290720
  C      2.648260   -3.740040    0.307980
  O      1.646630   -3.363330    0.859940
  C      5.107960   -3.348550   -0.318180
  C      6.055870   -2.320590   -0.239150
  C      5.360090   -4.664490   -0.860200
  N      6.016260   -4.932160   -2.030320
  C      6.511080   -3.984890   -3.003100
  C      8.032280   -3.870140   -2.961580
  C      6.108680   -6.322840   -2.264000
  O      6.607360   -6.798630   -3.264870
  C      5.484390   -6.923890   -1.110100
  C      5.017100   -5.868640   -0.276740
  C      4.443900   -6.453010    0.916440
  O      3.944680   -5.960890    1.904880
  N      4.592050   -7.839160    0.719210
  C      4.070870   -8.782200    1.678330
  C      2.734750   -9.368980    1.229260
  C      5.205620   -8.132280   -0.479310
  C      5.489310   -9.452800   -0.912000
  C      6.066680   -9.716990   -2.112070
  C      6.375140  -11.018290   -2.588290
  S      7.056430  -11.202780   -4.179900
  C      7.120890  -12.928070   -4.019560
  C      6.637180  -13.329680   -2.763370
  C      6.222030  -12.247720   -1.976400
  C      6.557990  -14.708680   -2.297550
  O      6.859490  -15.698510   -2.916930
  C      7.613600  -13.768690   -5.041030
  C      8.045520  -13.324470   -6.252290
  C      8.537740  -14.197820   -7.244800
  C      9.105210  -13.866340   -8.440320
  C      9.204440  -14.909400   -9.508100
  O      9.046560  -16.098060   -9.368090
  C      9.475540  -14.150430  -10.735510
  C      9.601020  -14.409570  -12.066910
  S      9.923660  -12.935270  -12.950200
  C      9.892740  -11.988810  -11.506270
  C      9.644280  -12.762480  -10.416670
  C      9.541700  -12.592580   -8.977350
  C      9.975810  -11.481180   -8.302170
  C     10.399720  -10.327390   -8.994790
  N     10.729780   -9.374890   -9.542730
  C     10.155140  -11.383360   -6.907880
  N     10.370300  -11.255690   -5.787610
  Cl     9.484430  -15.903070  -12.857770
  H     10.221210    3.910900    1.233400
  H      5.539340    0.689070    1.307210
  H      2.677950   -4.678390   -0.274490
  H      7.056800   -2.393810   -0.620180
  H      6.038730   -3.017130   -2.822510
  H      6.211680   -4.352900   -3.989870
  H      8.379860   -3.501050   -2.000440
  H      8.363960   -3.182170   -3.734090
  H      8.477490   -4.843920   -3.148100
  H      3.929720   -8.219340    2.605400
  H      4.806770   -9.571770    1.855520
  H      2.002680   -8.573850    1.112230
  H      2.369550  -10.067930    1.976490
  H      2.834790   -9.889720    0.279080
  H      5.227930  -10.262280   -0.246970
  H      6.316140   -8.894240   -2.769400
  H      5.824520  -12.368570   -0.984580
  H      6.171930  -14.784640   -1.262430
  H      7.654920  -14.824170   -4.803880
  H      7.985560  -12.266890   -6.470590
  H      8.392320  -15.260940   -7.082470
  H     10.052080  -10.930690  -11.568610

 Total Charge           Charge          ....    0
 Multiplicity           Mult            ....    1
 Number of Electrons    NEL             ....  486
 Basis Dimension        Dim             .... 1030

ORBITAL ENERGIES
----------------

  NO   OCC          E(Eh)            E(eV)
   0   2.0000    -101.624309     -2765.3380
   1   2.0000    -101.615975     -2765.1113
   2   2.0000     -89.000725     -2421.8329
   3   2.0000     -88.991913     -2421.5931
   4   2.0000     -88.985684     -2421.4236
   5   2.0000     -88.985055     -2421.4065
   6   2.0000     -19.235586      -523.4269
   7   2.0000     -19.230054      -523.2764
   8   2.0000     -19.217873      -522.9449
   9   2.0000     -19.217215      -522.9270
  10   2.0000     -19.199960      -522.4575
  11   2.0000     -19.198962      -522.4303
  12   2.0000     -14.464609      -393.6020
  13   2.0000     -14.462207      -393.5367
  14   2.0000     -14.428827      -392.6283
  15   2.0000     -14.425710      -392.5435
  16   2.0000     -14.420630      -392.4053
  17   2.0000     -14.419358      -392.3707
  18   2.0000     -10.391934      -282.7789
  19   2.0000     -10.383815      -282.5580
  20   2.0000     -10.383253      -282.5427
  21   2.0000     -10.381879      -282.5053
  22   2.0000     -10.375523      -282.3323
  23   2.0000     -10.374629      -282.3080
  24   2.0000     -10.373618      -282.2805
  25   2.0000     -10.365813      -282.0681
  26   2.0000     -10.357197      -281.8337
  27   2.0000     -10.355580      -281.7897
  28   2.0000     -10.352009      -281.6925
  29   2.0000     -10.351255      -281.6720
  30   2.0000     -10.349882      -281.6346
  31   2.0000     -10.349200      -281.6161
  32   2.0000     -10.339658      -281.3564
  33   2.0000     -10.336263      -281.2640
  34   2.0000     -10.335796      -281.2513
  35   2.0000     -10.334477      -281.2154
  36   2.0000     -10.331291      -281.1287
  37   2.0000     -10.330511      -281.1075
  38   2.0000     -10.328208      -281.0448
  39   2.0000     -10.327788      -281.0334
  40   2.0000     -10.327423      -281.0235
  41   2.0000     -10.322658      -280.8938
  42   2.0000     -10.321854      -280.8719
  43   2.0000     -10.321003      -280.8488
  44   2.0000     -10.319767      -280.8151
  45   2.0000     -10.319625      -280.8113
  46   2.0000     -10.319283      -280.8020
  47   2.0000     -10.317080      -280.7420
  48   2.0000     -10.313123      -280.6343
  49   2.0000     -10.312219      -280.6097
  50   2.0000     -10.311811      -280.5986
  51   2.0000     -10.310947      -280.5751
  52   2.0000     -10.308029      -280.4957
  53   2.0000     -10.307333      -280.4768
  54   2.0000     -10.306509      -280.4544
  55   2.0000     -10.305450      -280.4256
  56   2.0000     -10.303782      -280.3802
  57   2.0000     -10.303146      -280.3629
  58   2.0000     -10.302162      -280.3361
  59   2.0000     -10.298851      -280.2460
  60   2.0000     -10.272216      -279.5212
  61   2.0000     -10.271356      -279.4978
  62   2.0000     -10.269111      -279.4367
  63   2.0000     -10.257673      -279.1255
  64   2.0000      -9.579060      -260.6595
  65   2.0000      -9.570758      -260.4336
  66   2.0000      -8.096365      -220.3133
  67   2.0000      -8.087614      -220.0752
  68   2.0000      -8.081059      -219.8968
  69   2.0000      -8.080447      -219.8801
  70   2.0000      -7.349683      -199.9950
  71   2.0000      -7.341409      -199.7699
  72   2.0000      -7.339105      -199.7072
  73   2.0000      -7.338562      -199.6924
  74   2.0000      -7.330781      -199.4807
  75   2.0000      -7.330256      -199.4664
  76   2.0000      -6.065750      -165.0575
  77   2.0000      -6.061094      -164.9308
  78   2.0000      -6.058681      -164.8651
  79   2.0000      -6.057031      -164.8202
  80   2.0000      -6.052400      -164.6942
  81   2.0000      -6.049981      -164.6284
  82   2.0000      -6.049825      -164.6241
  83   2.0000      -6.049411      -164.6128
  84   2.0000      -6.045815      -164.5150
  85   2.0000      -6.045290      -164.5007
  86   2.0000      -6.043807      -164.4604
  87   2.0000      -6.043094      -164.4410
  88   2.0000      -1.152242       -31.3541
  89   2.0000      -1.143198       -31.1080
  90   2.0000      -1.142657       -31.0933
  91   2.0000      -1.135811       -30.9070
  92   2.0000      -1.134174       -30.8625
  93   2.0000      -1.132542       -30.8180
  94   2.0000      -1.073770       -29.2188
  95   2.0000      -1.065519       -28.9942
  96   2.0000      -1.046035       -28.4641
  97   2.0000      -1.036977       -28.2176
  98   2.0000      -1.025311       -27.9001
  99   2.0000      -1.017389       -27.6846
 100   2.0000      -1.014576       -27.6080
 101   2.0000      -1.013914       -27.5900
 102   2.0000      -1.005798       -27.3692
 103   2.0000      -0.998601       -27.1733
 104   2.0000      -0.995530       -27.0898
 105   2.0000      -0.987391       -26.8683
 106   2.0000      -0.962446       -26.1895
 107   2.0000      -0.955034       -25.9878
 108   2.0000      -0.939972       -25.5779
 109   2.0000      -0.935151       -25.4467
 110   2.0000      -0.922007       -25.0891
 111   2.0000      -0.918829       -25.0026
 112   2.0000      -0.909487       -24.7484
 113   2.0000      -0.904837       -24.6219
 114   2.0000      -0.886638       -24.1266
 115   2.0000      -0.877413       -23.8756
 116   2.0000      -0.876110       -23.8402
 117   2.0000      -0.872737       -23.7484
 118   2.0000      -0.853470       -23.2241
 119   2.0000      -0.840124       -22.8609
 120   2.0000      -0.837331       -22.7849
 121   2.0000      -0.831411       -22.6238
 122   2.0000      -0.826165       -22.4811
 123   2.0000      -0.811462       -22.0810
 124   2.0000      -0.800021       -21.7697
 125   2.0000      -0.786439       -21.4001
 126   2.0000      -0.774898       -21.0860
 127   2.0000      -0.765987       -20.8436
 128   2.0000      -0.764314       -20.7980
 129   2.0000      -0.756294       -20.5798
 130   2.0000      -0.741870       -20.1873
 131   2.0000      -0.736916       -20.0525
 132   2.0000      -0.725521       -19.7424
 133   2.0000      -0.716560       -19.4986
 134   2.0000      -0.703969       -19.1560
 135   2.0000      -0.697736       -18.9864
 136   2.0000      -0.696095       -18.9417
 137   2.0000      -0.690694       -18.7947
 138   2.0000      -0.686482       -18.6801
 139   2.0000      -0.685238       -18.6463
 140   2.0000      -0.675224       -18.3738
 141   2.0000      -0.660104       -17.9623
 142   2.0000      -0.652440       -17.7538
 143   2.0000      -0.647799       -17.6275
 144   2.0000      -0.642991       -17.4967
 145   2.0000      -0.635459       -17.2917
 146   2.0000      -0.629807       -17.1379
 147   2.0000      -0.625709       -17.0264
 148   2.0000      -0.622102       -16.9282
 149   2.0000      -0.617427       -16.8011
 150   2.0000      -0.612622       -16.6703
 151   2.0000      -0.608608       -16.5611
 152   2.0000      -0.605282       -16.4705
 153   2.0000      -0.597452       -16.2575
 154   2.0000      -0.594795       -16.1852
 155   2.0000      -0.581721       -15.8294
 156   2.0000      -0.574965       -15.6456
 157   2.0000      -0.572010       -15.5652
 158   2.0000      -0.567610       -15.4455
 159   2.0000      -0.562814       -15.3150
 160   2.0000      -0.559697       -15.2301
 161   2.0000      -0.558592       -15.2001
 162   2.0000      -0.555511       -15.1162
 163   2.0000      -0.550719       -14.9858
 164   2.0000      -0.544370       -14.8131
 165   2.0000      -0.541777       -14.7425
 166   2.0000      -0.536566       -14.6007
 167   2.0000      -0.535384       -14.5685
 168   2.0000      -0.533130       -14.5072
 169   2.0000      -0.532331       -14.4855
 170   2.0000      -0.528998       -14.3948
 171   2.0000      -0.528810       -14.3897
 172   2.0000      -0.526447       -14.3254
 173   2.0000      -0.524609       -14.2753
 174   2.0000      -0.521055       -14.1786
 175   2.0000      -0.520475       -14.1628
 176   2.0000      -0.518873       -14.1193
 177   2.0000      -0.517866       -14.0918
 178   2.0000      -0.513382       -13.9698
 179   2.0000      -0.512570       -13.9477
 180   2.0000      -0.509046       -13.8519
 181   2.0000      -0.506345       -13.7784
 182   2.0000      -0.505282       -13.7494
 183   2.0000      -0.503209       -13.6930
 184   2.0000      -0.498634       -13.5685
 185   2.0000      -0.497484       -13.5372
 186   2.0000      -0.493574       -13.4308
 187   2.0000      -0.486927       -13.2500
 188   2.0000      -0.482226       -13.1220
 189   2.0000      -0.481467       -13.1014
 190   2.0000      -0.479904       -13.0588
 191   2.0000      -0.478898       -13.0315
 192   2.0000      -0.475168       -12.9300
 193   2.0000      -0.471038       -12.8176
 194   2.0000      -0.468876       -12.7588
 195   2.0000      -0.468427       -12.7465
 196   2.0000      -0.463859       -12.6222
 197   2.0000      -0.461954       -12.5704
 198   2.0000      -0.460194       -12.5225
 199   2.0000      -0.458668       -12.4810
 200   2.0000      -0.457159       -12.4399
 201   2.0000      -0.454220       -12.3600
 202   2.0000      -0.453884       -12.3508
 203   2.0000      -0.452795       -12.3212
 204   2.0000      -0.452233       -12.3059
 205   2.0000      -0.451749       -12.2927
 206   2.0000      -0.446808       -12.1583
 207   2.0000      -0.446301       -12.1445
 208   2.0000      -0.443402       -12.0656
 209   2.0000      -0.440576       -11.9887
 210   2.0000      -0.439974       -11.9723
 211   2.0000      -0.438563       -11.9339
 212   2.0000      -0.437246       -11.8981
 213   2.0000      -0.434236       -11.8162
 214   2.0000      -0.430652       -11.7186
 215   2.0000      -0.429793       -11.6953
 216   2.0000      -0.428958       -11.6725
 217   2.0000      -0.424560       -11.5529
 218   2.0000      -0.421391       -11.4666
 219   2.0000      -0.415504       -11.3064
 220   2.0000      -0.413764       -11.2591
 221   2.0000      -0.410054       -11.1581
 222   2.0000      -0.404959       -11.0195
 223   2.0000      -0.401804       -10.9337
 224   2.0000      -0.383901       -10.4465
 225   2.0000      -0.380031       -10.3412
 226   2.0000      -0.356415        -9.6986
 227   2.0000      -0.356210        -9.6930
 228   2.0000      -0.352562        -9.5937
 229   2.0000      -0.350012        -9.5243
 230   2.0000      -0.346883        -9.4392
 231   2.0000      -0.344531        -9.3752
 232   2.0000      -0.342431        -9.3180
 233   2.0000      -0.341922        -9.3042
 234   2.0000      -0.341705        -9.2983
 235   2.0000      -0.339007        -9.2249
 236   2.0000      -0.331020        -9.0075
 237   2.0000      -0.325731        -8.8636
 238   2.0000      -0.322877        -8.7859
 239   2.0000      -0.312667        -8.5081
 240   2.0000      -0.303633        -8.2623
 241   2.0000      -0.286687        -7.8011
 242   2.0000      -0.250547        -6.8177
 243   0.0000      -0.114758        -3.1227
 244   0.0000      -0.109213        -2.9718
 245   0.0000      -0.081502        -2.2178
 246   0.0000      -0.063259        -1.7214
 247   0.0000      -0.055743        -1.5168

MULLIKEN ATOMIC CHARGES
-----------------------
   0 C :    0.029118
   1 C :   -0.125586
   2 S :    0.193381
   3 C :   -0.170648
   4 Cl:    0.003734
   5 C :    0.082328
   6 C :    0.165267
   7 O :   -0.143610
   8 C :   -0.094740
   9 C :    0.301161
  10 C :   -0.343859
  11 C :   -0.192549
  12 N :    0.159491
  13 C :   -0.174980
  14 N :    0.162026
  15 C :    0.055736
  16 C :   -0.115552
  17 S :    0.225648
  18 C :   -0.178579
  19 C :    0.190030
  20 O :   -0.174024
  21 C :    0.080588
  22 C :   -0.001244
  23 C :    0.074847
  24 N :   -0.250956
  25 C :    0.113905
  26 C :   -0.005465
  27 C :    0.168441
  28 O :   -0.207574
  29 C :   -0.079173
  30 C :   -0.039072
  31 C :    0.127418
  32 O :   -0.185324
  33 N :   -0.266551
  34 C :    0.096503
  35 C :    0.001457
  36 C :    0.143646
  37 C :   -0.024421
  38 C :    0.085390
  39 C :   -0.074477
  40 S :    0.204158
  41 C :   -0.093708
  42 C :    0.035524
  43 C :   -0.002809
  44 C :    0.158544
  45 O :   -0.175124
  46 C :    0.012076
  47 C :    0.013488
  48 C :    0.021062
  49 C :   -0.121591
  50 C :    0.138261
  51 O :   -0.128249
  52 C :    0.087576
  53 C :   -0.172753
  54 S :    0.182694
  55 C :   -0.130197
  56 C :    0.018597
  57 C :    0.282074
  58 C :   -0.321741
  59 C :   -0.187398
  60 N :    0.151797
  61 C :   -0.216501
  62 N :    0.173924
  63 Cl:   -0.001176
  64 H :    0.056244
  65 H :    0.004941
  66 H :   -0.000080
  67 H :    0.002920
  68 H :    0.028277
  69 H :    0.029912
  70 H :    0.032848
  71 H :    0.020749
  72 H :    0.035950
  73 H :    0.048678
  74 H :    0.023106
  75 H :    0.034565
  76 H :    0.027100
  77 H :    0.013136
  78 H :   -0.029367
  79 H :    0.012596
  80 H :   -0.010343
  81 H :   -0.011967
  82 H :    0.033840
  83 H :    0.026519
  84 H :    0.026700
  85 H :    0.053416
Sum of atomic charges:   -0.0000000

LOEWDIN ATOMIC CHARGES
----------------------
   0 C :   -0.059940
   1 C :   -0.146838
   2 S :    0.482005
   3 C :   -0.271070
   4 Cl:    0.195293
   5 C :   -0.117955
   6 C :    0.089431
   7 O :   -0.133512
   8 C :   -0.083443
   9 C :    0.074829
  10 C :   -0.133571
  11 C :   -0.013971
  12 N :   -0.047846
  13 C :   -0.027054
  14 N :   -0.038128
  15 C :    0.051559
  16 C :   -0.172698
  17 S :    0.528760
  18 C :   -0.189948
  19 C :    0.087912
  20 O :   -0.124658
  21 C :   -0.055118
  22 C :   -0.007326
  23 C :    0.069557
  24 N :    0.008296
  25 C :    0.039418
  26 C :   -0.060118
  27 C :    0.080621
  28 O :   -0.198224
  29 C :   -0.127766
  30 C :   -0.126642
  31 C :    0.077878
  32 O :   -0.188279
  33 N :   -0.004272
  34 C :    0.035817
  35 C :   -0.061408
  36 C :    0.084003
  37 C :   -0.043041
  38 C :    0.015562
  39 C :   -0.163033
  40 S :    0.509818
  41 C :   -0.139076
  42 C :   -0.103162
  43 C :   -0.027407
  44 C :    0.112542
  45 O :   -0.127797
  46 C :    0.015440
  47 C :   -0.025209
  48 C :    0.069326
  49 C :   -0.087546
  50 C :    0.078848
  51 O :   -0.133267
  52 C :   -0.117325
  53 C :   -0.272875
  54 S :    0.471760
  55 C :   -0.152085
  56 C :   -0.057261
  57 C :    0.069900
  58 C :   -0.137670
  59 C :   -0.015829
  60 N :   -0.051094
  61 C :   -0.027442
  62 N :   -0.046900
  63 Cl:    0.190934
  64 H :    0.038463
  65 H :    0.044884
  66 H :    0.006266
  67 H :    0.032707
  68 H :    0.027328
  69 H :    0.033806
  70 H :    0.023940
  71 H :    0.031493
  72 H :    0.032123
  73 H :    0.040062
  74 H :    0.022209
  75 H :    0.034231
  76 H :    0.031987
  77 H :    0.020878
  78 H :    0.027781
  79 H :    0.038899
  80 H :    0.031703
  81 H :    0.000892
  82 H :    0.045444
  83 H :    0.026249
  84 H :    0.049711
  85 H :    0.037237

  Mayer bond orders larger than 0.100000
B(  0-C ,  1-C ) :   1.5446 B(  0-C ,  5-C ) :   1.2244 B(  0-C ,  9-C ) :   0.9933
B(  1-C ,  2-S ) :   1.1642 B(  1-C , 64-H ) :   0.9526 B(  2-S ,  3-C ) :   1.1542
B(  3-C ,  4-Cl) :   1.1316 B(  3-C ,  5-C ) :   1.4667 B(  5-C ,  6-C ) :   0.9729
B(  6-C ,  7-O ) :   2.1636 B(  6-C ,  8-C ) :   0.9242 B(  8-C ,  9-C ) :   1.0751
B(  8-C , 15-C ) :   1.6504 B(  9-C , 10-C ) :   1.6464 B( 10-C , 11-C ) :   1.1533
B( 10-C , 13-C ) :   1.1331 B( 11-C , 12-N ) :   2.9883 B( 13-C , 14-N ) :   2.9615
B( 15-C , 16-C ) :   1.1773 B( 15-C , 65-H ) :   0.9087 B( 16-C , 17-S ) :   1.1434
B( 16-C , 22-C ) :   1.4333 B( 17-S , 18-C ) :   1.1701 B( 18-C , 19-C ) :   1.0001
B( 18-C , 21-C ) :   1.4146 B( 19-C , 20-O ) :   2.1820 B( 19-C , 66-H ) :   0.9514
B( 21-C , 22-C ) :   1.2662 B( 21-C , 23-C ) :   0.9792 B( 22-C , 67-H ) :   0.9856
B( 23-C , 24-N ) :   1.2293 B( 23-C , 30-C ) :   1.4326 B( 24-N , 25-C ) :   0.9337
B( 24-N , 27-C ) :   1.0418 B( 25-C , 26-C ) :   1.1164 B( 25-C , 68-H ) :   0.9482
B( 25-C , 69-H ) :   0.9352 B( 26-C , 70-H ) :   0.9623 B( 26-C , 71-H ) :   0.9650
B( 26-C , 72-H ) :   0.9613 B( 27-C , 28-O ) :   2.0177 B( 27-C , 29-C ) :   1.0007
B( 28-O , 79-H ) :   0.1144 B( 29-C , 30-C ) :   1.2080 B( 29-C , 36-C ) :   1.3524
B( 30-C , 31-C ) :   0.9588 B( 31-C , 32-O ) :   2.1386 B( 31-C , 33-N ) :   1.0383
B( 33-N , 34-C ) :   0.9433 B( 33-N , 36-C ) :   1.1553 B( 34-C , 35-C ) :   1.1213
B( 34-C , 73-H ) :   0.9269 B( 34-C , 74-H ) :   0.9499 B( 35-C , 75-H ) :   0.9633
B( 35-C , 76-H ) :   0.9679 B( 35-C , 77-H ) :   0.9683 B( 36-C , 37-C ) :   1.1635
B( 37-C , 38-C ) :   1.6260 B( 37-C , 78-H ) :   0.9611 B( 38-C , 39-C ) :   1.1225
B( 38-C , 79-H ) :   0.9381 B( 39-C , 40-S ) :   1.1456 B( 39-C , 43-C ) :   1.4635
B( 40-S , 41-C ) :   1.1641 B( 41-C , 42-C ) :   1.3891 B( 41-C , 46-C ) :   1.1741
B( 42-C , 43-C ) :   1.2629 B( 42-C , 44-C ) :   0.9918 B( 43-C , 80-H ) :   0.9889
B( 44-C , 45-O ) :   2.1310 B( 44-C , 81-H ) :   0.9618 B( 46-C , 47-C ) :   1.5894
B( 46-C , 82-H ) :   0.9702 B( 47-C , 48-C ) :   1.1479 B( 47-C , 83-H ) :   0.9585
B( 48-C , 49-C ) :   1.6084 B( 48-C , 84-H ) :   0.9586 B( 49-C , 50-C ) :   0.9388
B( 49-C , 57-C ) :   1.0442 B( 50-C , 51-O ) :   2.2767 B( 50-C , 52-C ) :   0.9251
B( 52-C , 53-C ) :   1.4873 B( 52-C , 56-C ) :   1.2212 B( 53-C , 54-S ) :   1.1482
B( 53-C , 63-Cl) :   1.1282 B( 54-S , 55-C ) :   1.1581 B( 55-C , 56-C ) :   1.5522
B( 55-C , 85-H ) :   0.9550 B( 56-C , 57-C ) :   1.0100 B( 57-C , 58-C ) :   1.6482
B( 58-C , 59-C ) :   1.1359 B( 58-C , 61-C ) :   1.1528 B( 59-C , 60-N ) :   2.9962
B( 61-C , 62-N ) :   3.0146

-----------------------------------------------------------------------------
         ABSORPTION SPECTRUM VIA TRANSITION ELECTRIC DIPOLE MOMENTS
-----------------------------------------------------------------------------
State   Energy  Wavelength   fosc         T2         TX        TY        TZ
        (cm-1)    (nm)                  (au**2)     (au)      (au)      (au)
-----------------------------------------------------------------------------
   0   15012.1    666.1   0.617148023  13.53389   1.12315  -2.79870  -2.10706
   1   16492.2    606.3   0.121247477   2.42030  -0.20662   0.99020   1.18200
   2   21426.7    466.7   0.728843001  11.19835  -1.41357  -2.11696   2.17225
   3   22309.0    448.2   0.284184689   4.19369  -0.65459   1.22436   1.50537
   4   25419.3    393.4   0.549924951   7.12223   1.49485   2.12661   0.60428
   5   26460.1    377.9   0.066055760   0.82185  -0.18119   0.38439   0.80079
   6   26625.2    375.6   0.024623407   0.30446   0.26481   0.38447  -0.29414
   7   27465.2    364.1   0.028966176   0.34720   0.05563  -0.42601  -0.40326
   8   27877.3    358.7   0.007638476   0.09021   0.02143   0.29955  -0.00418
   9   28216.6    354.4   0.029864255   0.34844  -0.04718   0.49892   0.31192
  10   28754.1    347.8   0.075434834   0.86367   0.16498   0.77829   0.48033
  11   28858.8    346.5   0.121706127   1.38839  -0.23443  -1.00994  -0.55987
  12   28876.8    346.3   0.094416851   1.07640  -0.26082  -0.92445  -0.39214
  13   29106.2    343.6   0.010851744   0.12274  -0.18687  -0.28992  -0.06134
  14   29207.1    342.4   0.178622469   2.01337  -1.20889  -0.64290   0.37233
  15   29388.8    340.3   0.072070446   0.80733  -0.03469  -0.33191  -0.83424
  16   29911.4    334.3   0.073144367   0.80504   0.14868  -0.85359  -0.23306
  17   30419.8    328.7   0.006295759   0.06813  -0.10932   0.06860  -0.22689
  18   30733.5    325.4   0.032230223   0.34524  -0.43700   0.20347   0.33597
  19   31046.4    322.1   0.122166164   1.29543   0.00498  -0.74257  -0.86255
  20   31649.2    316.0   0.012133375   0.12621  -0.07271   0.22553   0.26468
  21   32223.9    310.3   0.009479415   0.09685  -0.23568  -0.20315  -0.00547
  22   32795.2    304.9   0.001849886   0.01857  -0.05602  -0.11340  -0.05071
  23   33354.2    299.8   0.025682547   0.25349  -0.12713  -0.48640   0.02722
  24   33928.1    294.7   0.428193023   4.15485  -1.84968  -0.23050   0.82486
  25   34321.9    291.4   0.166530309   1.59734  -0.67489   0.86670  -0.62506
  26   34592.7    289.1   0.197612651   1.88064  -0.83971  -0.53843   0.94108
  27   34833.2    287.1   0.013331702   0.12600  -0.14210  -0.26221  -0.19249
  28   35185.5    284.2   0.185545389   1.73605  -0.24933  -0.35982  -1.24274
  29   35378.9    282.7   0.096576173   0.89867  -0.69312   0.33854   0.55104
  30   35567.8    281.2   0.020996142   0.19434  -0.09261  -0.33690   0.26881
  31   35669.9    280.3   0.002071106   0.01912  -0.03397  -0.08117   0.10665
  32   35922.6    278.4   0.043903891   0.40236   0.05361   0.59262   0.21972
  33   36213.3    276.1   0.001054747   0.00959  -0.06866   0.06868   0.01258
  34   36462.2    274.3   0.003735696   0.03373   0.05966   0.14795   0.09099
  35   36896.9    271.0   0.056098241   0.50054  -0.25682   0.33776   0.56613
  36   36991.2    270.3   0.450849588   4.01244  -1.67800   0.65964   0.87271
  37   37174.6    269.0   0.038122960   0.33761   0.52201  -0.18063  -0.18025
  38   37770.9    264.8   0.024381924   0.21251  -0.24920   0.37271   0.10722
  39   37776.9    264.7   0.185952119   1.62051   0.32861   0.53942   1.10524
  40   38542.3    259.5   0.319862720   2.73213  -0.32435   1.18312   1.10777
  41   38667.6    258.6   0.092749785   0.78966  -0.12201   0.34992   0.80767
  42   38950.9    256.7   0.005276165   0.04459  -0.00268  -0.19638   0.07760
  43   39189.4    255.2   0.003144285   0.02641   0.13976  -0.00687   0.08267
  44   39856.2    250.9   0.033557464   0.27718   0.14331  -0.41117  -0.29596
  45   40037.6    249.8   0.010041775   0.08257   0.04106  -0.28224  -0.03496

FINAL SINGLE POINT ENERGY     -5055.099333717951

DIPOLE MOMENT
-------------
                                X             Y             Z
Electronic contribution:     36.21834      14.40194     -37.46788
Nuclear contribution   :    -35.56290     -15.32708      36.58140
                        -----------------------------------------
Total Dipole Moment    :      0.65544      -0.92513      -0.88648
                        -----------------------------------------
Magnitude (a.u.)       :      1.43920
Magnitude (Debye)      :      3.65817

Rotational constants in cm-1:     0.001438     0.000313     0.000271
Rotational constants in MHz :    43.123189     9.377233     8.118394

                             ****ORCA TERMINATED NORMALLY****
TOTAL RUN TIME: 0 days 0 hours 7 minutes 43 seconds 385 msec
