                         Program Version 4.2.0 -  RELEASE  -
|  1> # ORCA input file
|  2> # SCF done       -196.615618950307          0.000912097294
|  3> ! CAM-B3LYP def2-SVP def2/J RIJCOSX Grid4 TightSCF
|  4> %maxcore 5000
|  5> %tddft
|  6>     Mode sTDDFT
|  7>     Ethresh 5.0
|  8>     maxcore 5000
|  9> end
| 10>
| 11> %pal
| 12>   nprocs 6
| 13>   end
| 14> * xyz 0 1
| 15>    C       12.55499         3.66086        -1.02811
| 16>    C       12.23917         4.96184        -0.78833
| 17>    S       11.21975         5.11151         0.59616
| 18>    C       11.21857         3.38423         0.86483
| 19>   Cl       10.36668         2.69077         2.15337
| 20>    C       11.97059         2.75524        -0.08260
| 21>    C       12.35883         1.38312        -0.41152
| 22>    O       12.07914         0.36248         0.18627
| 23>    C       13.16944         1.49726        -1.64197
| 24>    C       13.34138         2.90283        -1.98077
| 25>    C       14.12148         3.44775        -2.96560
| 26>    C       14.17830         4.84382        -3.16470
| 27>    N       14.23284         5.97646        -3.33643
| 28>    C       14.96384         2.72720        -3.83527
| 29>    N       15.68881         2.18691        -4.54394
| 30>    C       13.61314         0.46062        -2.41077
| 31>    C       13.51107        -0.93169        -2.22421
| 32>    S       12.89080        -1.73293        -0.80580
| 33>    C       13.23925        -3.27729        -1.48813
| 34>    C       13.79462        -3.18823        -2.75209
| 35>    C       13.95045        -1.86343        -3.17083
| 36>    C       14.51694        -1.48635        -4.51618
| 37>    C       13.57754        -0.62214        -5.20364
| 38>    N       12.80243         0.01742        -5.74686
| 39>    C       14.78067        -2.72134        -5.39584
| 40>    C       15.35844        -3.85962        -4.56606
| 41>    C       14.29515        -4.35130        -3.57083
| 42>    C       14.86401        -5.37258        -2.71801
| 43>    N       15.34795        -6.17006        -2.05851
| 44>    C       12.92646        -4.48086        -0.73288
| 45>    C       13.29814        -4.57513         0.60076
| 46>    C       13.00875        -5.72038         1.33167
| 47>    N       13.52025        -5.79467         2.66936
| 48>    O       13.98835        -4.78567         3.15531
| 49>    O       13.49382        -6.86594         3.24929
| 50>    C       12.30026        -6.78983         0.76308
| 51>    C       11.93296        -6.67640        -0.57741
| 52>    C       12.24133        -5.55381        -1.31366
| 53>    C       11.92035        -7.96254         1.53917
| 54>    C       12.16158        -9.21657         1.17057
| 55>    C       11.84221       -10.36737         2.07257
| 56>    C       10.38852       -10.33288         2.55575
| 57>    O        9.41846       -10.12953         1.89074
| 58>    O       10.33923       -10.56088         3.87490
| 59>    C       11.62066       -10.85447         4.42129
| 60>    C       12.62847       -10.30604         3.39220
| 61>    C       13.99142       -10.98688         3.35321
| 62>    C       13.93777       -12.50210         3.46361
| 63>    C       13.10415       -12.99089         4.63983
| 64>    C       11.69927       -12.37034         4.71058
| 65>    O       11.27116       -12.61519         6.04595
| 66>    C       12.30145       -12.85887         6.86507
| 67>    O       12.18313       -13.06268         8.03319
| 68>    C       13.62628       -12.80691         6.07371
| 69>    C       14.28259       -11.52262         6.45979
| 70>    C       15.28023       -11.46351         7.34699
| 71>    C       15.81146       -10.23812         7.88637
| 72>    C       16.14853        -9.09580         7.25015
| 73>    C       16.27951        -7.82109         8.03810
| 74>    O       16.34638        -7.72891         9.23851
| 75>    C       16.25436        -6.76485         7.02182
| 76>    C       16.23085        -5.40116         6.98549
| 77>    S       16.21814        -4.82701         5.33562
| 78>    C       16.27158        -6.42950         4.71202
| 79>    C       16.27402        -7.35109         5.71317
| 80>    C       16.33338        -8.79111         5.83942
| 81>    C       16.70323        -9.64673         4.83741
| 82>    C       16.90898        -9.18893         3.51820
| 83>    N       17.04915        -8.84257         2.43369
| 84>    C       16.95083       -11.02369         4.99957
| 85>    N       17.17798       -12.14732         5.05930
| 86>   Cl       16.21450        -4.32473         8.29360
| 87>    H       12.52813         5.84241        -1.32713
| 88>    H       14.10998         0.74204        -3.32984
| 89>    H       15.45145        -0.92617        -4.37446
| 90>    H       15.46925        -2.44816        -6.19624
| 91>    H       13.84438        -3.04629        -5.85780
| 92>    H       16.23977        -3.51717        -4.01867
| 93>    H       15.66060        -4.68281        -5.21516
| 94>    H       13.46462        -4.80359        -4.13067
| 95>    H       13.84211        -3.77362         1.07795
| 96>    H       11.37642        -7.48399        -1.02645
| 97>    H       11.91935        -5.48842        -2.34148
| 98>    H       11.43513        -7.76332         2.48644
| 99>    H       12.67153        -9.42980         0.24305
|100>    H       12.00305       -11.31711         1.55509
|101>    H       11.67366       -10.32467         5.37810
|102>    H       12.79685        -9.24813         3.62040
|103>    H       14.59601       -10.59856         4.16918
|104>    H       14.49205       -10.70247         2.42590
|105>    H       14.95352       -12.88815         3.56373
|106>    H       13.51010       -12.92580         2.55208
|107>    H       12.96491       -14.07188         4.51546
|108>    H       10.98910       -12.87765         4.04912
|109>    H       14.26599       -13.63553         6.38163
|110>    H       13.82902       -10.60612         6.11043
|111>    H       15.65543       -12.37591         7.79213
|112>    H       15.88913       -10.20560         8.96994
|113>    H       16.28559        -6.58642         3.65207
|114> *
|115>
|116>                          ****END OF INPUT****

CARTESIAN COORDINATES (ANGSTROEM)
---------------------------------
  C     12.554990    3.660860   -1.028110
  C     12.239170    4.961840   -0.788330
  S     11.219750    5.111510    0.596160
  C     11.218570    3.384230    0.864830
  Cl    10.366680    2.690770    2.153370
  C     11.970590    2.755240   -0.082600
  C     12.358830    1.383120   -0.411520
  O     12.079140    0.362480    0.186270
  C     13.169440    1.497260   -1.641970
  C     13.341380    2.902830   -1.980770
  C     14.121480    3.447750   -2.965600
  C     14.178300    4.843820   -3.164700
  N     14.232840    5.976460   -3.336430
  C     14.963840    2.727200   -3.835270
  N     15.688810    2.186910   -4.543940
  C     13.613140    0.460620   -2.410770
  C     13.511070   -0.931690   -2.224210
  S     12.890800   -1.732930   -0.805800
  C     13.239250   -3.277290   -1.488130
  C     13.794620   -3.188230   -2.752090
  C     13.950450   -1.863430   -3.170830
  C     14.516940   -1.486350   -4.516180
  C     13.577540   -0.622140   -5.203640
  N     12.802430    0.017420   -5.746860
  C     14.780670   -2.721340   -5.395840
  C     15.358440   -3.859620   -4.566060
  C     14.295150   -4.351300   -3.570830
  C     14.864010   -5.372580   -2.718010
  N     15.347950   -6.170060   -2.058510
  C     12.926460   -4.480860   -0.732880
  C     13.298140   -4.575130    0.600760
  C     13.008750   -5.720380    1.331670
  N     13.520250   -5.794670    2.669360
  O     13.988350   -4.785670    3.155310
  O     13.493820   -6.865940    3.249290
  C     12.300260   -6.789830    0.763080
  C     11.932960   -6.676400   -0.577410
  C     12.241330   -5.553810   -1.313660
  C     11.920350   -7.962540    1.539170
  C     12.161580   -9.216570    1.170570
  C     11.842210  -10.367370    2.072570
  C     10.388520  -10.332880    2.555750
  O      9.418460  -10.129530    1.890740
  O     10.339230  -10.560880    3.874900
  C     11.620660  -10.854470    4.421290
  C     12.628470  -10.306040    3.392200
  C     13.991420  -10.986880    3.353210
  C     13.937770  -12.502100    3.463610
  C     13.104150  -12.990890    4.639830
  C     11.699270  -12.370340    4.710580
  O     11.271160  -12.615190    6.045950
  C     12.301450  -12.858870    6.865070
  O     12.183130  -13.062680    8.033190
  C     13.626280  -12.806910    6.073710
  C     14.282590  -11.522620    6.459790
  C     15.280230  -11.463510    7.346990
  C     15.811460  -10.238120    7.886370
  C     16.148530   -9.095800    7.250150
  C     16.279510   -7.821090    8.038100
  O     16.346380   -7.728910    9.238510
  C     16.254360   -6.764850    7.021820
  C     16.230850   -5.401160    6.985490
  S     16.218140   -4.827010    5.335620
  C     16.271580   -6.429500    4.712020
  C     16.274020   -7.351090    5.713170
  C     16.333380   -8.791110    5.839420
  C     16.703230   -9.646730    4.837410
  C     16.908980   -9.188930    3.518200
  N     17.049150   -8.842570    2.433690
  C     16.950830  -11.023690    4.999570
  N     17.177980  -12.147320    5.059300
  Cl    16.214500   -4.324730    8.293600
  H     12.528130    5.842410   -1.327130
  H     14.109980    0.742040   -3.329840
  H     15.451450   -0.926170   -4.374460
  H     15.469250   -2.448160   -6.196240
  H     13.844380   -3.046290   -5.857800
  H     16.239770   -3.517170   -4.018670
  H     15.660600   -4.682810   -5.215160
  H     13.464620   -4.803590   -4.130670
  H     13.842110   -3.773620    1.077950
  H     11.376420   -7.483990   -1.026450
  H     11.919350   -5.488420   -2.341480
  H     11.435130   -7.763320    2.486440
  H     12.671530   -9.429800    0.243050
  H     12.003050  -11.317110    1.555090
  H     11.673660  -10.324670    5.378100
  H     12.796850   -9.248130    3.620400
  H     14.596010  -10.598560    4.169180
  H     14.492050  -10.702470    2.425900
  H     14.953520  -12.888150    3.563730
  H     13.510100  -12.925800    2.552080
  H     12.964910  -14.071880    4.515460
  H     10.989100  -12.877650    4.049120
  H     14.265990  -13.635530    6.381630
  H     13.829020  -10.606120    6.110430
  H     15.655430  -12.375910    7.792130
  H     15.889130  -10.205600    8.969940
  H     16.285590   -6.586420    3.652070

 Total Charge           Charge          ....    0
 Multiplicity           Mult            ....    1
 Number of Electrons    NEL             ....  534
 Basis Dimension        Dim             .... 1163

ORBITAL ENERGIES
----------------

  NO   OCC          E(Eh)            E(eV)
   0   2.0000    -101.624463     -2765.3422
   1   2.0000    -101.613362     -2765.0402
   2   2.0000     -89.000354     -2421.8228
   3   2.0000     -88.988403     -2421.4976
   4   2.0000     -88.987955     -2421.4854
   5   2.0000     -19.266721      -524.2741
   6   2.0000     -19.266524      -524.2688
   7   2.0000     -19.265704      -524.2464
   8   2.0000     -19.265393      -524.2380
   9   2.0000     -19.236412      -523.4494
  10   2.0000     -19.218419      -522.9598
  11   2.0000     -19.203852      -522.5634
  12   2.0000     -19.202182      -522.5179
  13   2.0000     -14.671384      -399.2287
  14   2.0000     -14.431084      -392.6898
  15   2.0000     -14.425149      -392.5283
  16   2.0000     -14.424241      -392.5035
  17   2.0000     -14.423067      -392.4716
  18   2.0000     -14.419673      -392.3792
  19   2.0000     -14.417689      -392.3253
  20   2.0000     -10.401664      -283.0437
  21   2.0000     -10.400054      -282.9999
  22   2.0000     -10.390062      -282.7280
  23   2.0000     -10.384041      -282.5641
  24   2.0000     -10.374938      -282.3164
  25   2.0000     -10.371567      -282.2247
  26   2.0000     -10.356740      -281.8212
  27   2.0000     -10.354704      -281.7658
  28   2.0000     -10.351212      -281.6708
  29   2.0000     -10.350086      -281.6402
  30   2.0000     -10.348289      -281.5913
  31   2.0000     -10.348141      -281.5872
  32   2.0000     -10.347166      -281.5607
  33   2.0000     -10.346941      -281.5546
  34   2.0000     -10.346480      -281.5420
  35   2.0000     -10.338913      -281.3361
  36   2.0000     -10.336646      -281.2744
  37   2.0000     -10.334594      -281.2186
  38   2.0000     -10.334305      -281.2107
  39   2.0000     -10.333708      -281.1945
  40   2.0000     -10.328311      -281.0476
  41   2.0000     -10.327325      -281.0208
  42   2.0000     -10.327032      -281.0128
  43   2.0000     -10.326949      -281.0106
  44   2.0000     -10.325215      -280.9634
  45   2.0000     -10.325209      -280.9632
  46   2.0000     -10.322151      -280.8800
  47   2.0000     -10.321131      -280.8523
  48   2.0000     -10.319806      -280.8162
  49   2.0000     -10.319789      -280.8157
  50   2.0000     -10.319256      -280.8012
  51   2.0000     -10.318079      -280.7692
  52   2.0000     -10.316275      -280.7201
  53   2.0000     -10.316143      -280.7165
  54   2.0000     -10.315987      -280.7123
  55   2.0000     -10.312389      -280.6144
  56   2.0000     -10.312244      -280.6104
  57   2.0000     -10.308575      -280.5106
  58   2.0000     -10.308069      -280.4968
  59   2.0000     -10.306382      -280.4509
  60   2.0000     -10.306015      -280.4409
  61   2.0000     -10.305950      -280.4392
  62   2.0000     -10.302771      -280.3526
  63   2.0000     -10.300660      -280.2952
  64   2.0000     -10.299979      -280.2767
  65   2.0000     -10.297816      -280.2178
  66   2.0000     -10.296757      -280.1890
  67   2.0000     -10.295018      -280.1417
  68   2.0000     -10.292872      -280.0833
  69   2.0000     -10.291237      -280.0388
  70   2.0000     -10.281700      -279.7793
  71   2.0000     -10.279507      -279.7196
  72   2.0000      -9.579273      -260.6653
  73   2.0000      -9.568156      -260.3628
  74   2.0000      -8.096039      -220.3044
  75   2.0000      -8.084007      -219.9770
  76   2.0000      -8.081198      -219.9006
  77   2.0000      -7.349917      -200.0014
  78   2.0000      -7.339288      -199.7122
  79   2.0000      -7.338766      -199.6980
  80   2.0000      -7.338746      -199.6974
  81   2.0000      -7.328219      -199.4110
  82   2.0000      -7.327687      -199.3965
  83   2.0000      -6.065439      -165.0490
  84   2.0000      -6.060803      -164.9228
  85   2.0000      -6.058279      -164.8541
  86   2.0000      -6.053367      -164.7205
  87   2.0000      -6.050446      -164.6410
  88   2.0000      -6.048701      -164.5935
  89   2.0000      -6.046290      -164.5279
  90   2.0000      -6.045958      -164.5189
  91   2.0000      -6.043692      -164.4572
  92   2.0000      -1.345840       -36.6222
  93   2.0000      -1.206356       -32.8266
  94   2.0000      -1.198360       -32.6090
  95   2.0000      -1.162374       -31.6298
  96   2.0000      -1.153421       -31.3862
  97   2.0000      -1.135642       -30.9024
  98   2.0000      -1.114625       -30.3305
  99   2.0000      -1.108980       -30.1769
 100   2.0000      -1.046111       -28.4661
 101   2.0000      -1.037853       -28.2414
 102   2.0000      -1.035660       -28.1817
 103   2.0000      -1.025545       -27.9065
 104   2.0000      -1.019771       -27.7494
 105   2.0000      -1.011391       -27.5214
 106   2.0000      -1.007510       -27.4157
 107   2.0000      -1.006635       -27.3919
 108   2.0000      -1.002456       -27.2782
 109   2.0000      -1.002362       -27.2757
 110   2.0000      -0.996196       -27.1079
 111   2.0000      -0.987429       -26.8693
 112   2.0000      -0.965553       -26.2740
 113   2.0000      -0.961692       -26.1690
 114   2.0000      -0.959557       -26.1109
 115   2.0000      -0.952884       -25.9293
 116   2.0000      -0.943613       -25.6770
 117   2.0000      -0.936201       -25.4753
 118   2.0000      -0.920584       -25.0504
 119   2.0000      -0.919292       -25.0152
 120   2.0000      -0.915318       -24.9071
 121   2.0000      -0.907618       -24.6975
 122   2.0000      -0.900544       -24.5050
 123   2.0000      -0.895513       -24.3681
 124   2.0000      -0.880512       -23.9599
 125   2.0000      -0.866651       -23.5828
 126   2.0000      -0.854975       -23.2650
 127   2.0000      -0.853119       -23.2146
 128   2.0000      -0.840766       -22.8784
 129   2.0000      -0.837828       -22.7985
 130   2.0000      -0.829920       -22.5833
 131   2.0000      -0.826799       -22.4983
 132   2.0000      -0.812796       -22.1173
 133   2.0000      -0.804875       -21.9018
 134   2.0000      -0.796056       -21.6618
 135   2.0000      -0.782556       -21.2944
 136   2.0000      -0.776156       -21.1203
 137   2.0000      -0.764780       -20.8107
 138   2.0000      -0.753433       -20.5020
 139   2.0000      -0.749950       -20.4072
 140   2.0000      -0.741588       -20.1796
 141   2.0000      -0.726554       -19.7705
 142   2.0000      -0.722839       -19.6694
 143   2.0000      -0.714666       -19.4471
 144   2.0000      -0.703610       -19.1462
 145   2.0000      -0.696377       -18.9494
 146   2.0000      -0.694297       -18.8928
 147   2.0000      -0.689343       -18.7580
 148   2.0000      -0.684845       -18.6356
 149   2.0000      -0.679685       -18.4952
 150   2.0000      -0.674899       -18.3649
 151   2.0000      -0.670525       -18.2459
 152   2.0000      -0.665736       -18.1156
 153   2.0000      -0.660620       -17.9764
 154   2.0000      -0.654175       -17.8010
 155   2.0000      -0.648671       -17.6512
 156   2.0000      -0.645375       -17.5615
 157   2.0000      -0.642833       -17.4924
 158   2.0000      -0.639512       -17.4020
 159   2.0000      -0.628580       -17.1045
 160   2.0000      -0.626484       -17.0475
 161   2.0000      -0.621308       -16.9067
 162   2.0000      -0.619993       -16.8709
 163   2.0000      -0.618664       -16.8347
 164   2.0000      -0.616526       -16.7765
 165   2.0000      -0.614720       -16.7274
 166   2.0000      -0.608821       -16.5669
 167   2.0000      -0.606225       -16.4962
 168   2.0000      -0.601122       -16.3573
 169   2.0000      -0.600127       -16.3303
 170   2.0000      -0.583072       -15.8662
 171   2.0000      -0.577164       -15.7054
 172   2.0000      -0.574242       -15.6259
 173   2.0000      -0.572507       -15.5787
 174   2.0000      -0.566861       -15.4251
 175   2.0000      -0.563882       -15.3440
 176   2.0000      -0.560532       -15.2528
 177   2.0000      -0.556882       -15.1535
 178   2.0000      -0.554051       -15.0765
 179   2.0000      -0.549902       -14.9636
 180   2.0000      -0.548852       -14.9350
 181   2.0000      -0.548659       -14.9298
 182   2.0000      -0.546452       -14.8697
 183   2.0000      -0.545194       -14.8355
 184   2.0000      -0.539414       -14.6782
 185   2.0000      -0.537253       -14.6194
 186   2.0000      -0.535329       -14.5670
 187   2.0000      -0.531549       -14.4642
 188   2.0000      -0.531367       -14.4592
 189   2.0000      -0.530171       -14.4267
 190   2.0000      -0.528326       -14.3765
 191   2.0000      -0.520878       -14.1738
 192   2.0000      -0.520147       -14.1539
 193   2.0000      -0.516526       -14.0554
 194   2.0000      -0.514871       -14.0104
 195   2.0000      -0.512820       -13.9545
 196   2.0000      -0.507903       -13.8208
 197   2.0000      -0.506878       -13.7929
 198   2.0000      -0.505352       -13.7513
 199   2.0000      -0.501470       -13.6457
 200   2.0000      -0.498490       -13.5646
 201   2.0000      -0.496260       -13.5039
 202   2.0000      -0.491732       -13.3807
 203   2.0000      -0.490791       -13.3551
 204   2.0000      -0.489139       -13.3101
 205   2.0000      -0.486008       -13.2250
 206   2.0000      -0.484255       -13.1772
 207   2.0000      -0.481543       -13.1035
 208   2.0000      -0.477810       -13.0019
 209   2.0000      -0.473417       -12.8823
 210   2.0000      -0.470089       -12.7918
 211   2.0000      -0.468085       -12.7372
 212   2.0000      -0.464451       -12.6384
 213   2.0000      -0.461334       -12.5535
 214   2.0000      -0.460000       -12.5172
 215   2.0000      -0.459210       -12.4957
 216   2.0000      -0.458344       -12.4722
 217   2.0000      -0.456756       -12.4290
 218   2.0000      -0.455051       -12.3826
 219   2.0000      -0.453917       -12.3517
 220   2.0000      -0.453015       -12.3272
 221   2.0000      -0.449191       -12.2231
 222   2.0000      -0.448576       -12.2064
 223   2.0000      -0.448042       -12.1918
 224   2.0000      -0.446671       -12.1545
 225   2.0000      -0.445366       -12.1190
 226   2.0000      -0.444310       -12.0903
 227   2.0000      -0.443706       -12.0739
 228   2.0000      -0.439801       -11.9676
 229   2.0000      -0.439342       -11.9551
 230   2.0000      -0.437196       -11.8967
 231   2.0000      -0.435864       -11.8605
 232   2.0000      -0.433182       -11.7875
 233   2.0000      -0.430725       -11.7206
 234   2.0000      -0.427439       -11.6312
 235   2.0000      -0.423890       -11.5346
 236   2.0000      -0.422684       -11.5018
 237   2.0000      -0.421482       -11.4691
 238   2.0000      -0.418888       -11.3985
 239   2.0000      -0.416813       -11.3421
 240   2.0000      -0.415095       -11.2953
 241   2.0000      -0.412130       -11.2146
 242   2.0000      -0.409657       -11.1473
 243   2.0000      -0.408333       -11.1113
 244   2.0000      -0.405397       -11.0314
 245   2.0000      -0.404176       -10.9982
 246   2.0000      -0.403677       -10.9846
 247   2.0000      -0.399814       -10.8795
 248   2.0000      -0.396976       -10.8023
 249   2.0000      -0.391891       -10.6639
 250   2.0000      -0.388032       -10.5589
 251   2.0000      -0.376667       -10.2496
 252   2.0000      -0.368632       -10.0310
 253   2.0000      -0.364374        -9.9151
 254   2.0000      -0.361987        -9.8502
 255   2.0000      -0.353221        -9.6116
 256   2.0000      -0.350878        -9.5479
 257   2.0000      -0.348537        -9.4842
 258   2.0000      -0.347905        -9.4670
 259   2.0000      -0.342577        -9.3220
 260   2.0000      -0.341369        -9.2891
 261   2.0000      -0.330099        -8.9825
 262   2.0000      -0.328283        -8.9330
 263   2.0000      -0.319517        -8.6945
 264   2.0000      -0.317475        -8.6389
 265   2.0000      -0.305790        -8.3210
 266   2.0000      -0.294967        -8.0265
 267   0.0000      -0.107388        -2.9222
 268   0.0000      -0.088747        -2.4149
 269   0.0000      -0.075077        -2.0430
 270   0.0000      -0.062985        -1.7139
 271   0.0000      -0.046989        -1.2786

MULLIKEN ATOMIC CHARGES
-----------------------
   0 C :    0.028663
   1 C :   -0.124837
   2 S :    0.191248
   3 C :   -0.171159
   4 Cl:    0.003288
   5 C :    0.078831
   6 C :    0.170100
   7 O :   -0.162878
   8 C :   -0.103553
   9 C :    0.295134
  10 C :   -0.322957
  11 C :   -0.195976
  12 N :    0.158421
  13 C :   -0.167915
  14 N :    0.142115
  15 C :   -0.051155
  16 C :   -0.088372
  17 S :    0.242485
  18 C :   -0.125952
  19 C :   -0.005957
  20 C :   -0.042489
  21 C :    0.063109
  22 C :   -0.323263
  23 N :    0.134505
  24 C :    0.095671
  25 C :    0.058117
  26 C :    0.068579
  27 C :   -0.316006
  28 N :    0.145376
  29 C :    0.040927
  30 C :   -0.052844
  31 C :    0.170813
  32 N :    0.258940
  33 O :   -0.236532
  34 O :   -0.237786
  35 C :    0.020911
  36 C :   -0.018031
  37 C :    0.062625
  38 C :    0.014914
  39 C :    0.009562
  40 C :   -0.066056
  41 C :    0.184219
  42 O :   -0.152679
  43 O :   -0.256617
  44 C :    0.170157
  45 C :   -0.100160
  46 C :    0.067156
  47 C :    0.123775
  48 C :   -0.080762
  49 C :    0.155850
  50 O :   -0.250351
  51 C :    0.181458
  52 O :   -0.147604
  53 C :   -0.069639
  54 C :    0.012513
  55 C :    0.018064
  56 C :    0.019287
  57 C :   -0.134217
  58 C :    0.132853
  59 O :   -0.124643
  60 C :    0.090271
  61 C :   -0.178986
  62 S :    0.212543
  63 C :   -0.106956
  64 C :    0.013537
  65 C :    0.274363
  66 C :   -0.339464
  67 C :   -0.201167
  68 N :    0.165858
  69 C :   -0.184178
  70 N :    0.163499
  71 Cl:   -0.003539
  72 H :    0.055788
  73 H :    0.018409
  74 H :    0.067184
  75 H :    0.038422
  76 H :    0.020164
  77 H :    0.025245
  78 H :    0.034217
  79 H :    0.048142
  80 H :    0.010647
  81 H :    0.000205
  82 H :   -0.010670
  83 H :    0.026352
  84 H :    0.005876
  85 H :    0.027275
  86 H :    0.023137
  87 H :    0.034792
  88 H :    0.018214
  89 H :    0.020207
  90 H :    0.026696
  91 H :   -0.000752
  92 H :    0.022820
  93 H :    0.019017
  94 H :    0.036972
  95 H :    0.018764
  96 H :    0.027199
  97 H :    0.046714
  98 H :    0.043904
Sum of atomic charges:   -0.0000000

LOEWDIN ATOMIC CHARGES
----------------------
   0 C :   -0.058238
   1 C :   -0.145352
   2 S :    0.479537
   3 C :   -0.270760
   4 Cl:    0.194989
   5 C :   -0.116843
   6 C :    0.083530
   7 O :   -0.155893
   8 C :   -0.093378
   9 C :    0.077994
  10 C :   -0.135725
  11 C :   -0.015727
  12 N :   -0.048246
  13 C :   -0.015225
  14 N :   -0.053778
  15 C :    0.060038
  16 C :   -0.187970
  17 S :    0.547142
  18 C :   -0.151137
  19 C :   -0.063275
  20 C :   -0.015753
  21 C :   -0.044205
  22 C :   -0.037044
  23 N :   -0.055891
  24 C :   -0.006251
  25 C :   -0.005132
  26 C :   -0.045060
  27 C :   -0.034743
  28 N :   -0.054565
  29 C :   -0.046796
  30 C :    0.018411
  31 C :   -0.028825
  32 N :    0.294449
  33 O :   -0.203451
  34 O :   -0.193867
  35 C :    0.016160
  36 C :    0.000578
  37 C :    0.025095
  38 C :   -0.012170
  39 C :   -0.001377
  40 C :   -0.061743
  41 C :    0.076068
  42 O :   -0.147692
  43 O :   -0.066965
  44 C :    0.064389
  45 C :   -0.029970
  46 C :   -0.027931
  47 C :   -0.024999
  48 C :   -0.032686
  49 C :    0.068322
  50 O :   -0.066215
  51 C :    0.080495
  52 O :   -0.140340
  53 C :   -0.052531
  54 C :    0.008586
  55 C :   -0.017337
  56 C :    0.073880
  57 C :   -0.083428
  58 C :    0.082075
  59 O :   -0.128755
  60 C :   -0.121219
  61 C :   -0.274533
  62 S :    0.500127
  63 C :   -0.142804
  64 C :   -0.062224
  65 C :    0.071767
  66 C :   -0.144347
  67 C :   -0.016143
  68 N :   -0.051638
  69 C :   -0.015365
  70 N :   -0.052479
  71 Cl:    0.188802
  72 H :    0.038993
  73 H :    0.049403
  74 H :    0.066933
  75 H :    0.042783
  76 H :    0.035175
  77 H :    0.036374
  78 H :    0.039642
  79 H :    0.056649
  80 H :    0.039795
  81 H :    0.041297
  82 H :    0.034522
  83 H :    0.031435
  84 H :    0.028987
  85 H :    0.042275
  86 H :    0.028473
  87 H :    0.037387
  88 H :    0.023920
  89 H :    0.036212
  90 H :    0.037801
  91 H :    0.023229
  92 H :    0.040299
  93 H :    0.030999
  94 H :    0.049470
  95 H :    0.024216
  96 H :    0.044498
  97 H :    0.052937
  98 H :    0.031884

  Mayer bond orders larger than 0.100000
B(  0-C ,  1-C ) :   1.5489 B(  0-C ,  5-C ) :   1.2265 B(  0-C ,  9-C ) :   0.9959
B(  1-C ,  2-S ) :   1.1619 B(  1-C , 72-H ) :   0.9541 B(  2-S ,  3-C ) :   1.1515
B(  3-C ,  4-Cl) :   1.1322 B(  3-C ,  5-C ) :   1.4707 B(  5-C ,  6-C ) :   0.9677
B(  6-C ,  7-O ) :   2.1515 B(  6-C ,  8-C ) :   0.9615 B(  8-C ,  9-C ) :   1.0709
B(  8-C , 15-C ) :   1.5958 B(  9-C , 10-C ) :   1.6538 B( 10-C , 11-C ) :   1.1485
B( 10-C , 13-C ) :   1.1419 B( 11-C , 12-N ) :   2.9917 B( 13-C , 14-N ) :   2.9605
B( 15-C , 16-C ) :   1.2255 B( 15-C , 73-H ) :   0.9170 B( 16-C , 17-S ) :   1.1078
B( 16-C , 18-C ) :   0.1034 B( 16-C , 20-C ) :   1.4142 B( 17-S , 18-C ) :   1.1812
B( 18-C , 19-C ) :   1.4863 B( 18-C , 29-C ) :   0.9850 B( 19-C , 20-C ) :   1.4297
B( 19-C , 26-C ) :   0.9652 B( 20-C , 21-C ) :   1.0010 B( 21-C , 22-C ) :   1.0343
B( 21-C , 24-C ) :   1.0902 B( 21-C , 74-H ) :   0.8125 B( 22-C , 23-N ) :   3.1036
B( 24-C , 25-C ) :   1.1155 B( 24-C , 75-H ) :   0.9304 B( 24-C , 76-H ) :   0.9155
B( 25-C , 26-C ) :   1.1110 B( 25-C , 77-H ) :   0.9183 B( 25-C , 78-H ) :   0.9350
B( 26-C , 27-C ) :   1.0434 B( 26-C , 79-H ) :   0.8308 B( 27-C , 28-N ) :   3.1077
B( 29-C , 30-C ) :   1.3307 B( 29-C , 37-C ) :   1.3417 B( 30-C , 31-C ) :   1.3530
B( 30-C , 80-H ) :   0.9909 B( 31-C , 32-N ) :   0.8915 B( 31-C , 35-C ) :   1.3515
B( 32-N , 33-O ) :   1.5497 B( 32-N , 34-O ) :   1.4986 B( 33-O , 34-O ) :   0.2552
B( 35-C , 36-C ) :   1.3831 B( 35-C , 38-C ) :   1.0360 B( 36-C , 37-C ) :   1.3799
B( 36-C , 81-H ) :   0.9957 B( 37-C , 82-H ) :   0.9927 B( 38-C , 39-C ) :   1.8922
B( 38-C , 83-H ) :   0.9249 B( 39-C , 40-C ) :   1.0183 B( 39-C , 84-H ) :   0.9793
B( 40-C , 41-C ) :   0.8902 B( 40-C , 45-C ) :   0.9769 B( 40-C , 85-H ) :   0.8991
B( 41-C , 42-O ) :   2.2558 B( 41-C , 43-O ) :   1.1384 B( 43-O , 44-C ) :   0.9581
B( 44-C , 45-C ) :   1.0158 B( 44-C , 49-C ) :   0.9726 B( 44-C , 86-H ) :   0.9066
B( 45-C , 46-C ) :   1.0693 B( 45-C , 87-H ) :   0.9056 B( 46-C , 47-C ) :   1.0663
B( 46-C , 88-H ) :   0.9220 B( 46-C , 89-H ) :   0.9185 B( 47-C , 48-C ) :   1.0655
B( 47-C , 90-H ) :   0.9178 B( 47-C , 91-H ) :   0.9312 B( 48-C , 49-C ) :   1.0120
B( 48-C , 53-C ) :   0.9847 B( 48-C , 92-H ) :   0.9069 B( 49-C , 50-O ) :   0.9612
B( 49-C , 93-H ) :   0.9192 B( 50-O , 51-C ) :   1.1354 B( 51-C , 52-O ) :   2.2542
B( 51-C , 53-C ) :   0.8808 B( 53-C , 54-C ) :   1.0141 B( 53-C , 94-H ) :   0.9159
B( 54-C , 55-C ) :   1.8502 B( 54-C , 95-H ) :   0.9413 B( 55-C , 56-C ) :   1.0495
B( 55-C , 96-H ) :   0.9471 B( 56-C , 57-C ) :   1.7739 B( 56-C , 97-H ) :   0.9227
B( 57-C , 58-C ) :   0.9193 B( 57-C , 65-C ) :   1.0222 B( 58-C , 59-O ) :   2.2882
B( 58-C , 60-C ) :   0.9250 B( 60-C , 61-C ) :   1.4739 B( 60-C , 64-C ) :   1.2166
B( 61-C , 62-S ) :   1.1646 B( 61-C , 71-Cl) :   1.1257 B( 62-S , 63-C ) :   1.1722
B( 63-C , 64-C ) :   1.5499 B( 63-C , 98-H ) :   0.9510 B( 64-C , 65-C ) :   1.0233
B( 65-C , 66-C ) :   1.6658 B( 66-C , 67-C ) :   1.1441 B( 66-C , 69-C ) :   1.1636
B( 67-C , 68-N ) :   2.9773 B( 69-C , 70-N ) :   2.9401

-----------------------------------------------------------------------------
         ABSORPTION SPECTRUM VIA TRANSITION ELECTRIC DIPOLE MOMENTS
-----------------------------------------------------------------------------
State   Energy  Wavelength   fosc         T2         TX        TY        TZ
        (cm-1)    (nm)                  (au**2)     (au)      (au)      (au)
-----------------------------------------------------------------------------
   0   23979.5    417.0   0.982558217  13.48942   0.17990   3.63895  -0.46375
   1   28466.6    351.3   0.028355549   0.32793   0.06264  -0.56553   0.06465
   2   28874.2    346.3   0.133852360   1.52613  -0.97514  -0.37856   0.65721
   3   29148.8    343.1   0.099105898   1.11932  -0.22207   1.01907   0.17746
   4   29352.9    340.7   0.043626126   0.48930   0.00200  -0.60026   0.35913
   5   29690.8    336.8   0.093346678   1.03503   0.35094   0.93040   0.21503
   6   30212.3    331.0   0.089545390   0.97574   0.41331   0.78013  -0.44308
   7   31765.5    314.8   0.066181198   0.68589   0.50791  -0.39526  -0.52123
   8   32125.1    311.3   0.005151705   0.05279  -0.06194  -0.22099   0.01088
   9   32704.7    305.8   0.118704792   1.19491  -0.73672   0.56830   0.57374
  10   33537.5    298.2   0.087210109   0.85608  -0.23084   0.76143   0.47224
  11   33597.3    297.6   0.018696029   0.18320   0.00248   0.39840  -0.15642
  12   33965.4    294.4   0.023001784   0.22295  -0.20278   0.35394   0.23781
  13   34065.3    293.6   0.002365441   0.02286  -0.09810   0.03378  -0.10998
  14   34404.2    290.7   0.010980971   0.10508  -0.02872   0.32281  -0.00649
  15   34490.6    289.9   0.021712008   0.20724  -0.10299   0.18226   0.40425
  16   35354.0    282.9   0.082769677   0.77074  -0.46138   0.26748   0.69737
  17   35826.8    279.1   0.063230066   0.58102   0.38449  -0.13350  -0.64449
  18   36783.4    271.9   0.087564520   0.78370   0.15418  -0.85439   0.17308
  19   37137.5    269.3   0.544263548   4.82472  -0.25001  -1.94072  -0.99791
  20   37362.7    267.6   0.042449956   0.37404   0.12508   0.59858   0.00980
  21   37484.7    266.8   0.546968196   4.80378  -1.30632   0.44056   1.70389
  22   37795.9    264.6   0.099093357   0.86313  -0.23255   0.47496   0.76385
  23   37963.6    263.4   0.061547178   0.53372   0.20509  -0.70108   0.01251
  24   38112.7    262.4   0.011125707   0.09610  -0.29155   0.10055  -0.03149
  25   38438.5    260.2   0.003362129   0.02880  -0.11834   0.02034   0.11991
  26   39462.0    253.4   0.006112684   0.05100  -0.12903  -0.18479   0.01404
  27   39696.8    251.9   0.267851305   2.22133  -0.31814  -1.40675   0.37574
  28   40118.7    249.3   0.185792114   1.52460  -0.23610  -1.18612   0.24893

FINAL SINGLE POINT ENERGY     -5093.229470912296

DIPOLE MOMENT
-------------
                                X             Y             Z
Electronic contribution:     -2.49275      82.35734      24.91003
Nuclear contribution   :      2.60561     -81.75503     -26.64303
                        -----------------------------------------
Total Dipole Moment    :      0.11287       0.60231      -1.73300
                        -----------------------------------------
Magnitude (a.u.)       :      1.83815
Magnitude (Debye)      :      4.67221

Rotational constants in cm-1:     0.001450     0.000378     0.000345
Rotational constants in MHz :    43.478918    11.319413    10.350513

                             ****ORCA TERMINATED NORMALLY****
TOTAL RUN TIME: 0 days 0 hours 10 minutes 42 seconds 421 msec
