                         Program Version 4.2.0 -  RELEASE  -
|  1> # ORCA input file
|  2> # SCF done       -173.523062694240          0.000851148679
|  3> ! CAM-B3LYP def2-SVP def2/J RIJCOSX Grid4 TightSCF
|  4> %maxcore 5000
|  5> %tddft
|  6>     Mode sTDDFT
|  7>     Ethresh 5.0
|  8>     maxcore 5000
|  9> end
| 10>
| 11> %pal
| 12>   nprocs 6
| 13>   end
| 14> * xyz 0 1
| 15>    C        0.35952         0.06092         0.96282
| 16>    C       -0.68377         0.76456         1.47848
| 17>    S       -0.63286         0.78334         3.20414
| 18>    C        0.83002        -0.17222         3.23546
| 19>   Cl        1.56683        -0.61105         4.69602
| 20>    C        1.22720        -0.47606         1.96772
| 21>    C        2.31791        -1.21539         1.33039
| 22>    O        3.23733        -1.79122         1.87980
| 23>    C        2.06374        -1.11167        -0.12280
| 24>    C        0.86526        -0.31559        -0.34411
| 25>    C        0.28097         0.04730        -1.52877
| 26>    C       -0.89295         0.83044        -1.55302
| 27>    N       -1.84749         1.46558        -1.59117
| 28>    C        0.73679        -0.27983        -2.82121
| 29>    N        1.05004        -0.50522        -3.90267
| 30>    C        2.81692        -1.68644        -1.11104
| 31>    C        3.97502        -2.48285        -1.03250
| 32>    S        4.83268        -2.95653         0.41056
| 33>    C        5.98899        -3.86376        -0.51193
| 34>    C        5.71566        -3.79444        -1.88981
| 35>    C        4.59227        -3.01530        -2.15965
| 36>    C        6.48990        -4.44401        -2.95056
| 37>    O        6.23172        -4.34303        -4.12362
| 38>    C        7.03159        -4.57817         0.11685
| 39>    C        7.25014        -4.55692         1.46141
| 40>    C        8.26192        -5.32494         2.07887
| 41>    N        8.50047        -5.33531         3.43393
| 42>    C        7.77707        -4.59549         4.44047
| 43>    C        6.44166        -5.25205         4.78115
| 44>    C        9.53067        -6.22271         3.78176
| 45>    O        9.91878        -6.39042         4.92083
| 46>    C        9.95532        -6.79188         2.51985
| 47>    C        9.16960        -6.21119         1.49565
| 48>    C        9.58994        -6.78043         0.23503
| 49>    O        9.21836        -6.59044        -0.90766
| 50>    N       10.60030        -7.68958         0.58327
| 51>    C       11.31087        -8.43921        -0.42436
| 52>    C       12.69358        -7.85312        -0.69900
| 53>    C       10.82691        -7.71432         1.94111
| 54>    C       11.75089        -8.58655         2.56790
| 55>    C       11.94819        -8.59357         3.91121
| 56>    C       12.81531        -9.48951         4.59184
| 57>    S       12.93173        -9.41169         6.31750
| 58>    C       14.01430       -10.76193         6.36464
| 59>    C       14.55451       -11.16113         7.63772
| 60>    O       15.27609       -12.11282         7.84808
| 61>    C       14.28421       -11.23758         5.07545
| 62>    C       13.62603       -10.49195         4.08995
| 63>    C       15.17432       -12.32787         4.74493
| 64>    C       15.28849       -13.52805         5.34061
| 65>    C       16.50173       -14.37355         5.07375
| 66>    O       17.27034       -14.24976         4.15315
| 67>    C       16.53752       -15.30583         6.20356
| 68>    C       17.38630       -16.25523         6.69129
| 69>    S       16.74077       -16.95914         8.15449
| 70>    C       15.32795       -15.97251         8.08660
| 71>    C       15.35846       -15.14721         7.00678
| 72>    C       14.50420       -14.14761         6.40372
| 73>    C       13.17330       -13.98314         6.66209
| 74>    C       12.53308       -14.68875         7.70318
| 75>    N       12.00184       -15.24960         8.55061
| 76>    C       12.31059       -13.16562         5.90687
| 77>    N       11.56118       -12.55239         5.29012
| 78>   Cl       18.87147       -16.75735         6.05156
| 79>    H       -1.48154         1.27114         0.97282
| 80>    H        2.48626        -1.52668        -2.13075
| 81>    H        4.23233        -2.84739        -3.16007
| 82>    H        7.34354        -5.04928        -2.60204
| 83>    H        7.67560        -5.18074        -0.50903
| 84>    H        6.62041        -3.94085         2.08824
| 85>    H        7.62959        -3.56674         4.10110
| 86>    H        8.41734        -4.58737         5.32710
| 87>    H        5.79373        -5.29965         3.90894
| 88>    H        5.94020        -4.67978         5.55643
| 89>    H        6.60744        -6.26244         5.14686
| 90>    H       10.70091        -8.37945        -1.33003
| 91>    H       11.38345        -9.48704        -0.11939
| 92>    H       12.59957        -6.82753        -1.04713
| 93>    H       13.19341        -8.43543        -1.46800
| 94>    H       13.30682        -7.85755         0.19961
| 95>    H       12.28880        -9.27967         1.93869
| 96>    H       11.40315        -7.89230         4.52956
| 97>    H       14.23990       -10.49503         8.46306
| 98>    H       13.71395       -10.71602         3.04237
| 99>    H       15.86081       -12.13842         3.92505
|100>    H       14.58434       -16.05861         8.85385
|101> *
|102>
|103>                          ****END OF INPUT****

CARTESIAN COORDINATES (ANGSTROEM)
---------------------------------
  C      0.359520    0.060920    0.962820
  C     -0.683770    0.764560    1.478480
  S     -0.632860    0.783340    3.204140
  C      0.830020   -0.172220    3.235460
  Cl     1.566830   -0.611050    4.696020
  C      1.227200   -0.476060    1.967720
  C      2.317910   -1.215390    1.330390
  O      3.237330   -1.791220    1.879800
  C      2.063740   -1.111670   -0.122800
  C      0.865260   -0.315590   -0.344110
  C      0.280970    0.047300   -1.528770
  C     -0.892950    0.830440   -1.553020
  N     -1.847490    1.465580   -1.591170
  C      0.736790   -0.279830   -2.821210
  N      1.050040   -0.505220   -3.902670
  C      2.816920   -1.686440   -1.111040
  C      3.975020   -2.482850   -1.032500
  S      4.832680   -2.956530    0.410560
  C      5.988990   -3.863760   -0.511930
  C      5.715660   -3.794440   -1.889810
  C      4.592270   -3.015300   -2.159650
  C      6.489900   -4.444010   -2.950560
  O      6.231720   -4.343030   -4.123620
  C      7.031590   -4.578170    0.116850
  C      7.250140   -4.556920    1.461410
  C      8.261920   -5.324940    2.078870
  N      8.500470   -5.335310    3.433930
  C      7.777070   -4.595490    4.440470
  C      6.441660   -5.252050    4.781150
  C      9.530670   -6.222710    3.781760
  O      9.918780   -6.390420    4.920830
  C      9.955320   -6.791880    2.519850
  C      9.169600   -6.211190    1.495650
  C      9.589940   -6.780430    0.235030
  O      9.218360   -6.590440   -0.907660
  N     10.600300   -7.689580    0.583270
  C     11.310870   -8.439210   -0.424360
  C     12.693580   -7.853120   -0.699000
  C     10.826910   -7.714320    1.941110
  C     11.750890   -8.586550    2.567900
  C     11.948190   -8.593570    3.911210
  C     12.815310   -9.489510    4.591840
  S     12.931730   -9.411690    6.317500
  C     14.014300  -10.761930    6.364640
  C     14.554510  -11.161130    7.637720
  O     15.276090  -12.112820    7.848080
  C     14.284210  -11.237580    5.075450
  C     13.626030  -10.491950    4.089950
  C     15.174320  -12.327870    4.744930
  C     15.288490  -13.528050    5.340610
  C     16.501730  -14.373550    5.073750
  O     17.270340  -14.249760    4.153150
  C     16.537520  -15.305830    6.203560
  C     17.386300  -16.255230    6.691290
  S     16.740770  -16.959140    8.154490
  C     15.327950  -15.972510    8.086600
  C     15.358460  -15.147210    7.006780
  C     14.504200  -14.147610    6.403720
  C     13.173300  -13.983140    6.662090
  C     12.533080  -14.688750    7.703180
  N     12.001840  -15.249600    8.550610
  C     12.310590  -13.165620    5.906870
  N     11.561180  -12.552390    5.290120
  Cl    18.871470  -16.757350    6.051560
  H     -1.481540    1.271140    0.972820
  H      2.486260   -1.526680   -2.130750
  H      4.232330   -2.847390   -3.160070
  H      7.343540   -5.049280   -2.602040
  H      7.675600   -5.180740   -0.509030
  H      6.620410   -3.940850    2.088240
  H      7.629590   -3.566740    4.101100
  H      8.417340   -4.587370    5.327100
  H      5.793730   -5.299650    3.908940
  H      5.940200   -4.679780    5.556430
  H      6.607440   -6.262440    5.146860
  H     10.700910   -8.379450   -1.330030
  H     11.383450   -9.487040   -0.119390
  H     12.599570   -6.827530   -1.047130
  H     13.193410   -8.435430   -1.468000
  H     13.306820   -7.857550    0.199610
  H     12.288800   -9.279670    1.938690
  H     11.403150   -7.892300    4.529560
  H     14.239900  -10.495030    8.463060
  H     13.713950  -10.716020    3.042370
  H     15.860810  -12.138420    3.925050
  H     14.584340  -16.058610    8.853850

 Total Charge           Charge          ....    0
 Multiplicity           Mult            ....    1
 Number of Electrons    NEL             ....  486
 Basis Dimension        Dim             .... 1030

ORBITAL ENERGIES
----------------

  NO   OCC          E(Eh)            E(eV)
   0   2.0000    -101.622096     -2765.2778
   1   2.0000    -101.617078     -2765.1413
   2   2.0000     -88.996494     -2421.7177
   3   2.0000     -88.993025     -2421.6233
   4   2.0000     -88.984734     -2421.3977
   5   2.0000     -88.975946     -2421.1586
   6   2.0000     -19.230912      -523.2997
   7   2.0000     -19.226206      -523.1717
   8   2.0000     -19.222183      -523.0622
   9   2.0000     -19.212736      -522.8051
  10   2.0000     -19.204688      -522.5861
  11   2.0000     -19.201139      -522.4896
  12   2.0000     -14.465067      -393.6145
  13   2.0000     -14.463322      -393.5670
  14   2.0000     -14.423452      -392.4821
  15   2.0000     -14.420730      -392.4080
  16   2.0000     -14.420379      -392.3985
  17   2.0000     -14.419195      -392.3662
  18   2.0000     -10.386204      -282.6230
  19   2.0000     -10.385298      -282.5983
  20   2.0000     -10.383996      -282.5629
  21   2.0000     -10.380229      -282.4604
  22   2.0000     -10.378097      -282.4024
  23   2.0000     -10.375715      -282.3376
  24   2.0000     -10.374917      -282.3159
  25   2.0000     -10.357590      -281.8444
  26   2.0000     -10.351640      -281.6824
  27   2.0000     -10.350823      -281.6602
  28   2.0000     -10.349787      -281.6320
  29   2.0000     -10.349212      -281.6164
  30   2.0000     -10.349142      -281.6145
  31   2.0000     -10.347427      -281.5678
  32   2.0000     -10.333274      -281.1827
  33   2.0000     -10.333014      -281.1756
  34   2.0000     -10.332481      -281.1611
  35   2.0000     -10.329003      -281.0665
  36   2.0000     -10.327742      -281.0321
  37   2.0000     -10.327418      -281.0233
  38   2.0000     -10.325526      -280.9718
  39   2.0000     -10.323111      -280.9061
  40   2.0000     -10.322172      -280.8806
  41   2.0000     -10.321924      -280.8738
  42   2.0000     -10.321424      -280.8602
  43   2.0000     -10.321267      -280.8559
  44   2.0000     -10.319256      -280.8012
  45   2.0000     -10.318011      -280.7674
  46   2.0000     -10.316051      -280.7140
  47   2.0000     -10.315572      -280.7010
  48   2.0000     -10.311494      -280.5900
  49   2.0000     -10.310622      -280.5663
  50   2.0000     -10.309635      -280.5394
  51   2.0000     -10.308662      -280.5130
  52   2.0000     -10.307916      -280.4926
  53   2.0000     -10.306329      -280.4495
  54   2.0000     -10.305888      -280.4375
  55   2.0000     -10.303979      -280.3855
  56   2.0000     -10.303769      -280.3798
  57   2.0000     -10.301867      -280.3281
  58   2.0000     -10.300368      -280.2873
  59   2.0000     -10.294261      -280.1211
  60   2.0000     -10.273878      -279.5664
  61   2.0000     -10.273223      -279.5486
  62   2.0000     -10.272542      -279.5301
  63   2.0000     -10.269700      -279.4528
  64   2.0000      -9.576881      -260.6002
  65   2.0000      -9.571866      -260.4637
  66   2.0000      -8.092234      -220.2009
  67   2.0000      -8.088744      -220.1059
  68   2.0000      -8.080252      -219.8748
  69   2.0000      -8.069497      -219.5822
  70   2.0000      -7.347491      -199.9354
  71   2.0000      -7.342472      -199.7988
  72   2.0000      -7.336923      -199.6478
  73   2.0000      -7.336412      -199.6339
  74   2.0000      -7.331922      -199.5117
  75   2.0000      -7.331388      -199.4972
  76   2.0000      -6.061647      -164.9458
  77   2.0000      -6.058093      -164.8491
  78   2.0000      -6.057013      -164.8197
  79   2.0000      -6.054449      -164.7499
  80   2.0000      -6.053514      -164.7245
  81   2.0000      -6.051031      -164.6569
  82   2.0000      -6.049186      -164.6067
  83   2.0000      -6.045176      -164.4976
  84   2.0000      -6.042906      -164.4358
  85   2.0000      -6.038790      -164.3238
  86   2.0000      -6.034338      -164.2027
  87   2.0000      -6.031863      -164.1353
  88   2.0000      -1.147901       -31.2360
  89   2.0000      -1.145296       -31.1651
  90   2.0000      -1.139462       -31.0064
  91   2.0000      -1.138343       -30.9759
  92   2.0000      -1.138038       -30.9676
  93   2.0000      -1.125646       -30.6304
  94   2.0000      -1.075273       -29.2597
  95   2.0000      -1.066760       -29.0280
  96   2.0000      -1.042045       -28.3555
  97   2.0000      -1.037739       -28.2383
  98   2.0000      -1.020192       -27.7608
  99   2.0000      -1.019520       -27.7425
 100   2.0000      -1.011708       -27.5300
 101   2.0000      -1.007701       -27.4209
 102   2.0000      -1.000853       -27.2346
 103   2.0000      -0.997802       -27.1516
 104   2.0000      -0.991739       -26.9866
 105   2.0000      -0.987960       -26.8837
 106   2.0000      -0.958637       -26.0858
 107   2.0000      -0.954701       -25.9787
 108   2.0000      -0.940374       -25.5889
 109   2.0000      -0.931174       -25.3385
 110   2.0000      -0.926227       -25.2039
 111   2.0000      -0.911526       -24.8039
 112   2.0000      -0.910360       -24.7722
 113   2.0000      -0.898862       -24.4593
 114   2.0000      -0.896756       -24.4020
 115   2.0000      -0.881790       -23.9947
 116   2.0000      -0.864862       -23.5341
 117   2.0000      -0.858891       -23.3716
 118   2.0000      -0.850576       -23.1454
 119   2.0000      -0.847245       -23.0547
 120   2.0000      -0.836148       -22.7528
 121   2.0000      -0.832061       -22.6415
 122   2.0000      -0.829766       -22.5791
 123   2.0000      -0.810752       -22.0617
 124   2.0000      -0.798924       -21.7398
 125   2.0000      -0.783093       -21.3091
 126   2.0000      -0.774601       -21.0780
 127   2.0000      -0.769843       -20.9485
 128   2.0000      -0.759702       -20.6725
 129   2.0000      -0.755119       -20.5478
 130   2.0000      -0.738866       -20.1056
 131   2.0000      -0.728706       -19.8291
 132   2.0000      -0.720207       -19.5978
 133   2.0000      -0.718648       -19.5554
 134   2.0000      -0.713021       -19.4023
 135   2.0000      -0.699079       -19.0229
 136   2.0000      -0.696414       -18.9504
 137   2.0000      -0.685898       -18.6642
 138   2.0000      -0.680764       -18.5245
 139   2.0000      -0.678091       -18.4518
 140   2.0000      -0.675638       -18.3851
 141   2.0000      -0.663293       -18.0491
 142   2.0000      -0.659929       -17.9576
 143   2.0000      -0.654684       -17.8149
 144   2.0000      -0.638889       -17.3850
 145   2.0000      -0.628471       -17.1016
 146   2.0000      -0.622477       -16.9385
 147   2.0000      -0.618532       -16.8311
 148   2.0000      -0.618350       -16.8262
 149   2.0000      -0.615163       -16.7394
 150   2.0000      -0.613445       -16.6927
 151   2.0000      -0.607521       -16.5315
 152   2.0000      -0.599606       -16.3161
 153   2.0000      -0.595658       -16.2087
 154   2.0000      -0.588176       -16.0051
 155   2.0000      -0.586560       -15.9611
 156   2.0000      -0.581224       -15.8159
 157   2.0000      -0.576070       -15.6757
 158   2.0000      -0.571940       -15.5633
 159   2.0000      -0.556076       -15.1316
 160   2.0000      -0.553634       -15.0652
 161   2.0000      -0.551544       -15.0083
 162   2.0000      -0.551112       -14.9965
 163   2.0000      -0.547759       -14.9053
 164   2.0000      -0.544998       -14.8302
 165   2.0000      -0.542056       -14.7501
 166   2.0000      -0.540953       -14.7201
 167   2.0000      -0.538681       -14.6583
 168   2.0000      -0.536624       -14.6023
 169   2.0000      -0.534034       -14.5318
 170   2.0000      -0.533545       -14.5185
 171   2.0000      -0.529480       -14.4079
 172   2.0000      -0.527440       -14.3524
 173   2.0000      -0.523601       -14.2479
 174   2.0000      -0.522299       -14.2125
 175   2.0000      -0.519815       -14.1449
 176   2.0000      -0.516169       -14.0457
 177   2.0000      -0.514186       -13.9917
 178   2.0000      -0.513236       -13.9659
 179   2.0000      -0.511917       -13.9300
 180   2.0000      -0.508515       -13.8374
 181   2.0000      -0.504709       -13.7338
 182   2.0000      -0.503434       -13.6991
 183   2.0000      -0.502226       -13.6663
 184   2.0000      -0.501033       -13.6338
 185   2.0000      -0.495164       -13.4741
 186   2.0000      -0.494621       -13.4593
 187   2.0000      -0.485781       -13.2188
 188   2.0000      -0.484749       -13.1907
 189   2.0000      -0.482110       -13.1189
 190   2.0000      -0.479263       -13.0414
 191   2.0000      -0.478481       -13.0201
 192   2.0000      -0.475406       -12.9365
 193   2.0000      -0.472565       -12.8592
 194   2.0000      -0.468914       -12.7598
 195   2.0000      -0.466597       -12.6967
 196   2.0000      -0.464691       -12.6449
 197   2.0000      -0.461541       -12.5592
 198   2.0000      -0.457613       -12.4523
 199   2.0000      -0.456147       -12.4124
 200   2.0000      -0.455297       -12.3893
 201   2.0000      -0.454276       -12.3615
 202   2.0000      -0.454111       -12.3570
 203   2.0000      -0.451093       -12.2749
 204   2.0000      -0.449022       -12.2185
 205   2.0000      -0.448943       -12.2164
 206   2.0000      -0.447679       -12.1820
 207   2.0000      -0.446951       -12.1621
 208   2.0000      -0.442490       -12.0408
 209   2.0000      -0.441259       -12.0073
 210   2.0000      -0.440799       -11.9948
 211   2.0000      -0.436040       -11.8653
 212   2.0000      -0.435052       -11.8384
 213   2.0000      -0.433620       -11.7994
 214   2.0000      -0.432998       -11.7825
 215   2.0000      -0.428972       -11.6729
 216   2.0000      -0.422820       -11.5055
 217   2.0000      -0.421708       -11.4753
 218   2.0000      -0.421036       -11.4570
 219   2.0000      -0.415688       -11.3115
 220   2.0000      -0.410760       -11.1773
 221   2.0000      -0.406900       -11.0723
 222   2.0000      -0.403216       -10.9721
 223   2.0000      -0.398908       -10.8548
 224   2.0000      -0.382857       -10.4181
 225   2.0000      -0.370737       -10.0883
 226   2.0000      -0.360497        -9.8096
 227   2.0000      -0.358230        -9.7479
 228   2.0000      -0.351410        -9.5624
 229   2.0000      -0.348831        -9.4922
 230   2.0000      -0.343884        -9.3576
 231   2.0000      -0.343146        -9.3375
 232   2.0000      -0.342640        -9.3237
 233   2.0000      -0.336999        -9.1702
 234   2.0000      -0.334100        -9.0913
 235   2.0000      -0.328546        -8.9402
 236   2.0000      -0.326925        -8.8961
 237   2.0000      -0.326109        -8.8739
 238   2.0000      -0.318814        -8.6754
 239   2.0000      -0.313833        -8.5398
 240   2.0000      -0.306811        -8.3487
 241   2.0000      -0.294214        -8.0060
 242   2.0000      -0.244584        -6.6555
 243   0.0000      -0.116985        -3.1833
 244   0.0000      -0.097298        -2.6476
 245   0.0000      -0.084227        -2.2919
 246   0.0000      -0.059026        -1.6062
 247   0.0000      -0.053756        -1.4628

MULLIKEN ATOMIC CHARGES
-----------------------
   0 C :    0.028618
   1 C :   -0.129623
   2 S :    0.186646
   3 C :   -0.172516
   4 Cl:   -0.003478
   5 C :    0.082922
   6 C :    0.166215
   7 O :   -0.166617
   8 C :   -0.108827
   9 C :    0.306268
  10 C :   -0.335671
  11 C :   -0.193155
  12 N :    0.154581
  13 C :   -0.186320
  14 N :    0.158091
  15 C :   -0.008938
  16 C :   -0.038092
  17 S :    0.176596
  18 C :   -0.034307
  19 C :    0.025252
  20 C :   -0.007329
  21 C :    0.143517
  22 O :   -0.176649
  23 C :   -0.004908
  24 C :   -0.022964
  25 C :    0.137429
  26 N :   -0.254888
  27 C :    0.094232
  28 C :    0.003277
  29 C :    0.167604
  30 O :   -0.207729
  31 C :   -0.067590
  32 C :   -0.064061
  33 C :    0.164729
  34 O :   -0.210089
  35 N :   -0.255661
  36 C :    0.095803
  37 C :    0.001462
  38 C :    0.133051
  39 C :   -0.014562
  40 C :    0.089589
  41 C :   -0.059863
  42 S :    0.200108
  43 C :   -0.190790
  44 C :    0.205495
  45 O :   -0.199731
  46 C :    0.086235
  47 C :   -0.002642
  48 C :   -0.003208
  49 C :   -0.098699
  50 C :    0.129827
  51 O :   -0.124489
  52 C :    0.091167
  53 C :   -0.171687
  54 S :    0.186072
  55 C :   -0.121198
  56 C :    0.024046
  57 C :    0.303694
  58 C :   -0.328480
  59 C :   -0.191528
  60 N :    0.161457
  61 C :   -0.195387
  62 N :    0.174827
  63 Cl:   -0.000631
  64 H :    0.055689
  65 H :    0.016024
  66 H :    0.020790
  67 H :    0.009635
  68 H :    0.019411
  69 H :   -0.001877
  70 H :    0.027828
  71 H :    0.044760
  72 H :    0.019642
  73 H :    0.027821
  74 H :    0.030633
  75 H :    0.048126
  76 H :    0.027654
  77 H :    0.030660
  78 H :    0.028669
  79 H :    0.015429
  80 H :   -0.024658
  81 H :    0.010150
  82 H :   -0.007872
  83 H :   -0.010221
  84 H :    0.031258
  85 H :    0.053942
Sum of atomic charges:   -0.0000000

LOEWDIN ATOMIC CHARGES
----------------------
   0 C :   -0.058103
   1 C :   -0.147352
   2 S :    0.475396
   3 C :   -0.272742
   4 Cl:    0.189541
   5 C :   -0.116509
   6 C :    0.082450
   7 O :   -0.160366
   8 C :   -0.101845
   9 C :    0.074936
  10 C :   -0.138574
  11 C :   -0.014882
  12 N :   -0.052192
  13 C :   -0.024797
  14 N :   -0.044084
  15 C :    0.060766
  16 C :   -0.181278
  17 S :    0.512367
  18 C :   -0.138221
  19 C :   -0.113252
  20 C :    0.022401
  21 C :    0.108473
  22 O :   -0.129169
  23 C :   -0.000768
  24 C :   -0.030102
  25 C :    0.070875
  26 N :    0.002462
  27 C :    0.036584
  28 C :   -0.060078
  29 C :    0.080557
  30 O :   -0.198805
  31 C :   -0.117968
  32 C :   -0.113809
  33 C :    0.081911
  34 O :   -0.199978
  35 N :    0.002419
  36 C :    0.036604
  37 C :   -0.060805
  38 C :    0.077761
  39 C :   -0.033209
  40 C :    0.012875
  41 C :   -0.144636
  42 S :    0.507781
  43 C :   -0.231096
  44 C :    0.085494
  45 O :   -0.142807
  46 C :   -0.031266
  47 C :   -0.027438
  48 C :    0.058785
  49 C :   -0.055492
  50 C :    0.084717
  51 O :   -0.128696
  52 C :   -0.115473
  53 C :   -0.272343
  54 S :    0.478920
  55 C :   -0.147199
  56 C :   -0.048361
  57 C :    0.082095
  58 C :   -0.131736
  59 C :   -0.015844
  60 N :   -0.048541
  61 C :   -0.021091
  62 N :   -0.050215
  63 Cl:    0.191741
  64 H :    0.038254
  65 H :    0.053885
  66 H :    0.045553
  67 H :    0.007148
  68 H :    0.038369
  69 H :    0.026931
  70 H :    0.025073
  71 H :    0.038442
  72 H :    0.023265
  73 H :    0.032784
  74 H :    0.032809
  75 H :    0.039572
  76 H :    0.024222
  77 H :    0.033068
  78 H :    0.032690
  79 H :    0.021620
  80 H :    0.029784
  81 H :    0.037591
  82 H :    0.000374
  83 H :    0.033067
  84 H :    0.050105
  85 H :    0.038605

  Mayer bond orders larger than 0.100000
B(  0-C ,  1-C ) :   1.5505 B(  0-C ,  5-C ) :   1.2248 B(  0-C ,  9-C ) :   0.9926
B(  1-C ,  2-S ) :   1.1591 B(  1-C , 64-H ) :   0.9532 B(  2-S ,  3-C ) :   1.1496
B(  3-C ,  4-Cl) :   1.1253 B(  3-C ,  5-C ) :   1.4735 B(  5-C ,  6-C ) :   0.9696
B(  6-C ,  7-O ) :   2.1518 B(  6-C ,  8-C ) :   0.9641 B(  8-C ,  9-C ) :   1.0813
B(  8-C , 15-C ) :   1.5311 B(  9-C , 10-C ) :   1.6438 B( 10-C , 11-C ) :   1.1504
B( 10-C , 13-C ) :   1.1386 B( 11-C , 12-N ) :   2.9876 B( 13-C , 14-N ) :   2.9637
B( 15-C , 16-C ) :   1.2412 B( 15-C , 65-H ) :   0.9420 B( 16-C , 17-S ) :   1.0850
B( 16-C , 20-C ) :   1.3701 B( 17-S , 18-C ) :   1.1295 B( 18-C , 19-C ) :   1.3219
B( 18-C , 23-C ) :   1.1841 B( 19-C , 20-C ) :   1.2939 B( 19-C , 21-C ) :   0.9771
B( 20-C , 66-H ) :   1.0085 B( 21-C , 22-O ) :   2.1867 B( 21-C , 67-H ) :   0.9651
B( 23-C , 24-C ) :   1.5750 B( 23-C , 68-H ) :   0.9537 B( 24-C , 25-C ) :   1.1705
B( 24-C , 69-H ) :   0.9632 B( 25-C , 26-N ) :   1.1584 B( 25-C , 32-C ) :   1.3353
B( 26-N , 27-C ) :   0.9421 B( 26-N , 29-C ) :   1.0657 B( 27-C , 28-C ) :   1.1219
B( 27-C , 70-H ) :   0.9503 B( 27-C , 71-H ) :   0.9283 B( 28-C , 72-H ) :   0.9684
B( 28-C , 73-H ) :   0.9675 B( 28-C , 74-H ) :   0.9632 B( 29-C , 30-O ) :   2.0266
B( 29-C , 31-C ) :   0.9823 B( 30-O , 81-H ) :   0.1167 B( 31-C , 32-C ) :   1.2627
B( 31-C , 38-C ) :   1.3385 B( 32-C , 33-C ) :   0.9870 B( 33-C , 34-O ) :   2.0238
B( 33-C , 35-N ) :   1.0669 B( 34-O , 68-H ) :   0.1004 B( 35-N , 36-C ) :   0.9430
B( 35-N , 38-C ) :   1.1563 B( 36-C , 37-C ) :   1.1201 B( 36-C , 75-H ) :   0.9279
B( 36-C , 76-H ) :   0.9496 B( 37-C , 77-H ) :   0.9637 B( 37-C , 78-H ) :   0.9679
B( 37-C , 79-H ) :   0.9687 B( 38-C , 39-C ) :   1.1680 B( 39-C , 40-C ) :   1.6319
B( 39-C , 80-H ) :   0.9607 B( 40-C , 41-C ) :   1.1180 B( 40-C , 81-H ) :   0.9352
B( 41-C , 42-S ) :   1.1716 B( 41-C , 47-C ) :   1.4354 B( 42-S , 43-C ) :   1.1227
B( 43-C , 44-C ) :   1.0398 B( 43-C , 46-C ) :   1.4162 B( 44-C , 45-O ) :   2.0844
B( 44-C , 82-H ) :   0.9553 B( 46-C , 47-C ) :   1.3165 B( 46-C , 48-C ) :   1.0014
B( 47-C , 83-H ) :   0.9984 B( 48-C , 49-C ) :   1.8151 B( 48-C , 84-H ) :   0.9422
B( 49-C , 50-C ) :   0.9276 B( 49-C , 57-C ) :   0.9854 B( 50-C , 51-O ) :   2.2880
B( 50-C , 52-C ) :   0.9257 B( 52-C , 53-C ) :   1.4779 B( 52-C , 56-C ) :   1.2233
B( 53-C , 54-S ) :   1.1558 B( 53-C , 63-Cl) :   1.1273 B( 54-S , 55-C ) :   1.1584
B( 55-C , 56-C ) :   1.5520 B( 55-C , 85-H ) :   0.9559 B( 56-C , 57-C ) :   1.0215
B( 57-C , 58-C ) :   1.6920 B( 58-C , 59-C ) :   1.1307 B( 58-C , 61-C ) :   1.1638
B( 59-C , 60-N ) :   3.0092 B( 61-C , 62-N ) :   3.0122

-----------------------------------------------------------------------------
         ABSORPTION SPECTRUM VIA TRANSITION ELECTRIC DIPOLE MOMENTS
-----------------------------------------------------------------------------
State   Energy  Wavelength   fosc         T2         TX        TY        TZ
        (cm-1)    (nm)                  (au**2)     (au)      (au)      (au)
-----------------------------------------------------------------------------
   0   13181.3    758.6   1.214091920  30.32270  -4.08809   3.41295  -1.40070
   1   19215.1    520.4   0.026032120   0.44601   0.34246  -0.08495  -0.56702
   2   21354.2    468.3   0.010095743   0.15564   0.16845   0.32460  -0.14799
   3   23351.9    428.2   0.481696064   6.79087   2.10591  -1.44452   0.51901
   4   25541.5    391.5   0.025152537   0.32420  -0.36091  -0.08663  -0.43179
   5   26077.1    383.5   0.021316884   0.26912   0.05259   0.51554   0.02377
   6   26583.6    376.2   0.000957115   0.01185  -0.07792  -0.07411  -0.01702
   7   26722.8    374.2   0.005130291   0.06320   0.10855   0.17794   0.14056
   8   27039.0    369.8   0.046858234   0.57052   0.72239   0.18033   0.12709
   9   27450.7    364.3   0.066972392   0.80319  -0.42043   0.33251  -0.71823
  10   28146.1    355.3   0.012760200   0.14925   0.22659  -0.18997   0.24863
  11   28606.1    349.6   0.228150577   2.62566   0.92724  -0.98393   0.89317
  12   28901.3    346.0   0.051242208   0.58369  -0.20054   0.11849   0.72763
  13   29078.5    343.9   0.249036421   2.81946   0.61597  -1.06664   1.14119
  14   29406.9    340.1   0.000812006   0.00909   0.04119   0.02429   0.08248
  15   29885.3    334.6   0.026872785   0.29603  -0.15046  -0.38676   0.35186
  16   30501.7    327.9   0.070635251   0.76238  -0.48585   0.45621   0.56410
  17   30603.7    326.8   0.082102806   0.88320  -0.27961   0.78003  -0.44337
  18   31644.2    316.0   0.002182145   0.02270  -0.13645   0.06036   0.02096
  19   31660.6    315.8   0.017053038   0.17732   0.25823  -0.33144   0.02793
  20   32046.6    312.0   0.050289827   0.51662  -0.28418  -0.14587  -0.64389
  21   32455.6    308.1   0.031476731   0.31928   0.37290   0.40702  -0.12065
  22   33032.7    302.7   0.026257649   0.26169   0.22393  -0.18792  -0.41980
  23   33316.6    300.2   0.175335663   1.73255  -0.84848   0.95382  -0.32071
  24   33675.9    296.9   0.241531372   2.36118   0.71585  -0.48250   1.27120
  25   34285.0    291.7   0.000532479   0.00511  -0.01689  -0.00350  -0.06939
  26   34368.5    291.0   0.099256720   0.95077   0.16702  -0.04231   0.95973
  27   34709.8    288.1   0.173091120   1.64172   0.08054  -0.05297   1.27766
  28   35309.8    283.2   0.000247305   0.00231  -0.04714   0.00265  -0.00876
  29   35574.4    281.1   0.002818298   0.02608   0.03097  -0.07527   0.13949
  30   35795.2    279.4   0.050885902   0.46800   0.65178  -0.20734  -0.01400
  31   36180.7    276.4   0.009293933   0.08457  -0.04253   0.20614   0.20066
  32   36694.9    272.5   0.032443569   0.29107   0.13454  -0.52114   0.03720
  33   36946.9    270.7   0.015374277   0.13699  -0.23754   0.22186   0.17704
  34   37173.3    269.0   0.804090905   7.12115   0.08640   0.03649   2.66690
  35   37421.4    267.2   0.012366750   0.10880   0.11122  -0.09408   0.29593
  36   37591.8    266.0   0.215112186   1.88385   0.85902  -0.45524  -0.96886
  37   37910.3    263.8   0.166245571   1.44367   0.80540  -0.45027   0.76959
  38   38088.6    262.5   0.592647782   5.12245   1.83743  -1.29170   0.27895
  39   38329.5    260.9   0.094084032   0.80809  -0.17432   0.05260  -0.88030
  40   38625.3    258.9   0.065801872   0.56084   0.47836  -0.24675  -0.52070
  41   38781.1    257.9   0.024460218   0.20764  -0.22036   0.21633  -0.33509
  42   39147.6    255.4   0.007024290   0.05907  -0.19221   0.13779  -0.05603
  43   39260.6    254.7   0.001131724   0.00949   0.03095   0.04792  -0.07897
  44   39382.1    253.9   0.057284746   0.47887  -0.27686   0.62968   0.07563
  45   39498.5    253.2   0.052098870   0.43423  -0.35344   0.22997   0.50638
  46   39693.7    251.9   0.028971183   0.24028   0.16813  -0.20065  -0.41443
  47   39792.7    251.3   0.047971758   0.39688  -0.26838   0.27279   0.50044
  48   40303.2    248.1   0.042059183   0.34356  -0.35032   0.46402  -0.07426

FINAL SINGLE POINT ENERGY     -5055.097426542621

DIPOLE MOMENT
-------------
                                X             Y             Z
Electronic contribution:     -4.34355     -12.48866      27.34993
Nuclear contribution   :      5.89100      12.54648     -25.04074
                        -----------------------------------------
Total Dipole Moment    :      1.54746       0.05782       2.30919
                        -----------------------------------------
Magnitude (a.u.)       :      2.78034
Magnitude (Debye)      :      7.06707

Rotational constants in cm-1:     0.002722     0.000239     0.000226
Rotational constants in MHz :    81.607404     7.170429     6.761261

                             ****ORCA TERMINATED NORMALLY****
TOTAL RUN TIME: 0 days 0 hours 7 minutes 58 seconds 452 msec
