                         Program Version 4.2.0 -  RELEASE  -
|  1> # ORCA input file
|  2> # SCF done       -190.288277609106          0.000753130194
|  3> ! CAM-B3LYP def2-SVP def2/J RIJCOSX Grid4 TightSCF
|  4> %maxcore 5000
|  5> %tddft
|  6>     Mode sTDDFT
|  7>     Ethresh 5.0
|  8>     maxcore 5000
|  9> end
| 10>
| 11> %pal
| 12>   nprocs 6
| 13>   end
| 14> * xyz 0 1
| 15>    C        4.12274         4.04396         0.20624
| 16>    C        3.91020         3.77805         1.52964
| 17>    C        4.92320         3.82923         2.50893
| 18>    N        5.71536         3.86261         3.33884
| 19>    C        2.68303         3.30504         2.04187
| 20>    N        1.73790         2.82812         2.48492
| 21>    C        5.42118         4.24131        -0.42807
| 22>    C        5.28784         3.99094        -1.82624
| 23>    C        6.35715         4.06096        -2.67279
| 24>    C        7.62598         4.40183        -2.15363
| 25>    C        7.76208         4.67121        -0.76067
| 26>    C        6.63949         4.58319         0.09429
| 27>    C        9.03237         5.02025        -0.25848
| 28>    C       10.11700         5.09706        -1.08894
| 29>    C        9.98238         4.82950        -2.45968
| 30>    C        8.76376         4.48892        -2.98036
| 31>    C        3.87986         3.69352        -2.13930
| 32>    O        3.39542         3.38462        -3.20303
| 33>    C        3.14472         3.92651        -0.85993
| 34>    C        1.80810         4.14309        -0.88899
| 35>    C        1.01566         4.74914         0.11973
| 36>    S       -0.74845         4.72092         0.05507
| 37>    C       -0.68472         5.70155         1.51379
| 38>    N        0.54091         5.96469         1.88353
| 39>    N        1.45928         5.44038         1.12856
| 40>    C       -1.82170         6.16690         2.21825
| 41>    C       -3.08665         5.93611         1.80328
| 42>    N       -4.21558         6.37881         2.39375
| 43>    C       -4.28838         7.23002         3.56580
| 44>    C       -4.19558         6.40938         4.85016
| 45>    C       -4.45509         7.26658         6.08924
| 46>    N       -4.49608         6.38538         7.24127
| 47>    S       -6.15027         5.99856         7.49632
| 48>    N       -6.69365         7.57356         7.06846
| 49>    C       -5.83752         8.02150         5.98512
| 50>    C       -6.54128         7.70813         4.66468
| 51>    C       -5.63997         7.99739         3.46662
| 52>    N       -6.25225         7.57529         2.22365
| 53>    S       -5.79076         5.97469         1.89433
| 54>    C       -7.10276         8.30038         1.45514
| 55>    C       -7.60799         9.51197         1.75800
| 56>    C       -8.46140        10.29393         0.90323
| 57>    C       -8.88591        11.54992         1.34421
| 58>    C       -9.69388        12.35916         0.56640
| 59>    N      -10.00347        13.65850         1.10359
| 60>    O       -9.96484        13.78290         2.31072
| 61>    O      -10.26521        14.55625         0.33046
| 62>    C      -10.14279        11.95284        -0.70671
| 63>    C       -9.71196        10.68569        -1.13424
| 64>    C       -8.89997         9.88725        -0.36770
| 65>    C      -11.04429        12.73273        -1.51336
| 66>    C      -11.14693        12.62114        -2.85939
| 67>    C      -12.08090        13.38483        -3.60320
| 68>    C      -12.23099        13.31289        -4.95755
| 69>    C      -13.16669        14.07024        -5.77157
| 70>    C      -14.17949        14.87783        -5.32456
| 71>    C      -15.06008        15.58307        -6.17194
| 72>    N      -15.80711        16.18449        -6.80321
| 73>    C      -14.51960        15.10071        -3.97344
| 74>    N      -14.88066        15.31476        -2.90455
| 75>    C      -12.87348        13.78148        -7.17126
| 76>    C      -11.82747        12.81704        -7.22807
| 77>    C      -11.40702        12.46657        -5.86141
| 78>    O      -10.56214        11.65002        -5.55436
| 79>    C      -11.34696        12.34060        -8.41370
| 80>    C      -11.90040        12.81673        -9.62287
| 81>    C      -12.94468        13.78474        -9.57583
| 82>    C      -13.42093        14.26008        -8.33253
| 83>    C      -13.49164        14.25216       -10.78830
| 84>    C      -13.03150        13.78612       -11.98960
| 85>    C      -12.00258        12.83342       -12.03457
| 86>    C      -11.44880        12.35942       -10.87645
| 87>    H        6.23621         3.86017        -3.72699
| 88>    H        6.76651         4.80025         1.14344
| 89>    H        9.13186         5.22223         0.79786
| 90>    H       11.08587         5.36405        -0.69421
| 91>    H       10.84895         4.89509        -3.10048
| 92>    H        8.65344         4.28201        -4.03484
| 93>    H        1.30226         3.90795        -1.81862
| 94>    H       -1.59773         6.73118         3.10909
| 95>    H       -3.26539         5.34962         0.91148
| 96>    H       -3.45575         7.93946         3.51572
| 97>    H       -3.20402         5.96359         4.93180
| 98>    H       -4.91851         5.59290         4.82980
| 99>    H       -3.64025         7.98724         6.21017
|100>    H       -4.08049         6.79499         8.07163
|101>    H       -6.67782         8.19623         7.86985
|102>    H       -5.68269         9.10209         6.06681
|103>    H       -7.44843         8.30923         4.59700
|104>    H       -6.84488         6.66074         4.66545
|105>    H       -5.44818         9.07332         3.39762
|106>    H       -7.35012         7.80034         0.53030
|107>    H       -7.36288         9.97190         2.70395
|108>    H       -8.57025        11.92305         2.30781
|109>    H      -10.05428        10.32151        -2.08984
|110>    H       -8.60367         8.92612        -0.75640
|111>    H      -11.66755        13.46059        -1.01026
|112>    H      -10.49846        11.95943        -3.41312
|113>    H      -12.70036        14.07069        -3.03950
|114>    H      -10.55357        11.60794        -8.42818
|115>    H      -14.20961        14.99536        -8.33277
|116>    H      -14.28395        14.98522       -10.74862
|117>    H      -13.45810        14.14898       -12.91271
|118>    H      -11.65135        12.47709       -12.99145
|119>    H      -10.65632        11.62581       -10.90449
|120> *
|121>
|122>                          ****END OF INPUT****

CARTESIAN COORDINATES (ANGSTROEM)
---------------------------------
  C      4.122740    4.043960    0.206240
  C      3.910200    3.778050    1.529640
  C      4.923200    3.829230    2.508930
  N      5.715360    3.862610    3.338840
  C      2.683030    3.305040    2.041870
  N      1.737900    2.828120    2.484920
  C      5.421180    4.241310   -0.428070
  C      5.287840    3.990940   -1.826240
  C      6.357150    4.060960   -2.672790
  C      7.625980    4.401830   -2.153630
  C      7.762080    4.671210   -0.760670
  C      6.639490    4.583190    0.094290
  C      9.032370    5.020250   -0.258480
  C     10.117000    5.097060   -1.088940
  C      9.982380    4.829500   -2.459680
  C      8.763760    4.488920   -2.980360
  C      3.879860    3.693520   -2.139300
  O      3.395420    3.384620   -3.203030
  C      3.144720    3.926510   -0.859930
  C      1.808100    4.143090   -0.888990
  C      1.015660    4.749140    0.119730
  S     -0.748450    4.720920    0.055070
  C     -0.684720    5.701550    1.513790
  N      0.540910    5.964690    1.883530
  N      1.459280    5.440380    1.128560
  C     -1.821700    6.166900    2.218250
  C     -3.086650    5.936110    1.803280
  N     -4.215580    6.378810    2.393750
  C     -4.288380    7.230020    3.565800
  C     -4.195580    6.409380    4.850160
  C     -4.455090    7.266580    6.089240
  N     -4.496080    6.385380    7.241270
  S     -6.150270    5.998560    7.496320
  N     -6.693650    7.573560    7.068460
  C     -5.837520    8.021500    5.985120
  C     -6.541280    7.708130    4.664680
  C     -5.639970    7.997390    3.466620
  N     -6.252250    7.575290    2.223650
  S     -5.790760    5.974690    1.894330
  C     -7.102760    8.300380    1.455140
  C     -7.607990    9.511970    1.758000
  C     -8.461400   10.293930    0.903230
  C     -8.885910   11.549920    1.344210
  C     -9.693880   12.359160    0.566400
  N    -10.003470   13.658500    1.103590
  O     -9.964840   13.782900    2.310720
  O    -10.265210   14.556250    0.330460
  C    -10.142790   11.952840   -0.706710
  C     -9.711960   10.685690   -1.134240
  C     -8.899970    9.887250   -0.367700
  C    -11.044290   12.732730   -1.513360
  C    -11.146930   12.621140   -2.859390
  C    -12.080900   13.384830   -3.603200
  C    -12.230990   13.312890   -4.957550
  C    -13.166690   14.070240   -5.771570
  C    -14.179490   14.877830   -5.324560
  C    -15.060080   15.583070   -6.171940
  N    -15.807110   16.184490   -6.803210
  C    -14.519600   15.100710   -3.973440
  N    -14.880660   15.314760   -2.904550
  C    -12.873480   13.781480   -7.171260
  C    -11.827470   12.817040   -7.228070
  C    -11.407020   12.466570   -5.861410
  O    -10.562140   11.650020   -5.554360
  C    -11.346960   12.340600   -8.413700
  C    -11.900400   12.816730   -9.622870
  C    -12.944680   13.784740   -9.575830
  C    -13.420930   14.260080   -8.332530
  C    -13.491640   14.252160  -10.788300
  C    -13.031500   13.786120  -11.989600
  C    -12.002580   12.833420  -12.034570
  C    -11.448800   12.359420  -10.876450
  H      6.236210    3.860170   -3.726990
  H      6.766510    4.800250    1.143440
  H      9.131860    5.222230    0.797860
  H     11.085870    5.364050   -0.694210
  H     10.848950    4.895090   -3.100480
  H      8.653440    4.282010   -4.034840
  H      1.302260    3.907950   -1.818620
  H     -1.597730    6.731180    3.109090
  H     -3.265390    5.349620    0.911480
  H     -3.455750    7.939460    3.515720
  H     -3.204020    5.963590    4.931800
  H     -4.918510    5.592900    4.829800
  H     -3.640250    7.987240    6.210170
  H     -4.080490    6.794990    8.071630
  H     -6.677820    8.196230    7.869850
  H     -5.682690    9.102090    6.066810
  H     -7.448430    8.309230    4.597000
  H     -6.844880    6.660740    4.665450
  H     -5.448180    9.073320    3.397620
  H     -7.350120    7.800340    0.530300
  H     -7.362880    9.971900    2.703950
  H     -8.570250   11.923050    2.307810
  H    -10.054280   10.321510   -2.089840
  H     -8.603670    8.926120   -0.756400
  H    -11.667550   13.460590   -1.010260
  H    -10.498460   11.959430   -3.413120
  H    -12.700360   14.070690   -3.039500
  H    -10.553570   11.607940   -8.428180
  H    -14.209610   14.995360   -8.332770
  H    -14.283950   14.985220  -10.748620
  H    -13.458100   14.148980  -12.912710
  H    -11.651350   12.477090  -12.991450
  H    -10.656320   11.625810  -10.904490

 Total Charge           Charge          ....    0
 Multiplicity           Mult            ....    1
 Number of Electrons    NEL             ....  514
 Basis Dimension        Dim             .... 1185

ORBITAL ENERGIES
----------------

  NO   OCC          E(Eh)            E(eV)
   0   2.0000     -89.016942     -2422.2741
   1   2.0000     -88.970786     -2421.0182
   2   2.0000     -88.966547     -2420.9028
   3   2.0000     -19.246861      -523.7337
   4   2.0000     -19.244556      -523.6710
   5   2.0000     -19.213807      -522.8343
   6   2.0000     -19.213793      -522.8339
   7   2.0000     -14.651027      -398.6747
   8   2.0000     -14.484327      -394.1386
   9   2.0000     -14.480151      -394.0249
  10   2.0000     -14.443348      -393.0235
  11   2.0000     -14.429751      -392.6535
  12   2.0000     -14.428507      -392.6196
  13   2.0000     -14.428084      -392.6081
  14   2.0000     -14.411458      -392.1557
  15   2.0000     -14.410335      -392.1252
  16   2.0000     -14.410210      -392.1218
  17   2.0000     -14.404784      -391.9741
  18   2.0000     -10.364667      -282.0369
  19   2.0000     -10.364504      -282.0325
  20   2.0000     -10.350070      -281.6397
  21   2.0000     -10.346895      -281.5533
  22   2.0000     -10.343564      -281.4627
  23   2.0000     -10.343438      -281.4592
  24   2.0000     -10.342675      -281.4385
  25   2.0000     -10.339713      -281.3579
  26   2.0000     -10.337461      -281.2966
  27   2.0000     -10.337455      -281.2965
  28   2.0000     -10.336211      -281.2626
  29   2.0000     -10.335569      -281.2451
  30   2.0000     -10.332913      -281.1729
  31   2.0000     -10.322726      -280.8957
  32   2.0000     -10.322406      -280.8870
  33   2.0000     -10.318464      -280.7797
  34   2.0000     -10.314059      -280.6598
  35   2.0000     -10.313406      -280.6420
  36   2.0000     -10.312130      -280.6073
  37   2.0000     -10.311065      -280.5783
  38   2.0000     -10.308708      -280.5142
  39   2.0000     -10.307704      -280.4869
  40   2.0000     -10.307174      -280.4725
  41   2.0000     -10.302170      -280.3363
  42   2.0000     -10.300327      -280.2862
  43   2.0000     -10.299778      -280.2712
  44   2.0000     -10.299677      -280.2685
  45   2.0000     -10.296089      -280.1708
  46   2.0000     -10.295447      -280.1534
  47   2.0000     -10.295168      -280.1458
  48   2.0000     -10.295133      -280.1448
  49   2.0000     -10.294830      -280.1366
  50   2.0000     -10.294632      -280.1312
  51   2.0000     -10.294304      -280.1222
  52   2.0000     -10.294187      -280.1191
  53   2.0000     -10.294182      -280.1189
  54   2.0000     -10.293679      -280.1052
  55   2.0000     -10.293616      -280.1035
  56   2.0000     -10.292131      -280.0631
  57   2.0000     -10.286573      -279.9119
  58   2.0000     -10.285468      -279.8818
  59   2.0000     -10.284902      -279.8664
  60   2.0000     -10.284356      -279.8515
  61   2.0000     -10.283941      -279.8403
  62   2.0000     -10.283867      -279.8382
  63   2.0000     -10.283436      -279.8265
  64   2.0000     -10.283405      -279.8257
  65   2.0000     -10.283163      -279.8191
  66   2.0000     -10.282411      -279.7986
  67   2.0000     -10.282354      -279.7971
  68   2.0000     -10.281762      -279.7810
  69   2.0000     -10.281676      -279.7786
  70   2.0000     -10.280697      -279.7520
  71   2.0000     -10.278322      -279.6874
  72   2.0000      -8.107260      -220.6098
  73   2.0000      -8.067204      -219.5198
  74   2.0000      -8.058240      -219.2759
  75   2.0000      -6.079811      -165.4401
  76   2.0000      -6.075193      -165.3144
  77   2.0000      -6.063777      -165.0038
  78   2.0000      -6.035909      -164.2454
  79   2.0000      -6.032720      -164.1587
  80   2.0000      -6.031346      -164.1213
  81   2.0000      -6.029324      -164.0662
  82   2.0000      -6.025040      -163.9497
  83   2.0000      -6.015278      -163.6840
  84   2.0000      -1.326517       -36.0964
  85   2.0000      -1.144774       -31.1509
  86   2.0000      -1.141831       -31.0708
  87   2.0000      -1.128954       -30.7204
  88   2.0000      -1.128842       -30.7173
  89   2.0000      -1.127882       -30.6912
  90   2.0000      -1.069546       -29.1038
  91   2.0000      -1.053437       -28.6655
  92   2.0000      -1.013786       -27.5865
  93   2.0000      -1.011957       -27.5368
  94   2.0000      -0.994988       -27.0750
  95   2.0000      -0.993333       -27.0300
  96   2.0000      -0.992335       -27.0028
  97   2.0000      -0.989332       -26.9211
  98   2.0000      -0.985917       -26.8282
  99   2.0000      -0.968943       -26.3663
 100   2.0000      -0.968764       -26.3614
 101   2.0000      -0.968467       -26.3533
 102   2.0000      -0.947855       -25.7924
 103   2.0000      -0.941359       -25.6157
 104   2.0000      -0.932028       -25.3618
 105   2.0000      -0.928331       -25.2612
 106   2.0000      -0.921382       -25.0721
 107   2.0000      -0.914993       -24.8982
 108   2.0000      -0.912551       -24.8318
 109   2.0000      -0.895543       -24.3690
 110   2.0000      -0.890410       -24.2293
 111   2.0000      -0.889208       -24.1966
 112   2.0000      -0.879009       -23.9190
 113   2.0000      -0.877590       -23.8804
 114   2.0000      -0.874480       -23.7958
 115   2.0000      -0.861015       -23.4294
 116   2.0000      -0.860100       -23.4045
 117   2.0000      -0.854000       -23.2385
 118   2.0000      -0.841612       -22.9014
 119   2.0000      -0.826312       -22.4851
 120   2.0000      -0.825615       -22.4661
 121   2.0000      -0.824954       -22.4481
 122   2.0000      -0.801737       -21.8164
 123   2.0000      -0.797844       -21.7104
 124   2.0000      -0.791991       -21.5512
 125   2.0000      -0.773566       -21.0498
 126   2.0000      -0.768377       -20.9086
 127   2.0000      -0.758293       -20.6342
 128   2.0000      -0.757017       -20.5995
 129   2.0000      -0.752724       -20.4827
 130   2.0000      -0.729122       -19.8404
 131   2.0000      -0.726582       -19.7713
 132   2.0000      -0.715290       -19.4640
 133   2.0000      -0.711290       -19.3552
 134   2.0000      -0.707234       -19.2448
 135   2.0000      -0.701690       -19.0940
 136   2.0000      -0.699314       -19.0293
 137   2.0000      -0.697626       -18.9834
 138   2.0000      -0.693663       -18.8755
 139   2.0000      -0.689661       -18.7666
 140   2.0000      -0.677039       -18.4232
 141   2.0000      -0.674428       -18.3521
 142   2.0000      -0.669865       -18.2279
 143   2.0000      -0.661234       -17.9931
 144   2.0000      -0.659463       -17.9449
 145   2.0000      -0.655784       -17.8448
 146   2.0000      -0.647416       -17.6171
 147   2.0000      -0.642707       -17.4890
 148   2.0000      -0.638176       -17.3657
 149   2.0000      -0.634308       -17.2604
 150   2.0000      -0.629156       -17.1202
 151   2.0000      -0.625994       -17.0342
 152   2.0000      -0.620957       -16.8971
 153   2.0000      -0.618322       -16.8254
 154   2.0000      -0.614078       -16.7099
 155   2.0000      -0.604186       -16.4407
 156   2.0000      -0.603998       -16.4356
 157   2.0000      -0.601047       -16.3553
 158   2.0000      -0.597684       -16.2638
 159   2.0000      -0.594002       -16.1636
 160   2.0000      -0.589388       -16.0381
 161   2.0000      -0.587816       -15.9953
 162   2.0000      -0.584088       -15.8938
 163   2.0000      -0.582710       -15.8563
 164   2.0000      -0.577707       -15.7202
 165   2.0000      -0.570342       -15.5198
 166   2.0000      -0.563080       -15.3222
 167   2.0000      -0.557928       -15.1820
 168   2.0000      -0.554575       -15.0907
 169   2.0000      -0.549967       -14.9654
 170   2.0000      -0.545215       -14.8360
 171   2.0000      -0.544255       -14.8099
 172   2.0000      -0.542524       -14.7628
 173   2.0000      -0.540813       -14.7163
 174   2.0000      -0.537205       -14.6181
 175   2.0000      -0.535814       -14.5803
 176   2.0000      -0.533428       -14.5153
 177   2.0000      -0.532922       -14.5016
 178   2.0000      -0.529889       -14.4190
 179   2.0000      -0.526947       -14.3389
 180   2.0000      -0.522317       -14.2130
 181   2.0000      -0.516607       -14.0576
 182   2.0000      -0.516420       -14.0525
 183   2.0000      -0.516107       -14.0440
 184   2.0000      -0.511860       -13.9284
 185   2.0000      -0.511103       -13.9078
 186   2.0000      -0.509052       -13.8520
 187   2.0000      -0.507807       -13.8181
 188   2.0000      -0.504253       -13.7214
 189   2.0000      -0.501961       -13.6590
 190   2.0000      -0.499158       -13.5828
 191   2.0000      -0.498810       -13.5733
 192   2.0000      -0.493121       -13.4185
 193   2.0000      -0.492033       -13.3889
 194   2.0000      -0.490065       -13.3354
 195   2.0000      -0.489746       -13.3267
 196   2.0000      -0.487567       -13.2674
 197   2.0000      -0.484355       -13.1800
 198   2.0000      -0.483664       -13.1612
 199   2.0000      -0.481184       -13.0937
 200   2.0000      -0.479928       -13.0595
 201   2.0000      -0.475761       -12.9461
 202   2.0000      -0.471663       -12.8346
 203   2.0000      -0.467176       -12.7125
 204   2.0000      -0.464055       -12.6276
 205   2.0000      -0.462078       -12.5738
 206   2.0000      -0.458097       -12.4654
 207   2.0000      -0.455510       -12.3951
 208   2.0000      -0.444625       -12.0989
 209   2.0000      -0.444542       -12.0966
 210   2.0000      -0.442889       -12.0516
 211   2.0000      -0.441689       -12.0190
 212   2.0000      -0.440799       -11.9948
 213   2.0000      -0.438397       -11.9294
 214   2.0000      -0.437104       -11.8942
 215   2.0000      -0.436266       -11.8714
 216   2.0000      -0.435262       -11.8441
 217   2.0000      -0.431436       -11.7400
 218   2.0000      -0.430453       -11.7132
 219   2.0000      -0.429315       -11.6823
 220   2.0000      -0.427939       -11.6448
 221   2.0000      -0.425712       -11.5842
 222   2.0000      -0.422755       -11.5038
 223   2.0000      -0.421811       -11.4781
 224   2.0000      -0.420723       -11.4484
 225   2.0000      -0.416197       -11.3253
 226   2.0000      -0.415485       -11.3059
 227   2.0000      -0.413850       -11.2614
 228   2.0000      -0.411602       -11.2003
 229   2.0000      -0.402374       -10.9492
 230   2.0000      -0.401320       -10.9205
 231   2.0000      -0.398787       -10.8515
 232   2.0000      -0.389328       -10.5941
 233   2.0000      -0.387122       -10.5341
 234   2.0000      -0.383648       -10.4396
 235   2.0000      -0.382806       -10.4167
 236   2.0000      -0.379253       -10.3200
 237   2.0000      -0.377129       -10.2622
 238   2.0000      -0.375368       -10.2143
 239   2.0000      -0.371314       -10.1040
 240   2.0000      -0.368575       -10.0294
 241   2.0000      -0.363982        -9.9045
 242   2.0000      -0.349454        -9.5091
 243   2.0000      -0.347709        -9.4616
 244   2.0000      -0.336874        -9.1668
 245   2.0000      -0.333076        -9.0634
 246   2.0000      -0.332083        -9.0364
 247   2.0000      -0.326130        -8.8745
 248   2.0000      -0.322731        -8.7820
 249   2.0000      -0.316044        -8.6000
 250   2.0000      -0.309588        -8.4243
 251   2.0000      -0.303954        -8.2710
 252   2.0000      -0.298798        -8.1307
 253   2.0000      -0.290378        -7.9016
 254   2.0000      -0.289312        -7.8726
 255   2.0000      -0.267808        -7.2874
 256   2.0000      -0.258825        -7.0430
 257   0.0000      -0.095173        -2.5898
 258   0.0000      -0.091555        -2.4913
 259   0.0000      -0.057542        -1.5658
 260   0.0000      -0.051941        -1.4134
 261   0.0000      -0.046415        -1.2630

MULLIKEN ATOMIC CHARGES
-----------------------
   0 C :    0.273514
   1 C :   -0.286056
   2 C :   -0.185877
   3 N :    0.151258
   4 C :   -0.186979
   5 N :    0.162158
   6 C :    0.042891
   7 C :    0.004058
   8 C :   -0.079393
   9 C :    0.093836
  10 C :    0.094679
  11 C :   -0.081159
  12 C :   -0.018366
  13 C :    0.036335
  14 C :    0.034201
  15 C :   -0.015564
  16 C :    0.136285
  17 O :   -0.140282
  18 C :   -0.107716
  19 C :    0.096225
  20 C :   -0.106937
  21 S :    0.075937
  22 C :   -0.048436
  23 N :   -0.065359
  24 N :   -0.046326
  25 C :   -0.004647
  26 C :    0.128413
  27 N :   -0.356554
  28 C :    0.028743
  29 C :    0.269161
  30 C :   -0.043140
  31 N :   -0.303673
  32 S :    0.221628
  33 N :   -0.305753
  34 C :   -0.041508
  35 C :    0.277500
  36 C :    0.026026
  37 N :   -0.365599
  38 S :    0.362253
  39 C :    0.147659
  40 C :   -0.050102
  41 C :    0.137601
  42 C :   -0.091729
  43 C :    0.161110
  44 N :    0.244958
  45 O :   -0.233154
  46 O :   -0.231423
  47 C :    0.047795
  48 C :   -0.019395
  49 C :    0.004127
  50 C :    0.028977
  51 C :   -0.014810
  52 C :   -0.035235
  53 C :   -0.071198
  54 C :    0.329942
  55 C :   -0.350047
  56 C :   -0.183573
  57 N :    0.147413
  58 C :   -0.196868
  59 N :    0.151528
  60 C :    0.048674
  61 C :   -0.001378
  62 C :    0.149443
  63 O :   -0.159351
  64 C :   -0.082189
  65 C :    0.099165
  66 C :    0.097199
  67 C :   -0.086268
  68 C :   -0.021756
  69 C :    0.036531
  70 C :    0.036320
  71 C :   -0.019089
  72 H :   -0.012323
  73 H :   -0.005024
  74 H :   -0.009726
  75 H :   -0.006313
  76 H :   -0.005758
  77 H :   -0.018058
  78 H :    0.019570
  79 H :    0.006258
  80 H :    0.018183
  81 H :    0.024682
  82 H :    0.020177
  83 H :   -0.018476
  84 H :    0.005375
  85 H :    0.129521
  86 H :    0.128597
  87 H :    0.003265
  88 H :    0.012486
  89 H :   -0.021079
  90 H :    0.021221
  91 H :    0.002721
  92 H :   -0.021516
  93 H :   -0.005286
  94 H :   -0.003580
  95 H :   -0.024419
  96 H :    0.024994
  97 H :    0.029696
  98 H :    0.017731
  99 H :   -0.014692
 100 H :   -0.007845
 101 H :   -0.007506
 102 H :   -0.005567
 103 H :   -0.006402
 104 H :   -0.017561
Sum of atomic charges:   -0.0000000

LOEWDIN ATOMIC CHARGES
----------------------
   0 C :    0.067740
   1 C :   -0.112032
   2 C :   -0.015060
   3 N :   -0.051161
   4 C :   -0.015636
   5 N :   -0.052155
   6 C :   -0.018873
   7 C :   -0.058992
   8 C :    0.032717
   9 C :   -0.010256
  10 C :   -0.004243
  11 C :    0.015009
  12 C :   -0.006813
  13 C :   -0.013074
  14 C :   -0.014713
  15 C :   -0.009445
  16 C :    0.083804
  17 O :   -0.141547
  18 C :   -0.060961
  19 C :    0.029518
  20 C :   -0.166462
  21 S :    0.374188
  22 C :   -0.114966
  23 N :   -0.092066
  24 N :   -0.043114
  25 C :   -0.140475
  26 C :    0.042756
  27 N :   -0.146926
  28 C :    0.019536
  29 C :   -0.032896
  30 C :   -0.011031
  31 N :   -0.223611
  32 S :    0.362932
  33 N :   -0.225802
  34 C :   -0.011586
  35 C :   -0.033433
  36 C :    0.018133
  37 N :   -0.155557
  38 S :    0.444998
  39 C :    0.037812
  40 C :   -0.120229
  41 C :    0.002017
  42 C :   -0.008489
  43 C :   -0.015609
  44 N :    0.285463
  45 O :   -0.200810
  46 O :   -0.191254
  47 C :   -0.030710
  48 C :    0.010314
  49 C :   -0.008932
  50 C :    0.040926
  51 C :   -0.033977
  52 C :    0.075570
  53 C :   -0.094445
  54 C :    0.075623
  55 C :   -0.138777
  56 C :   -0.016643
  57 N :   -0.055847
  58 C :   -0.021886
  59 N :   -0.050566
  60 C :   -0.024937
  61 C :   -0.055268
  62 C :    0.086123
  63 O :   -0.151134
  64 C :    0.030464
  65 C :   -0.008696
  66 C :   -0.006316
  67 C :    0.018792
  68 C :   -0.005489
  69 C :   -0.014035
  70 C :   -0.013024
  71 C :   -0.010581
  72 H :    0.038922
  73 H :    0.039059
  74 H :    0.034480
  75 H :    0.032620
  76 H :    0.032311
  77 H :    0.031485
  78 H :    0.047021
  79 H :    0.038180
  80 H :    0.023573
  81 H :    0.032052
  82 H :    0.034125
  83 H :    0.025466
  84 H :    0.021782
  85 H :    0.048742
  86 H :    0.047946
  87 H :    0.020866
  88 H :    0.031123
  89 H :    0.024785
  90 H :    0.030917
  91 H :    0.024192
  92 H :    0.023927
  93 H :    0.036596
  94 H :    0.039091
  95 H :    0.028263
  96 H :    0.035561
  97 H :    0.030643
  98 H :    0.044118
  99 H :    0.037895
 100 H :    0.038931
 101 H :    0.034932
 102 H :    0.032863
 103 H :    0.032263
 104 H :    0.031378

  Mayer bond orders larger than 0.100000
B(  0-C ,  1-C ) :   1.6973 B(  0-C ,  6-C ) :   1.0003 B(  0-C , 18-C ) :   1.0195
B(  1-C ,  2-C ) :   1.1406 B(  1-C ,  4-C ) :   1.1506 B(  2-C ,  3-N ) :   2.9857
B(  4-C ,  5-N ) :   3.0106 B(  6-C ,  7-C ) :   1.2124 B(  6-C , 11-C ) :   1.4585
B(  7-C ,  8-C ) :   1.4719 B(  7-C , 16-C ) :   0.9220 B(  8-C ,  9-C ) :   1.1895
B(  8-C , 72-H ) :   1.0153 B(  9-C , 10-C ) :   1.2548 B(  9-C , 15-C ) :   1.2430
B( 10-C , 11-C ) :   1.2057 B( 10-C , 12-C ) :   1.2406 B( 11-C , 73-H ) :   0.9938
B( 12-C , 13-C ) :   1.4908 B( 12-C , 74-H ) :   0.9975 B( 13-C , 14-C ) :   1.2581
B( 13-C , 75-H ) :   0.9888 B( 14-C , 15-C ) :   1.4911 B( 14-C , 76-H ) :   0.9894
B( 15-C , 77-H ) :   0.9975 B( 16-C , 17-O ) :   2.2766 B( 16-C , 18-C ) :   0.9303
B( 18-C , 19-C ) :   1.7119 B( 19-C , 20-C ) :   1.0946 B( 19-C , 78-H ) :   0.9315
B( 20-C , 21-S ) :   1.0561 B( 20-C , 24-N ) :   1.6354 B( 21-S , 22-C ) :   1.1027
B( 21-S , 24-N ) :   0.1076 B( 22-C , 23-N ) :   1.6322 B( 22-C , 25-C ) :   1.1650
B( 23-N , 24-N ) :   1.2530 B( 25-C , 26-C ) :   1.5946 B( 25-C , 79-H ) :   0.9620
B( 26-C , 27-N ) :   1.1598 B( 26-C , 80-H ) :   0.9579 B( 27-N , 28-C ) :   0.9230
B( 27-N , 38-S ) :   0.9337 B( 28-C , 29-C ) :   1.1034 B( 28-C , 36-C ) :   0.9673
B( 28-C , 81-H ) :   0.8993 B( 29-C , 30-C ) :   1.0845 B( 29-C , 35-C ) :   0.1291
B( 29-C , 82-H ) :   0.9288 B( 29-C , 83-H ) :   0.8393 B( 30-C , 31-N ) :   1.0572
B( 30-C , 34-C ) :   0.9569 B( 30-C , 84-H ) :   0.9184 B( 31-N , 32-S ) :   0.9788
B( 31-N , 85-H ) :   0.9438 B( 32-S , 33-N ) :   0.9760 B( 33-N , 34-C ) :   1.0550
B( 33-N , 86-H ) :   0.9437 B( 34-C , 35-C ) :   1.0851 B( 34-C , 87-H ) :   0.9182
B( 35-C , 36-C ) :   1.1033 B( 35-C , 88-H ) :   0.9280 B( 35-C , 89-H ) :   0.8375
B( 36-C , 37-N ) :   0.9296 B( 36-C , 90-H ) :   0.8983 B( 37-N , 38-S ) :   0.9477
B( 37-N , 39-C ) :   1.1207 B( 39-C , 40-C ) :   1.6558 B( 39-C , 91-H ) :   0.9502
B( 40-C , 41-C ) :   1.1126 B( 40-C , 92-H ) :   0.9665 B( 41-C , 42-C ) :   1.2831
B( 41-C , 49-C ) :   1.3057 B( 42-C , 43-C ) :   1.3835 B( 42-C , 93-H ) :   0.9979
B( 43-C , 44-N ) :   0.8791 B( 43-C , 47-C ) :   1.3381 B( 44-N , 45-O ) :   1.5536
B( 44-N , 46-O ) :   1.5208 B( 45-O , 46-O ) :   0.2664 B( 47-C , 48-C ) :   1.3256
B( 47-C , 50-C ) :   1.0556 B( 48-C , 49-C ) :   1.4363 B( 48-C , 94-H ) :   0.9857
B( 49-C , 95-H ) :   0.9866 B( 50-C , 51-C ) :   1.6205 B( 50-C , 96-H ) :   0.9625
B( 51-C , 52-C ) :   1.1520 B( 51-C , 97-H ) :   0.9732 B( 52-C , 53-C ) :   1.5538
B( 52-C , 98-H ) :   0.9637 B( 53-C , 54-C ) :   1.0576 B( 53-C , 62-C ) :   0.9440
B( 54-C , 55-C ) :   1.6328 B( 54-C , 60-C ) :   0.9900 B( 55-C , 56-C ) :   1.1464
B( 55-C , 58-C ) :   1.1443 B( 56-C , 57-N ) :   2.9633 B( 58-C , 59-N ) :   2.9728
B( 60-C , 61-C ) :   1.2172 B( 60-C , 67-C ) :   1.4494 B( 61-C , 62-C ) :   0.9471
B( 61-C , 64-C ) :   1.4716 B( 62-C , 63-O ) :   2.1892 B( 64-C , 65-C ) :   1.1806
B( 64-C , 99-H ) :   1.0159 B( 65-C , 66-C ) :   1.2569 B( 65-C , 71-C ) :   1.2430
B( 66-C , 67-C ) :   1.2070 B( 66-C , 68-C ) :   1.2392 B( 67-C ,100-H ) :   0.9897
B( 68-C , 69-C ) :   1.4894 B( 68-C ,101-H ) :   0.9979 B( 69-C , 70-C ) :   1.2595
B( 69-C ,102-H ) :   0.9888 B( 70-C , 71-C ) :   1.4887 B( 70-C ,103-H ) :   0.9892
B( 71-C ,104-H ) :   0.9982

-----------------------------------------------------------------------------
         ABSORPTION SPECTRUM VIA TRANSITION ELECTRIC DIPOLE MOMENTS
-----------------------------------------------------------------------------
State   Energy  Wavelength   fosc         T2         TX        TY        TZ
        (cm-1)    (nm)                  (au**2)     (au)      (au)      (au)
-----------------------------------------------------------------------------
   0   20677.0    483.6   1.370837476  21.82600  -3.88643   2.04531  -1.59323
   1   21544.5    464.2   0.560043914   8.55778   0.03595   0.69334  -2.84179
   2   24691.3    405.0   0.042626431   0.56834   0.58748   0.00877  -0.47237
   3   26787.8    373.3   0.029053195   0.35705   0.03217  -0.07383  -0.59209
   4   26821.6    372.8   0.042593368   0.52280  -0.44878  -0.33357   0.45839
   5   27125.2    368.7   0.007545120   0.09157  -0.29059   0.00899  -0.08395
   6   27869.7    358.8   0.006649707   0.07855  -0.08107   0.04628  -0.26427
   7   28015.8    356.9   0.050119608   0.58895  -0.41793   0.52462  -0.37292
   8   28133.8    355.4   0.007087367   0.08293  -0.11496   0.13414  -0.22743
   9   28219.2    354.4   0.051408886   0.59975   0.00201   0.26595   0.72733
  10   29136.9    343.2   0.017212123   0.19448  -0.28041   0.28258  -0.18973
  11   29533.6    338.6   0.012803586   0.14272   0.21877  -0.26841  -0.15106
  12   29973.6    333.6   0.008376378   0.09200  -0.17739   0.13994  -0.20236
  13   30577.3    327.0   0.417901070   4.49935  -1.74582   0.52848   1.08266
  14   31504.6    317.4   0.128599567   1.34382   0.60514   0.33594  -0.92993
  15   31837.3    314.1   0.325669760   3.36758   0.16389   0.00261   1.82776
  16   33460.4    298.9   0.051573873   0.50743   0.16462  -0.17310  -0.67109
  17   33645.3    297.2   0.330044373   3.22941  -1.06952  -0.50773   1.35194
  18   34023.4    293.9   0.871175405   8.42953  -0.64192   0.54799   2.77798
  19   34775.5    287.6   0.693339248   6.56370   2.44050   0.05361  -0.77766
  20   35142.8    284.6   0.035770298   0.33509  -0.05464  -0.52725  -0.23261
  21   35308.0    283.2   0.018990983   0.17707  -0.37559  -0.16268   0.09769
  22   35358.2    282.8   0.100597892   0.93664  -0.26375   0.75362   0.54693
  23   35611.7    280.8   0.109777094   1.01483   0.97215  -0.06742  -0.25537
  24   35992.6    277.8   0.017787221   0.16269  -0.01610  -0.02029  -0.40252
  25   36261.9    275.8   0.050673150   0.46005  -0.21460   0.62999  -0.13081
  26   36507.1    273.9   0.130644250   1.17812   0.40919  -0.89412   0.45959
  27   36565.5    273.5   0.263084718   2.36864  -1.36968   0.70144  -0.02417
  28   36879.4    271.2   0.038371650   0.34253   0.38895  -0.43534  -0.04159
  29   37131.2    269.3   0.020004560   0.17736   0.18679  -0.12897  -0.35474
  30   37415.1    267.3   0.022890897   0.20141   0.25519  -0.07446  -0.36160
  31   37933.5    263.6   0.143140117   1.24226   0.84498  -0.71747   0.11618
  32   38141.7    262.2   0.029125522   0.25139  -0.41530  -0.10812  -0.25929
  33   38580.9    259.2   0.055466503   0.47330  -0.13407  -0.06290   0.67184
  34   39054.6    256.1   0.147175276   1.24062   0.59305  -0.94004   0.07239
  35   39190.7    255.2   0.199344440   1.67455  -0.97138   0.81585  -0.25562
  36   39320.3    254.3   0.019086678   0.15980  -0.12779  -0.09861   0.36572
  37   39516.1    253.1   0.065395073   0.54481  -0.14773   0.12552  -0.71220
  38   40249.6    248.4   0.024748064   0.20242  -0.06291   0.00799   0.44542

FINAL SINGLE POINT ENERGY     -4170.976222008628

DIPOLE MOMENT
-------------
                                X             Y             Z
Electronic contribution:      1.31599      -5.51343      -6.97902
Nuclear contribution   :      0.57117       4.36739       5.90287
                        -----------------------------------------
Total Dipole Moment    :      1.88716      -1.14604      -1.07616
                        -----------------------------------------
Magnitude (a.u.)       :      2.45619
Magnitude (Debye)      :      6.24315

Rotational constants in cm-1:     0.000883     0.000227     0.000187
Rotational constants in MHz :    26.467952     6.790391     5.601491

                             ****ORCA TERMINATED NORMALLY****
TOTAL RUN TIME: 0 days 0 hours 9 minutes 26 seconds 352 msec
