                         Program Version 4.2.0 -  RELEASE  -
|  1> # ORCA input file
|  2> # SCF done       -168.545170629907          0.000207549509
|  3> ! CAM-B3LYP def2-SVP def2/J RIJCOSX Grid4 TightSCF
|  4> %maxcore 5000
|  5> %tddft
|  6>     Mode sTDDFT
|  7>     Ethresh 5.0
|  8>     maxcore 5000
|  9> end
| 10>
| 11> %pal
| 12>   nprocs 6
| 13>   end
| 14> * xyz 0 1
| 15>    C       -3.49832        -1.41088       -10.07751
| 16>    C       -2.40077        -1.46885       -10.88979
| 17>    F       -2.24196        -0.57157       -11.87301
| 18>    C       -1.42513        -2.46834       -10.70629
| 19>    F       -0.35819        -2.50166       -11.51807
| 20>    C       -1.56048        -3.39715        -9.71272
| 21>    C       -2.68064        -3.36449        -8.86009
| 22>    C       -3.66763        -2.35387        -9.04407
| 23>    C       -4.80151        -2.30151        -8.20058
| 24>    C       -4.94474        -3.23252        -7.20640
| 25>    C       -3.95590        -4.23990        -7.03253
| 26>    C       -2.84969        -4.31436        -7.82762
| 27>    C       -4.34828        -5.12164        -5.91306
| 28>    O       -3.72127        -6.07551        -5.49812
| 29>    C       -5.64504        -4.59871        -5.42915
| 30>    C       -5.99097        -3.43020        -6.20374
| 31>    C       -7.08955        -2.61984        -6.04325
| 32>    C       -8.09535        -2.77748        -5.06868
| 33>    N       -8.95308        -2.82813        -4.30567
| 34>    C       -7.36033        -1.48906        -6.84024
| 35>    N       -7.64184        -0.55832        -7.45144
| 36>    C       -6.39656        -5.16989        -4.42659
| 37>    C       -6.04145        -6.31140        -3.69871
| 38>    C       -6.87221        -6.84049        -2.73868
| 39>    C       -6.57688        -7.98508        -1.99507
| 40>    C       -7.44408        -8.51490        -1.06411
| 41>    C       -7.18879        -9.65807        -0.31562
| 42>    C       -8.07545       -10.20128         0.59760
| 43>    C       -7.88745       -11.35446         1.38626
| 44>    C       -8.94833       -11.65957         2.19342
| 45>    C      -10.02444       -10.75998         2.07673
| 46>    S       -9.65181        -9.50985         0.91843
| 47>    C      -11.24576       -10.79504         2.73991
| 48>    C      -11.68995       -11.73566         3.68836
| 49>    C      -12.95676       -11.49889         4.14466
| 50>    C      -13.57136       -10.36300         3.57848
| 51>    S      -12.47791        -9.59561         2.44621
| 52>    C      -14.84612        -9.89000         3.83167
| 53>    C      -15.39807        -8.76535         3.22677
| 54>    C      -16.68083        -8.31859         3.45348
| 55>    C      -17.20511        -7.18980         2.81484
| 56>    C      -18.49301        -6.71554         2.91880
| 57>    C      -19.48012        -7.21378         3.78004
| 58>    C      -20.80825        -6.86499         3.80008
| 59>    C      -21.61842        -7.11223         5.01612
| 60>    O      -21.31120        -7.79622         5.96807
| 61>    C      -22.84587        -6.30735         4.83743
| 62>    C      -23.87689        -6.10688         5.70821
| 63>    C      -24.94495        -5.26320         5.32654
| 64>    C      -24.91750        -4.63682         4.04719
| 65>    C      -25.98152        -3.79140         3.67509
| 66>    C      -27.02616        -3.58121         4.53104
| 67>    C      -27.05354        -4.20296         5.79482
| 68>    C      -26.03507        -5.02639         6.18595
| 69>    F      -28.09067        -3.97906         6.61462
| 70>    F      -28.03825        -2.77829         4.17422
| 71>    C      -23.83827        -4.86929         3.16295
| 72>    C      -22.82106        -5.69880         3.54978
| 73>    C      -21.62010        -6.15220         2.84793
| 74>    C      -21.43087        -6.09388         1.48820
| 75>    C      -20.43390        -6.81545         0.80013
| 76>    N      -19.68112        -7.42846         0.18705
| 77>    C      -22.28748        -5.40374         0.60799
| 78>    N      -22.94061        -4.83784        -0.14824
| 79>    H       -4.23615        -0.63895       -10.23129
| 80>    H       -0.80476        -4.15638        -9.58548
| 81>    H       -5.52946        -1.52457        -8.36796
| 82>    H       -2.11436        -5.08930        -7.67274
| 83>    H       -7.34794        -4.71670        -4.17892
| 84>    H       -5.09488        -6.78702        -3.90939
| 85>    H       -7.81932        -6.34866        -2.54879
| 86>    H       -5.62905        -8.47751        -2.16917
| 87>    H       -8.39319        -8.01644        -0.90531
| 88>    H       -6.24404       -10.16888        -0.44875
| 89>    H       -6.97879       -11.92786         1.33674
| 90>    H       -8.97766       -12.50377         2.85823
| 91>    H      -11.07636       -12.55772         4.00965
| 92>    H      -13.46473       -12.11086         4.86875
| 93>    H      -15.44421       -10.44575         4.54212
| 94>    H      -14.77837        -8.22092         2.52413
| 95>    H      -17.30393        -8.87661         4.13806
| 96>    H      -16.53973        -6.66457         2.14153
| 97>    H      -18.75497        -5.86796         2.30026
| 98>    H      -19.17813        -7.87078         4.58753
| 99>    H      -23.87969        -6.58540         6.67574
|100>    H      -25.97765        -3.31028         2.70950
|101>    H      -26.07092        -5.49470         7.15710
|102>    H      -23.84133        -4.37818         2.20301
|103> *
|104>
|105>                          ****END OF INPUT****

CARTESIAN COORDINATES (ANGSTROEM)
---------------------------------
  C     -3.498320   -1.410880  -10.077510
  C     -2.400770   -1.468850  -10.889790
  F     -2.241960   -0.571570  -11.873010
  C     -1.425130   -2.468340  -10.706290
  F     -0.358190   -2.501660  -11.518070
  C     -1.560480   -3.397150   -9.712720
  C     -2.680640   -3.364490   -8.860090
  C     -3.667630   -2.353870   -9.044070
  C     -4.801510   -2.301510   -8.200580
  C     -4.944740   -3.232520   -7.206400
  C     -3.955900   -4.239900   -7.032530
  C     -2.849690   -4.314360   -7.827620
  C     -4.348280   -5.121640   -5.913060
  O     -3.721270   -6.075510   -5.498120
  C     -5.645040   -4.598710   -5.429150
  C     -5.990970   -3.430200   -6.203740
  C     -7.089550   -2.619840   -6.043250
  C     -8.095350   -2.777480   -5.068680
  N     -8.953080   -2.828130   -4.305670
  C     -7.360330   -1.489060   -6.840240
  N     -7.641840   -0.558320   -7.451440
  C     -6.396560   -5.169890   -4.426590
  C     -6.041450   -6.311400   -3.698710
  C     -6.872210   -6.840490   -2.738680
  C     -6.576880   -7.985080   -1.995070
  C     -7.444080   -8.514900   -1.064110
  C     -7.188790   -9.658070   -0.315620
  C     -8.075450  -10.201280    0.597600
  C     -7.887450  -11.354460    1.386260
  C     -8.948330  -11.659570    2.193420
  C    -10.024440  -10.759980    2.076730
  S     -9.651810   -9.509850    0.918430
  C    -11.245760  -10.795040    2.739910
  C    -11.689950  -11.735660    3.688360
  C    -12.956760  -11.498890    4.144660
  C    -13.571360  -10.363000    3.578480
  S    -12.477910   -9.595610    2.446210
  C    -14.846120   -9.890000    3.831670
  C    -15.398070   -8.765350    3.226770
  C    -16.680830   -8.318590    3.453480
  C    -17.205110   -7.189800    2.814840
  C    -18.493010   -6.715540    2.918800
  C    -19.480120   -7.213780    3.780040
  C    -20.808250   -6.864990    3.800080
  C    -21.618420   -7.112230    5.016120
  O    -21.311200   -7.796220    5.968070
  C    -22.845870   -6.307350    4.837430
  C    -23.876890   -6.106880    5.708210
  C    -24.944950   -5.263200    5.326540
  C    -24.917500   -4.636820    4.047190
  C    -25.981520   -3.791400    3.675090
  C    -27.026160   -3.581210    4.531040
  C    -27.053540   -4.202960    5.794820
  C    -26.035070   -5.026390    6.185950
  F    -28.090670   -3.979060    6.614620
  F    -28.038250   -2.778290    4.174220
  C    -23.838270   -4.869290    3.162950
  C    -22.821060   -5.698800    3.549780
  C    -21.620100   -6.152200    2.847930
  C    -21.430870   -6.093880    1.488200
  C    -20.433900   -6.815450    0.800130
  N    -19.681120   -7.428460    0.187050
  C    -22.287480   -5.403740    0.607990
  N    -22.940610   -4.837840   -0.148240
  H     -4.236150   -0.638950  -10.231290
  H     -0.804760   -4.156380   -9.585480
  H     -5.529460   -1.524570   -8.367960
  H     -2.114360   -5.089300   -7.672740
  H     -7.347940   -4.716700   -4.178920
  H     -5.094880   -6.787020   -3.909390
  H     -7.819320   -6.348660   -2.548790
  H     -5.629050   -8.477510   -2.169170
  H     -8.393190   -8.016440   -0.905310
  H     -6.244040  -10.168880   -0.448750
  H     -6.978790  -11.927860    1.336740
  H     -8.977660  -12.503770    2.858230
  H    -11.076360  -12.557720    4.009650
  H    -13.464730  -12.110860    4.868750
  H    -15.444210  -10.445750    4.542120
  H    -14.778370   -8.220920    2.524130
  H    -17.303930   -8.876610    4.138060
  H    -16.539730   -6.664570    2.141530
  H    -18.754970   -5.867960    2.300260
  H    -19.178130   -7.870780    4.587530
  H    -23.879690   -6.585400    6.675740
  H    -25.977650   -3.310280    2.709500
  H    -26.070920   -5.494700    7.157100
  H    -23.841330   -4.378180    2.203010

 Total Charge           Charge          ....    0
 Multiplicity           Mult            ....    1
 Number of Electrons    NEL             ....  448
 Basis Dimension        Dim             .... 1024

ORBITAL ENERGIES
----------------

  NO   OCC          E(Eh)            E(eV)
   0   2.0000     -88.970850     -2421.0199
   1   2.0000     -88.970654     -2421.0146
   2   2.0000     -24.794653      -674.6968
   3   2.0000     -24.793906      -674.6765
   4   2.0000     -24.793127      -674.6553
   5   2.0000     -24.792014      -674.6250
   6   2.0000     -19.210716      -522.7501
   7   2.0000     -19.209521      -522.7176
   8   2.0000     -14.412105      -392.1733
   9   2.0000     -14.409754      -392.1093
  10   2.0000     -14.408610      -392.0782
  11   2.0000     -14.407288      -392.0422
  12   2.0000     -10.377468      -282.3853
  13   2.0000     -10.376909      -282.3701
  14   2.0000     -10.375741      -282.3383
  15   2.0000     -10.374915      -282.3158
  16   2.0000     -10.361562      -281.9524
  17   2.0000     -10.360255      -281.9169
  18   2.0000     -10.339146      -281.3425
  19   2.0000     -10.338321      -281.3200
  20   2.0000     -10.337142      -281.2879
  21   2.0000     -10.336576      -281.2725
  22   2.0000     -10.334466      -281.2151
  23   2.0000     -10.334076      -281.2045
  24   2.0000     -10.333525      -281.1895
  25   2.0000     -10.332841      -281.1709
  26   2.0000     -10.314766      -280.6790
  27   2.0000     -10.313174      -280.6357
  28   2.0000     -10.313142      -280.6349
  29   2.0000     -10.312799      -280.6255
  30   2.0000     -10.311246      -280.5833
  31   2.0000     -10.310939      -280.5749
  32   2.0000     -10.310661      -280.5674
  33   2.0000     -10.308583      -280.5108
  34   2.0000     -10.307838      -280.4905
  35   2.0000     -10.306764      -280.4613
  36   2.0000     -10.306297      -280.4486
  37   2.0000     -10.306003      -280.4406
  38   2.0000     -10.304819      -280.4084
  39   2.0000     -10.304553      -280.4011
  40   2.0000     -10.304113      -280.3892
  41   2.0000     -10.303737      -280.3789
  42   2.0000     -10.303585      -280.3748
  43   2.0000     -10.303302      -280.3671
  44   2.0000     -10.302478      -280.3447
  45   2.0000     -10.301910      -280.3292
  46   2.0000     -10.301169      -280.3091
  47   2.0000     -10.299967      -280.2763
  48   2.0000     -10.298271      -280.2302
  49   2.0000     -10.297446      -280.2078
  50   2.0000     -10.297265      -280.2028
  51   2.0000     -10.296356      -280.1781
  52   2.0000     -10.295576      -280.1569
  53   2.0000     -10.295281      -280.1488
  54   2.0000     -10.295079      -280.1433
  55   2.0000     -10.294868      -280.1376
  56   2.0000     -10.294716      -280.1335
  57   2.0000     -10.292799      -280.0813
  58   2.0000     -10.291662      -280.0504
  59   2.0000     -10.289651      -279.9956
  60   2.0000     -10.289172      -279.9826
  61   2.0000     -10.288781      -279.9720
  62   2.0000     -10.285566      -279.8845
  63   2.0000     -10.280490      -279.7464
  64   2.0000      -8.067240      -219.5208
  65   2.0000      -8.067065      -219.5160
  66   2.0000      -6.036865      -164.2714
  67   2.0000      -6.036682      -164.2665
  68   2.0000      -6.032850      -164.1622
  69   2.0000      -6.032665      -164.1572
  70   2.0000      -6.028305      -164.0385
  71   2.0000      -6.028154      -164.0344
  72   2.0000      -1.316907       -35.8349
  73   2.0000      -1.315118       -35.7862
  74   2.0000      -1.302072       -35.4312
  75   2.0000      -1.300292       -35.3828
  76   2.0000      -1.124915       -30.6105
  77   2.0000      -1.123496       -30.5719
  78   2.0000      -1.021804       -27.8047
  79   2.0000      -1.014869       -27.6160
  80   2.0000      -1.012196       -27.5433
  81   2.0000      -0.999870       -27.2078
  82   2.0000      -0.999447       -27.1963
  83   2.0000      -0.997740       -27.1499
  84   2.0000      -0.989015       -26.9125
  85   2.0000      -0.987206       -26.8632
  86   2.0000      -0.976926       -26.5835
  87   2.0000      -0.974309       -26.5123
  88   2.0000      -0.943641       -25.6778
  89   2.0000      -0.939644       -25.5690
  90   2.0000      -0.928516       -25.2662
  91   2.0000      -0.925362       -25.1804
  92   2.0000      -0.915569       -24.9139
  93   2.0000      -0.907882       -24.7047
  94   2.0000      -0.895062       -24.3559
  95   2.0000      -0.890941       -24.2437
  96   2.0000      -0.887508       -24.1503
  97   2.0000      -0.884862       -24.0783
  98   2.0000      -0.879544       -23.9336
  99   2.0000      -0.868268       -23.6268
 100   2.0000      -0.865210       -23.5436
 101   2.0000      -0.846372       -23.0310
 102   2.0000      -0.843619       -22.9560
 103   2.0000      -0.836221       -22.7547
 104   2.0000      -0.833950       -22.6929
 105   2.0000      -0.827822       -22.5262
 106   2.0000      -0.809168       -22.0186
 107   2.0000      -0.793759       -21.5993
 108   2.0000      -0.776100       -21.1188
 109   2.0000      -0.762011       -20.7354
 110   2.0000      -0.760028       -20.6814
 111   2.0000      -0.755375       -20.5548
 112   2.0000      -0.737227       -20.0610
 113   2.0000      -0.730393       -19.8750
 114   2.0000      -0.721312       -19.6279
 115   2.0000      -0.713425       -19.4133
 116   2.0000      -0.710525       -19.3344
 117   2.0000      -0.702945       -19.1281
 118   2.0000      -0.697765       -18.9871
 119   2.0000      -0.685661       -18.6578
 120   2.0000      -0.682647       -18.5758
 121   2.0000      -0.677770       -18.4431
 122   2.0000      -0.671089       -18.2613
 123   2.0000      -0.663298       -18.0493
 124   2.0000      -0.662266       -18.0212
 125   2.0000      -0.652362       -17.7517
 126   2.0000      -0.652234       -17.7482
 127   2.0000      -0.649541       -17.6749
 128   2.0000      -0.643467       -17.5096
 129   2.0000      -0.639038       -17.3891
 130   2.0000      -0.637300       -17.3418
 131   2.0000      -0.634977       -17.2786
 132   2.0000      -0.632591       -17.2137
 133   2.0000      -0.626559       -17.0495
 134   2.0000      -0.614527       -16.7221
 135   2.0000      -0.611392       -16.6368
 136   2.0000      -0.607834       -16.5400
 137   2.0000      -0.598386       -16.2829
 138   2.0000      -0.590316       -16.0633
 139   2.0000      -0.585785       -15.9400
 140   2.0000      -0.581833       -15.8325
 141   2.0000      -0.581561       -15.8251
 142   2.0000      -0.579847       -15.7784
 143   2.0000      -0.575802       -15.6684
 144   2.0000      -0.573135       -15.5958
 145   2.0000      -0.568049       -15.4574
 146   2.0000      -0.559602       -15.2275
 147   2.0000      -0.551760       -15.0142
 148   2.0000      -0.550857       -14.9896
 149   2.0000      -0.547514       -14.8986
 150   2.0000      -0.547059       -14.8862
 151   2.0000      -0.543297       -14.7839
 152   2.0000      -0.541567       -14.7368
 153   2.0000      -0.538488       -14.6530
 154   2.0000      -0.532587       -14.4924
 155   2.0000      -0.531178       -14.4541
 156   2.0000      -0.528896       -14.3920
 157   2.0000      -0.527934       -14.3658
 158   2.0000      -0.526177       -14.3180
 159   2.0000      -0.523077       -14.2337
 160   2.0000      -0.522390       -14.2150
 161   2.0000      -0.520594       -14.1661
 162   2.0000      -0.518079       -14.0977
 163   2.0000      -0.514423       -13.9982
 164   2.0000      -0.512260       -13.9393
 165   2.0000      -0.508588       -13.8394
 166   2.0000      -0.506745       -13.7892
 167   2.0000      -0.504140       -13.7184
 168   2.0000      -0.497165       -13.5285
 169   2.0000      -0.495847       -13.4927
 170   2.0000      -0.493166       -13.4197
 171   2.0000      -0.492685       -13.4066
 172   2.0000      -0.492332       -13.3970
 173   2.0000      -0.490432       -13.3453
 174   2.0000      -0.483358       -13.1528
 175   2.0000      -0.481001       -13.0887
 176   2.0000      -0.479687       -13.0529
 177   2.0000      -0.477794       -13.0014
 178   2.0000      -0.475653       -12.9432
 179   2.0000      -0.472687       -12.8625
 180   2.0000      -0.466201       -12.6860
 181   2.0000      -0.462000       -12.5716
 182   2.0000      -0.460508       -12.5311
 183   2.0000      -0.459012       -12.4904
 184   2.0000      -0.457691       -12.4544
 185   2.0000      -0.455645       -12.3987
 186   2.0000      -0.455062       -12.3829
 187   2.0000      -0.449134       -12.2216
 188   2.0000      -0.446794       -12.1579
 189   2.0000      -0.444614       -12.0986
 190   2.0000      -0.443089       -12.0571
 191   2.0000      -0.442548       -12.0424
 192   2.0000      -0.439997       -11.9729
 193   2.0000      -0.439814       -11.9680
 194   2.0000      -0.436927       -11.8894
 195   2.0000      -0.436902       -11.8887
 196   2.0000      -0.428750       -11.6669
 197   2.0000      -0.423735       -11.5304
 198   2.0000      -0.422900       -11.5077
 199   2.0000      -0.421542       -11.4707
 200   2.0000      -0.420841       -11.4517
 201   2.0000      -0.419904       -11.4262
 202   2.0000      -0.416761       -11.3406
 203   2.0000      -0.415426       -11.3043
 204   2.0000      -0.409609       -11.1460
 205   2.0000      -0.400670       -10.9028
 206   2.0000      -0.399443       -10.8694
 207   2.0000      -0.390559       -10.6276
 208   2.0000      -0.383367       -10.4319
 209   2.0000      -0.379283       -10.3208
 210   2.0000      -0.369993       -10.0680
 211   2.0000      -0.361572        -9.8389
 212   2.0000      -0.353638        -9.6230
 213   2.0000      -0.348350        -9.4791
 214   2.0000      -0.336203        -9.1485
 215   2.0000      -0.329723        -8.9722
 216   2.0000      -0.329200        -8.9580
 217   2.0000      -0.313436        -8.5290
 218   2.0000      -0.311685        -8.4814
 219   2.0000      -0.304568        -8.2877
 220   2.0000      -0.296811        -8.0766
 221   2.0000      -0.292215        -7.9516
 222   2.0000      -0.271040        -7.3754
 223   2.0000      -0.224284        -6.1031
 224   0.0000      -0.130014        -3.5379
 225   0.0000      -0.094760        -2.5786
 226   0.0000      -0.071430        -1.9437
 227   0.0000      -0.055982        -1.5234
 228   0.0000      -0.050938        -1.3861

MULLIKEN ATOMIC CHARGES
-----------------------
   0 C :   -0.109357
   1 C :    0.240601
   2 F :   -0.174025
   3 C :    0.237496
   4 F :   -0.174979
   5 C :   -0.106716
   6 C :    0.118342
   7 C :    0.113069
   8 C :   -0.088660
   9 C :    0.046955
  10 C :    0.001454
  11 C :   -0.087464
  12 C :    0.142631
  13 O :   -0.157637
  14 C :   -0.079947
  15 C :    0.336993
  16 C :   -0.358311
  17 C :   -0.189027
  18 N :    0.139722
  19 C :   -0.185335
  20 N :    0.139177
  21 C :   -0.027679
  22 C :   -0.004797
  23 C :    0.052362
  24 C :    0.013011
  25 C :    0.025784
  26 C :   -0.004174
  27 C :   -0.017241
  28 C :    0.039185
  29 C :    0.028360
  30 C :   -0.044793
  31 S :    0.098349
  32 C :   -0.042377
  33 C :    0.030111
  34 C :    0.037145
  35 C :   -0.013431
  36 S :    0.099626
  37 C :   -0.008065
  38 C :    0.022124
  39 C :    0.012638
  40 C :    0.046219
  41 C :    0.009801
  42 C :    0.035366
  43 C :   -0.117975
  44 C :    0.142624
  45 O :   -0.150780
  46 C :    0.006865
  47 C :   -0.083016
  48 C :    0.113125
  49 C :    0.112386
  50 C :   -0.106480
  51 C :    0.239856
  52 C :    0.237950
  53 C :   -0.104166
  54 F :   -0.174123
  55 F :   -0.172817
  56 C :   -0.083480
  57 C :    0.042144
  58 C :    0.276669
  59 C :   -0.333960
  60 C :   -0.220958
  61 N :    0.170893
  62 C :   -0.174387
  63 N :    0.144936
  64 H :    0.006779
  65 H :   -0.001593
  66 H :   -0.006744
  67 H :   -0.013423
  68 H :    0.004420
  69 H :    0.021701
  70 H :    0.009791
  71 H :    0.000109
  72 H :    0.009873
  73 H :   -0.005514
  74 H :   -0.002438
  75 H :   -0.003750
  76 H :   -0.004378
  77 H :   -0.000991
  78 H :   -0.002976
  79 H :    0.010939
  80 H :    0.003911
  81 H :    0.006015
  82 H :    0.015762
  83 H :    0.011311
  84 H :   -0.012483
  85 H :    0.005434
  86 H :   -0.003150
  87 H :   -0.006418
Sum of atomic charges:   -0.0000000

LOEWDIN ATOMIC CHARGES
----------------------
   0 C :   -0.029725
   1 C :    0.065094
   2 F :   -0.051277
   3 C :    0.066198
   4 F :   -0.052067
   5 C :   -0.034696
   6 C :   -0.009479
   7 C :   -0.007455
   8 C :    0.014714
   9 C :   -0.021226
  10 C :   -0.050318
  11 C :    0.025612
  12 C :    0.082181
  13 O :   -0.152378
  14 C :   -0.101405
  15 C :    0.073697
  16 C :   -0.147144
  17 C :   -0.019991
  18 N :   -0.060455
  19 C :   -0.017642
  20 N :   -0.061386
  21 C :    0.063032
  22 C :   -0.033224
  23 C :    0.029391
  24 C :   -0.025503
  25 C :    0.001350
  26 C :   -0.054197
  27 C :   -0.130443
  28 C :   -0.030572
  29 C :   -0.021717
  30 C :   -0.173995
  31 S :    0.395771
  32 C :   -0.170007
  33 C :   -0.023646
  34 C :   -0.027263
  35 C :   -0.132830
  36 S :    0.395748
  37 C :   -0.049988
  38 C :    0.001142
  39 C :   -0.022105
  40 C :    0.030264
  41 C :   -0.034834
  42 C :    0.063013
  43 C :   -0.093576
  44 C :    0.080007
  45 O :   -0.150970
  46 C :   -0.052703
  47 C :    0.027810
  48 C :   -0.010302
  49 C :   -0.006292
  50 C :   -0.030269
  51 C :    0.065872
  52 C :    0.065965
  53 C :   -0.033582
  54 F :   -0.051487
  55 F :   -0.050465
  56 C :    0.011985
  57 C :   -0.018789
  58 C :    0.066760
  59 C :   -0.140669
  60 C :   -0.025090
  61 N :   -0.051387
  62 C :   -0.018715
  63 N :   -0.055159
  64 H :    0.047359
  65 H :    0.043974
  66 H :    0.039574
  67 H :    0.038686
  68 H :    0.040819
  69 H :    0.034022
  70 H :    0.035922
  71 H :    0.033978
  72 H :    0.027465
  73 H :    0.037416
  74 H :    0.037805
  75 H :    0.035689
  76 H :    0.035622
  77 H :    0.038295
  78 H :    0.038088
  79 H :    0.027955
  80 H :    0.031205
  81 H :    0.040000
  82 H :    0.037230
  83 H :    0.039808
  84 H :    0.039511
  85 H :    0.047132
  86 H :    0.044020
  87 H :    0.039241

  Mayer bond orders larger than 0.100000
B(  0-C ,  1-C ) :   1.4392 B(  0-C ,  5-C ) :   0.1087 B(  0-C ,  7-C ) :   1.1910
B(  0-C , 64-H ) :   1.0068 B(  1-C ,  2-F ) :   1.1321 B(  1-C ,  3-C ) :   1.1931
B(  3-C ,  4-F ) :   1.1301 B(  3-C ,  5-C ) :   1.4417 B(  5-C ,  6-C ) :   1.1932
B(  5-C , 65-H ) :   1.0069 B(  6-C ,  7-C ) :   1.2583 B(  6-C , 11-C ) :   1.1855
B(  7-C ,  8-C ) :   1.2134 B(  8-C ,  9-C ) :   1.4565 B(  8-C , 66-H ) :   0.9885
B(  9-C , 10-C ) :   1.2230 B(  9-C , 15-C ) :   0.9802 B( 10-C , 11-C ) :   1.4756
B( 10-C , 12-C ) :   0.9374 B( 11-C , 67-H ) :   1.0160 B( 12-C , 13-O ) :   2.1984
B( 12-C , 14-C ) :   0.9569 B( 14-C , 15-C ) :   1.0929 B( 14-C , 21-C ) :   1.4772
B( 15-C , 16-C ) :   1.6004 B( 16-C , 17-C ) :   1.1511 B( 16-C , 19-C ) :   1.1511
B( 17-C , 18-N ) :   2.9586 B( 19-C , 20-N ) :   2.9553 B( 21-C , 22-C ) :   1.2147
B( 21-C , 68-H ) :   0.9581 B( 22-C , 23-C ) :   1.4654 B( 22-C , 69-H ) :   0.9874
B( 23-C , 24-C ) :   1.1986 B( 23-C , 70-H ) :   0.9892 B( 24-C , 25-C ) :   1.5158
B( 24-C , 71-H ) :   0.9933 B( 25-C , 26-C ) :   1.2109 B( 25-C , 72-H ) :   0.9762
B( 26-C , 27-C ) :   1.4898 B( 26-C , 73-H ) :   0.9837 B( 27-C , 28-C ) :   1.1761
B( 27-C , 31-S ) :   1.0558 B( 28-C , 29-C ) :   1.5498 B( 28-C , 74-H ) :   1.0005
B( 29-C , 30-C ) :   1.2211 B( 29-C , 75-H ) :   0.9950 B( 30-C , 31-S ) :   1.0611
B( 30-C , 32-C ) :   1.4502 B( 32-C , 33-C ) :   1.2191 B( 32-C , 36-S ) :   1.0646
B( 33-C , 34-C ) :   1.5510 B( 33-C , 76-H ) :   0.9952 B( 34-C , 35-C ) :   1.1743
B( 34-C , 77-H ) :   1.0013 B( 35-C , 36-S ) :   1.0506 B( 35-C , 37-C ) :   1.4982
B( 37-C , 38-C ) :   1.1986 B( 37-C , 78-H ) :   0.9838 B( 38-C , 39-C ) :   1.5481
B( 38-C , 79-H ) :   0.9797 B( 39-C , 40-C ) :   1.2129 B( 39-C , 80-H ) :   0.9749
B( 40-C , 41-C ) :   1.5597 B( 40-C , 81-H ) :   0.9770 B( 41-C , 42-C ) :   1.1833
B( 41-C , 82-H ) :   0.9616 B( 42-C , 43-C ) :   1.5821 B( 42-C , 83-H ) :   0.9392
B( 43-C , 44-C ) :   0.9514 B( 43-C , 58-C ) :   1.0642 B( 44-C , 45-O ) :   2.2513
B( 44-C , 46-C ) :   0.9203 B( 46-C , 47-C ) :   1.4803 B( 46-C , 57-C ) :   1.2195
B( 47-C , 48-C ) :   1.1901 B( 47-C , 84-H ) :   1.0150 B( 48-C , 49-C ) :   1.2608
B( 48-C , 53-C ) :   1.1932 B( 49-C , 50-C ) :   1.1909 B( 49-C , 56-C ) :   1.2095
B( 50-C , 51-C ) :   1.4388 B( 50-C , 53-C ) :   0.1092 B( 50-C , 85-H ) :   1.0066
B( 51-C , 52-C ) :   1.1960 B( 51-C , 55-F ) :   1.1331 B( 52-C , 53-C ) :   1.4420
B( 52-C , 54-F ) :   1.1307 B( 53-C , 86-H ) :   1.0065 B( 56-C , 57-C ) :   1.4618
B( 56-C , 87-H ) :   0.9921 B( 57-C , 58-C ) :   0.9942 B( 58-C , 59-C ) :   1.6260
B( 59-C , 60-C ) :   1.1617 B( 59-C , 62-C ) :   1.1349 B( 60-C , 61-N ) :   3.0182
B( 62-C , 63-N ) :   2.9754

-----------------------------------------------------------------------------
         ABSORPTION SPECTRUM VIA TRANSITION ELECTRIC DIPOLE MOMENTS
-----------------------------------------------------------------------------
State   Energy  Wavelength   fosc         T2         TX        TY        TZ
        (cm-1)    (nm)                  (au**2)     (au)      (au)      (au)
-----------------------------------------------------------------------------
   0    8736.2   1144.7   1.698905369  64.02112   6.82789   1.00913  -4.04756
   1   15631.6    639.7   0.394014933   8.29820   1.19948  -2.13129   1.52218
   2   18972.1    527.1   1.305312032  22.65035  -2.05182   3.51067  -2.47297
   3   21678.9    461.3   0.110563728   1.67900  -0.85788   0.95610  -0.17004
   4   23877.4    418.8   0.025382954   0.34997  -0.18802   0.41030   0.38245
   5   24258.4    412.2   0.024249710   0.32909   0.31111  -0.41542  -0.24440
   6   25132.1    397.9   0.006207220   0.08131  -0.21629  -0.17214   0.06997
   7   25519.2    391.9   0.057292013   0.73910  -0.10368   0.78008  -0.34615
   8   26122.2    382.8   0.000608154   0.00766   0.07458  -0.01550  -0.04315
   9   26668.5    375.0   0.122728092   1.51503   0.95008   0.27438  -0.73287
  10   26927.3    371.4   0.007661496   0.09367   0.14670   0.21052   0.16682
  11   27105.0    368.9   0.051342947   0.62360   0.52573   0.22278  -0.54551
  12   27824.3    359.4   0.181752372   2.15046   1.19143   0.07586  -0.85159
  13   28279.0    353.6   0.077009816   0.89652  -0.65057  -0.01969   0.68767
  14   28956.6    345.3   0.076721003   0.87225  -0.37352   0.76271  -0.38861
  15   29337.2    340.9   0.009827410   0.11028   0.13031  -0.21482   0.21714
  16   30889.8    323.7   0.027890733   0.29725   0.40057   0.36813  -0.03569
  17   32229.6    310.3   0.063252102   0.64609   0.31593   0.53324  -0.51179
  18   32368.3    308.9   0.604945198   6.15278   1.90857  -0.16044  -1.57619
  19   32655.7    306.2   0.041388679   0.41725  -0.41807   0.19665   0.45144
  20   32813.8    304.8   0.135101530   1.35544  -0.93322   0.27087   0.64122
  21   33002.3    303.0   0.092877772   0.92650  -0.60001   0.10873   0.74476
  22   33274.5    300.5   0.002053715   0.02032   0.08103   0.02919  -0.11358
  23   33506.4    298.5   0.014227996   0.13980  -0.19679   0.29668  -0.11424
  24   33734.8    296.4   0.005853029   0.05712  -0.05576   0.09450   0.21232
  25   33901.8    295.0   0.000268904   0.00261  -0.04482   0.01740  -0.01731
  26   34063.9    293.6   0.026897476   0.25995  -0.00701  -0.16415   0.48266
  27   34566.1    289.3   0.198089898   1.88663   1.05306  -0.16026  -0.86719
  28   34888.4    286.6   0.078559808   0.74130  -0.56988   0.59987  -0.23811
  29   35912.2    278.5   0.006938613   0.06361  -0.24122   0.07361  -0.00179
  30   36124.4    276.8   0.000166464   0.00152   0.03805  -0.00748  -0.00368
  31   36529.8    273.7   0.054525417   0.49139  -0.54208   0.24778   0.36898
  32   36887.1    271.1   0.587335795   5.24188   1.56529  -0.39253  -1.62409
  33   37090.4    269.6   0.057732767   0.51243   0.67324  -0.19933   0.13945
  34   37346.4    267.8   0.010087022   0.08892   0.24780  -0.09637  -0.13501
  35   37679.8    265.4   0.113571276   0.99228   0.68838  -0.11126  -0.71136
  36   38059.9    262.7   0.193358746   1.67252   1.07831  -0.28522  -0.65454
  37   39018.1    256.3   0.031687123   0.26736  -0.18919   0.29936  -0.37676
  38   39206.2    255.1   0.029505645   0.24776  -0.40345   0.26478   0.12198
  39   39868.7    250.8   0.003512612   0.02901   0.10348   0.13453   0.01414
  40   40302.3    248.1   0.100786739   0.82328  -0.63952  -0.35396   0.53760

FINAL SINGLE POINT ENERGY     -3557.358324811034

DIPOLE MOMENT
-------------
                                X             Y             Z
Electronic contribution:    -20.37873      36.64605     -25.61957
Nuclear contribution   :     22.86615     -40.59346      29.21978
                        -----------------------------------------
Total Dipole Moment    :      2.48742      -3.94742       3.60021
                        -----------------------------------------
Magnitude (a.u.)       :      5.89329
Magnitude (Debye)      :     14.97955

Rotational constants in cm-1:     0.001286     0.000198     0.000173
Rotational constants in MHz :    38.545403     5.923966     5.179049

                             ****ORCA TERMINATED NORMALLY****
TOTAL RUN TIME: 0 days 0 hours 7 minutes 22 seconds 544 msec
