                         Program Version 4.2.0 -  RELEASE  -
|  1> # ORCA input file
|  2> # SCF done       -168.418148456025          0.000994984440
|  3> ! CAM-B3LYP def2-SVP def2/J RIJCOSX Grid4 TightSCF
|  4> %maxcore 5000
|  5> %tddft
|  6>     Mode sTDDFT
|  7>     Ethresh 5.0
|  8>     maxcore 5000
|  9> end
| 10>
| 11> %pal
| 12>   nprocs 6
| 13>   end
| 14> * xyz 0 1
| 15>    C        6.32791         2.37906         5.43291
| 16>    C        5.10832         1.77703         5.50113
| 17>    C        4.18611         2.38955         4.63117
| 18>    C        4.74977         3.45615         3.91993
| 19>    S        6.39116         3.70191         4.31540
| 20>    C        3.75225         4.01655         3.07179
| 21>    C        2.56326         3.29636         3.25268
| 22>    C        2.79553         2.25068         4.24209
| 23>    C        1.88649         1.34401         4.70394
| 24>    C        0.55217         1.32402         4.24733
| 25>    N       -0.53403         1.31004         3.87917
| 26>    C        2.21779         0.36980         5.66881
| 27>    N        2.48035        -0.42176         6.45578
| 28>    C        1.51362         3.76538         2.46392
| 29>    C        1.89288         4.84436         1.68399
| 30>    S        3.58107         5.27477         1.93346
| 31>    C        1.11028         5.59580         0.77234
| 32>    S        1.84631         6.87591        -0.14522
| 33>    C        0.35781         7.28699        -0.95271
| 34>    C       -0.65144         6.46250        -0.51057
| 35>    C       -0.24769         5.50345         0.47004
| 36>    C       -1.34533         4.72979         0.91742
| 37>    C       -2.51466         5.10209         0.32655
| 38>    C       -3.85264         4.54352         0.54387
| 39>    O       -4.85556         4.95486         0.01530
| 40>    O       -3.81999         3.51836         1.40573
| 41>    C       -5.06875         2.90079         1.68216
| 42>    S       -2.35768         6.41232        -0.81903
| 43>    C        0.30495         8.37218        -1.89210
| 44>    C        1.01298         9.55516        -1.74469
| 45>    C        1.85796         9.90940        -0.69486
| 46>    N        2.54603        10.21830         0.17192
| 47>    S        0.69721        10.68245        -3.02963
| 48>    C       -0.38857         9.56648        -3.80132
| 49>    C       -0.47995         8.37654        -3.07891
| 50>    C       -1.13176         7.23117        -3.55861
| 51>    N       -1.59280         6.26508        -3.97405
| 52>    C       -1.05826         9.91253        -4.99617
| 53>    S       -2.34598         8.92267        -5.63327
| 54>    C       -2.63975         9.99747        -6.97222
| 55>    C       -1.75885        11.06316        -6.91618
| 56>    C       -0.86686        11.03305        -5.80836
| 57>    C        0.00999        12.14382        -5.81336
| 58>    C       -0.21524        12.97012        -6.87378
| 59>    C        0.52154        14.20061        -7.18121
| 60>    O        1.42500        14.63821        -6.51359
| 61>    O        0.05806        14.76818        -8.29965
| 62>    C        0.69557        15.96885        -8.70762
| 63>    S       -1.50588        12.44987        -7.92578
| 64>    C       -3.65592         9.73450        -7.92299
| 65>    C       -3.98671        10.49771        -9.03035
| 66>    C       -5.04996         9.94236        -9.74035
| 67>    C       -5.52926         8.75303        -9.17090
| 68>    S       -4.67417         8.31237        -7.76302
| 69>    C       -6.60931         8.27680        -9.96755
| 70>    C       -6.80592         9.16454       -11.03265
| 71>    C       -5.83658        10.23976       -10.93154
| 72>    C       -5.68569        11.30574       -11.76900
| 73>    C       -6.50722        11.49450       -12.90048
| 74>    N       -7.17389        11.65516       -13.81958
| 75>    C       -4.69622        12.29051       -11.56382
| 76>    N       -3.89737        13.09735       -11.40245
| 77>    C       -7.86313         8.76817       -11.87352
| 78>    C       -8.43493         7.61137       -11.43730
| 79>    S       -7.70945         6.97285        -9.99991
| 80>    H        7.21531         2.12760         5.97837
| 81>    H        4.88925         0.94193         6.14097
| 82>    H        0.52847         3.34231         2.45057
| 83>    H       -1.30616         3.94049         1.64349
| 84>    H       -4.85464         2.08752         2.37043
| 85>    H       -5.51568         2.52055         0.76133
| 86>    H       -5.75512         3.61923         2.13518
| 87>    H        0.77885        12.34364        -5.09023
| 88>    H        0.17672        16.29560        -9.60462
| 89>    H        1.75082        15.78348        -8.91830
| 90>    H        0.62134        16.72268        -7.92127
| 91>    H       -3.47446        11.40458        -9.29294
| 92>    H       -8.18632         9.30124       -12.74880
| 93>    H       -9.25488         7.07917       -11.87638
| 94> *
| 95>
| 96>                          ****END OF INPUT****

CARTESIAN COORDINATES (ANGSTROEM)
---------------------------------
  C      6.327910    2.379060    5.432910
  C      5.108320    1.777030    5.501130
  C      4.186110    2.389550    4.631170
  C      4.749770    3.456150    3.919930
  S      6.391160    3.701910    4.315400
  C      3.752250    4.016550    3.071790
  C      2.563260    3.296360    3.252680
  C      2.795530    2.250680    4.242090
  C      1.886490    1.344010    4.703940
  C      0.552170    1.324020    4.247330
  N     -0.534030    1.310040    3.879170
  C      2.217790    0.369800    5.668810
  N      2.480350   -0.421760    6.455780
  C      1.513620    3.765380    2.463920
  C      1.892880    4.844360    1.683990
  S      3.581070    5.274770    1.933460
  C      1.110280    5.595800    0.772340
  S      1.846310    6.875910   -0.145220
  C      0.357810    7.286990   -0.952710
  C     -0.651440    6.462500   -0.510570
  C     -0.247690    5.503450    0.470040
  C     -1.345330    4.729790    0.917420
  C     -2.514660    5.102090    0.326550
  C     -3.852640    4.543520    0.543870
  O     -4.855560    4.954860    0.015300
  O     -3.819990    3.518360    1.405730
  C     -5.068750    2.900790    1.682160
  S     -2.357680    6.412320   -0.819030
  C      0.304950    8.372180   -1.892100
  C      1.012980    9.555160   -1.744690
  C      1.857960    9.909400   -0.694860
  N      2.546030   10.218300    0.171920
  S      0.697210   10.682450   -3.029630
  C     -0.388570    9.566480   -3.801320
  C     -0.479950    8.376540   -3.078910
  C     -1.131760    7.231170   -3.558610
  N     -1.592800    6.265080   -3.974050
  C     -1.058260    9.912530   -4.996170
  S     -2.345980    8.922670   -5.633270
  C     -2.639750    9.997470   -6.972220
  C     -1.758850   11.063160   -6.916180
  C     -0.866860   11.033050   -5.808360
  C      0.009990   12.143820   -5.813360
  C     -0.215240   12.970120   -6.873780
  C      0.521540   14.200610   -7.181210
  O      1.425000   14.638210   -6.513590
  O      0.058060   14.768180   -8.299650
  C      0.695570   15.968850   -8.707620
  S     -1.505880   12.449870   -7.925780
  C     -3.655920    9.734500   -7.922990
  C     -3.986710   10.497710   -9.030350
  C     -5.049960    9.942360   -9.740350
  C     -5.529260    8.753030   -9.170900
  S     -4.674170    8.312370   -7.763020
  C     -6.609310    8.276800   -9.967550
  C     -6.805920    9.164540  -11.032650
  C     -5.836580   10.239760  -10.931540
  C     -5.685690   11.305740  -11.769000
  C     -6.507220   11.494500  -12.900480
  N     -7.173890   11.655160  -13.819580
  C     -4.696220   12.290510  -11.563820
  N     -3.897370   13.097350  -11.402450
  C     -7.863130    8.768170  -11.873520
  C     -8.434930    7.611370  -11.437300
  S     -7.709450    6.972850   -9.999910
  H      7.215310    2.127600    5.978370
  H      4.889250    0.941930    6.140970
  H      0.528470    3.342310    2.450570
  H     -1.306160    3.940490    1.643490
  H     -4.854640    2.087520    2.370430
  H     -5.515680    2.520550    0.761330
  H     -5.755120    3.619230    2.135180
  H      0.778850   12.343640   -5.090230
  H      0.176720   16.295600   -9.604620
  H      1.750820   15.783480   -8.918300
  H      0.621340   16.722680   -7.921270
  H     -3.474460   11.404580   -9.292940
  H     -8.186320    9.301240  -12.748800
  H     -9.254880    7.079170  -11.876380

 Total Charge           Charge          ....    0
 Multiplicity           Mult            ....    1
 Number of Electrons    NEL             ....  508
 Basis Dimension        Dim             .... 1016

ORBITAL ENERGIES
----------------

  NO   OCC          E(Eh)            E(eV)
   0   2.0000     -88.996337     -2421.7135
   1   2.0000     -88.995014     -2421.6774
   2   2.0000     -88.990327     -2421.5499
   3   2.0000     -88.990171     -2421.5457
   4   2.0000     -88.987675     -2421.4777
   5   2.0000     -88.987660     -2421.4773
   6   2.0000     -88.978099     -2421.2172
   7   2.0000     -88.973307     -2421.0868
   8   2.0000     -88.958167     -2420.6748
   9   2.0000     -19.271955      -524.4166
  10   2.0000     -19.258481      -524.0499
  11   2.0000     -19.214304      -522.8478
  12   2.0000     -19.203656      -522.5580
  13   2.0000     -14.431958      -392.7135
  14   2.0000     -14.431083      -392.6897
  15   2.0000     -14.430983      -392.6870
  16   2.0000     -14.428887      -392.6300
  17   2.0000     -14.416990      -392.3062
  18   2.0000     -14.415420      -392.2635
  19   2.0000     -10.414673      -283.3977
  20   2.0000     -10.403075      -283.0821
  21   2.0000     -10.365798      -282.0677
  22   2.0000     -10.363198      -281.9969
  23   2.0000     -10.357163      -281.8327
  24   2.0000     -10.353414      -281.7307
  25   2.0000     -10.351162      -281.6694
  26   2.0000     -10.342909      -281.4448
  27   2.0000     -10.339058      -281.3401
  28   2.0000     -10.336303      -281.2651
  29   2.0000     -10.335643      -281.2471
  30   2.0000     -10.335254      -281.2366
  31   2.0000     -10.333867      -281.1988
  32   2.0000     -10.332327      -281.1569
  33   2.0000     -10.332057      -281.1496
  34   2.0000     -10.331664      -281.1389
  35   2.0000     -10.331634      -281.1381
  36   2.0000     -10.331342      -281.1301
  37   2.0000     -10.330528      -281.1079
  38   2.0000     -10.330013      -281.0939
  39   2.0000     -10.329699      -281.0854
  40   2.0000     -10.329459      -281.0789
  41   2.0000     -10.329317      -281.0750
  42   2.0000     -10.328707      -281.0584
  43   2.0000     -10.325314      -280.9661
  44   2.0000     -10.322289      -280.8838
  45   2.0000     -10.322054      -280.8774
  46   2.0000     -10.318840      -280.7899
  47   2.0000     -10.318251      -280.7739
  48   2.0000     -10.316662      -280.7306
  49   2.0000     -10.316580      -280.7284
  50   2.0000     -10.314314      -280.6668
  51   2.0000     -10.312645      -280.6213
  52   2.0000     -10.311671      -280.5948
  53   2.0000     -10.310704      -280.5685
  54   2.0000     -10.307677      -280.4861
  55   2.0000     -10.305975      -280.4398
  56   2.0000     -10.305647      -280.4309
  57   2.0000     -10.302463      -280.3443
  58   2.0000     -10.302376      -280.3419
  59   2.0000     -10.301864      -280.3280
  60   2.0000     -10.299783      -280.2714
  61   2.0000     -10.299356      -280.2597
  62   2.0000     -10.297586      -280.2116
  63   2.0000     -10.297408      -280.2067
  64   2.0000     -10.293500      -280.1004
  65   2.0000      -8.091073      -220.1693
  66   2.0000      -8.089703      -220.1320
  67   2.0000      -8.085129      -220.0075
  68   2.0000      -8.084973      -220.0033
  69   2.0000      -8.082619      -219.9392
  70   2.0000      -8.082087      -219.9248
  71   2.0000      -8.072929      -219.6756
  72   2.0000      -8.067935      -219.5397
  73   2.0000      -8.053236      -219.1397
  74   2.0000      -6.060635      -164.9183
  75   2.0000      -6.058999      -164.8737
  76   2.0000      -6.056229      -164.7984
  77   2.0000      -6.054752      -164.7582
  78   2.0000      -6.054379      -164.7480
  79   2.0000      -6.054280      -164.7453
  80   2.0000      -6.052891      -164.7075
  81   2.0000      -6.051999      -164.6833
  82   2.0000      -6.051875      -164.6799
  83   2.0000      -6.051556      -164.6712
  84   2.0000      -6.050033      -164.6298
  85   2.0000      -6.049905      -164.6263
  86   2.0000      -6.047788      -164.5687
  87   2.0000      -6.047404      -164.5582
  88   2.0000      -6.047276      -164.5548
  89   2.0000      -6.047162      -164.5516
  90   2.0000      -6.045270      -164.5002
  91   2.0000      -6.044095      -164.4682
  92   2.0000      -6.042373      -164.4213
  93   2.0000      -6.038021      -164.3029
  94   2.0000      -6.037692      -164.2940
  95   2.0000      -6.034968      -164.2198
  96   2.0000      -6.033394      -164.1770
  97   2.0000      -6.029262      -164.0646
  98   2.0000      -6.023102      -163.8970
  99   2.0000      -6.018733      -163.7780
 100   2.0000      -6.014275      -163.6567
 101   2.0000      -1.203359       -32.7451
 102   2.0000      -1.190416       -32.3929
 103   2.0000      -1.108381       -30.1606
 104   2.0000      -1.097284       -29.8586
 105   2.0000      -1.047366       -28.5003
 106   2.0000      -1.043727       -28.4013
 107   2.0000      -1.041680       -28.3456
 108   2.0000      -1.028706       -27.9925
 109   2.0000      -1.022915       -27.8349
 110   2.0000      -1.021673       -27.8011
 111   2.0000      -1.015775       -27.6406
 112   2.0000      -1.008980       -27.4557
 113   2.0000      -1.007405       -27.4129
 114   2.0000      -1.001925       -27.2638
 115   2.0000      -0.998355       -27.1666
 116   2.0000      -0.993664       -27.0390
 117   2.0000      -0.991236       -26.9729
 118   2.0000      -0.969661       -26.3858
 119   2.0000      -0.961143       -26.1540
 120   2.0000      -0.957777       -26.0624
 121   2.0000      -0.951916       -25.9030
 122   2.0000      -0.923623       -25.1331
 123   2.0000      -0.913684       -24.8626
 124   2.0000      -0.901146       -24.5214
 125   2.0000      -0.895862       -24.3777
 126   2.0000      -0.879678       -23.9372
 127   2.0000      -0.870302       -23.6821
 128   2.0000      -0.866233       -23.5714
 129   2.0000      -0.860763       -23.4225
 130   2.0000      -0.857451       -23.3324
 131   2.0000      -0.854474       -23.2514
 132   2.0000      -0.852823       -23.2065
 133   2.0000      -0.843214       -22.9450
 134   2.0000      -0.829156       -22.5625
 135   2.0000      -0.823601       -22.4113
 136   2.0000      -0.814865       -22.1736
 137   2.0000      -0.801635       -21.8136
 138   2.0000      -0.793142       -21.5825
 139   2.0000      -0.780823       -21.2473
 140   2.0000      -0.777872       -21.1670
 141   2.0000      -0.774365       -21.0715
 142   2.0000      -0.750961       -20.4347
 143   2.0000      -0.746343       -20.3090
 144   2.0000      -0.727341       -19.7920
 145   2.0000      -0.725559       -19.7435
 146   2.0000      -0.713955       -19.4277
 147   2.0000      -0.704832       -19.1794
 148   2.0000      -0.703190       -19.1348
 149   2.0000      -0.702091       -19.1049
 150   2.0000      -0.685780       -18.6610
 151   2.0000      -0.681012       -18.5313
 152   2.0000      -0.671422       -18.2703
 153   2.0000      -0.660022       -17.9601
 154   2.0000      -0.654839       -17.8191
 155   2.0000      -0.650260       -17.6945
 156   2.0000      -0.642938       -17.4952
 157   2.0000      -0.636076       -17.3085
 158   2.0000      -0.633853       -17.2480
 159   2.0000      -0.633623       -17.2417
 160   2.0000      -0.623635       -16.9700
 161   2.0000      -0.617319       -16.7981
 162   2.0000      -0.613262       -16.6877
 163   2.0000      -0.612054       -16.6548
 164   2.0000      -0.600064       -16.3286
 165   2.0000      -0.592181       -16.1141
 166   2.0000      -0.586049       -15.9472
 167   2.0000      -0.582156       -15.8413
 168   2.0000      -0.581338       -15.8190
 169   2.0000      -0.577243       -15.7076
 170   2.0000      -0.569888       -15.5074
 171   2.0000      -0.569301       -15.4915
 172   2.0000      -0.565762       -15.3952
 173   2.0000      -0.559763       -15.2319
 174   2.0000      -0.556364       -15.1394
 175   2.0000      -0.550463       -14.9789
 176   2.0000      -0.549387       -14.9496
 177   2.0000      -0.545915       -14.8551
 178   2.0000      -0.543371       -14.7859
 179   2.0000      -0.538397       -14.6505
 180   2.0000      -0.530410       -14.4332
 181   2.0000      -0.525286       -14.2938
 182   2.0000      -0.519770       -14.1437
 183   2.0000      -0.519004       -14.1228
 184   2.0000      -0.515040       -14.0149
 185   2.0000      -0.510401       -13.8887
 186   2.0000      -0.508820       -13.8457
 187   2.0000      -0.505717       -13.7613
 188   2.0000      -0.504603       -13.7309
 189   2.0000      -0.502372       -13.6702
 190   2.0000      -0.501592       -13.6490
 191   2.0000      -0.497128       -13.5275
 192   2.0000      -0.495221       -13.4756
 193   2.0000      -0.493719       -13.4348
 194   2.0000      -0.493041       -13.4163
 195   2.0000      -0.489024       -13.3070
 196   2.0000      -0.486526       -13.2391
 197   2.0000      -0.485230       -13.2038
 198   2.0000      -0.483111       -13.1461
 199   2.0000      -0.477534       -12.9944
 200   2.0000      -0.473809       -12.8930
 201   2.0000      -0.472427       -12.8554
 202   2.0000      -0.468639       -12.7523
 203   2.0000      -0.466116       -12.6837
 204   2.0000      -0.463657       -12.6168
 205   2.0000      -0.462881       -12.5956
 206   2.0000      -0.461803       -12.5663
 207   2.0000      -0.460758       -12.5379
 208   2.0000      -0.458462       -12.4754
 209   2.0000      -0.457532       -12.4501
 210   2.0000      -0.452524       -12.3138
 211   2.0000      -0.451649       -12.2900
 212   2.0000      -0.448539       -12.2054
 213   2.0000      -0.445413       -12.1203
 214   2.0000      -0.445046       -12.1103
 215   2.0000      -0.443803       -12.0765
 216   2.0000      -0.442191       -12.0326
 217   2.0000      -0.441742       -12.0204
 218   2.0000      -0.440247       -11.9797
 219   2.0000      -0.440162       -11.9774
 220   2.0000      -0.440005       -11.9732
 221   2.0000      -0.438253       -11.9255
 222   2.0000      -0.434843       -11.8327
 223   2.0000      -0.433131       -11.7861
 224   2.0000      -0.431193       -11.7334
 225   2.0000      -0.428655       -11.6643
 226   2.0000      -0.427504       -11.6330
 227   2.0000      -0.426216       -11.5979
 228   2.0000      -0.424316       -11.5462
 229   2.0000      -0.419311       -11.4100
 230   2.0000      -0.414152       -11.2696
 231   2.0000      -0.412332       -11.2201
 232   2.0000      -0.408137       -11.1060
 233   2.0000      -0.405012       -11.0209
 234   2.0000      -0.398291       -10.8380
 235   2.0000      -0.391356       -10.6493
 236   2.0000      -0.388094       -10.5606
 237   2.0000      -0.376781       -10.2527
 238   2.0000      -0.366827        -9.9819
 239   2.0000      -0.363585        -9.8937
 240   2.0000      -0.358552        -9.7567
 241   2.0000      -0.357317        -9.7231
 242   2.0000      -0.350826        -9.5464
 243   2.0000      -0.347246        -9.4491
 244   2.0000      -0.339936        -9.2501
 245   2.0000      -0.336434        -9.1548
 246   2.0000      -0.328048        -8.9266
 247   2.0000      -0.323225        -8.7954
 248   2.0000      -0.321648        -8.7525
 249   2.0000      -0.315142        -8.5755
 250   2.0000      -0.303410        -8.2562
 251   2.0000      -0.297733        -8.1017
 252   2.0000      -0.253657        -6.9024
 253   2.0000      -0.244500        -6.6532
 254   0.0000      -0.107115        -2.9148
 255   0.0000      -0.103109        -2.8057
 256   0.0000      -0.087150        -2.3715
 257   0.0000      -0.063738        -1.7344
 258   0.0000      -0.024668        -0.6712

MULLIKEN ATOMIC CHARGES
-----------------------
   0 C :   -0.079669
   1 C :    0.035391
   2 C :   -0.031868
   3 C :   -0.117712
   4 S :    0.186481
   5 C :   -0.095413
   6 C :    0.003681
   7 C :    0.301335
   8 C :   -0.296070
   9 C :   -0.187369
  10 N :    0.168502
  11 C :   -0.191729
  12 N :    0.172488
  13 C :   -0.045670
  14 C :   -0.054257
  15 S :    0.193931
  16 C :   -0.067627
  17 S :    0.185287
  18 C :   -0.284965
  19 C :    0.030018
  20 C :    0.088321
  21 C :   -0.010674
  22 C :   -0.150068
  23 C :    0.206494
  24 O :   -0.198524
  25 O :   -0.298107
  26 C :    0.188746
  27 S :    0.192593
  28 C :    0.295982
  29 C :   -0.329931
  30 C :   -0.204748
  31 N :    0.153664
  32 S :    0.206724
  33 C :   -0.040879
  34 C :   -0.088981
  35 C :   -0.311570
  36 N :    0.185094
  37 C :   -0.119871
  38 S :    0.186745
  39 C :   -0.092249
  40 C :   -0.054133
  41 C :    0.122683
  42 C :   -0.030806
  43 C :   -0.104796
  44 C :    0.202892
  45 O :   -0.190990
  46 O :   -0.303259
  47 C :    0.186140
  48 S :    0.172059
  49 C :   -0.079384
  50 C :   -0.050811
  51 C :    0.003335
  52 C :   -0.096757
  53 S :    0.204349
  54 C :   -0.120644
  55 C :   -0.029503
  56 C :    0.302572
  57 C :   -0.296542
  58 C :   -0.191653
  59 N :    0.175190
  60 C :   -0.185374
  61 N :    0.170086
  62 C :    0.036244
  63 C :   -0.079688
  64 S :    0.190648
  65 H :    0.036475
  66 H :    0.012369
  67 H :   -0.010232
  68 H :    0.012622
  69 H :    0.043793
  70 H :    0.033597
  71 H :    0.033046
  72 H :    0.020495
  73 H :    0.045409
  74 H :    0.036984
  75 H :    0.038618
  76 H :    0.010610
  77 H :    0.012380
  78 H :    0.038446
Sum of atomic charges:    0.0000000

LOEWDIN ATOMIC CHARGES
----------------------
   0 C :   -0.176984
   1 C :   -0.033805
   2 C :   -0.076677
   3 C :   -0.183655
   4 S :    0.481665
   5 C :   -0.178268
   6 C :   -0.070161
   7 C :    0.084677
   8 C :   -0.104799
   9 C :   -0.014362
  10 N :   -0.038327
  11 C :   -0.017285
  12 N :   -0.032959
  13 C :   -0.025846
  14 C :   -0.180397
  15 S :    0.476857
  16 C :   -0.176335
  17 S :    0.482007
  18 C :   -0.214128
  19 C :   -0.165096
  20 C :   -0.074777
  21 C :   -0.020867
  22 C :   -0.192023
  23 C :    0.064265
  24 O :   -0.175220
  25 O :   -0.088513
  26 C :    0.083806
  27 S :    0.453708
  28 C :   -0.012506
  29 C :   -0.238843
  30 C :   -0.074052
  31 N :   -0.044736
  32 S :    0.505799
  33 C :   -0.128345
  34 C :   -0.124098
  35 C :   -0.066946
  36 N :   -0.039830
  37 C :   -0.204629
  38 S :    0.497223
  39 C :   -0.193535
  40 C :   -0.188666
  41 C :   -0.062016
  42 C :   -0.025091
  43 C :   -0.186130
  44 C :    0.066529
  45 O :   -0.167822
  46 O :   -0.092914
  47 C :    0.085274
  48 S :    0.448468
  49 C :   -0.188598
  50 C :   -0.027730
  51 C :   -0.069925
  52 C :   -0.174424
  53 S :    0.482370
  54 C :   -0.185783
  55 C :   -0.074512
  56 C :    0.082868
  57 C :   -0.102213
  58 C :   -0.016975
  59 N :   -0.031634
  60 C :   -0.016944
  61 N :   -0.033298
  62 C :   -0.033606
  63 C :   -0.175107
  64 S :    0.484095
  65 H :    0.027935
  66 H :    0.042758
  67 H :    0.037699
  68 H :    0.038686
  69 H :    0.029754
  70 H :    0.024091
  71 H :    0.023820
  72 H :    0.032403
  73 H :    0.030885
  74 H :    0.025903
  75 H :    0.026115
  76 H :    0.030234
  77 H :    0.042895
  78 H :    0.028605

  Mayer bond orders larger than 0.100000
B(  0-C ,  1-C ) :   1.5482 B(  0-C ,  4-S ) :   1.1505 B(  0-C , 65-H ) :   0.9641
B(  1-C ,  2-C ) :   1.2768 B(  1-C , 66-H ) :   0.9970 B(  2-C ,  3-C ) :   1.4559
B(  2-C ,  7-C ) :   1.0140 B(  3-C ,  4-S ) :   1.1387 B(  3-C ,  5-C ) :   1.1818
B(  5-C ,  6-C ) :   1.4545 B(  5-C , 15-S ) :   1.1302 B(  6-C ,  7-C ) :   0.9940
B(  6-C , 13-C ) :   1.2978 B(  7-C ,  8-C ) :   1.7090 B(  8-C ,  9-C ) :   1.1317
B(  8-C , 11-C ) :   1.1285 B(  9-C , 10-N ) :   3.0006 B( 11-C , 12-N ) :   3.0029
B( 13-C , 14-C ) :   1.4696 B( 13-C , 67-H ) :   0.9932 B( 14-C , 15-S ) :   1.0967
B( 14-C , 16-C ) :   1.1462 B( 16-C , 17-S ) :   1.1439 B( 16-C , 18-C ) :   0.1335
B( 16-C , 20-C ) :   1.4238 B( 17-S , 18-C ) :   1.1389 B( 18-C , 19-C ) :   1.5250
B( 18-C , 28-C ) :   1.0378 B( 19-C , 20-C ) :   1.2311 B( 19-C , 27-S ) :   1.0628
B( 20-C , 21-C ) :   1.1233 B( 21-C , 22-C ) :   1.6243 B( 21-C , 68-H ) :   0.9991
B( 22-C , 23-C ) :   0.9586 B( 22-C , 27-S ) :   1.0781 B( 23-C , 24-O ) :   2.1417
B( 23-C , 25-O ) :   1.2414 B( 25-O , 26-C ) :   0.9172 B( 26-C , 69-H ) :   0.9810
B( 26-C , 70-H ) :   0.9759 B( 26-C , 71-H ) :   0.9766 B( 28-C , 29-C ) :   1.4930
B( 28-C , 34-C ) :   1.2803 B( 29-C , 30-C ) :   1.2179 B( 29-C , 32-S ) :   1.1009
B( 29-C , 33-C ) :   0.1048 B( 30-C , 31-N ) :   2.9919 B( 32-S , 33-C ) :   1.1547
B( 33-C , 34-C ) :   1.4298 B( 33-C , 37-C ) :   1.2181 B( 34-C , 35-C ) :   1.1136
B( 35-C , 36-N ) :   2.9959 B( 37-C , 38-S ) :   1.1233 B( 37-C , 39-C ) :   0.1208
B( 37-C , 41-C ) :   1.3508 B( 38-S , 39-C ) :   1.1429 B( 39-C , 40-C ) :   1.5139
B( 39-C , 49-C ) :   1.1580 B( 40-C , 41-C ) :   1.2593 B( 40-C , 48-S ) :   1.0515
B( 41-C , 42-C ) :   1.1278 B( 42-C , 43-C ) :   1.6364 B( 42-C , 72-H ) :   0.9931
B( 43-C , 44-C ) :   0.9450 B( 43-C , 48-S ) :   1.0763 B( 44-C , 45-O ) :   2.1445
B( 44-C , 46-O ) :   1.2451 B( 46-O , 47-C ) :   0.9133 B( 47-C , 73-H ) :   0.9811
B( 47-C , 74-H ) :   0.9773 B( 47-C , 75-H ) :   0.9763 B( 49-C , 50-C ) :   1.4707
B( 49-C , 53-S ) :   1.0956 B( 50-C , 51-C ) :   1.3083 B( 50-C , 76-H ) :   0.9815
B( 51-C , 52-C ) :   1.4534 B( 51-C , 56-C ) :   0.9938 B( 52-C , 53-S ) :   1.1328
B( 52-C , 54-C ) :   1.1856 B( 54-C , 55-C ) :   1.4548 B( 54-C , 64-S ) :   1.1382
B( 55-C , 56-C ) :   1.0159 B( 55-C , 62-C ) :   1.2799 B( 56-C , 57-C ) :   1.7091
B( 57-C , 58-C ) :   1.1305 B( 57-C , 60-C ) :   1.1347 B( 58-C , 59-N ) :   3.0030
B( 60-C , 61-N ) :   2.9859 B( 62-C , 63-C ) :   1.5459 B( 62-C , 77-H ) :   0.9965
B( 63-C , 64-S ) :   1.1531 B( 63-C , 78-H ) :   0.9641

-----------------------------------------------------------------------------
         ABSORPTION SPECTRUM VIA TRANSITION ELECTRIC DIPOLE MOMENTS
-----------------------------------------------------------------------------
State   Energy  Wavelength   fosc         T2         TX        TY        TZ
        (cm-1)    (nm)                  (au**2)     (au)      (au)      (au)
-----------------------------------------------------------------------------
   0   13170.0    759.3   0.156705407   3.91717  -1.24202   0.77175  -1.33378
   1   13602.9    735.1   0.106642283   2.58092  -1.08466  -0.26966  -1.15400
   2   19076.4    524.2   0.489442727   8.44657  -1.62474   0.37620  -2.38018
   3   19895.9    502.6   0.913537057  15.11601   1.95069  -1.32125   3.09275
   4   22507.2    444.3   0.318978194   4.66567  -0.84003   1.58893  -1.19806
   5   23294.0    429.3   0.074253375   1.04942   0.38547  -0.70998   0.62989
   6   24087.9    415.1   0.202090699   2.76199  -0.78259   1.15988  -0.89679
   7   25094.6    398.5   0.002006402   0.02632   0.07696  -0.09282   0.10855
   8   25472.4    392.6   0.001639517   0.02119   0.07532   0.09169  -0.08432
   9   28765.8    347.6   0.035842121   0.41020   0.23731  -0.41484   0.42637
  10   30318.9    329.8   0.114688989   1.24533  -0.74053  -0.82664   0.11664
  11   30600.8    326.8   0.051564183   0.55474  -0.11967   0.49497  -0.54353
  12   31125.9    321.3   0.015422403   0.16312  -0.06345   0.24838  -0.31210
  13   31324.5    319.2   0.552375218   5.80531  -0.40967  -1.86514   1.46926
  14   31332.9    319.2   0.154856780   1.62707  -0.72578   0.24770  -1.01930
  15   31711.9    315.3   0.526498203   5.46575   2.02590   1.12702  -0.30216
  16   32238.9    310.2   0.043179897   0.44094   0.66191   0.03357   0.04113
  17   32947.3    303.5   0.642469205   6.41959  -1.85998  -1.63364  -0.53970
  18   33294.6    300.3   0.159656207   1.57866  -0.23199  -0.89723   0.84842
  19   33340.4    299.9   0.035188439   0.34746   0.01541   0.43974  -0.39224
  20   33844.2    295.5   0.017979658   0.17489   0.33371   0.00848  -0.25192
  21   34017.2    294.0   0.252557215   2.44420  -1.00821   0.50098  -1.08477
  22   34521.2    289.7   0.114166180   1.08875   0.65753   0.80207  -0.11434
  23   35126.2    284.7   0.014514119   0.13603   0.28713   0.22374  -0.05939
  24   35182.3    284.2   0.012177407   0.11395   0.02180   0.17412  -0.28836
  25   35294.0    283.3   0.113350828   1.05730  -0.52781  -0.84775   0.24504
  26   35731.4    279.9   0.023370452   0.21532  -0.29814   0.19003  -0.30054
  27   35821.9    279.2   0.055098920   0.50637  -0.40957  -0.54111  -0.21406
  28   36290.6    275.6   0.006588281   0.05977   0.05023  -0.23684  -0.03393
  29   36386.9    274.8   0.000151147   0.00137  -0.02150   0.01086  -0.02806
  30   36746.6    272.1   0.024339142   0.21805   0.03481   0.34694  -0.31060
  31   36992.6    270.3   0.035400999   0.31505  -0.46965   0.29786  -0.07589
  32   37365.0    267.6   0.501133595   4.41534   1.63543   1.23424  -0.46623
  33   37762.7    264.8   0.019009382   0.16572  -0.31842   0.00095  -0.25363
  34   38221.3    261.6   0.197540811   1.70148   0.34966   1.17206  -0.45331
  35   38454.9    260.0   0.170415685   1.45893  -0.89124  -0.76514   0.28139
  36   38536.5    259.5   0.050301186   0.42972   0.22482  -0.32995   0.51991
  37   39221.4    255.0   0.171382699   1.43853   1.04022   0.15971   0.57530
  38   39472.1    253.3   0.032159616   0.26822   0.14333   0.36824  -0.33478
  39   39550.9    252.8   0.006064732   0.05048  -0.20886  -0.07773   0.02859
  40   40018.7    249.9   0.011409054   0.09386   0.16948  -0.21570   0.13641
  41   40124.3    249.2   0.091111979   0.74756  -0.79494  -0.10577  -0.32317

FINAL SINGLE POINT ENERGY     -5970.240386405674

DIPOLE MOMENT
-------------
                                X             Y             Z
Electronic contribution:      7.88344      -1.18390      -0.88041
Nuclear contribution   :     -7.52259       0.89044       0.30453
                        -----------------------------------------
Total Dipole Moment    :      0.36085      -0.29346      -0.57589
                        -----------------------------------------
Magnitude (a.u.)       :      0.74025
Magnitude (Debye)      :      1.88157

Rotational constants in cm-1:     0.001653     0.000334     0.000287
Rotational constants in MHz :    49.556319    10.025225     8.596840

                             ****ORCA TERMINATED NORMALLY****
TOTAL RUN TIME: 0 days 0 hours 7 minutes 23 seconds 846 msec
