                         Program Version 4.2.0 -  RELEASE  -
|  1> # ORCA input file
|  2> # SCF done       -186.781847059807          0.000914731731
|  3> ! CAM-B3LYP def2-SVP def2/J RIJCOSX Grid4 TightSCF
|  4> %maxcore 5000
|  5> %tddft
|  6>     Mode sTDDFT
|  7>     Ethresh 5.0
|  8>     maxcore 5000
|  9> end
| 10>
| 11> %pal
| 12>   nprocs 6
| 13>   end
| 14> * xyz 0 1
| 15>    C       -4.32242        -2.85881         1.12576
| 16>    C       -3.61202        -2.71226        -0.02523
| 17>    C       -2.88457        -1.50532        -0.03122
| 18>    C       -3.07354        -0.76405         1.14302
| 19>    S       -4.13088        -1.53960         2.23699
| 20>    C       -2.31049         0.43075         1.05266
| 21>    C       -1.64295         0.44270        -0.17861
| 22>    C       -1.98112        -0.78100        -0.90030
| 23>    C       -1.52918        -1.15612        -2.13328
| 24>    C       -0.64194        -0.35704        -2.88244
| 25>    N        0.08252         0.28893        -3.49342
| 26>    C       -1.91796        -2.36902        -2.73782
| 27>    N       -2.22994        -3.35463        -3.23480
| 28>    C       -0.86234         1.58333        -0.36657
| 29>    C       -0.92243         2.44112         0.71717
| 30>    S       -1.97382         1.82122         1.98723
| 31>    C       -0.27030         3.69591         0.88752
| 32>    C       -0.33970         4.40183         2.06370
| 33>    C        0.26245         5.63502         2.29986
| 34>    C        1.13800         6.24342         1.28674
| 35>    C        1.34205         5.72969         0.05500
| 36>    S        0.61800         4.28105        -0.51593
| 37>    C        1.67849         7.40495         1.90475
| 38>    C        1.18293         7.51682         3.20391
| 39>    C        1.68607         8.65542         3.87096
| 40>    C        2.53399         9.36194         3.07906
| 41>    S        2.75403         8.68284         1.49978
| 42>    C        0.27209         6.43209         3.46123
| 43>    C       -0.42239         6.27100         4.68532
| 44>    C       -1.54230         5.52635         4.87511
| 45>    C       -2.18530         5.29531         6.12610
| 46>    C       -3.37862         4.54624         6.17186
| 47>    O       -3.84667         4.11781         4.96467
| 48>    C       -4.46390         2.84651         4.85508
| 49>    C       -4.06899         4.28838         7.37643
| 50>    O       -5.29385         3.65046         7.30786
| 51>    C       -6.37771         4.53461         7.07751
| 52>    C       -3.55399         4.65716         8.62591
| 53>    C       -2.34019         5.38923         8.60136
| 54>    C       -1.67725         5.73455         7.37555
| 55>    N       -0.57348         6.44422         7.60187
| 56>    S       -0.38779         6.65581         9.18700
| 57>    N       -1.70108         5.85661         9.66889
| 58>    C       -4.16199         4.34751         9.88300
| 59>    C       -5.32084         3.63486        10.14259
| 60>    C       -5.57705         3.51931        11.50641
| 61>    C       -4.59093         4.13200        12.29977
| 62>    S       -3.36927         4.87507        11.36512
| 63>    C       -4.92073         3.91447        13.65931
| 64>    C       -6.11480         3.17836        13.72935
| 65>    C       -6.57923         2.92511        12.37359
| 66>    C       -7.73117         2.29757        11.99520
| 67>    C       -8.64127         1.76713        12.93219
| 68>    N       -9.38610         1.33209        13.68838
| 69>    C       -8.09991         2.16471        10.64081
| 70>    N       -8.41731         2.06710         9.54264
| 71>    C       -6.50612         2.89645        15.03863
| 72>    C       -5.61900         3.40426        15.96976
| 73>    S       -4.27997         4.25815        15.20460
| 74>    C       -5.67032         3.28712        17.38989
| 75>    C       -4.70871         3.81615        18.21064
| 76>    C       -4.69472         3.71672        19.60431
| 77>    C       -5.81909         3.08377        20.31914
| 78>    C       -6.86617         2.49031        19.70934
| 79>    S       -7.05649         2.38833        18.00729
| 80>    C       -5.52645         3.25019        21.69852
| 81>    C       -4.31278         3.92777        21.83756
| 82>    C       -3.96109         4.11547        23.19363
| 83>    C       -4.89500         3.59165        24.02852
| 84>    S       -6.23251         2.84820        23.21378
| 85>    C       -3.77552         4.20640        20.53585
| 86>    C       -2.51286         4.86638        20.33309
| 87>    C       -1.70991         4.75116        19.27631
| 88>    H       -4.96201        -3.67150         1.40604
| 89>    H       -3.61294        -3.43247        -0.82280
| 90>    H       -0.27057         1.78929        -1.24023
| 91>    H       -0.88347         3.93331         2.87162
| 92>    H        1.98141         6.20307        -0.67338
| 93>    H        1.43839         8.93637         4.87837
| 94>    H        3.06163        10.26414         3.31992
| 95>    H       -0.02486         6.81909         5.52837
| 96>    H       -2.04297         5.07808         4.03101
| 97>    H       -4.07009         2.14396         5.59055
| 98>    H       -4.22622         2.49310         3.85019
| 99>    H       -5.54793         2.91097         4.96566
|100>    H       -7.27385         3.91652         7.07983
|101>    H       -6.27835         5.04560         6.11411
|102>    H       -6.44915         5.28502         7.87191
|103>    H       -5.92650         3.19983         9.37143
|104>    H       -7.38668         2.34341        15.31218
|105>    H       -3.91335         4.37061        17.73171
|106>    H       -7.66824         2.02145        20.25767
|107>    H       -3.06929         4.60838        23.53646
|108>    H       -4.89065         3.58889        25.10112
|109>    H       -2.19410         5.48238        21.16607
|110>    H       -1.92999         4.10218        18.44699
|111>    H       -0.77753         5.28683        19.22555
|112> *
|113>
|114>                          ****END OF INPUT****

CARTESIAN COORDINATES (ANGSTROEM)
---------------------------------
  C     -4.322420   -2.858810    1.125760
  C     -3.612020   -2.712260   -0.025230
  C     -2.884570   -1.505320   -0.031220
  C     -3.073540   -0.764050    1.143020
  S     -4.130880   -1.539600    2.236990
  C     -2.310490    0.430750    1.052660
  C     -1.642950    0.442700   -0.178610
  C     -1.981120   -0.781000   -0.900300
  C     -1.529180   -1.156120   -2.133280
  C     -0.641940   -0.357040   -2.882440
  N      0.082520    0.288930   -3.493420
  C     -1.917960   -2.369020   -2.737820
  N     -2.229940   -3.354630   -3.234800
  C     -0.862340    1.583330   -0.366570
  C     -0.922430    2.441120    0.717170
  S     -1.973820    1.821220    1.987230
  C     -0.270300    3.695910    0.887520
  C     -0.339700    4.401830    2.063700
  C      0.262450    5.635020    2.299860
  C      1.138000    6.243420    1.286740
  C      1.342050    5.729690    0.055000
  S      0.618000    4.281050   -0.515930
  C      1.678490    7.404950    1.904750
  C      1.182930    7.516820    3.203910
  C      1.686070    8.655420    3.870960
  C      2.533990    9.361940    3.079060
  S      2.754030    8.682840    1.499780
  C      0.272090    6.432090    3.461230
  C     -0.422390    6.271000    4.685320
  C     -1.542300    5.526350    4.875110
  C     -2.185300    5.295310    6.126100
  C     -3.378620    4.546240    6.171860
  O     -3.846670    4.117810    4.964670
  C     -4.463900    2.846510    4.855080
  C     -4.068990    4.288380    7.376430
  O     -5.293850    3.650460    7.307860
  C     -6.377710    4.534610    7.077510
  C     -3.553990    4.657160    8.625910
  C     -2.340190    5.389230    8.601360
  C     -1.677250    5.734550    7.375550
  N     -0.573480    6.444220    7.601870
  S     -0.387790    6.655810    9.187000
  N     -1.701080    5.856610    9.668890
  C     -4.161990    4.347510    9.883000
  C     -5.320840    3.634860   10.142590
  C     -5.577050    3.519310   11.506410
  C     -4.590930    4.132000   12.299770
  S     -3.369270    4.875070   11.365120
  C     -4.920730    3.914470   13.659310
  C     -6.114800    3.178360   13.729350
  C     -6.579230    2.925110   12.373590
  C     -7.731170    2.297570   11.995200
  C     -8.641270    1.767130   12.932190
  N     -9.386100    1.332090   13.688380
  C     -8.099910    2.164710   10.640810
  N     -8.417310    2.067100    9.542640
  C     -6.506120    2.896450   15.038630
  C     -5.619000    3.404260   15.969760
  S     -4.279970    4.258150   15.204600
  C     -5.670320    3.287120   17.389890
  C     -4.708710    3.816150   18.210640
  C     -4.694720    3.716720   19.604310
  C     -5.819090    3.083770   20.319140
  C     -6.866170    2.490310   19.709340
  S     -7.056490    2.388330   18.007290
  C     -5.526450    3.250190   21.698520
  C     -4.312780    3.927770   21.837560
  C     -3.961090    4.115470   23.193630
  C     -4.895000    3.591650   24.028520
  S     -6.232510    2.848200   23.213780
  C     -3.775520    4.206400   20.535850
  C     -2.512860    4.866380   20.333090
  C     -1.709910    4.751160   19.276310
  H     -4.962010   -3.671500    1.406040
  H     -3.612940   -3.432470   -0.822800
  H     -0.270570    1.789290   -1.240230
  H     -0.883470    3.933310    2.871620
  H      1.981410    6.203070   -0.673380
  H      1.438390    8.936370    4.878370
  H      3.061630   10.264140    3.319920
  H     -0.024860    6.819090    5.528370
  H     -2.042970    5.078080    4.031010
  H     -4.070090    2.143960    5.590550
  H     -4.226220    2.493100    3.850190
  H     -5.547930    2.910970    4.965660
  H     -7.273850    3.916520    7.079830
  H     -6.278350    5.045600    6.114110
  H     -6.449150    5.285020    7.871910
  H     -5.926500    3.199830    9.371430
  H     -7.386680    2.343410   15.312180
  H     -3.913350    4.370610   17.731710
  H     -7.668240    2.021450   20.257670
  H     -3.069290    4.608380   23.536460
  H     -4.890650    3.588890   25.101120
  H     -2.194100    5.482380   21.166070
  H     -1.929990    4.102180   18.446990
  H     -0.777530    5.286830   19.225550

 Total Charge           Charge          ....    0
 Multiplicity           Mult            ....    1
 Number of Electrons    NEL             ....  562
 Basis Dimension        Dim             .... 1178

ORBITAL ENERGIES
----------------

  NO   OCC          E(Eh)            E(eV)
   0   2.0000     -89.025968     -2422.5197
   1   2.0000     -88.988993     -2421.5136
   2   2.0000     -88.986596     -2421.4484
   3   2.0000     -88.981686     -2421.3148
   4   2.0000     -88.973381     -2421.0888
   5   2.0000     -88.973330     -2421.0874
   6   2.0000     -88.968266     -2420.9496
   7   2.0000     -88.952695     -2420.5259
   8   2.0000     -88.949711     -2420.4447
   9   2.0000     -19.253359      -523.9105
  10   2.0000     -19.249480      -523.8050
  11   2.0000     -14.443321      -393.0227
  12   2.0000     -14.440475      -392.9453
  13   2.0000     -14.427719      -392.5982
  14   2.0000     -14.427416      -392.5900
  15   2.0000     -14.425047      -392.5255
  16   2.0000     -14.422914      -392.4674
  17   2.0000     -10.361369      -281.9472
  18   2.0000     -10.354977      -281.7733
  19   2.0000     -10.349358      -281.6203
  20   2.0000     -10.348908      -281.6081
  21   2.0000     -10.348524      -281.5977
  22   2.0000     -10.343709      -281.4666
  23   2.0000     -10.328293      -281.0471
  24   2.0000     -10.328133      -281.0428
  25   2.0000     -10.327791      -281.0335
  26   2.0000     -10.327711      -281.0313
  27   2.0000     -10.327303      -281.0202
  28   2.0000     -10.326230      -280.9910
  29   2.0000     -10.325799      -280.9793
  30   2.0000     -10.325719      -280.9771
  31   2.0000     -10.325347      -280.9670
  32   2.0000     -10.325291      -280.9655
  33   2.0000     -10.324744      -280.9506
  34   2.0000     -10.324211      -280.9361
  35   2.0000     -10.323824      -280.9255
  36   2.0000     -10.322594      -280.8921
  37   2.0000     -10.321122      -280.8520
  38   2.0000     -10.320514      -280.8355
  39   2.0000     -10.319680      -280.8128
  40   2.0000     -10.314460      -280.6707
  41   2.0000     -10.312720      -280.6234
  42   2.0000     -10.309974      -280.5487
  43   2.0000     -10.305087      -280.4157
  44   2.0000     -10.300143      -280.2812
  45   2.0000     -10.298156      -280.2271
  46   2.0000     -10.296917      -280.1934
  47   2.0000     -10.296050      -280.1698
  48   2.0000     -10.294998      -280.1411
  49   2.0000     -10.294035      -280.1149
  50   2.0000     -10.293868      -280.1104
  51   2.0000     -10.292855      -280.0828
  52   2.0000     -10.292822      -280.0819
  53   2.0000     -10.290249      -280.0119
  54   2.0000     -10.290201      -280.0106
  55   2.0000     -10.289992      -280.0049
  56   2.0000     -10.289376      -279.9882
  57   2.0000     -10.287413      -279.9347
  58   2.0000     -10.285621      -279.8860
  59   2.0000     -10.282511      -279.8014
  60   2.0000     -10.281263      -279.7674
  61   2.0000     -10.278625      -279.6956
  62   2.0000     -10.276335      -279.6333
  63   2.0000     -10.270661      -279.4789
  64   2.0000     -10.269859      -279.4571
  65   2.0000     -10.269583      -279.4496
  66   2.0000     -10.268490      -279.4198
  67   2.0000     -10.268018      -279.4070
  68   2.0000     -10.266088      -279.3545
  69   2.0000     -10.265826      -279.3473
  70   2.0000     -10.264890      -279.3219
  71   2.0000     -10.264878      -279.3215
  72   2.0000     -10.257482      -279.1203
  73   2.0000      -8.117577      -220.8905
  74   2.0000      -8.082861      -219.9458
  75   2.0000      -8.081473      -219.9081
  76   2.0000      -8.075966      -219.7582
  77   2.0000      -8.068561      -219.5567
  78   2.0000      -8.066268      -219.4943
  79   2.0000      -8.063517      -219.4195
  80   2.0000      -8.048097      -218.9998
  81   2.0000      -8.045041      -218.9167
  82   2.0000      -6.088966      -165.6892
  83   2.0000      -6.081208      -165.4781
  84   2.0000      -6.079655      -165.4358
  85   2.0000      -6.052202      -164.6888
  86   2.0000      -6.050732      -164.6488
  87   2.0000      -6.048062      -164.5761
  88   2.0000      -6.046304      -164.5283
  89   2.0000      -6.045256      -164.4998
  90   2.0000      -6.045151      -164.4969
  91   2.0000      -6.044113      -164.4687
  92   2.0000      -6.041139      -164.3878
  93   2.0000      -6.038257      -164.3093
  94   2.0000      -6.038217      -164.3082
  95   2.0000      -6.035755      -164.2412
  96   2.0000      -6.033648      -164.1839
  97   2.0000      -6.033214      -164.1721
  98   2.0000      -6.031054      -164.1133
  99   2.0000      -6.030306      -164.0930
 100   2.0000      -6.028720      -164.0498
 101   2.0000      -6.028615      -164.0469
 102   2.0000      -6.025194      -163.9539
 103   2.0000      -6.017545      -163.7457
 104   2.0000      -6.014520      -163.6634
 105   2.0000      -6.013321      -163.6308
 106   2.0000      -6.010266      -163.5477
 107   2.0000      -6.010098      -163.5431
 108   2.0000      -6.007039      -163.4598
 109   2.0000      -1.166574       -31.7441
 110   2.0000      -1.140918       -31.0460
 111   2.0000      -1.127304       -30.6755
 112   2.0000      -1.040969       -28.3262
 113   2.0000      -1.033967       -28.1357
 114   2.0000      -1.019186       -27.7335
 115   2.0000      -1.014988       -27.6192
 116   2.0000      -1.005206       -27.3530
 117   2.0000      -1.003588       -27.3090
 118   2.0000      -1.001594       -27.2548
 119   2.0000      -0.999558       -27.1993
 120   2.0000      -0.993599       -27.0372
 121   2.0000      -0.992702       -27.0128
 122   2.0000      -0.981315       -26.7029
 123   2.0000      -0.967911       -26.3382
 124   2.0000      -0.966595       -26.3024
 125   2.0000      -0.957030       -26.0421
 126   2.0000      -0.951830       -25.9006
 127   2.0000      -0.944390       -25.6982
 128   2.0000      -0.923897       -25.1405
 129   2.0000      -0.919819       -25.0295
 130   2.0000      -0.909168       -24.7397
 131   2.0000      -0.905244       -24.6329
 132   2.0000      -0.890388       -24.2287
 133   2.0000      -0.882203       -24.0060
 134   2.0000      -0.876170       -23.8418
 135   2.0000      -0.864590       -23.5267
 136   2.0000      -0.864073       -23.5126
 137   2.0000      -0.860728       -23.4216
 138   2.0000      -0.856946       -23.3187
 139   2.0000      -0.852489       -23.1974
 140   2.0000      -0.847380       -23.0584
 141   2.0000      -0.840635       -22.8748
 142   2.0000      -0.832046       -22.6411
 143   2.0000      -0.828193       -22.5363
 144   2.0000      -0.816603       -22.2209
 145   2.0000      -0.812461       -22.1082
 146   2.0000      -0.798551       -21.7297
 147   2.0000      -0.793336       -21.5878
 148   2.0000      -0.785593       -21.3771
 149   2.0000      -0.780812       -21.2470
 150   2.0000      -0.776493       -21.1295
 151   2.0000      -0.772980       -21.0338
 152   2.0000      -0.763456       -20.7747
 153   2.0000      -0.755743       -20.5648
 154   2.0000      -0.742030       -20.1917
 155   2.0000      -0.724971       -19.7275
 156   2.0000      -0.717792       -19.5321
 157   2.0000      -0.716550       -19.4983
 158   2.0000      -0.712899       -19.3990
 159   2.0000      -0.700740       -19.0681
 160   2.0000      -0.699375       -19.0310
 161   2.0000      -0.694596       -18.9009
 162   2.0000      -0.685068       -18.6417
 163   2.0000      -0.678417       -18.4607
 164   2.0000      -0.674081       -18.3427
 165   2.0000      -0.671087       -18.2612
 166   2.0000      -0.660923       -17.9846
 167   2.0000      -0.658117       -17.9083
 168   2.0000      -0.649745       -17.6805
 169   2.0000      -0.641238       -17.4490
 170   2.0000      -0.636796       -17.3281
 171   2.0000      -0.634867       -17.2756
 172   2.0000      -0.627490       -17.0749
 173   2.0000      -0.626419       -17.0457
 174   2.0000      -0.617103       -16.7922
 175   2.0000      -0.615911       -16.7598
 176   2.0000      -0.613622       -16.6975
 177   2.0000      -0.611930       -16.6515
 178   2.0000      -0.607332       -16.5263
 179   2.0000      -0.603320       -16.4172
 180   2.0000      -0.599410       -16.3108
 181   2.0000      -0.597083       -16.2475
 182   2.0000      -0.590210       -16.0604
 183   2.0000      -0.585745       -15.9389
 184   2.0000      -0.573790       -15.6136
 185   2.0000      -0.571238       -15.5442
 186   2.0000      -0.568052       -15.4575
 187   2.0000      -0.565385       -15.3849
 188   2.0000      -0.559864       -15.2347
 189   2.0000      -0.554359       -15.0849
 190   2.0000      -0.551941       -15.0191
 191   2.0000      -0.549841       -14.9619
 192   2.0000      -0.544226       -14.8091
 193   2.0000      -0.543523       -14.7900
 194   2.0000      -0.538594       -14.6559
 195   2.0000      -0.536939       -14.6109
 196   2.0000      -0.536738       -14.6054
 197   2.0000      -0.533630       -14.5208
 198   2.0000      -0.531673       -14.4675
 199   2.0000      -0.520008       -14.1501
 200   2.0000      -0.519256       -14.1297
 201   2.0000      -0.518559       -14.1107
 202   2.0000      -0.512347       -13.9417
 203   2.0000      -0.510127       -13.8813
 204   2.0000      -0.508992       -13.8504
 205   2.0000      -0.506758       -13.7896
 206   2.0000      -0.505475       -13.7547
 207   2.0000      -0.504616       -13.7313
 208   2.0000      -0.501630       -13.6500
 209   2.0000      -0.499995       -13.6055
 210   2.0000      -0.495639       -13.4870
 211   2.0000      -0.495428       -13.4813
 212   2.0000      -0.490968       -13.3599
 213   2.0000      -0.489189       -13.3115
 214   2.0000      -0.486402       -13.2357
 215   2.0000      -0.483572       -13.1587
 216   2.0000      -0.483126       -13.1465
 217   2.0000      -0.480839       -13.0843
 218   2.0000      -0.474842       -12.9211
 219   2.0000      -0.470501       -12.8030
 220   2.0000      -0.469217       -12.7680
 221   2.0000      -0.467684       -12.7263
 222   2.0000      -0.460706       -12.5365
 223   2.0000      -0.459153       -12.4942
 224   2.0000      -0.458959       -12.4889
 225   2.0000      -0.456731       -12.4283
 226   2.0000      -0.455231       -12.3875
 227   2.0000      -0.454989       -12.3809
 228   2.0000      -0.454610       -12.3706
 229   2.0000      -0.453204       -12.3323
 230   2.0000      -0.452045       -12.3008
 231   2.0000      -0.449975       -12.2444
 232   2.0000      -0.447942       -12.1891
 233   2.0000      -0.445310       -12.1175
 234   2.0000      -0.443978       -12.0813
 235   2.0000      -0.442155       -12.0317
 236   2.0000      -0.441277       -12.0078
 237   2.0000      -0.437977       -11.9180
 238   2.0000      -0.437716       -11.9109
 239   2.0000      -0.436748       -11.8845
 240   2.0000      -0.434857       -11.8331
 241   2.0000      -0.433804       -11.8044
 242   2.0000      -0.430681       -11.7194
 243   2.0000      -0.429372       -11.6838
 244   2.0000      -0.426811       -11.6141
 245   2.0000      -0.424844       -11.5606
 246   2.0000      -0.423828       -11.5329
 247   2.0000      -0.420569       -11.4443
 248   2.0000      -0.419838       -11.4244
 249   2.0000      -0.415914       -11.3176
 250   2.0000      -0.414493       -11.2789
 251   2.0000      -0.410330       -11.1657
 252   2.0000      -0.408519       -11.1164
 253   2.0000      -0.405108       -11.0235
 254   2.0000      -0.403631       -10.9834
 255   2.0000      -0.400203       -10.8901
 256   2.0000      -0.399469       -10.8701
 257   2.0000      -0.393769       -10.7150
 258   2.0000      -0.391799       -10.6614
 259   2.0000      -0.387314       -10.5393
 260   2.0000      -0.383247       -10.4287
 261   2.0000      -0.364992        -9.9319
 262   2.0000      -0.362163        -9.8550
 263   2.0000      -0.357086        -9.7168
 264   2.0000      -0.355117        -9.6632
 265   2.0000      -0.351239        -9.5577
 266   2.0000      -0.348220        -9.4756
 267   2.0000      -0.344841        -9.3836
 268   2.0000      -0.337577        -9.1859
 269   2.0000      -0.328890        -8.9496
 270   2.0000      -0.320953        -8.7336
 271   2.0000      -0.318877        -8.6771
 272   2.0000      -0.317804        -8.6479
 273   2.0000      -0.311841        -8.4856
 274   2.0000      -0.298785        -8.1303
 275   2.0000      -0.291013        -7.9189
 276   2.0000      -0.278124        -7.5681
 277   2.0000      -0.267317        -7.2741
 278   2.0000      -0.255459        -6.9514
 279   2.0000      -0.228771        -6.2252
 280   2.0000      -0.214225        -5.8294
 281   0.0000      -0.102181        -2.7805
 282   0.0000      -0.097998        -2.6667
 283   0.0000      -0.076317        -2.0767
 284   0.0000      -0.049642        -1.3508
 285   0.0000      -0.046431        -1.2635

MULLIKEN ATOMIC CHARGES
-----------------------
   0 C :   -0.083010
   1 C :    0.035658
   2 C :   -0.034026
   3 C :   -0.114535
   4 S :    0.175988
   5 C :   -0.099031
   6 C :    0.015939
   7 C :    0.297039
   8 C :   -0.296309
   9 C :   -0.185152
  10 N :    0.169303
  11 C :   -0.191838
  12 N :    0.175878
  13 C :   -0.053505
  14 C :   -0.059464
  15 S :    0.158635
  16 C :   -0.024543
  17 C :   -0.099143
  18 C :    0.049766
  19 C :    0.060989
  20 C :   -0.128519
  21 S :    0.129934
  22 C :   -0.108284
  23 C :    0.051404
  24 C :    0.012989
  25 C :   -0.070319
  26 S :    0.124105
  27 C :    0.094731
  28 C :   -0.004794
  29 C :   -0.089198
  30 C :    0.011410
  31 C :    0.135734
  32 O :   -0.326775
  33 C :    0.205417
  34 C :   -0.017036
  35 O :   -0.359394
  36 C :    0.188465
  37 C :    0.212117
  38 C :   -0.026688
  39 C :    0.043431
  40 N :   -0.288600
  41 S :    0.513104
  42 N :   -0.341352
  43 C :   -0.167374
  44 C :   -0.066236
  45 C :    0.019579
  46 C :   -0.073710
  47 S :    0.202192
  48 C :   -0.099318
  49 C :    0.013931
  50 C :    0.305267
  51 C :   -0.307610
  52 C :   -0.192027
  53 N :    0.169631
  54 C :   -0.183179
  55 N :    0.159925
  56 C :   -0.059772
  57 C :   -0.059415
  58 S :    0.164386
  59 C :   -0.021967
  60 C :   -0.099615
  61 C :    0.051968
  62 C :    0.059665
  63 C :   -0.123396
  64 S :    0.121492
  65 C :   -0.108898
  66 C :    0.048821
  67 C :    0.010428
  68 C :   -0.072251
  69 S :    0.123450
  70 C :    0.044792
  71 C :   -0.034702
  72 C :   -0.030995
  73 H :    0.036817
  74 H :    0.013507
  75 H :    0.017999
  76 H :   -0.006804
  77 H :    0.037298
  78 H :   -0.016169
  79 H :    0.024508
  80 H :   -0.005247
  81 H :   -0.016593
  82 H :    0.027157
  83 H :    0.015930
  84 H :    0.024067
  85 H :    0.055648
  86 H :    0.029693
  87 H :    0.027519
  88 H :    0.011768
  89 H :    0.017880
  90 H :   -0.010844
  91 H :    0.035688
  92 H :   -0.019846
  93 H :    0.025174
  94 H :   -0.013479
  95 H :    0.014799
  96 H :    0.017948
Sum of atomic charges:   -0.0000000

LOEWDIN ATOMIC CHARGES
----------------------
   0 C :   -0.178364
   1 C :   -0.033284
   2 C :   -0.079072
   3 C :   -0.182574
   4 S :    0.472299
   5 C :   -0.183193
   6 C :   -0.067841
   7 C :    0.083985
   8 C :   -0.103322
   9 C :   -0.016203
  10 N :   -0.034532
  11 C :   -0.016916
  12 N :   -0.033318
  13 C :   -0.042273
  14 C :   -0.175226
  15 S :    0.479702
  16 C :   -0.186163
  17 C :   -0.029891
  18 C :   -0.021830
  19 C :   -0.046498
  20 C :   -0.140822
  21 S :    0.454564
  22 C :   -0.204491
  23 C :   -0.038306
  24 C :   -0.061990
  25 C :   -0.166210
  26 S :    0.418236
  27 C :   -0.045994
  28 C :   -0.004410
  29 C :   -0.039482
  30 C :   -0.052684
  31 C :    0.042087
  32 O :   -0.105325
  33 C :    0.080574
  34 C :    0.028870
  35 O :   -0.124981
  36 C :    0.078711
  37 C :   -0.065769
  38 C :   -0.051460
  39 C :   -0.036850
  40 N :   -0.277529
  41 S :    0.631569
  42 N :   -0.308937
  43 C :   -0.161753
  44 C :   -0.028426
  45 C :   -0.079838
  46 C :   -0.190398
  47 S :    0.511757
  48 C :   -0.176177
  49 C :   -0.071877
  50 C :    0.087656
  51 C :   -0.111798
  52 C :   -0.017539
  53 N :   -0.038788
  54 C :   -0.011679
  55 N :   -0.046056
  56 C :   -0.043926
  57 C :   -0.177516
  58 S :    0.473359
  59 C :   -0.185068
  60 C :   -0.032386
  61 C :   -0.024876
  62 C :   -0.049214
  63 C :   -0.139586
  64 S :    0.450237
  65 C :   -0.205050
  66 C :   -0.041029
  67 C :   -0.064843
  68 C :   -0.167427
  69 S :    0.416140
  70 C :   -0.051972
  71 C :   -0.019718
  72 C :   -0.056690
  73 H :    0.027720
  74 H :    0.042823
  75 H :    0.035156
  76 H :    0.026662
  77 H :    0.036957
  78 H :    0.031301
  79 H :    0.022433
  80 H :    0.027020
  81 H :    0.023821
  82 H :    0.019788
  83 H :    0.008781
  84 H :    0.016344
  85 H :    0.031830
  86 H :    0.016428
  87 H :    0.017850
  88 H :    0.036607
  89 H :    0.034211
  90 H :    0.025990
  91 H :    0.036485
  92 H :    0.029435
  93 H :    0.022327
  94 H :    0.029119
  95 H :    0.017542
  96 H :    0.022999

  Mayer bond orders larger than 0.100000
B(  0-C ,  1-C ) :   1.5534 B(  0-C ,  4-S ) :   1.1447 B(  0-C , 73-H ) :   0.9641
B(  1-C ,  2-C ) :   1.2740 B(  1-C , 74-H ) :   0.9955 B(  2-C ,  3-C ) :   1.4525
B(  2-C ,  7-C ) :   1.0194 B(  3-C ,  4-S ) :   1.1338 B(  3-C ,  5-C ) :   1.1851
B(  5-C ,  6-C ) :   1.4685 B(  5-C , 15-S ) :   1.1213 B(  6-C ,  7-C ) :   0.9924
B(  6-C , 13-C ) :   1.2933 B(  7-C ,  8-C ) :   1.7096 B(  8-C ,  9-C ) :   1.1326
B(  8-C , 11-C ) :   1.1314 B(  9-C , 10-N ) :   2.9898 B( 11-C , 12-N ) :   3.0033
B( 13-C , 14-C ) :   1.4644 B( 13-C , 75-H ) :   0.9813 B( 14-C , 15-S ) :   1.1083
B( 14-C , 16-C ) :   1.1621 B( 16-C , 17-C ) :   1.5197 B( 16-C , 21-S ) :   1.0530
B( 17-C , 18-C ) :   1.2484 B( 17-C , 76-H ) :   0.9559 B( 18-C , 19-C ) :   1.0510
B( 18-C , 27-C ) :   1.3896 B( 19-C , 20-C ) :   1.6157 B( 19-C , 22-C ) :   1.1740
B( 20-C , 21-S ) :   1.1308 B( 20-C , 77-H ) :   0.9402 B( 22-C , 23-C ) :   1.4409
B( 22-C , 26-S ) :   1.0731 B( 23-C , 24-C ) :   1.2235 B( 23-C , 27-C ) :   1.0978
B( 24-C , 25-C ) :   1.5814 B( 24-C , 78-H ) :   0.9980 B( 25-C , 26-S ) :   1.1531
B( 25-C , 79-H ) :   0.9669 B( 27-C , 28-C ) :   1.1390 B( 28-C , 29-C ) :   1.5786
B( 28-C , 80-H ) :   0.9467 B( 29-C , 30-C ) :   1.1857 B( 29-C , 81-H ) :   0.9571
B( 30-C , 31-C ) :   1.3663 B( 30-C , 37-C ) :   0.1179 B( 30-C , 39-C ) :   1.1567
B( 31-C , 32-O ) :   1.1780 B( 31-C , 34-C ) :   1.1802 B( 32-O , 33-C ) :   0.9324
B( 33-C , 82-H ) :   0.9712 B( 33-C , 83-H ) :   0.9741 B( 33-C , 84-H ) :   0.9741
B( 34-C , 35-O ) :   1.1264 B( 34-C , 37-C ) :   1.3941 B( 35-O , 36-C ) :   0.9038
B( 36-C , 85-H ) :   0.9790 B( 36-C , 86-H ) :   0.9693 B( 36-C , 87-H ) :   0.9661
B( 37-C , 38-C ) :   1.1369 B( 37-C , 43-C ) :   1.1350 B( 38-C , 39-C ) :   1.1513
B( 38-C , 42-N ) :   1.5004 B( 39-C , 40-N ) :   1.5267 B( 40-N , 41-S ) :   1.2524
B( 40-N , 42-N ) :   0.1450 B( 41-S , 42-N ) :   1.2359 B( 43-C , 44-C ) :   1.4350
B( 43-C , 47-S ) :   1.1056 B( 44-C , 45-C ) :   1.2686 B( 44-C , 88-H ) :   0.9925
B( 45-C , 46-C ) :   1.4218 B( 45-C , 50-C ) :   0.9957 B( 46-C , 47-S ) :   1.0922
B( 46-C , 48-C ) :   1.1819 B( 48-C , 49-C ) :   1.4494 B( 48-C , 58-S ) :   1.1200
B( 49-C , 50-C ) :   0.9975 B( 49-C , 56-C ) :   1.2907 B( 50-C , 51-C ) :   1.7004
B( 51-C , 52-C ) :   1.1331 B( 51-C , 54-C ) :   1.1379 B( 52-C , 53-N ) :   2.9938
B( 54-C , 55-N ) :   2.9883 B( 56-C , 57-C ) :   1.4682 B( 56-C , 89-H ) :   0.9804
B( 57-C , 58-S ) :   1.1005 B( 57-C , 59-C ) :   1.1620 B( 59-C , 60-C ) :   1.5390
B( 59-C , 64-S ) :   1.0470 B( 60-C , 61-C ) :   1.2244 B( 60-C , 90-H ) :   0.9578
B( 61-C , 62-C ) :   1.0429 B( 61-C , 70-C ) :   1.4474 B( 62-C , 63-C ) :   1.6202
B( 62-C , 65-C ) :   1.1788 B( 63-C , 64-S ) :   1.1323 B( 63-C , 91-H ) :   0.9402
B( 65-C , 66-C ) :   1.4382 B( 65-C , 69-S ) :   1.0728 B( 66-C , 67-C ) :   1.2139
B( 66-C , 70-C ) :   1.1200 B( 67-C , 68-C ) :   1.5876 B( 67-C , 92-H ) :   0.9970
B( 68-C , 69-S ) :   1.1521 B( 68-C , 93-H ) :   0.9664 B( 70-C , 71-C ) :   1.0993
B( 71-C , 72-C ) :   1.9231 B( 71-C , 94-H ) :   0.9549 B( 72-C , 95-H ) :   0.9571
B( 72-C , 96-H ) :   0.9463

-----------------------------------------------------------------------------
         ABSORPTION SPECTRUM VIA TRANSITION ELECTRIC DIPOLE MOMENTS
-----------------------------------------------------------------------------
State   Energy  Wavelength   fosc         T2         TX        TY        TZ
        (cm-1)    (nm)                  (au**2)     (au)      (au)      (au)
-----------------------------------------------------------------------------
   0    9896.2   1010.5   0.335558681  11.16283  -0.57971   0.48035   3.25516
   1   10495.0    952.8   0.060768536   1.90622   0.55385   1.19697  -0.40833
   2   14246.2    701.9   0.562575712  13.00038  -1.39753   0.21543   3.31676
   3   16305.3    613.3   0.152674438   3.08257  -0.26788   0.02041   1.73505
   4   17355.1    576.2   0.016057140   0.30459   0.34515   0.42925  -0.03466
   5   20073.5    498.2   0.151952152   2.49206   0.53239   0.63848  -1.34200
   6   20305.2    492.5   0.162918578   2.64143   0.37742   1.38372  -0.76440
   7   20701.0    483.1   0.147065500   2.33881   0.43625   0.81497   1.21833
   8   21184.4    472.0   0.292570175   4.54662   0.45035   0.36297   2.05233
   9   22020.7    454.1   0.027275685   0.40777   0.56431   0.26253  -0.14287
  10   23396.0    427.4   0.248327001   3.49428   0.27351   1.44339   1.15589
  11   24341.1    410.8   0.118097442   1.59726   1.00856   0.73048  -0.21557
  12   25138.0    397.8   0.435300152   5.70077  -0.01197   0.27885  -2.37126
  13   25391.9    393.8   0.043561587   0.56479  -0.53073  -0.50340   0.17233
  14   26043.3    384.0   0.037690164   0.47644   0.47073   0.23313  -0.44777
  15   26459.7    377.9   0.007579863   0.09431   0.08760   0.27673   0.10027
  16   27472.9    364.0   0.024626467   0.29510  -0.41743  -0.34587   0.03510
  17   28195.5    354.7   0.160568454   1.87481   1.00034   0.89999  -0.25326
  18   28406.4    352.0   0.043239399   0.50112  -0.68708  -0.09735  -0.13986
  19   29276.2    341.6   0.257634302   2.89710  -1.18676  -1.19106   0.26472
  20   30088.9    332.3   0.104928505   1.14806  -0.62969  -0.40208   0.76803
  21   30313.2    329.9   0.167158978   1.81541  -1.22941  -0.41616   0.36162
  22   30615.0    326.6   0.138481849   1.48914  -0.21924  -0.75513  -0.93319
  23   31073.2    321.8   0.037098302   0.39305   0.07918   0.45008   0.42919
  24   31137.8    321.2   0.169522232   1.79231  -0.67436  -0.91173   0.71155
  25   31514.1    317.3   0.311857819   3.25782   0.10713  -0.73200  -1.64637
  26   31723.7    315.2   0.783670340   8.13253   1.72122   0.45458  -2.22784
  27   32083.8    311.7   0.429181047   4.40383  -1.39848  -0.77482  -1.35932
  28   32423.5    308.4   0.200808842   2.03891  -0.25398  -0.11479  -1.40044
  29   33106.6    302.1   0.010286156   0.10229  -0.25363  -0.08635   0.17465
  30   33425.5    299.2   0.007776765   0.07659   0.00692  -0.07320   0.26681
  31   33521.2    298.3   0.115039487   1.12980   0.97000   0.41497  -0.12928
  32   33625.8    297.4   0.137112713   1.34240   0.35033   1.04560   0.35552
  33   34032.5    293.8   0.177001556   1.71222  -0.06063  -0.23558   1.28571
  34   34251.3    292.0   0.280013034   2.69139   0.66010   1.30104   0.75031
  35   34566.1    289.3   0.234662782   2.23496   1.01422   0.63945   0.89298
  36   34755.1    287.7   0.217036685   2.05584  -0.75435  -1.03188  -0.64964
  37   34925.0    286.3   0.099282811   0.93586   0.57471   0.77414   0.07922
  38   35107.5    284.8   0.063099225   0.59170   0.08501   0.75453  -0.12310
  39   35630.9    280.7   0.018499445   0.17093  -0.16303  -0.24202   0.29287
  40   36055.3    277.4   0.102939732   0.93992  -0.51301  -0.74368  -0.35168
  41   36290.3    275.6   0.117492014   1.06584   0.43083   0.14397  -0.92709
  42   36768.5    272.0   0.301834403   2.70251   0.74326   1.41345   0.39016
  43   36902.9    271.0   0.077674590   0.69294  -0.26852  -0.78548   0.06211
  44   37207.3    268.8   0.038918384   0.34435  -0.33694  -0.46409   0.12425
  45   37377.3    267.5   0.055257543   0.48670  -0.42025  -0.37162   0.41472
  46   37455.9    267.0   0.139490367   1.22603   0.03217  -0.09691  -1.10254
  47   37679.5    265.4   0.094358416   0.82442  -0.10827  -0.09732  -0.89623
  48   37809.7    264.5   0.024167499   0.21043   0.19365   0.29749  -0.29057
  49   37857.2    264.2   0.007434453   0.06465   0.12782   0.20533  -0.07843
  50   38202.8    261.8   0.139883990   1.20545   0.09905  -0.31167  -1.04809
  51   38376.8    260.6   0.068100672   0.58420   0.00909   0.12340   0.75425
  52   38538.1    259.5   0.026212768   0.22392  -0.32420  -0.11691  -0.32427
  53   38574.1    259.2   0.053354598   0.45536  -0.12250  -0.00924  -0.66352
  54   39180.9    255.2   0.025206576   0.21179   0.28012   0.13660   0.33863
  55   39270.4    254.6   0.084893039   0.71168  -0.64556  -0.35102  -0.41438
  56   39464.2    253.4   0.002092315   0.01745  -0.01079   0.06180  -0.11627
  57   39715.6    251.8   0.038328716   0.31772  -0.43690  -0.34561  -0.08597
  58   40036.1    249.8   0.017917139   0.14733   0.34552  -0.12255   0.11372

FINAL SINGLE POINT ENERGY     -6206.428469840766

DIPOLE MOMENT
-------------
                                X             Y             Z
Electronic contribution:      3.52168      -8.35274     -19.42897
Nuclear contribution   :     -2.76904       9.70957      20.87482
                        -----------------------------------------
Total Dipole Moment    :      0.75264       1.35684       1.44585
                        -----------------------------------------
Magnitude (a.u.)       :      2.12084
Magnitude (Debye)      :      5.39074

Rotational constants in cm-1:     0.001262     0.000235     0.000206
Rotational constants in MHz :    37.837921     7.030242     6.190571

                             ****ORCA TERMINATED NORMALLY****
TOTAL RUN TIME: 0 days 0 hours 11 minutes 22 seconds 231 msec
