                         Program Version 4.2.0 -  RELEASE  -
|  1> # ORCA input file
|  2> # SCF done       -172.805942462257          0.000690507533
|  3> ! CAM-B3LYP def2-SVP def2/J RIJCOSX Grid4 TightSCF
|  4> %maxcore 5000
|  5> %tddft
|  6>     Mode sTDDFT
|  7>     Ethresh 5.0
|  8>     maxcore 5000
|  9> end
| 10>
| 11> %pal
| 12>   nprocs 6
| 13>   end
| 14> * xyz 0 1
| 15>    C        1.35866         0.89093         1.06984
| 16>    C        1.17725         1.52035         2.27243
| 17>    C        0.86260         0.85130         3.47061
| 18>    N        0.57169         0.35426         4.46387
| 19>    C        1.36305         2.90888         2.44106
| 20>    N        1.56637         4.02438         2.61795
| 21>    C        1.51428        -0.54531         0.87674
| 22>    C        2.20315        -0.76315        -0.35333
| 23>    C        2.53724        -2.01848        -0.77308
| 24>    C        2.18307        -3.12967         0.02514
| 25>    C        1.48052        -2.91847         1.24704
| 26>    C        1.15336        -1.60697         1.66122
| 27>    C        1.12958        -4.03664         2.03047
| 28>    C        1.45880        -5.30305         1.63065
| 29>    C        2.15163        -5.51009         0.42844
| 30>    C        2.50600        -4.44681        -0.35681
| 31>    C        2.44247         0.53171        -1.01654
| 32>    O        3.04202         0.74937        -2.04398
| 33>    C        1.71978         1.53212        -0.17895
| 34>    C        1.39942         2.74204        -0.70696
| 35>    C        0.39352         3.65232        -0.29590
| 36>    S       -0.97214         3.16033         0.66307
| 37>    C       -1.66023         4.74163         0.56735
| 38>    C       -0.87464         5.60356        -0.18512
| 39>    C        0.28268         4.98565        -0.67502
| 40>    C        1.30021         5.69342        -1.51277
| 41>    C        1.07952         7.21467        -1.51333
| 42>    C        1.58059         7.80178        -0.28947
| 43>    N        1.97728         8.27643         0.67034
| 44>    C       -0.42201         7.55150        -1.66199
| 45>    C       -0.92595         6.94174        -2.87169
| 46>    N       -1.30775         6.43932        -3.82418
| 47>    C       -1.20771         7.03282        -0.44966
| 48>    C       -2.89110         5.00839         1.23843
| 49>    N       -3.46624         6.19807         1.12524
| 50>    N       -4.59026         6.50355         1.69474
| 51>    C       -5.25422         5.66841         2.48323
| 52>    C       -4.72244         4.36917         2.72045
| 53>    C       -3.50932         4.01967         2.05686
| 54>    N       -3.11904         2.78230         2.34176
| 55>    S       -4.17951         2.12751         3.36070
| 56>    N       -5.18639         3.37967         3.47666
| 57>    C       -6.48629         6.09759         3.05658
| 58>    C       -7.09781         7.32708         2.88400
| 59>    C       -8.30543         7.39913         3.57292
| 60>    C       -8.60329         6.21216         4.26975
| 61>    S       -7.40384         5.01594         4.08280
| 62>    C       -9.84971         6.38212         4.92915
| 63>    C      -10.33813         7.66630         4.64977
| 64>    C       -9.38779         8.34944         3.78591
| 65>    C       -9.49555         9.60757         3.27273
| 66>    C       -8.50739        10.17148         2.43696
| 67>    N       -7.71562        10.64404         1.75615
| 68>    C      -10.61080        10.43373         3.53028
| 69>    N      -11.51702        11.10796         3.72677
| 70>    C      -11.57257         7.92056         5.25755
| 71>    C      -12.02546         6.83699         5.97669
| 72>    S      -10.90672         5.48677         5.92446
| 73>    C      -13.23048         6.76630         6.76728
| 74>    C      -13.78528         7.85945         7.37442
| 75>    F      -13.31886         9.10529         7.32913
| 76>    S      -15.19502         7.53181         8.31611
| 77>    C      -15.03354         5.86157         7.88347
| 78>    F      -15.95231         5.00604         8.32576
| 79>    C      -13.98046         5.57240         7.06808
| 80>    C      -13.69574         4.25755         6.51270
| 81>    C      -14.00721         3.10408         7.08835
| 82>    H        3.06715        -2.16360        -1.70274
| 83>    H        0.61508        -1.47184         2.58660
| 84>    H        0.59941        -3.87168         2.95699
| 85>    H        1.18783        -6.15278         2.23918
| 86>    H        2.40312        -6.51614         0.12785
| 87>    H        3.03969        -4.60037        -1.28329
| 88>    H        1.92332         2.99636        -1.62376
| 89>    H        1.22858         5.32529        -2.54248
| 90>    H        2.30576         5.46998        -1.14748
| 91>    H        1.64233         7.65796        -2.34484
| 92>    H       -0.55298         8.63677        -1.74599
| 93>    H       -2.28338         7.13882        -0.60235
| 94>    H       -0.95246         7.62914         0.43170
| 95>    H       -6.65580         8.09833         2.28066
| 96>    H      -12.12076         8.84032         5.16932
| 97>    H      -13.20318         4.26710         5.54984
| 98>    H      -14.48399         3.04983         8.05134
| 99>    H      -13.78554         2.16706         6.60882
|100> *
|101>
|102>                          ****END OF INPUT****

CARTESIAN COORDINATES (ANGSTROEM)
---------------------------------
  C      1.358660    0.890930    1.069840
  C      1.177250    1.520350    2.272430
  C      0.862600    0.851300    3.470610
  N      0.571690    0.354260    4.463870
  C      1.363050    2.908880    2.441060
  N      1.566370    4.024380    2.617950
  C      1.514280   -0.545310    0.876740
  C      2.203150   -0.763150   -0.353330
  C      2.537240   -2.018480   -0.773080
  C      2.183070   -3.129670    0.025140
  C      1.480520   -2.918470    1.247040
  C      1.153360   -1.606970    1.661220
  C      1.129580   -4.036640    2.030470
  C      1.458800   -5.303050    1.630650
  C      2.151630   -5.510090    0.428440
  C      2.506000   -4.446810   -0.356810
  C      2.442470    0.531710   -1.016540
  O      3.042020    0.749370   -2.043980
  C      1.719780    1.532120   -0.178950
  C      1.399420    2.742040   -0.706960
  C      0.393520    3.652320   -0.295900
  S     -0.972140    3.160330    0.663070
  C     -1.660230    4.741630    0.567350
  C     -0.874640    5.603560   -0.185120
  C      0.282680    4.985650   -0.675020
  C      1.300210    5.693420   -1.512770
  C      1.079520    7.214670   -1.513330
  C      1.580590    7.801780   -0.289470
  N      1.977280    8.276430    0.670340
  C     -0.422010    7.551500   -1.661990
  C     -0.925950    6.941740   -2.871690
  N     -1.307750    6.439320   -3.824180
  C     -1.207710    7.032820   -0.449660
  C     -2.891100    5.008390    1.238430
  N     -3.466240    6.198070    1.125240
  N     -4.590260    6.503550    1.694740
  C     -5.254220    5.668410    2.483230
  C     -4.722440    4.369170    2.720450
  C     -3.509320    4.019670    2.056860
  N     -3.119040    2.782300    2.341760
  S     -4.179510    2.127510    3.360700
  N     -5.186390    3.379670    3.476660
  C     -6.486290    6.097590    3.056580
  C     -7.097810    7.327080    2.884000
  C     -8.305430    7.399130    3.572920
  C     -8.603290    6.212160    4.269750
  S     -7.403840    5.015940    4.082800
  C     -9.849710    6.382120    4.929150
  C    -10.338130    7.666300    4.649770
  C     -9.387790    8.349440    3.785910
  C     -9.495550    9.607570    3.272730
  C     -8.507390   10.171480    2.436960
  N     -7.715620   10.644040    1.756150
  C    -10.610800   10.433730    3.530280
  N    -11.517020   11.107960    3.726770
  C    -11.572570    7.920560    5.257550
  C    -12.025460    6.836990    5.976690
  S    -10.906720    5.486770    5.924460
  C    -13.230480    6.766300    6.767280
  C    -13.785280    7.859450    7.374420
  F    -13.318860    9.105290    7.329130
  S    -15.195020    7.531810    8.316110
  C    -15.033540    5.861570    7.883470
  F    -15.952310    5.006040    8.325760
  C    -13.980460    5.572400    7.068080
  C    -13.695740    4.257550    6.512700
  C    -14.007210    3.104080    7.088350
  H      3.067150   -2.163600   -1.702740
  H      0.615080   -1.471840    2.586600
  H      0.599410   -3.871680    2.956990
  H      1.187830   -6.152780    2.239180
  H      2.403120   -6.516140    0.127850
  H      3.039690   -4.600370   -1.283290
  H      1.923320    2.996360   -1.623760
  H      1.228580    5.325290   -2.542480
  H      2.305760    5.469980   -1.147480
  H      1.642330    7.657960   -2.344840
  H     -0.552980    8.636770   -1.745990
  H     -2.283380    7.138820   -0.602350
  H     -0.952460    7.629140    0.431700
  H     -6.655800    8.098330    2.280660
  H    -12.120760    8.840320    5.169320
  H    -13.203180    4.267100    5.549840
  H    -14.483990    3.049830    8.051340
  H    -13.785540    2.167060    6.608820

 Total Charge           Charge          ....    0
 Multiplicity           Mult            ....    1
 Number of Electrons    NEL             ....  488
 Basis Dimension        Dim             .... 1048

ORBITAL ENERGIES
----------------

  NO   OCC          E(Eh)            E(eV)
   0   2.0000     -89.058975     -2423.4179
   1   2.0000     -88.992366     -2421.6054
   2   2.0000     -88.991836     -2421.5910
   3   2.0000     -88.986739     -2421.4523
   4   2.0000     -88.971123     -2421.0273
   5   2.0000     -24.815746      -675.2708
   6   2.0000     -24.813345      -675.2054
   7   2.0000     -19.215442      -522.8788
   8   2.0000     -14.474962      -393.8838
   9   2.0000     -14.473494      -393.8438
  10   2.0000     -14.456630      -393.3849
  11   2.0000     -14.452332      -393.2679
  12   2.0000     -14.428807      -392.6278
  13   2.0000     -14.427470      -392.5914
  14   2.0000     -14.418588      -392.3497
  15   2.0000     -14.412624      -392.1874
  16   2.0000     -14.411137      -392.1470
  17   2.0000     -14.409234      -392.0952
  18   2.0000     -10.393561      -282.8232
  19   2.0000     -10.390647      -282.7439
  20   2.0000     -10.367044      -282.1016
  21   2.0000     -10.364005      -282.0189
  22   2.0000     -10.354745      -281.7669
  23   2.0000     -10.354074      -281.7487
  24   2.0000     -10.351739      -281.6851
  25   2.0000     -10.351142      -281.6689
  26   2.0000     -10.349110      -281.6136
  27   2.0000     -10.344289      -281.4824
  28   2.0000     -10.342117      -281.4233
  29   2.0000     -10.339403      -281.3494
  30   2.0000     -10.335048      -281.2310
  31   2.0000     -10.334679      -281.2209
  32   2.0000     -10.330874      -281.1174
  33   2.0000     -10.330495      -281.1070
  34   2.0000     -10.328896      -281.0636
  35   2.0000     -10.327258      -281.0190
  36   2.0000     -10.322896      -280.9003
  37   2.0000     -10.322478      -280.8889
  38   2.0000     -10.322378      -280.8862
  39   2.0000     -10.321181      -280.8536
  40   2.0000     -10.315878      -280.7093
  41   2.0000     -10.314503      -280.6719
  42   2.0000     -10.310477      -280.5623
  43   2.0000     -10.309694      -280.5410
  44   2.0000     -10.307392      -280.4784
  45   2.0000     -10.305680      -280.4318
  46   2.0000     -10.305447      -280.4255
  47   2.0000     -10.304786      -280.4075
  48   2.0000     -10.304487      -280.3993
  49   2.0000     -10.304071      -280.3880
  50   2.0000     -10.302902      -280.3562
  51   2.0000     -10.302852      -280.3548
  52   2.0000     -10.300572      -280.2928
  53   2.0000     -10.300054      -280.2787
  54   2.0000     -10.299844      -280.2730
  55   2.0000     -10.299669      -280.2682
  56   2.0000     -10.299282      -280.2577
  57   2.0000     -10.298643      -280.2403
  58   2.0000     -10.298477      -280.2358
  59   2.0000     -10.291148      -280.0364
  60   2.0000     -10.290408      -280.0162
  61   2.0000     -10.289295      -279.9859
  62   2.0000     -10.288291      -279.9586
  63   2.0000     -10.287951      -279.9494
  64   2.0000     -10.287683      -279.9421
  65   2.0000     -10.287343      -279.9328
  66   2.0000     -10.277024      -279.6520
  67   2.0000      -8.150210      -221.7785
  68   2.0000      -8.086573      -220.0468
  69   2.0000      -8.085506      -220.0178
  70   2.0000      -8.083962      -219.9758
  71   2.0000      -8.065362      -219.4697
  72   2.0000      -6.121365      -166.5708
  73   2.0000      -6.113609      -166.3598
  74   2.0000      -6.112737      -166.3360
  75   2.0000      -6.055815      -164.7871
  76   2.0000      -6.054788      -164.7592
  77   2.0000      -6.053114      -164.7136
  78   2.0000      -6.051534      -164.6706
  79   2.0000      -6.050385      -164.6394
  80   2.0000      -6.049528      -164.6160
  81   2.0000      -6.049112      -164.6047
  82   2.0000      -6.048082      -164.5767
  83   2.0000      -6.045343      -164.5021
  84   2.0000      -6.034709      -164.2128
  85   2.0000      -6.030402      -164.0956
  86   2.0000      -6.027467      -164.0157
  87   2.0000      -1.331527       -36.2327
  88   2.0000      -1.329147       -36.1679
  89   2.0000      -1.162119       -31.6229
  90   2.0000      -1.131792       -30.7976
  91   2.0000      -1.130625       -30.7659
  92   2.0000      -1.045609       -28.4525
  93   2.0000      -1.026464       -27.9315
  94   2.0000      -1.020895       -27.7800
  95   2.0000      -1.019155       -27.7326
  96   2.0000      -1.015543       -27.6343
  97   2.0000      -1.011211       -27.5164
  98   2.0000      -1.005427       -27.3591
  99   2.0000      -1.000608       -27.2279
 100   2.0000      -0.999063       -27.1859
 101   2.0000      -0.995144       -27.0793
 102   2.0000      -0.994840       -27.0710
 103   2.0000      -0.992865       -27.0172
 104   2.0000      -0.973160       -26.4810
 105   2.0000      -0.962759       -26.1980
 106   2.0000      -0.956115       -26.0172
 107   2.0000      -0.946882       -25.7660
 108   2.0000      -0.935514       -25.4566
 109   2.0000      -0.925193       -25.1758
 110   2.0000      -0.913392       -24.8547
 111   2.0000      -0.906736       -24.6735
 112   2.0000      -0.899688       -24.4818
 113   2.0000      -0.889422       -24.2024
 114   2.0000      -0.882904       -24.0251
 115   2.0000      -0.875202       -23.8155
 116   2.0000      -0.871583       -23.7170
 117   2.0000      -0.863815       -23.5056
 118   2.0000      -0.858002       -23.3474
 119   2.0000      -0.855532       -23.2802
 120   2.0000      -0.836072       -22.7507
 121   2.0000      -0.830029       -22.5862
 122   2.0000      -0.817989       -22.2586
 123   2.0000      -0.812926       -22.1209
 124   2.0000      -0.787987       -21.4422
 125   2.0000      -0.784133       -21.3373
 126   2.0000      -0.780149       -21.2289
 127   2.0000      -0.769091       -20.9280
 128   2.0000      -0.761761       -20.7286
 129   2.0000      -0.753786       -20.5116
 130   2.0000      -0.750311       -20.4170
 131   2.0000      -0.739061       -20.1109
 132   2.0000      -0.722910       -19.6714
 133   2.0000      -0.717121       -19.5138
 134   2.0000      -0.709506       -19.3066
 135   2.0000      -0.704804       -19.1787
 136   2.0000      -0.702067       -19.1042
 137   2.0000      -0.693841       -18.8804
 138   2.0000      -0.686979       -18.6937
 139   2.0000      -0.683829       -18.6079
 140   2.0000      -0.678166       -18.4538
 141   2.0000      -0.670799       -18.2534
 142   2.0000      -0.668694       -18.1961
 143   2.0000      -0.659255       -17.9392
 144   2.0000      -0.650148       -17.6914
 145   2.0000      -0.641318       -17.4511
 146   2.0000      -0.634424       -17.2636
 147   2.0000      -0.628606       -17.1053
 148   2.0000      -0.620637       -16.8884
 149   2.0000      -0.615207       -16.7406
 150   2.0000      -0.611060       -16.6278
 151   2.0000      -0.608842       -16.5674
 152   2.0000      -0.608700       -16.5636
 153   2.0000      -0.605348       -16.4724
 154   2.0000      -0.598661       -16.2904
 155   2.0000      -0.594727       -16.1833
 156   2.0000      -0.592356       -16.1188
 157   2.0000      -0.591321       -16.0907
 158   2.0000      -0.589582       -16.0433
 159   2.0000      -0.588018       -16.0008
 160   2.0000      -0.574290       -15.6272
 161   2.0000      -0.572751       -15.5853
 162   2.0000      -0.567878       -15.4528
 163   2.0000      -0.558014       -15.1843
 164   2.0000      -0.554799       -15.0969
 165   2.0000      -0.549618       -14.9559
 166   2.0000      -0.548799       -14.9336
 167   2.0000      -0.547177       -14.8895
 168   2.0000      -0.546396       -14.8682
 169   2.0000      -0.539836       -14.6897
 170   2.0000      -0.539330       -14.6759
 171   2.0000      -0.535543       -14.5729
 172   2.0000      -0.529996       -14.4219
 173   2.0000      -0.527961       -14.3665
 174   2.0000      -0.525742       -14.3062
 175   2.0000      -0.523101       -14.2343
 176   2.0000      -0.518535       -14.1101
 177   2.0000      -0.513432       -13.9712
 178   2.0000      -0.513024       -13.9601
 179   2.0000      -0.508141       -13.8272
 180   2.0000      -0.507042       -13.7973
 181   2.0000      -0.505218       -13.7477
 182   2.0000      -0.503384       -13.6978
 183   2.0000      -0.501169       -13.6375
 184   2.0000      -0.496665       -13.5150
 185   2.0000      -0.496026       -13.4976
 186   2.0000      -0.492042       -13.3892
 187   2.0000      -0.490929       -13.3589
 188   2.0000      -0.487340       -13.2612
 189   2.0000      -0.485539       -13.2122
 190   2.0000      -0.482089       -13.1183
 191   2.0000      -0.478630       -13.0242
 192   2.0000      -0.471480       -12.8296
 193   2.0000      -0.467155       -12.7119
 194   2.0000      -0.464949       -12.6519
 195   2.0000      -0.463142       -12.6027
 196   2.0000      -0.458799       -12.4846
 197   2.0000      -0.457078       -12.4377
 198   2.0000      -0.455477       -12.3942
 199   2.0000      -0.454869       -12.3776
 200   2.0000      -0.453786       -12.3481
 201   2.0000      -0.451407       -12.2834
 202   2.0000      -0.449517       -12.2320
 203   2.0000      -0.447619       -12.1803
 204   2.0000      -0.445058       -12.1106
 205   2.0000      -0.443469       -12.0674
 206   2.0000      -0.441834       -12.0229
 207   2.0000      -0.441102       -12.0030
 208   2.0000      -0.437927       -11.9166
 209   2.0000      -0.436854       -11.8874
 210   2.0000      -0.435244       -11.8436
 211   2.0000      -0.434506       -11.8235
 212   2.0000      -0.432022       -11.7559
 213   2.0000      -0.430988       -11.7278
 214   2.0000      -0.428979       -11.6731
 215   2.0000      -0.426017       -11.5925
 216   2.0000      -0.425073       -11.5668
 217   2.0000      -0.421994       -11.4830
 218   2.0000      -0.418624       -11.3913
 219   2.0000      -0.413769       -11.2592
 220   2.0000      -0.411779       -11.2051
 221   2.0000      -0.411483       -11.1970
 222   2.0000      -0.405533       -11.0351
 223   2.0000      -0.403190       -10.9714
 224   2.0000      -0.401289       -10.9196
 225   2.0000      -0.393474       -10.7070
 226   2.0000      -0.392837       -10.6896
 227   2.0000      -0.388453       -10.5703
 228   2.0000      -0.387622       -10.5477
 229   2.0000      -0.385869       -10.5000
 230   2.0000      -0.378743       -10.3061
 231   2.0000      -0.369276       -10.0485
 232   2.0000      -0.354848        -9.6559
 233   2.0000      -0.347869        -9.4660
 234   2.0000      -0.336971        -9.1695
 235   2.0000      -0.327442        -8.9101
 236   2.0000      -0.324923        -8.8416
 237   2.0000      -0.320759        -8.7283
 238   2.0000      -0.316877        -8.6227
 239   2.0000      -0.313571        -8.5327
 240   2.0000      -0.300603        -8.1798
 241   2.0000      -0.296772        -8.0756
 242   2.0000      -0.285453        -7.7676
 243   2.0000      -0.257199        -6.9987
 244   0.0000      -0.117594        -3.1999
 245   0.0000      -0.099891        -2.7182
 246   0.0000      -0.084421        -2.2972
 247   0.0000      -0.055577        -1.5123
 248   0.0000      -0.031684        -0.8622

MULLIKEN ATOMIC CHARGES
-----------------------
   0 C :    0.242960
   1 C :   -0.314546
   2 C :   -0.173006
   3 N :    0.148632
   4 C :   -0.211723
   5 N :    0.181149
   6 C :    0.040550
   7 C :    0.008072
   8 C :   -0.077013
   9 C :    0.092323
  10 C :    0.093586
  11 C :   -0.079225
  12 C :   -0.016032
  13 C :    0.035273
  14 C :    0.035558
  15 C :   -0.013629
  16 C :    0.139784
  17 O :   -0.143090
  18 C :   -0.117814
  19 C :    0.017641
  20 C :   -0.118497
  21 S :    0.184044
  22 C :   -0.131007
  23 C :   -0.104889
  24 C :   -0.019966
  25 C :    0.145171
  26 C :   -0.076743
  27 C :   -0.249201
  28 N :    0.158180
  29 C :   -0.085307
  30 C :   -0.243536
  31 N :    0.143887
  32 C :    0.193053
  33 C :    0.025544
  34 N :   -0.064760
  35 N :   -0.037120
  36 C :    0.009438
  37 C :    0.025244
  38 C :    0.010643
  39 N :   -0.281086
  40 S :    0.564165
  41 N :   -0.285354
  42 C :   -0.117593
  43 C :   -0.059479
  44 C :    0.033740
  45 C :   -0.074764
  46 S :    0.219464
  47 C :   -0.106550
  48 C :    0.012771
  49 C :    0.297410
  50 C :   -0.295914
  51 C :   -0.193285
  52 N :    0.183580
  53 C :   -0.190978
  54 N :    0.176612
  55 C :   -0.019500
  56 C :   -0.119998
  57 S :    0.184979
  58 C :    0.090916
  59 C :    0.055109
  60 F :   -0.152028
  61 S :    0.113628
  62 C :    0.040933
  63 F :   -0.156908
  64 C :    0.068905
  65 C :   -0.050493
  66 C :   -0.000720
  67 H :   -0.011474
  68 H :   -0.009466
  69 H :   -0.013365
  70 H :   -0.004827
  71 H :   -0.005127
  72 H :   -0.016634
  73 H :    0.023547
  74 H :    0.059068
  75 H :    0.052453
  76 H :    0.055035
  77 H :    0.056911
  78 H :    0.058758
  79 H :    0.056105
  80 H :    0.026129
  81 H :    0.011320
  82 H :    0.014382
  83 H :    0.028664
  84 H :    0.027333
Sum of atomic charges:   -0.0000000

LOEWDIN ATOMIC CHARGES
----------------------
   0 C :    0.060700
   1 C :   -0.139912
   2 C :   -0.017080
   3 N :   -0.056118
   4 C :   -0.038443
   5 N :   -0.042568
   6 C :   -0.021456
   7 C :   -0.056674
   8 C :    0.033375
   9 C :   -0.009213
  10 C :   -0.005339
  11 C :    0.013806
  12 C :   -0.007501
  13 C :   -0.012929
  14 C :   -0.013118
  15 C :   -0.008481
  16 C :    0.083512
  17 O :   -0.142913
  18 C :   -0.089385
  19 C :    0.049450
  20 C :   -0.181345
  21 S :    0.517749
  22 C :   -0.159730
  23 C :   -0.030914
  24 C :   -0.022700
  25 C :   -0.008366
  26 C :   -0.033328
  27 C :   -0.039409
  28 N :   -0.043817
  29 C :   -0.036818
  30 C :   -0.034955
  31 N :   -0.055959
  32 C :   -0.007278
  33 C :   -0.029963
  34 N :   -0.033971
  35 N :   -0.051876
  36 C :   -0.021803
  37 C :   -0.064914
  38 C :   -0.060010
  39 N :   -0.278366
  40 S :    0.684886
  41 N :   -0.282477
  42 C :   -0.188883
  43 C :    0.011928
  44 C :   -0.074251
  45 C :   -0.170791
  46 S :    0.509791
  47 C :   -0.190819
  48 C :   -0.063276
  49 C :    0.079059
  50 C :   -0.098262
  51 C :   -0.019325
  52 N :   -0.025360
  53 C :   -0.017194
  54 N :   -0.030019
  55 C :   -0.027305
  56 C :   -0.157120
  57 S :    0.496796
  58 C :   -0.109223
  59 C :   -0.079160
  60 F :   -0.042056
  61 S :    0.431262
  62 C :   -0.078154
  63 F :   -0.045566
  64 C :   -0.094570
  65 C :   -0.043748
  66 C :   -0.024415
  67 H :    0.039709
  68 H :    0.037590
  69 H :    0.033361
  70 H :    0.033111
  71 H :    0.032775
  72 H :    0.032220
  73 H :    0.048659
  74 H :    0.049884
  75 H :    0.049345
  76 H :    0.062263
  77 H :    0.063363
  78 H :    0.047081
  79 H :    0.052505
  80 H :    0.048907
  81 H :    0.040464
  82 H :    0.022773
  83 H :    0.024459
  84 H :    0.027843

  Mayer bond orders larger than 0.100000
B(  0-C ,  1-C ) :   1.6634 B(  0-C ,  6-C ) :   1.0072 B(  0-C , 18-C ) :   1.0253
B(  1-C ,  2-C ) :   1.1393 B(  1-C ,  4-C ) :   1.1490 B(  2-C ,  3-N ) :   2.9859
B(  4-C ,  5-N ) :   3.0291 B(  6-C ,  7-C ) :   1.2129 B(  6-C , 11-C ) :   1.4601
B(  7-C ,  8-C ) :   1.4749 B(  7-C , 16-C ) :   0.9222 B(  8-C ,  9-C ) :   1.1875
B(  8-C , 67-H ) :   1.0149 B(  9-C , 10-C ) :   1.2572 B(  9-C , 15-C ) :   1.2426
B( 10-C , 11-C ) :   1.2023 B( 10-C , 12-C ) :   1.2430 B( 11-C , 68-H ) :   0.9931
B( 12-C , 13-C ) :   1.4884 B( 12-C , 69-H ) :   0.9967 B( 13-C , 14-C ) :   1.2607
B( 13-C , 70-H ) :   0.9889 B( 14-C , 15-C ) :   1.4902 B( 14-C , 71-H ) :   0.9889
B( 15-C , 72-H ) :   0.9974 B( 16-C , 17-O ) :   2.2663 B( 16-C , 18-C ) :   0.9347
B( 18-C , 19-C ) :   1.6635 B( 19-C , 20-C ) :   1.1290 B( 19-C , 73-H ) :   0.9394
B( 20-C , 21-S ) :   1.0991 B( 20-C , 22-C ) :   0.1086 B( 20-C , 24-C ) :   1.4424
B( 21-S , 22-C ) :   1.1730 B( 22-C , 23-C ) :   1.4727 B( 22-C , 33-C ) :   1.1575
B( 23-C , 24-C ) :   1.3389 B( 23-C , 32-C ) :   1.0496 B( 24-C , 25-C ) :   1.0457
B( 25-C , 26-C ) :   1.0624 B( 25-C , 74-H ) :   0.8928 B( 25-C , 75-H ) :   0.9135
B( 26-C , 27-C ) :   1.1099 B( 26-C , 29-C ) :   1.0743 B( 26-C , 76-H ) :   0.8594
B( 27-C , 28-N ) :   3.1098 B( 29-C , 30-C ) :   1.1027 B( 29-C , 32-C ) :   1.0353
B( 29-C , 77-H ) :   0.8564 B( 30-C , 31-N ) :   3.1077 B( 32-C , 78-H ) :   0.8960
B( 32-C , 79-H ) :   0.8954 B( 33-C , 34-N ) :   1.6473 B( 33-C , 36-C ) :   0.1033
B( 33-C , 38-C ) :   1.0955 B( 34-N , 35-N ) :   1.2203 B( 35-N , 36-C ) :   1.7023
B( 36-C , 37-C ) :   1.0876 B( 36-C , 42-C ) :   1.1628 B( 37-C , 38-C ) :   1.2120
B( 37-C , 41-N ) :   1.5245 B( 38-C , 39-N ) :   1.5229 B( 39-N , 40-S ) :   1.2740
B( 39-N , 41-N ) :   0.1442 B( 40-S , 41-N ) :   1.2740 B( 42-C , 43-C ) :   1.4179
B( 42-C , 46-S ) :   1.1060 B( 43-C , 44-C ) :   1.2592 B( 43-C , 80-H ) :   1.0153
B( 44-C , 45-C ) :   1.4141 B( 44-C , 49-C ) :   0.9890 B( 45-C , 46-S ) :   1.1264
B( 45-C , 47-C ) :   1.1817 B( 47-C , 48-C ) :   1.4464 B( 47-C , 57-S ) :   1.1146
B( 48-C , 49-C ) :   0.9907 B( 48-C , 55-C ) :   1.2743 B( 49-C , 50-C ) :   1.7219
B( 50-C , 51-C ) :   1.1329 B( 50-C , 53-C ) :   1.1323 B( 51-C , 52-N ) :   3.0008
B( 53-C , 54-N ) :   2.9939 B( 55-C , 56-C ) :   1.5071 B( 55-C , 81-H ) :   0.9971
B( 56-C , 57-S ) :   1.1164 B( 56-C , 58-C ) :   1.0240 B( 58-C , 59-C ) :   1.4824
B( 58-C , 64-C ) :   1.1711 B( 59-C , 60-F ) :   1.1269 B( 59-C , 61-S ) :   1.1199
B( 61-S , 62-C ) :   1.1177 B( 62-C , 63-F ) :   1.1232 B( 62-C , 64-C ) :   1.4866
B( 64-C , 65-C ) :   1.0448 B( 65-C , 66-C ) :   1.9803 B( 65-C , 82-H ) :   0.9455
B( 66-C , 83-H ) :   0.9612 B( 66-C , 84-H ) :   0.9482

-----------------------------------------------------------------------------
         ABSORPTION SPECTRUM VIA TRANSITION ELECTRIC DIPOLE MOMENTS
-----------------------------------------------------------------------------
State   Energy  Wavelength   fosc         T2         TX        TY        TZ
        (cm-1)    (nm)                  (au**2)     (au)      (au)      (au)
-----------------------------------------------------------------------------
   0   14016.2    713.5   0.576800672  13.54787   3.16099  -1.39811  -1.26544
   1   16465.1    607.3   0.576213457  11.52112   2.80780  -1.74350  -0.77303
   2   19017.8    525.8   0.010069231   0.17431  -0.32021   0.26253   0.05336
   3   21642.2    462.1   0.070382552   1.07063   0.06456   0.54967  -0.87426
   4   22774.1    439.1   0.064699406   0.93526  -0.24535   0.85952  -0.36919
   5   24826.1    402.8   0.056381780   0.74766  -0.13605   0.81615   0.25111
   6   25988.4    384.8   0.002297652   0.02911   0.15483   0.05431  -0.04673
   7   27165.4    368.1   0.037421462   0.45350  -0.08335   0.65005  -0.15487
   8   27288.0    366.5   0.021107304   0.25465   0.16341   0.04409  -0.47540
   9   27688.8    361.2   0.029014344   0.34497   0.46144  -0.13561  -0.33712
  10   28773.5    347.5   0.007195497   0.08233  -0.11700  -0.16587   0.20279
  11   29581.9    338.0   0.143813606   1.60048  -0.45959  -0.54305   1.04611
  12   29708.7    336.6   0.056392188   0.62490  -0.02909   0.77363   0.15985
  13   29823.4    335.3   0.014803457   0.16341  -0.14619   0.24820   0.28361
  14   29997.2    333.4   0.202268813   2.21985  -0.95959   1.06374   0.40928
  15   31007.2    322.5   0.106210478   1.12766  -0.83893   0.41047   0.50535
  16   31331.3    319.2   0.006236037   0.06552   0.13122  -0.12454   0.18110
  17   31591.6    316.5   0.303891414   3.16682  -1.02809   1.36276   0.50274
  18   31803.3    314.4   0.270576921   2.80087  -0.27718  -1.64284   0.15846
  19   32397.4    308.7   0.047802901   0.48576   0.06621  -0.27315  -0.63778
  20   32472.4    308.0   0.168718519   1.71050   0.46763  -1.22091   0.03459
  21   32735.4    305.5   0.125694453   1.26408   0.54053  -0.96794  -0.18706
  22   33202.1    301.2   0.368017538   3.64904   0.18935  -1.69216   0.86591
  23   33756.5    296.2   0.803683908   7.83797   2.29177   0.07998  -1.60603
  24   33908.0    294.9   0.134882003   1.30957   0.97701   0.46612  -0.37114
  25   34656.8    288.5   0.254071649   2.41348   0.35430  -1.51157  -0.05569
  26   35616.6    280.8   0.213531874   1.97372   0.02375   1.37729   0.27607
  27   35865.5    278.8   0.041558108   0.38146   0.37920   0.40956   0.26445
  28   36080.1    277.2   0.052923346   0.48290  -0.14580   0.67943  -0.00293
  29   36232.8    276.0   0.014503958   0.13178   0.16829  -0.12863  -0.29482
  30   36520.7    273.8   0.149069618   1.34377   0.29691  -0.93320  -0.62028
  31   36881.1    271.1   0.046709797   0.41695  -0.50012  -0.14158   0.38312
  32   37438.4    267.1   0.125640470   1.10481  -0.41235  -0.57757   0.77537
  33   38018.5    263.0   0.039480670   0.34187   0.40713  -0.16927  -0.38402
  34   38123.1    262.3   0.060465336   0.52215  -0.17797   0.67203   0.19711
  35   38213.8    261.7   0.000499456   0.00430  -0.03210  -0.03586  -0.04456
  36   38403.0    260.4   0.017182350   0.14730   0.09223   0.36817   0.05694
  37   38917.4    257.0   0.011507436   0.09734   0.17921   0.24726  -0.06397
  38   38968.4    256.6   0.016406768   0.13861  -0.09415  -0.05498   0.35598
  39   39279.5    254.6   0.057399872   0.48108   0.59681  -0.30807  -0.17319
  40   39910.0    250.6   0.005903748   0.04870   0.04675  -0.17001  -0.13270
  41   40326.3    248.0   0.222154113   1.81360  -0.53586  -0.62579   1.06529

FINAL SINGLE POINT ENERGY     -4687.243876084148

DIPOLE MOMENT
-------------
                                X             Y             Z
Electronic contribution:    -55.87056      30.73059      33.08156
Nuclear contribution   :     54.42215     -34.82949     -32.45094
                        -----------------------------------------
Total Dipole Moment    :     -1.44841      -4.09890       0.63062
                        -----------------------------------------
Magnitude (a.u.)       :      4.39278
Magnitude (Debye)      :     11.16557

Rotational constants in cm-1:     0.001651     0.000352     0.000300
Rotational constants in MHz :    49.499500    10.557357     8.999990

                             ****ORCA TERMINATED NORMALLY****
TOTAL RUN TIME: 0 days 0 hours 8 minutes 21 seconds 557 msec
