                         Program Version 4.2.0 -  RELEASE  -
|  1> # ORCA input file
|  2> # SCF done       -193.403948923404          0.000735520604
|  3> ! CAM-B3LYP def2-SVP def2/J RIJCOSX Grid4 TightSCF
|  4> %maxcore 5000
|  5> %tddft
|  6>     Mode sTDDFT
|  7>     Ethresh 5.0
|  8>     maxcore 5000
|  9> end
| 10>
| 11> %pal
| 12>   nprocs 6
| 13>   end
| 14> * xyz 0 1
| 15>    C       -2.48087         2.25774        -3.07869
| 16>    C       -2.41000         3.62138        -3.16225
| 17>    C       -3.32002         4.42533        -3.87863
| 18>    N       -4.01764         5.14089        -4.44274
| 19>    C       -1.37002         4.38195        -2.58799
| 20>    N       -0.52085         5.03241        -2.17019
| 21>    C       -3.36229         1.41461        -3.87508
| 22>    C       -2.79616         0.10764        -3.95209
| 23>    C       -3.39018        -0.88644        -4.67611
| 24>    C       -4.60091        -0.61627        -5.35277
| 25>    C       -5.18141         0.68267        -5.26048
| 26>    C       -4.54020         1.69592        -4.51180
| 27>    C       -6.39569         0.93214        -5.93179
| 28>    C       -7.00704        -0.04986        -6.66253
| 29>    C       -6.43379        -1.32709        -6.75496
| 30>    C       -5.25663        -1.60391        -6.11450
| 31>    C       -1.56748         0.05646        -3.14086
| 32>    O       -0.78903        -0.85746        -3.01066
| 33>    C       -1.52471         1.37317        -2.43036
| 34>    C       -0.79875         1.49669        -1.29078
| 35>    C       -0.96968         2.49297        -0.29509
| 36>    S       -2.46510         3.38118        -0.12880
| 37>    C       -1.86444         4.42718         1.14457
| 38>    C       -0.58749         4.00779         1.46058
| 39>    C       -0.10495         2.94313         0.67768
| 40>    O        1.17334         2.68750         1.05581
| 41>    C        1.46294         3.56241         2.04540
| 42>    S        2.86699         3.63172         2.83092
| 43>    O        0.41039         4.37416         2.30950
| 44>    C       -2.68301         5.53099         1.48982
| 45>    N       -2.52851         6.42760         2.51213
| 46>    C       -1.48458         6.46273         3.50972
| 47>    C       -0.30249         7.30906         3.04650
| 48>    C       -3.50431         7.44866         2.45859
| 49>    O       -3.57203         8.34674         3.27148
| 50>    C       -4.30524         7.12659         1.29901
| 51>    C       -3.79500         5.92722         0.74865
| 52>    C       -4.54749         5.62076        -0.44275
| 53>    O       -4.48888         4.67887        -1.21638
| 54>    N       -5.45931         6.67275        -0.55860
| 55>    C       -6.37795         6.74321        -1.67105
| 56>    C       -5.85291         7.64593        -2.78409
| 57>    C       -5.33261         7.58167         0.47049
| 58>    C       -6.13253         8.74204         0.59573
| 59>    C       -6.04250         9.57645         1.66557
| 60>    C       -6.82512        10.74596         1.83702
| 61>    S       -6.75396        11.61008         3.34870
| 62>    C       -7.90579        12.78322         2.79962
| 63>    C       -8.30224        12.50166         1.48478
| 64>    C       -7.69969        11.35706         0.95501
| 65>    C       -9.23044        13.28857         0.77968
| 66>    N       -9.98818        13.91962         0.19483
| 67>    C       -8.37779        13.84872         3.59850
| 68>    C       -8.05175        14.02653         4.90699
| 69>    C       -8.58308        15.09068         5.66991
| 70>    C       -8.36936        15.27005         7.00678
| 71>    C       -8.91051        16.32887         7.84035
| 72>    C       -9.59510        17.43916         7.41845
| 73>    C      -10.08864        18.43930         8.28294
| 74>    N      -10.51684        19.28609         8.92889
| 75>    C       -9.88773        17.76406         6.07715
| 76>    N      -10.15788        18.10458         5.01417
| 77>    C       -8.56445        16.02532         9.22447
| 78>    C       -7.76580        14.84628         9.24736
| 79>    C       -7.59196        14.34290         7.87517
| 80>    O       -6.95718        13.36626         7.53640
| 81>    C       -7.28732        14.32016        10.41280
| 82>    C       -7.59808        14.95675        11.63491
| 83>    C       -8.40388        16.13195        11.62212
| 84>    C       -8.87976        16.65685        10.39884
| 85>    C       -8.71561        16.75477        12.84792
| 86>    C       -8.25398        16.24331        14.03012
| 87>    C       -7.45914        15.08723        14.04134
| 88>    C       -7.13776        14.45789        12.86930
| 89>    H       -2.94398        -1.86827        -4.73096
| 90>    H       -5.00054         2.66908        -4.44142
| 91>    H       -6.83113         1.91794        -5.86038
| 92>    H       -7.93602         0.15194        -7.17445
| 93>    H       -6.92983        -2.09028        -7.33560
| 94>    H       -4.81097        -2.58552        -6.18184
| 95>    H       -0.06349         0.72422        -1.09197
| 96>    H       -1.17069         5.44374         3.73684
| 97>    H       -1.92422         6.91184         4.40474
| 98>    H        0.09744         6.93384         2.10797
| 99>    H        0.48389         7.27974         3.79458
|100>    H       -0.61753         8.33999         2.90582
|101>    H       -7.35383         7.08186        -1.31270
|102>    H       -6.47638         5.72269        -2.05053
|103>    H       -5.62423         8.64015        -2.40609
|104>    H       -6.59864         7.73037        -3.56931
|105>    H       -4.95126         7.21662        -3.21356
|106>    H       -6.84228         8.94758        -0.19152
|107>    H       -5.34126         9.34547         2.45682
|108>    H       -7.89302        11.00363        -0.04171
|109>    H       -9.05926        14.53911         3.11389
|110>    H       -7.38412        13.33012         5.39538
|111>    H       -9.22190        15.78738         5.14179
|112>    H       -6.68169        13.42608        10.40152
|113>    H       -9.48913        17.54607        10.42474
|114>    H       -9.32702        17.64510        12.83403
|115>    H       -8.49889        16.72704        14.96379
|116>    H       -7.10323        14.69769        14.98336
|117>    H       -6.52648        13.56729        12.87168
|118> *
|119>
|120>                          ****END OF INPUT****

CARTESIAN COORDINATES (ANGSTROEM)
---------------------------------
  C     -2.480870    2.257740   -3.078690
  C     -2.410000    3.621380   -3.162250
  C     -3.320020    4.425330   -3.878630
  N     -4.017640    5.140890   -4.442740
  C     -1.370020    4.381950   -2.587990
  N     -0.520850    5.032410   -2.170190
  C     -3.362290    1.414610   -3.875080
  C     -2.796160    0.107640   -3.952090
  C     -3.390180   -0.886440   -4.676110
  C     -4.600910   -0.616270   -5.352770
  C     -5.181410    0.682670   -5.260480
  C     -4.540200    1.695920   -4.511800
  C     -6.395690    0.932140   -5.931790
  C     -7.007040   -0.049860   -6.662530
  C     -6.433790   -1.327090   -6.754960
  C     -5.256630   -1.603910   -6.114500
  C     -1.567480    0.056460   -3.140860
  O     -0.789030   -0.857460   -3.010660
  C     -1.524710    1.373170   -2.430360
  C     -0.798750    1.496690   -1.290780
  C     -0.969680    2.492970   -0.295090
  S     -2.465100    3.381180   -0.128800
  C     -1.864440    4.427180    1.144570
  C     -0.587490    4.007790    1.460580
  C     -0.104950    2.943130    0.677680
  O      1.173340    2.687500    1.055810
  C      1.462940    3.562410    2.045400
  S      2.866990    3.631720    2.830920
  O      0.410390    4.374160    2.309500
  C     -2.683010    5.530990    1.489820
  N     -2.528510    6.427600    2.512130
  C     -1.484580    6.462730    3.509720
  C     -0.302490    7.309060    3.046500
  C     -3.504310    7.448660    2.458590
  O     -3.572030    8.346740    3.271480
  C     -4.305240    7.126590    1.299010
  C     -3.795000    5.927220    0.748650
  C     -4.547490    5.620760   -0.442750
  O     -4.488880    4.678870   -1.216380
  N     -5.459310    6.672750   -0.558600
  C     -6.377950    6.743210   -1.671050
  C     -5.852910    7.645930   -2.784090
  C     -5.332610    7.581670    0.470490
  C     -6.132530    8.742040    0.595730
  C     -6.042500    9.576450    1.665570
  C     -6.825120   10.745960    1.837020
  S     -6.753960   11.610080    3.348700
  C     -7.905790   12.783220    2.799620
  C     -8.302240   12.501660    1.484780
  C     -7.699690   11.357060    0.955010
  C     -9.230440   13.288570    0.779680
  N     -9.988180   13.919620    0.194830
  C     -8.377790   13.848720    3.598500
  C     -8.051750   14.026530    4.906990
  C     -8.583080   15.090680    5.669910
  C     -8.369360   15.270050    7.006780
  C     -8.910510   16.328870    7.840350
  C     -9.595100   17.439160    7.418450
  C    -10.088640   18.439300    8.282940
  N    -10.516840   19.286090    8.928890
  C     -9.887730   17.764060    6.077150
  N    -10.157880   18.104580    5.014170
  C     -8.564450   16.025320    9.224470
  C     -7.765800   14.846280    9.247360
  C     -7.591960   14.342900    7.875170
  O     -6.957180   13.366260    7.536400
  C     -7.287320   14.320160   10.412800
  C     -7.598080   14.956750   11.634910
  C     -8.403880   16.131950   11.622120
  C     -8.879760   16.656850   10.398840
  C     -8.715610   16.754770   12.847920
  C     -8.253980   16.243310   14.030120
  C     -7.459140   15.087230   14.041340
  C     -7.137760   14.457890   12.869300
  H     -2.943980   -1.868270   -4.730960
  H     -5.000540    2.669080   -4.441420
  H     -6.831130    1.917940   -5.860380
  H     -7.936020    0.151940   -7.174450
  H     -6.929830   -2.090280   -7.335600
  H     -4.810970   -2.585520   -6.181840
  H     -0.063490    0.724220   -1.091970
  H     -1.170690    5.443740    3.736840
  H     -1.924220    6.911840    4.404740
  H      0.097440    6.933840    2.107970
  H      0.483890    7.279740    3.794580
  H     -0.617530    8.339990    2.905820
  H     -7.353830    7.081860   -1.312700
  H     -6.476380    5.722690   -2.050530
  H     -5.624230    8.640150   -2.406090
  H     -6.598640    7.730370   -3.569310
  H     -4.951260    7.216620   -3.213560
  H     -6.842280    8.947580   -0.191520
  H     -5.341260    9.345470    2.456820
  H     -7.893020   11.003630   -0.041710
  H     -9.059260   14.539110    3.113890
  H     -7.384120   13.330120    5.395380
  H     -9.221900   15.787380    5.141790
  H     -6.681690   13.426080   10.401520
  H     -9.489130   17.546070   10.424740
  H     -9.327020   17.645100   12.834030
  H     -8.498890   16.727040   14.963790
  H     -7.103230   14.697690   14.983360
  H     -6.526480   13.567290   12.871680

 Total Charge           Charge          ....    0
 Multiplicity           Mult            ....    1
 Number of Electrons    NEL             ....  522
 Basis Dimension        Dim             .... 1193

ORBITAL ENERGIES
----------------

  NO   OCC          E(Eh)            E(eV)
   0   2.0000     -88.989609     -2421.5304
   1   2.0000     -88.983163     -2421.3550
   2   2.0000     -88.900208     -2419.0976
   3   2.0000     -19.332611      -526.0671
   4   2.0000     -19.331211      -526.0290
   5   2.0000     -19.220009      -523.0030
   6   2.0000     -19.219763      -522.9963
   7   2.0000     -19.207521      -522.6632
   8   2.0000     -19.205509      -522.6085
   9   2.0000     -14.470052      -393.7501
  10   2.0000     -14.468808      -393.7163
  11   2.0000     -14.419333      -392.3700
  12   2.0000     -14.417826      -392.3290
  13   2.0000     -14.417656      -392.3244
  14   2.0000     -14.417150      -392.3106
  15   2.0000     -14.415936      -392.2776
  16   2.0000     -10.452996      -284.4405
  17   2.0000     -10.389956      -282.7251
  18   2.0000     -10.388189      -282.6770
  19   2.0000     -10.376870      -282.3690
  20   2.0000     -10.376146      -282.3493
  21   2.0000     -10.371377      -282.2195
  22   2.0000     -10.370523      -282.1963
  23   2.0000     -10.364845      -282.0418
  24   2.0000     -10.355445      -281.7860
  25   2.0000     -10.350142      -281.6417
  26   2.0000     -10.347149      -281.5602
  27   2.0000     -10.344307      -281.4829
  28   2.0000     -10.343576      -281.4630
  29   2.0000     -10.342246      -281.4268
  30   2.0000     -10.342027      -281.4209
  31   2.0000     -10.338605      -281.3277
  32   2.0000     -10.336094      -281.2594
  33   2.0000     -10.334722      -281.2221
  34   2.0000     -10.329991      -281.0933
  35   2.0000     -10.321162      -280.8531
  36   2.0000     -10.320457      -280.8339
  37   2.0000     -10.319972      -280.8207
  38   2.0000     -10.318862      -280.7905
  39   2.0000     -10.318665      -280.7851
  40   2.0000     -10.318652      -280.7848
  41   2.0000     -10.318600      -280.7834
  42   2.0000     -10.316460      -280.7252
  43   2.0000     -10.314304      -280.6665
  44   2.0000     -10.313670      -280.6492
  45   2.0000     -10.313241      -280.6375
  46   2.0000     -10.309012      -280.5225
  47   2.0000     -10.308930      -280.5203
  48   2.0000     -10.306204      -280.4461
  49   2.0000     -10.304538      -280.4007
  50   2.0000     -10.303485      -280.3721
  51   2.0000     -10.300818      -280.2995
  52   2.0000     -10.300496      -280.2907
  53   2.0000     -10.300129      -280.2808
  54   2.0000     -10.299371      -280.2601
  55   2.0000     -10.299112      -280.2531
  56   2.0000     -10.298663      -280.2409
  57   2.0000     -10.298439      -280.2348
  58   2.0000     -10.298150      -280.2269
  59   2.0000     -10.298089      -280.2252
  60   2.0000     -10.292964      -280.0858
  61   2.0000     -10.290220      -280.0111
  62   2.0000     -10.289038      -279.9789
  63   2.0000     -10.288828      -279.9732
  64   2.0000     -10.288419      -279.9621
  65   2.0000     -10.288193      -279.9560
  66   2.0000     -10.288039      -279.9518
  67   2.0000     -10.287614      -279.9402
  68   2.0000     -10.287292      -279.9314
  69   2.0000     -10.286773      -279.9173
  70   2.0000     -10.279591      -279.7219
  71   2.0000     -10.276243      -279.6308
  72   2.0000     -10.263106      -279.2733
  73   2.0000     -10.260683      -279.2074
  74   2.0000      -8.084881      -220.0008
  75   2.0000      -8.076691      -219.7779
  76   2.0000      -7.998288      -217.6445
  77   2.0000      -6.053936      -164.7360
  78   2.0000      -6.049869      -164.6253
  79   2.0000      -6.047310      -164.5557
  80   2.0000      -6.046407      -164.5311
  81   2.0000      -6.042134      -164.4148
  82   2.0000      -6.037836      -164.2979
  83   2.0000      -5.968152      -162.4017
  84   2.0000      -5.964636      -162.3060
  85   2.0000      -5.958165      -162.1299
  86   2.0000      -1.301243       -35.4086
  87   2.0000      -1.192369       -32.4460
  88   2.0000      -1.149473       -31.2788
  89   2.0000      -1.142311       -31.0839
  90   2.0000      -1.135412       -30.8961
  91   2.0000      -1.134482       -30.8708
  92   2.0000      -1.080011       -29.3886
  93   2.0000      -1.071952       -29.1693
  94   2.0000      -1.027105       -27.9489
  95   2.0000      -1.026876       -27.9427
  96   2.0000      -1.019616       -27.7452
  97   2.0000      -1.015949       -27.6454
  98   2.0000      -1.001375       -27.2488
  99   2.0000      -1.000128       -27.2149
 100   2.0000      -0.997963       -27.1559
 101   2.0000      -0.995309       -27.0837
 102   2.0000      -0.995044       -27.0765
 103   2.0000      -0.974958       -26.5300
 104   2.0000      -0.973450       -26.4889
 105   2.0000      -0.945461       -25.7273
 106   2.0000      -0.941341       -25.6152
 107   2.0000      -0.931927       -25.3590
 108   2.0000      -0.928496       -25.2657
 109   2.0000      -0.919885       -25.0314
 110   2.0000      -0.916748       -24.9460
 111   2.0000      -0.914634       -24.8884
 112   2.0000      -0.896685       -24.4000
 113   2.0000      -0.893111       -24.3028
 114   2.0000      -0.885362       -24.0919
 115   2.0000      -0.883638       -24.0450
 116   2.0000      -0.882711       -24.0198
 117   2.0000      -0.878680       -23.9101
 118   2.0000      -0.872000       -23.7283
 119   2.0000      -0.860511       -23.4157
 120   2.0000      -0.839304       -22.8386
 121   2.0000      -0.831311       -22.6211
 122   2.0000      -0.830654       -22.6033
 123   2.0000      -0.829829       -22.5808
 124   2.0000      -0.824910       -22.4470
 125   2.0000      -0.817352       -22.2413
 126   2.0000      -0.807034       -21.9605
 127   2.0000      -0.793303       -21.5869
 128   2.0000      -0.782646       -21.2969
 129   2.0000      -0.766514       -20.8579
 130   2.0000      -0.765035       -20.8177
 131   2.0000      -0.763589       -20.7783
 132   2.0000      -0.747315       -20.3355
 133   2.0000      -0.741327       -20.1725
 134   2.0000      -0.739503       -20.1229
 135   2.0000      -0.733963       -19.9721
 136   2.0000      -0.722195       -19.6519
 137   2.0000      -0.715734       -19.4761
 138   2.0000      -0.711250       -19.3541
 139   2.0000      -0.706459       -19.2237
 140   2.0000      -0.704705       -19.1760
 141   2.0000      -0.704023       -19.1574
 142   2.0000      -0.696270       -18.9465
 143   2.0000      -0.694088       -18.8871
 144   2.0000      -0.684491       -18.6259
 145   2.0000      -0.678647       -18.4669
 146   2.0000      -0.677702       -18.4412
 147   2.0000      -0.664851       -18.0915
 148   2.0000      -0.660987       -17.9864
 149   2.0000      -0.656850       -17.8738
 150   2.0000      -0.652887       -17.7660
 151   2.0000      -0.639755       -17.4086
 152   2.0000      -0.638553       -17.3759
 153   2.0000      -0.633783       -17.2461
 154   2.0000      -0.631834       -17.1931
 155   2.0000      -0.626270       -17.0417
 156   2.0000      -0.618759       -16.8373
 157   2.0000      -0.611675       -16.6445
 158   2.0000      -0.609994       -16.5988
 159   2.0000      -0.608226       -16.5507
 160   2.0000      -0.603097       -16.4111
 161   2.0000      -0.595224       -16.1969
 162   2.0000      -0.592583       -16.1250
 163   2.0000      -0.589893       -16.0518
 164   2.0000      -0.576922       -15.6988
 165   2.0000      -0.566515       -15.4156
 166   2.0000      -0.564155       -15.3514
 167   2.0000      -0.560974       -15.2649
 168   2.0000      -0.559982       -15.2379
 169   2.0000      -0.555291       -15.1102
 170   2.0000      -0.553141       -15.0517
 171   2.0000      -0.550588       -14.9823
 172   2.0000      -0.548419       -14.9232
 173   2.0000      -0.547989       -14.9115
 174   2.0000      -0.544891       -14.8272
 175   2.0000      -0.541184       -14.7264
 176   2.0000      -0.539837       -14.6897
 177   2.0000      -0.538403       -14.6507
 178   2.0000      -0.534712       -14.5502
 179   2.0000      -0.528372       -14.3777
 180   2.0000      -0.527359       -14.3502
 181   2.0000      -0.526548       -14.3281
 182   2.0000      -0.524621       -14.2757
 183   2.0000      -0.522993       -14.2314
 184   2.0000      -0.522527       -14.2187
 185   2.0000      -0.521221       -14.1831
 186   2.0000      -0.519969       -14.1491
 187   2.0000      -0.517071       -14.0702
 188   2.0000      -0.516076       -14.0431
 189   2.0000      -0.514641       -14.0041
 190   2.0000      -0.512295       -13.9402
 191   2.0000      -0.511673       -13.9233
 192   2.0000      -0.510038       -13.8789
 193   2.0000      -0.504484       -13.7277
 194   2.0000      -0.500832       -13.6283
 195   2.0000      -0.500102       -13.6085
 196   2.0000      -0.497513       -13.5380
 197   2.0000      -0.493929       -13.4405
 198   2.0000      -0.491079       -13.3629
 199   2.0000      -0.489607       -13.3229
 200   2.0000      -0.488041       -13.2803
 201   2.0000      -0.486545       -13.2396
 202   2.0000      -0.484990       -13.1973
 203   2.0000      -0.481483       -13.1018
 204   2.0000      -0.480447       -13.0736
 205   2.0000      -0.475395       -12.9361
 206   2.0000      -0.472598       -12.8600
 207   2.0000      -0.469804       -12.7840
 208   2.0000      -0.467641       -12.7252
 209   2.0000      -0.466549       -12.6954
 210   2.0000      -0.460820       -12.5396
 211   2.0000      -0.459070       -12.4919
 212   2.0000      -0.455630       -12.3983
 213   2.0000      -0.452774       -12.3206
 214   2.0000      -0.450608       -12.2617
 215   2.0000      -0.449214       -12.2237
 216   2.0000      -0.448113       -12.1938
 217   2.0000      -0.446942       -12.1619
 218   2.0000      -0.445592       -12.1252
 219   2.0000      -0.444262       -12.0890
 220   2.0000      -0.442895       -12.0518
 221   2.0000      -0.442648       -12.0451
 222   2.0000      -0.441521       -12.0144
 223   2.0000      -0.439143       -11.9497
 224   2.0000      -0.437361       -11.9012
 225   2.0000      -0.435050       -11.8383
 226   2.0000      -0.434740       -11.8299
 227   2.0000      -0.434062       -11.8114
 228   2.0000      -0.433002       -11.7826
 229   2.0000      -0.431494       -11.7415
 230   2.0000      -0.427696       -11.6382
 231   2.0000      -0.426136       -11.5958
 232   2.0000      -0.424221       -11.5436
 233   2.0000      -0.421858       -11.4793
 234   2.0000      -0.421640       -11.4734
 235   2.0000      -0.421007       -11.4562
 236   2.0000      -0.412351       -11.2206
 237   2.0000      -0.407916       -11.1000
 238   2.0000      -0.404722       -11.0130
 239   2.0000      -0.403086       -10.9685
 240   2.0000      -0.383442       -10.4340
 241   2.0000      -0.381894       -10.3919
 242   2.0000      -0.373280       -10.1575
 243   2.0000      -0.370793       -10.0898
 244   2.0000      -0.365611        -9.9488
 245   2.0000      -0.357561        -9.7297
 246   2.0000      -0.350035        -9.5249
 247   2.0000      -0.344553        -9.3758
 248   2.0000      -0.340570        -9.2674
 249   2.0000      -0.339729        -9.2445
 250   2.0000      -0.338003        -9.1975
 251   2.0000      -0.329239        -8.9590
 252   2.0000      -0.321797        -8.7565
 253   2.0000      -0.318567        -8.6687
 254   2.0000      -0.311616        -8.4795
 255   2.0000      -0.311126        -8.4662
 256   2.0000      -0.303417        -8.2564
 257   2.0000      -0.298342        -8.1183
 258   2.0000      -0.295177        -8.0322
 259   2.0000      -0.285851        -7.7784
 260   2.0000      -0.249432        -6.7874
 261   0.0000      -0.119750        -3.2586
 262   0.0000      -0.102402        -2.7865
 263   0.0000      -0.079623        -2.1666
 264   0.0000      -0.062180        -1.6920
 265   0.0000      -0.056890        -1.5481

MULLIKEN ATOMIC CHARGES
-----------------------
   0 C :    0.250348
   1 C :   -0.311109
   2 C :   -0.132408
   3 N :    0.139452
   4 C :   -0.199795
   5 N :    0.165837
   6 C :    0.035447
   7 C :    0.010195
   8 C :   -0.079407
   9 C :    0.092388
  10 C :    0.096491
  11 C :   -0.078668
  12 C :   -0.015510
  13 C :    0.037180
  14 C :    0.035280
  15 C :   -0.014076
  16 C :    0.139364
  17 O :   -0.135660
  18 C :   -0.133252
  19 C :    0.082838
  20 C :   -0.233720
  21 S :    0.202017
  22 C :   -0.249975
  23 C :    0.184856
  24 C :    0.248830
  25 O :   -0.157789
  26 C :    0.240198
  27 S :   -0.138364
  28 O :   -0.189219
  29 C :    0.225000
  30 N :   -0.254540
  31 C :    0.103992
  32 C :    0.005053
  33 C :    0.161432
  34 O :   -0.199881
  35 C :   -0.063555
  36 C :   -0.109587
  37 C :    0.171505
  38 O :   -0.215485
  39 N :   -0.248677
  40 C :    0.098234
  41 C :    0.006208
  42 C :    0.140161
  43 C :   -0.026511
  44 C :    0.078711
  45 C :   -0.075383
  46 S :    0.197376
  47 C :   -0.042635
  48 C :   -0.043160
  49 C :    0.018343
  50 C :   -0.188772
  51 N :    0.146631
  52 C :    0.010354
  53 C :   -0.003721
  54 C :   -0.046336
  55 C :   -0.061512
  56 C :    0.330090
  57 C :   -0.348455
  58 C :   -0.182480
  59 N :    0.150837
  60 C :   -0.194279
  61 N :    0.154143
  62 C :    0.046530
  63 C :   -0.003669
  64 C :    0.149705
  65 O :   -0.151084
  66 C :   -0.076726
  67 C :    0.096740
  68 C :    0.094797
  69 C :   -0.081843
  70 C :   -0.018308
  71 C :    0.035955
  72 C :    0.037940
  73 C :   -0.016981
  74 H :   -0.010606
  75 H :   -0.002733
  76 H :   -0.013588
  77 H :   -0.005032
  78 H :   -0.004269
  79 H :   -0.017035
  80 H :    0.034276
  81 H :    0.030783
  82 H :    0.038180
  83 H :    0.021415
  84 H :    0.031384
  85 H :    0.031484
  86 H :    0.020788
  87 H :    0.042489
  88 H :    0.007707
  89 H :    0.025063
  90 H :    0.042811
  91 H :   -0.022319
  92 H :    0.016714
  93 H :    0.002279
  94 H :    0.033962
  95 H :    0.035022
  96 H :    0.017682
  97 H :   -0.012809
  98 H :   -0.008097
  99 H :   -0.007788
 100 H :   -0.004180
 101 H :   -0.004821
 102 H :   -0.016686
Sum of atomic charges:   -0.0000000

LOEWDIN ATOMIC CHARGES
----------------------
   0 C :    0.054869
   1 C :   -0.127534
   2 C :   -0.005887
   3 N :   -0.057959
   4 C :   -0.033353
   5 N :   -0.055572
   6 C :   -0.019723
   7 C :   -0.058848
   8 C :    0.034266
   9 C :   -0.009527
  10 C :   -0.004130
  11 C :    0.016673
  12 C :   -0.007287
  13 C :   -0.011922
  14 C :   -0.013290
  15 C :   -0.008174
  16 C :    0.084323
  17 O :   -0.136224
  18 C :   -0.075384
  19 C :    0.042680
  20 C :   -0.197596
  21 S :    0.564114
  22 C :   -0.183663
  23 C :   -0.005112
  24 C :    0.016489
  25 O :   -0.002983
  26 C :   -0.063071
  27 S :    0.024016
  28 O :   -0.007806
  29 C :    0.053631
  30 N :    0.007261
  31 C :    0.036511
  32 C :   -0.059133
  33 C :    0.083543
  34 O :   -0.192423
  35 C :   -0.121148
  36 C :   -0.122584
  37 C :    0.075251
  38 O :   -0.206692
  39 N :    0.008724
  40 C :    0.037722
  41 C :   -0.060797
  42 C :    0.082042
  43 C :   -0.038337
  44 C :    0.013159
  45 C :   -0.159725
  46 S :    0.502208
  47 C :   -0.146505
  48 C :   -0.087760
  49 C :   -0.016944
  50 C :   -0.034896
  51 N :   -0.039201
  52 C :    0.006535
  53 C :   -0.020602
  54 C :    0.063478
  55 C :   -0.082850
  56 C :    0.073502
  57 C :   -0.134956
  58 C :   -0.016939
  59 N :   -0.051320
  60 C :   -0.021992
  61 N :   -0.047623
  62 C :   -0.025394
  63 C :   -0.056306
  64 C :    0.085384
  65 O :   -0.144355
  66 C :    0.033072
  67 C :   -0.008144
  68 C :   -0.005693
  69 C :    0.019703
  70 C :   -0.005062
  71 C :   -0.012607
  72 C :   -0.011419
  73 C :   -0.009480
  74 H :    0.039875
  75 H :    0.039834
  76 H :    0.033444
  77 H :    0.033154
  78 H :    0.033046
  79 H :    0.032154
  80 H :    0.055743
  81 H :    0.024321
  82 H :    0.036887
  83 H :    0.022261
  84 H :    0.034900
  85 H :    0.030378
  86 H :    0.021941
  87 H :    0.038106
  88 H :    0.019020
  89 H :    0.032536
  90 H :    0.034208
  91 H :    0.030523
  92 H :    0.039225
  93 H :    0.039849
  94 H :    0.049306
  95 H :    0.029783
  96 H :    0.044386
  97 H :    0.039076
  98 H :    0.039146
  99 H :    0.035139
 100 H :    0.033506
 101 H :    0.032963
 102 H :    0.032064

  Mayer bond orders larger than 0.100000
B(  0-C ,  1-C ) :   1.6742 B(  0-C ,  6-C ) :   1.0065 B(  0-C , 18-C ) :   1.0132
B(  1-C ,  2-C ) :   1.1475 B(  1-C ,  4-C ) :   1.1566 B(  2-C ,  3-N ) :   2.9150
B(  4-C ,  5-N ) :   3.0141 B(  6-C ,  7-C ) :   1.2121 B(  6-C , 11-C ) :   1.4633
B(  7-C ,  8-C ) :   1.4703 B(  7-C , 16-C ) :   0.9220 B(  8-C ,  9-C ) :   1.1886
B(  8-C , 74-H ) :   1.0161 B(  9-C , 10-C ) :   1.2561 B(  9-C , 15-C ) :   1.2437
B( 10-C , 11-C ) :   1.2017 B( 10-C , 12-C ) :   1.2414 B( 11-C , 75-H ) :   0.9947
B( 12-C , 13-C ) :   1.4888 B( 12-C , 76-H ) :   0.9974 B( 13-C , 14-C ) :   1.2599
B( 13-C , 77-H ) :   0.9890 B( 14-C , 15-C ) :   1.4894 B( 14-C , 78-H ) :   0.9892
B( 15-C , 79-H ) :   0.9980 B( 16-C , 17-O ) :   2.2803 B( 16-C , 18-C ) :   0.9277
B( 18-C , 19-C ) :   1.6825 B( 19-C , 20-C ) :   1.1052 B( 19-C , 80-H ) :   0.9560
B( 20-C , 21-S ) :   1.0871 B( 20-C , 22-C ) :   0.1221 B( 20-C , 24-C ) :   1.4447
B( 21-S , 22-C ) :   1.1448 B( 22-C , 23-C ) :   1.4328 B( 22-C , 29-C ) :   1.1510
B( 23-C , 24-C ) :   1.2567 B( 23-C , 28-O ) :   1.0615 B( 24-C , 25-O ) :   1.1099
B( 25-O , 26-C ) :   1.0917 B( 26-C , 27-S ) :   1.8131 B( 26-C , 28-O ) :   1.0792
B( 29-C , 30-N ) :   1.2221 B( 29-C , 36-C ) :   1.3321 B( 30-N , 31-C ) :   0.9331
B( 30-N , 33-C ) :   1.0423 B( 31-C , 32-C ) :   1.1179 B( 31-C , 81-H ) :   0.9480
B( 31-C , 82-H ) :   0.9305 B( 32-C , 83-H ) :   0.9681 B( 32-C , 84-H ) :   0.9675
B( 32-C , 85-H ) :   0.9645 B( 33-C , 34-O ) :   2.0398 B( 33-C , 35-C ) :   0.9902
B( 34-O , 92-H ) :   0.1084 B( 35-C , 36-C ) :   1.2569 B( 35-C , 42-C ) :   1.3326
B( 36-C , 37-C ) :   0.9765 B( 37-C , 38-O ) :   2.0180 B( 37-C , 39-N ) :   1.0778
B( 39-N , 40-C ) :   0.9370 B( 39-N , 42-C ) :   1.1617 B( 40-C , 41-C ) :   1.1208
B( 40-C , 86-H ) :   0.9499 B( 40-C , 87-H ) :   0.9273 B( 41-C , 88-H ) :   0.9658
B( 41-C , 89-H ) :   0.9667 B( 41-C , 90-H ) :   0.9557 B( 42-C , 43-C ) :   1.1724
B( 43-C , 44-C ) :   1.6173 B( 43-C , 91-H ) :   0.9626 B( 44-C , 45-C ) :   1.1232
B( 44-C , 92-H ) :   0.9380 B( 45-C , 46-S ) :   1.1380 B( 45-C , 49-C ) :   1.4454
B( 46-S , 47-C ) :   1.1365 B( 47-C , 48-C ) :   1.4064 B( 47-C , 52-C ) :   1.1697
B( 48-C , 49-C ) :   1.3222 B( 48-C , 50-C ) :   1.1029 B( 49-C , 93-H ) :   0.9987
B( 50-C , 51-N ) :   3.0230 B( 52-C , 53-C ) :   1.5547 B( 52-C , 94-H ) :   0.9737
B( 53-C , 54-C ) :   1.1602 B( 53-C , 95-H ) :   0.9771 B( 54-C , 55-C ) :   1.5512
B( 54-C , 96-H ) :   0.9662 B( 55-C , 56-C ) :   1.0563 B( 55-C , 64-C ) :   0.9386
B( 56-C , 57-C ) :   1.6341 B( 56-C , 62-C ) :   0.9895 B( 57-C , 58-C ) :   1.1460
B( 57-C , 60-C ) :   1.1442 B( 58-C , 59-N ) :   2.9638 B( 60-C , 61-N ) :   2.9694
B( 62-C , 63-C ) :   1.2151 B( 62-C , 69-C ) :   1.4496 B( 63-C , 64-C ) :   0.9464
B( 63-C , 66-C ) :   1.4698 B( 64-C , 65-O ) :   2.1985 B( 66-C , 67-C ) :   1.1820
B( 66-C , 97-H ) :   1.0155 B( 67-C , 68-C ) :   1.2555 B( 67-C , 73-C ) :   1.2424
B( 68-C , 69-C ) :   1.2075 B( 68-C , 70-C ) :   1.2403 B( 69-C , 98-H ) :   0.9887
B( 70-C , 71-C ) :   1.4886 B( 70-C , 99-H ) :   0.9973 B( 71-C , 72-C ) :   1.2593
B( 71-C ,100-H ) :   0.9888 B( 72-C , 73-C ) :   1.4895 B( 72-C ,101-H ) :   0.9890
B( 73-C ,102-H ) :   0.9978

-----------------------------------------------------------------------------
         ABSORPTION SPECTRUM VIA TRANSITION ELECTRIC DIPOLE MOMENTS
-----------------------------------------------------------------------------
State   Energy  Wavelength   fosc         T2         TX        TY        TZ
        (cm-1)    (nm)                  (au**2)     (au)      (au)      (au)
-----------------------------------------------------------------------------
   0   13345.0    749.3   1.036645926  25.57326  -2.42756   3.84106   2.21956
   1   18057.3    553.8   0.139079414   2.53563   0.70461  -1.21647  -0.74789
   2   22182.4    450.8   0.688889846  10.22391  -0.20053  -1.65779  -2.72680
   3   22552.4    443.4   0.177374770   2.58925   1.09720  -1.17639   0.03889
   4   23568.3    424.3   0.068136266   0.95176  -0.32091  -0.01792   0.92112
   5   24672.2    405.3   0.073984407   0.98721   0.93755  -0.30872   0.11356
   6   24746.0    404.1   0.395417634   5.26049   0.80255   0.56013   2.07428
   7   26067.5    383.6   0.000220931   0.00279   0.04029  -0.03389  -0.00430
   8   26133.6    382.6   0.099363323   1.25171  -0.22670  -0.50543  -0.97203
   9   26373.7    379.2   0.058789210   0.73384   0.30861   0.21136   0.77067
  10   27362.9    365.5   0.001092234   0.01314  -0.01916   0.09332  -0.06375
  11   27740.7    360.5   0.010902942   0.12939  -0.01002  -0.21655  -0.28705
  12   27801.5    359.7   0.119403581   1.41392   0.29465   0.66379   0.94153
  13   27960.4    357.6   0.060161764   0.70836   0.33813   0.48563   0.59850
  14   28214.8    354.4   0.022643036   0.26420  -0.41912  -0.28131  -0.09699
  15   28686.3    348.6   0.005228207   0.06000   0.13710  -0.19340  -0.06166
  16   28963.1    345.3   0.024903948   0.28307  -0.25312  -0.05341  -0.46492
  17   29514.3    338.8   0.304314140   3.39442   0.59444  -0.21337   1.73076
  18   29911.9    334.3   0.039587658   0.43570  -0.20193  -0.38457  -0.49703
  19   30802.1    324.7   0.081634539   0.87251   0.09088  -0.92956  -0.01269
  20   30833.9    324.3   0.067099276   0.71642   0.27321   0.71362   0.36403
  21   31246.4    320.0   0.056953104   0.60006   0.35181   0.42005   0.54758
  22   32305.4    309.5   0.591734660   6.03014  -0.86175   0.01397  -2.29942
  23   32519.4    307.5   0.180669713   1.82902  -1.00893  -0.89640  -0.08697
  24   32711.9    305.7   0.194627099   1.95872   0.72437   0.74978   0.93372
  25   32931.9    303.7   0.225773758   2.25700  -0.33519   1.44602  -0.23167
  26   33356.8    299.8   0.063257059   0.62431  -0.06079   0.60552   0.50394
  27   33835.8    295.5   0.000532145   0.00518  -0.02783   0.06510  -0.01286
  28   33942.7    294.6   0.135445479   1.31369   0.69958  -0.56274   0.71246
  29   34347.2    291.1   0.006828822   0.06545  -0.09558   0.21975   0.08958
  30   34554.6    289.4   0.284847928   2.71383   0.72376  -0.74303   1.27980
  31   34580.5    289.2   0.074209349   0.70649   0.27603   0.01484   0.79377
  32   34771.9    287.6   0.197091915   1.86602   0.45166   1.03302   0.77130
  33   34985.0    285.8   0.023732693   0.22333   0.47185  -0.00924  -0.02445
  34   35018.7    285.6   0.012850952   0.12081   0.15579   0.30138   0.07560
  35   35359.3    282.8   0.025717437   0.23944   0.35670   0.24400   0.22949
  36   35786.2    279.4   0.095258593   0.87632  -0.26796  -0.42837  -0.78805
  37   36229.0    276.0   0.129266835   1.17464  -0.58299  -0.85524  -0.32146
  38   36711.5    272.4   0.059768317   0.53598   0.47571   0.54182  -0.12693
  39   36852.8    271.3   0.111487184   0.99593   0.76131  -0.43922   0.47268
  40   37276.9    268.3   0.004832503   0.04268   0.06310   0.14996   0.12731
  41   37380.3    267.5   0.171854860   1.51354   0.33553   0.93903   0.72054
  42   37579.3    266.1   0.181612660   1.59101  -0.66643   0.92418  -0.54109
  43   38006.4    263.1   0.070824511   0.61348   0.68289  -0.37462  -0.08248
  44   38080.1    262.6   0.017527024   0.15153   0.05940  -0.02848   0.38365
  45   38245.6    261.5   0.053060642   0.45674  -0.08090   0.57080   0.35267
  46   38359.0    260.7   0.022616690   0.19411   0.37352  -0.23228   0.02510
  47   38651.3    258.7   0.014742782   0.12557   0.27124  -0.14363  -0.17711
  48   38936.6    256.8   0.049840052   0.42140  -0.48625   0.36992  -0.21937
  49   39055.2    256.0   0.009036339   0.07617  -0.16724  -0.17552  -0.13189
  50   39254.6    254.7   0.001419792   0.01191   0.10118   0.00976   0.03968
  51   39398.8    253.8   0.043842404   0.36634  -0.10095   0.59582   0.03383
  52   39694.6    251.9   0.019690156   0.16330   0.17721  -0.34296   0.11950
  53   39762.7    251.5   0.023959135   0.19837   0.14877  -0.40220   0.12028
  54   39786.1    251.3   0.020823176   0.17230   0.20041  -0.29700   0.20959
  55   39910.7    250.6   0.047664976   0.39318  -0.30187   0.29867   0.46136
  56   40010.0    249.9   0.189797008   1.56169   0.44604  -1.04162  -0.52703

FINAL SINGLE POINT ENERGY     -4252.519814304969

DIPOLE MOMENT
-------------
                                X             Y             Z
Electronic contribution:     17.77026      -6.71971      -0.18670
Nuclear contribution   :    -18.85569       3.54405       1.14383
                        -----------------------------------------
Total Dipole Moment    :     -1.08543      -3.17566       0.95713
                        -----------------------------------------
Magnitude (a.u.)       :      3.48986
Magnitude (Debye)      :      8.87051

Rotational constants in cm-1:     0.001547     0.000254     0.000227
Rotational constants in MHz :    46.372941     7.615460     6.805160

                             ****ORCA TERMINATED NORMALLY****
TOTAL RUN TIME: 0 days 0 hours 11 minutes 30 seconds 734 msec
