                         Program Version 4.2.0 -  RELEASE  -
|  1> # ORCA input file
|  2> # SCF done       -211.696517050621          0.000902476656
|  3> ! CAM-B3LYP def2-SVP def2/J RIJCOSX Grid4 TightSCF
|  4> %maxcore 5000
|  5> %tddft
|  6>     Mode sTDDFT
|  7>     Ethresh 5.0
|  8>     maxcore 5000
|  9> end
| 10>
| 11> %pal
| 12>   nprocs 6
| 13>   end
| 14> * xyz 0 1
| 15>    C       -0.35218         1.76636         2.06144
| 16>    C        0.56475         2.77110         1.93430
| 17>    C        1.46961         3.13838         2.95273
| 18>    N        2.22023         3.47906         3.75102
| 19>    C        0.78387         3.50314         0.74853
| 20>    N        1.05972         4.08548        -0.20202
| 21>    C       -0.44340         0.83273         3.17721
| 22>    C       -1.15624        -0.32685         2.74843
| 23>    C       -1.36582        -1.39002         3.57993
| 24>    C       -0.87186        -1.33836         4.90203
| 25>    C       -0.17257        -0.17640         5.34223
| 26>    C        0.03383         0.90770         4.45899
| 27>    C        0.30857        -0.13615         6.66703
| 28>    C        0.11216        -1.19128         7.51569
| 29>    C       -0.57545        -2.33464         7.08093
| 30>    C       -1.05655        -2.40678         5.80199
| 31>    C       -1.59564        -0.14635         1.35600
| 32>    O       -2.16230        -0.93264         0.63653
| 33>    C       -1.24428         1.27247         1.02392
| 34>    C       -1.86038         1.88649        -0.00707
| 35>    C       -1.90953         3.29816        -0.27898
| 36>    N       -1.74690         4.16047         0.71244
| 37>    N       -1.80706         5.44630         0.56008
| 38>    C       -1.96855         6.01610        -0.62362
| 39>    C       -2.10657         5.20396        -1.77877
| 40>    C       -2.14024         3.78569        -1.59166
| 41>    N       -2.29925         3.13289        -2.74060
| 42>    S       -2.36890         4.21307        -3.92878
| 43>    N       -2.19370         5.54497        -3.06041
| 44>    C       -2.08793         7.44439        -0.74405
| 45>    N       -1.40911         8.36891        -0.01161
| 46>    C       -0.38278         8.09499         0.96779
| 47>    C        0.91250         7.62304         0.31479
| 48>    C       -1.76938         9.68696        -0.38097
| 49>    O       -1.29082        10.67986         0.11959
| 50>    C       -2.77850         9.50033        -1.40426
| 51>    C       -2.94724         8.11014        -1.60823
| 52>    C       -4.03731         7.92668        -2.54412
| 53>    O       -4.56864         6.94168        -3.00783
| 54>    N       -4.44809         9.24083        -2.85774
| 55>    C       -5.49521         9.43785        -3.83171
| 56>    C       -6.88142         9.39599        -3.19024
| 57>    C       -3.71411        10.18732        -2.17807
| 58>    C       -3.82713        11.59808        -2.21252
| 59>    C       -4.88769        12.34969        -2.61852
| 60>    C       -4.89329        13.76074        -2.62946
| 61>    S       -3.45981        14.70050        -2.42017
| 62>    C       -4.31751        16.20083        -2.59779
| 63>    C       -5.70499        15.96384        -2.80734
| 64>    C       -6.02587        14.57828        -2.84304
| 65>    C       -7.35133        14.16651        -3.04829
| 66>    C       -8.33282        15.10907        -3.21156
| 67>    C       -9.76143        14.69412        -3.43235
| 68>    F       -9.90478        13.35827        -3.45770
| 69>    F      -10.58023        15.14065        -2.46784
| 70>    F      -10.25109        15.14403        -4.59828
| 71>    C       -8.02243        16.49255        -3.17134
| 72>    C       -9.04727        17.45691        -3.33530
| 73>    N       -9.86654        18.24523        -3.46823
| 74>    C       -6.72186        16.91318        -2.97226
| 75>    C       -3.76855        17.48566        -2.55697
| 76>    C       -2.46410        17.89511        -2.42270
| 77>    C       -2.00420        19.27013        -2.40523
| 78>    C       -2.77605        20.40488        -2.44311
| 79>    C       -2.25463        21.71545        -2.41696
| 80>    N       -1.89534        22.80543        -2.40188
| 81>    C       -4.18374        20.43569        -2.50892
| 82>    N       -5.32783        20.53032        -2.56292
| 83>    C       -0.54654        19.24274        -2.32909
| 84>    C       -0.11929        17.88375        -2.28177
| 85>    C       -1.29730        17.00979        -2.32644
| 86>    O       -1.30596        15.78972        -2.30160
| 87>    C        1.19991        17.54015        -2.21327
| 88>    C        2.17543        18.56217        -2.19104
| 89>    C        1.75851        19.92384        -2.23764
| 90>    C        0.38312        20.24775        -2.30593
| 91>    C        2.73973        20.93516        -2.21670
| 92>    C        4.07000        20.61864        -2.15421
| 93>    C        4.47923        19.27787        -2.10936
| 94>    C        3.55187        18.27103        -2.12671
| 95>    H       -1.90345        -2.25986         3.23280
| 96>    H        0.55526         1.78015         4.82073
| 97>    H        0.83962         0.74456         6.99679
| 98>    H        0.48592        -1.15129         8.52777
| 99>    H       -0.72221        -3.15730         7.76455
|100>    H       -1.58676        -3.28398         5.46126
|101>    H       -2.41947         1.25864        -0.69190
|102>    H       -0.75230         7.33880         1.66344
|103>    H       -0.21560         9.03721         1.49651
|104>    H        0.77039         6.66620        -0.18290
|105>    H        1.67755         7.49835         1.07576
|106>    H        1.25926         8.35303        -0.41315
|107>    H       -5.41518         8.61038        -4.54356
|108>    H       -5.31878        10.37524        -4.36320
|109>    H       -7.06449         8.40237        -2.78983
|110>    H       -7.64281         9.61655        -3.93352
|111>    H       -6.96490        10.11002        -2.37323
|112>    H       -2.96415        12.10740        -1.80055
|113>    H       -5.80967        11.87506        -2.91483
|114>    H       -7.60275        13.11826        -3.07480
|115>    H       -6.51917        17.97309        -2.94233
|116>    H       -4.50201        18.27190        -2.66545
|117>    H        1.49538        16.50209        -2.17798
|118>    H        0.10292        21.28834        -2.34141
|119>    H        2.41999        21.96627        -2.25137
|120>    H        4.81402        21.40082        -2.13917
|121>    H        5.53263        19.04616        -2.06095
|122>    H        3.86078        17.23658        -2.09196
|123> *
|124>
|125>                          ****END OF INPUT****

CARTESIAN COORDINATES (ANGSTROEM)
---------------------------------
  C     -0.352180    1.766360    2.061440
  C      0.564750    2.771100    1.934300
  C      1.469610    3.138380    2.952730
  N      2.220230    3.479060    3.751020
  C      0.783870    3.503140    0.748530
  N      1.059720    4.085480   -0.202020
  C     -0.443400    0.832730    3.177210
  C     -1.156240   -0.326850    2.748430
  C     -1.365820   -1.390020    3.579930
  C     -0.871860   -1.338360    4.902030
  C     -0.172570   -0.176400    5.342230
  C      0.033830    0.907700    4.458990
  C      0.308570   -0.136150    6.667030
  C      0.112160   -1.191280    7.515690
  C     -0.575450   -2.334640    7.080930
  C     -1.056550   -2.406780    5.801990
  C     -1.595640   -0.146350    1.356000
  O     -2.162300   -0.932640    0.636530
  C     -1.244280    1.272470    1.023920
  C     -1.860380    1.886490   -0.007070
  C     -1.909530    3.298160   -0.278980
  N     -1.746900    4.160470    0.712440
  N     -1.807060    5.446300    0.560080
  C     -1.968550    6.016100   -0.623620
  C     -2.106570    5.203960   -1.778770
  C     -2.140240    3.785690   -1.591660
  N     -2.299250    3.132890   -2.740600
  S     -2.368900    4.213070   -3.928780
  N     -2.193700    5.544970   -3.060410
  C     -2.087930    7.444390   -0.744050
  N     -1.409110    8.368910   -0.011610
  C     -0.382780    8.094990    0.967790
  C      0.912500    7.623040    0.314790
  C     -1.769380    9.686960   -0.380970
  O     -1.290820   10.679860    0.119590
  C     -2.778500    9.500330   -1.404260
  C     -2.947240    8.110140   -1.608230
  C     -4.037310    7.926680   -2.544120
  O     -4.568640    6.941680   -3.007830
  N     -4.448090    9.240830   -2.857740
  C     -5.495210    9.437850   -3.831710
  C     -6.881420    9.395990   -3.190240
  C     -3.714110   10.187320   -2.178070
  C     -3.827130   11.598080   -2.212520
  C     -4.887690   12.349690   -2.618520
  C     -4.893290   13.760740   -2.629460
  S     -3.459810   14.700500   -2.420170
  C     -4.317510   16.200830   -2.597790
  C     -5.704990   15.963840   -2.807340
  C     -6.025870   14.578280   -2.843040
  C     -7.351330   14.166510   -3.048290
  C     -8.332820   15.109070   -3.211560
  C     -9.761430   14.694120   -3.432350
  F     -9.904780   13.358270   -3.457700
  F    -10.580230   15.140650   -2.467840
  F    -10.251090   15.144030   -4.598280
  C     -8.022430   16.492550   -3.171340
  C     -9.047270   17.456910   -3.335300
  N     -9.866540   18.245230   -3.468230
  C     -6.721860   16.913180   -2.972260
  C     -3.768550   17.485660   -2.556970
  C     -2.464100   17.895110   -2.422700
  C     -2.004200   19.270130   -2.405230
  C     -2.776050   20.404880   -2.443110
  C     -2.254630   21.715450   -2.416960
  N     -1.895340   22.805430   -2.401880
  C     -4.183740   20.435690   -2.508920
  N     -5.327830   20.530320   -2.562920
  C     -0.546540   19.242740   -2.329090
  C     -0.119290   17.883750   -2.281770
  C     -1.297300   17.009790   -2.326440
  O     -1.305960   15.789720   -2.301600
  C      1.199910   17.540150   -2.213270
  C      2.175430   18.562170   -2.191040
  C      1.758510   19.923840   -2.237640
  C      0.383120   20.247750   -2.305930
  C      2.739730   20.935160   -2.216700
  C      4.070000   20.618640   -2.154210
  C      4.479230   19.277870   -2.109360
  C      3.551870   18.271030   -2.126710
  H     -1.903450   -2.259860    3.232800
  H      0.555260    1.780150    4.820730
  H      0.839620    0.744560    6.996790
  H      0.485920   -1.151290    8.527770
  H     -0.722210   -3.157300    7.764550
  H     -1.586760   -3.283980    5.461260
  H     -2.419470    1.258640   -0.691900
  H     -0.752300    7.338800    1.663440
  H     -0.215600    9.037210    1.496510
  H      0.770390    6.666200   -0.182900
  H      1.677550    7.498350    1.075760
  H      1.259260    8.353030   -0.413150
  H     -5.415180    8.610380   -4.543560
  H     -5.318780   10.375240   -4.363200
  H     -7.064490    8.402370   -2.789830
  H     -7.642810    9.616550   -3.933520
  H     -6.964900   10.110020   -2.373230
  H     -2.964150   12.107400   -1.800550
  H     -5.809670   11.875060   -2.914830
  H     -7.602750   13.118260   -3.074800
  H     -6.519170   17.973090   -2.942330
  H     -4.502010   18.271900   -2.665450
  H      1.495380   16.502090   -2.177980
  H      0.102920   21.288340   -2.341410
  H      2.419990   21.966270   -2.251370
  H      4.814020   21.400820   -2.139170
  H      5.532630   19.046160   -2.060950
  H      3.860780   17.236580   -2.091960

 Total Charge           Charge          ....    0
 Multiplicity           Mult            ....    1
 Number of Electrons    NEL             ....  556
 Basis Dimension        Dim             .... 1268

ORBITAL ENERGIES
----------------

  NO   OCC          E(Eh)            E(eV)
   0   2.0000     -89.052028     -2423.2289
   1   2.0000     -88.995011     -2421.6774
   2   2.0000     -24.807987      -675.0597
   3   2.0000     -24.800848      -674.8654
   4   2.0000     -24.800649      -674.8600
   5   2.0000     -19.226975      -523.1926
   6   2.0000     -19.224633      -523.1289
   7   2.0000     -19.200592      -522.4747
   8   2.0000     -19.199383      -522.4418
   9   2.0000     -14.464953      -393.6114
  10   2.0000     -14.463409      -393.5694
  11   2.0000     -14.462819      -393.5533
  12   2.0000     -14.462668      -393.5492
  13   2.0000     -14.461868      -393.5274
  14   2.0000     -14.461351      -393.5134
  15   2.0000     -14.424566      -392.5124
  16   2.0000     -14.423275      -392.4773
  17   2.0000     -14.422217      -392.4485
  18   2.0000     -14.415936      -392.2776
  19   2.0000     -14.410511      -392.1299
  20   2.0000     -10.525618      -286.4166
  21   2.0000     -10.385237      -282.5967
  22   2.0000     -10.382914      -282.5335
  23   2.0000     -10.375024      -282.3188
  24   2.0000     -10.374386      -282.3014
  25   2.0000     -10.354967      -281.7730
  26   2.0000     -10.354082      -281.7489
  27   2.0000     -10.353187      -281.7246
  28   2.0000     -10.351454      -281.6774
  29   2.0000     -10.351186      -281.6701
  30   2.0000     -10.349281      -281.6183
  31   2.0000     -10.348297      -281.5915
  32   2.0000     -10.347208      -281.5618
  33   2.0000     -10.344932      -281.4999
  34   2.0000     -10.344319      -281.4832
  35   2.0000     -10.339450      -281.3507
  36   2.0000     -10.336743      -281.2771
  37   2.0000     -10.335609      -281.2462
  38   2.0000     -10.330266      -281.1008
  39   2.0000     -10.328109      -281.0421
  40   2.0000     -10.326407      -280.9958
  41   2.0000     -10.324938      -280.9559
  42   2.0000     -10.324001      -280.9303
  43   2.0000     -10.322459      -280.8884
  44   2.0000     -10.322205      -280.8815
  45   2.0000     -10.319916      -280.8192
  46   2.0000     -10.319579      -280.8100
  47   2.0000     -10.319439      -280.8062
  48   2.0000     -10.319124      -280.7976
  49   2.0000     -10.318222      -280.7731
  50   2.0000     -10.317528      -280.7542
  51   2.0000     -10.315044      -280.6866
  52   2.0000     -10.314783      -280.6795
  53   2.0000     -10.310277      -280.5569
  54   2.0000     -10.308326      -280.5038
  55   2.0000     -10.305579      -280.4291
  56   2.0000     -10.304990      -280.4130
  57   2.0000     -10.303826      -280.3814
  58   2.0000     -10.303709      -280.3782
  59   2.0000     -10.303273      -280.3663
  60   2.0000     -10.302649      -280.3493
  61   2.0000     -10.300272      -280.2846
  62   2.0000     -10.300024      -280.2779
  63   2.0000     -10.299773      -280.2711
  64   2.0000     -10.299147      -280.2540
  65   2.0000     -10.296329      -280.1774
  66   2.0000     -10.296141      -280.1722
  67   2.0000     -10.292185      -280.0646
  68   2.0000     -10.291614      -280.0490
  69   2.0000     -10.291162      -280.0368
  70   2.0000     -10.290897      -280.0295
  71   2.0000     -10.290325      -280.0140
  72   2.0000     -10.288597      -279.9670
  73   2.0000     -10.288166      -279.9552
  74   2.0000     -10.287936      -279.9490
  75   2.0000     -10.287428      -279.9352
  76   2.0000     -10.277231      -279.6577
  77   2.0000     -10.276347      -279.6336
  78   2.0000     -10.273439      -279.5545
  79   2.0000     -10.251111      -278.9469
  80   2.0000      -8.143407      -221.5934
  81   2.0000      -8.087443      -220.0705
  82   2.0000      -6.114399      -166.3812
  83   2.0000      -6.106539      -166.1674
  84   2.0000      -6.106380      -166.1630
  85   2.0000      -6.056472      -164.8050
  86   2.0000      -6.051861      -164.6795
  87   2.0000      -6.050614      -164.6456
  88   2.0000      -1.393754       -37.9260
  89   2.0000      -1.297136       -35.2969
  90   2.0000      -1.293228       -35.1905
  91   2.0000      -1.157981       -31.5103
  92   2.0000      -1.143108       -31.1055
  93   2.0000      -1.142115       -31.0785
  94   2.0000      -1.140038       -31.0220
  95   2.0000      -1.137838       -30.9622
  96   2.0000      -1.134208       -30.8634
  97   2.0000      -1.074324       -29.2338
  98   2.0000      -1.065415       -28.9914
  99   2.0000      -1.031523       -28.0692
 100   2.0000      -1.025945       -27.9174
 101   2.0000      -1.022541       -27.8248
 102   2.0000      -1.007526       -27.4162
 103   2.0000      -1.005757       -27.3680
 104   2.0000      -1.003542       -27.3078
 105   2.0000      -1.001055       -27.2401
 106   2.0000      -1.000088       -27.2138
 107   2.0000      -0.997061       -27.1314
 108   2.0000      -0.978961       -26.6389
 109   2.0000      -0.975688       -26.5498
 110   2.0000      -0.971971       -26.4487
 111   2.0000      -0.957957       -26.0673
 112   2.0000      -0.942822       -25.6555
 113   2.0000      -0.939382       -25.5619
 114   2.0000      -0.933233       -25.3946
 115   2.0000      -0.927640       -25.2424
 116   2.0000      -0.925736       -25.1906
 117   2.0000      -0.908724       -24.7276
 118   2.0000      -0.903519       -24.5860
 119   2.0000      -0.898039       -24.4369
 120   2.0000      -0.887527       -24.1508
 121   2.0000      -0.887157       -24.1408
 122   2.0000      -0.883429       -24.0393
 123   2.0000      -0.880185       -23.9511
 124   2.0000      -0.873655       -23.7734
 125   2.0000      -0.871067       -23.7029
 126   2.0000      -0.847450       -23.0603
 127   2.0000      -0.834348       -22.7038
 128   2.0000      -0.834001       -22.6943
 129   2.0000      -0.831149       -22.6167
 130   2.0000      -0.823888       -22.4191
 131   2.0000      -0.816821       -22.2268
 132   2.0000      -0.802874       -21.8473
 133   2.0000      -0.798744       -21.7349
 134   2.0000      -0.784046       -21.3350
 135   2.0000      -0.775559       -21.1040
 136   2.0000      -0.767403       -20.8821
 137   2.0000      -0.766814       -20.8661
 138   2.0000      -0.764756       -20.8101
 139   2.0000      -0.757614       -20.6157
 140   2.0000      -0.755483       -20.5577
 141   2.0000      -0.736894       -20.0519
 142   2.0000      -0.727429       -19.7944
 143   2.0000      -0.723691       -19.6926
 144   2.0000      -0.715192       -19.4614
 145   2.0000      -0.712212       -19.3803
 146   2.0000      -0.707912       -19.2633
 147   2.0000      -0.707093       -19.2410
 148   2.0000      -0.702972       -19.1288
 149   2.0000      -0.699344       -19.0301
 150   2.0000      -0.692486       -18.8435
 151   2.0000      -0.690522       -18.7900
 152   2.0000      -0.683259       -18.5924
 153   2.0000      -0.681221       -18.5370
 154   2.0000      -0.677008       -18.4223
 155   2.0000      -0.675566       -18.3831
 156   2.0000      -0.674928       -18.3657
 157   2.0000      -0.668165       -18.1817
 158   2.0000      -0.657215       -17.8837
 159   2.0000      -0.654290       -17.8041
 160   2.0000      -0.645133       -17.5550
 161   2.0000      -0.638117       -17.3640
 162   2.0000      -0.636351       -17.3160
 163   2.0000      -0.634016       -17.2524
 164   2.0000      -0.621514       -16.9122
 165   2.0000      -0.614511       -16.7217
 166   2.0000      -0.613470       -16.6934
 167   2.0000      -0.610719       -16.6185
 168   2.0000      -0.608846       -16.5675
 169   2.0000      -0.604442       -16.4477
 170   2.0000      -0.600998       -16.3540
 171   2.0000      -0.596463       -16.2306
 172   2.0000      -0.591821       -16.1043
 173   2.0000      -0.582428       -15.8487
 174   2.0000      -0.580221       -15.7886
 175   2.0000      -0.577508       -15.7148
 176   2.0000      -0.571200       -15.5431
 177   2.0000      -0.569911       -15.5081
 178   2.0000      -0.564974       -15.3737
 179   2.0000      -0.559205       -15.2167
 180   2.0000      -0.555049       -15.1036
 181   2.0000      -0.554655       -15.0929
 182   2.0000      -0.553003       -15.0480
 183   2.0000      -0.552032       -15.0216
 184   2.0000      -0.551536       -15.0081
 185   2.0000      -0.549911       -14.9638
 186   2.0000      -0.546735       -14.8774
 187   2.0000      -0.544843       -14.8259
 188   2.0000      -0.544079       -14.8051
 189   2.0000      -0.542784       -14.7699
 190   2.0000      -0.540292       -14.7021
 191   2.0000      -0.537876       -14.6363
 192   2.0000      -0.535708       -14.5773
 193   2.0000      -0.533636       -14.5210
 194   2.0000      -0.532382       -14.4868
 195   2.0000      -0.532275       -14.4839
 196   2.0000      -0.525881       -14.3099
 197   2.0000      -0.524779       -14.2800
 198   2.0000      -0.521793       -14.1987
 199   2.0000      -0.519281       -14.1303
 200   2.0000      -0.517767       -14.0891
 201   2.0000      -0.515218       -14.0198
 202   2.0000      -0.513704       -13.9786
 203   2.0000      -0.513223       -13.9655
 204   2.0000      -0.512152       -13.9364
 205   2.0000      -0.510730       -13.8977
 206   2.0000      -0.507826       -13.8187
 207   2.0000      -0.506414       -13.7802
 208   2.0000      -0.502726       -13.6799
 209   2.0000      -0.501490       -13.6462
 210   2.0000      -0.500556       -13.6208
 211   2.0000      -0.497685       -13.5427
 212   2.0000      -0.494170       -13.4470
 213   2.0000      -0.491491       -13.3742
 214   2.0000      -0.490198       -13.3390
 215   2.0000      -0.488600       -13.2955
 216   2.0000      -0.483412       -13.1543
 217   2.0000      -0.479664       -13.0523
 218   2.0000      -0.478108       -13.0100
 219   2.0000      -0.477172       -12.9845
 220   2.0000      -0.473950       -12.8968
 221   2.0000      -0.471551       -12.8316
 222   2.0000      -0.468382       -12.7453
 223   2.0000      -0.468159       -12.7393
 224   2.0000      -0.466355       -12.6902
 225   2.0000      -0.463886       -12.6230
 226   2.0000      -0.462596       -12.5879
 227   2.0000      -0.455102       -12.3839
 228   2.0000      -0.454139       -12.3577
 229   2.0000      -0.451970       -12.2987
 230   2.0000      -0.450694       -12.2640
 231   2.0000      -0.450014       -12.2455
 232   2.0000      -0.448027       -12.1914
 233   2.0000      -0.445782       -12.1303
 234   2.0000      -0.444288       -12.0897
 235   2.0000      -0.441061       -12.0019
 236   2.0000      -0.439839       -11.9686
 237   2.0000      -0.438801       -11.9404
 238   2.0000      -0.438109       -11.9215
 239   2.0000      -0.437629       -11.9085
 240   2.0000      -0.437235       -11.8978
 241   2.0000      -0.436640       -11.8816
 242   2.0000      -0.433002       -11.7826
 243   2.0000      -0.431483       -11.7412
 244   2.0000      -0.429842       -11.6966
 245   2.0000      -0.429298       -11.6818
 246   2.0000      -0.425995       -11.5919
 247   2.0000      -0.420055       -11.4303
 248   2.0000      -0.418667       -11.3925
 249   2.0000      -0.417294       -11.3551
 250   2.0000      -0.416069       -11.3218
 251   2.0000      -0.412746       -11.2314
 252   2.0000      -0.412583       -11.2269
 253   2.0000      -0.409388       -11.1400
 254   2.0000      -0.405354       -11.0302
 255   2.0000      -0.402158       -10.9433
 256   2.0000      -0.398660       -10.8481
 257   2.0000      -0.392287       -10.6747
 258   2.0000      -0.385005       -10.4765
 259   2.0000      -0.379885       -10.3372
 260   2.0000      -0.378410       -10.2971
 261   2.0000      -0.367849       -10.0097
 262   2.0000      -0.362441        -9.8625
 263   2.0000      -0.354818        -9.6551
 264   2.0000      -0.350561        -9.5393
 265   2.0000      -0.344980        -9.3874
 266   2.0000      -0.344443        -9.3728
 267   2.0000      -0.340260        -9.2589
 268   2.0000      -0.339964        -9.2509
 269   2.0000      -0.328114        -8.9284
 270   2.0000      -0.325974        -8.8702
 271   2.0000      -0.323558        -8.8045
 272   2.0000      -0.320801        -8.7294
 273   2.0000      -0.315712        -8.5910
 274   2.0000      -0.298677        -8.1274
 275   2.0000      -0.298243        -8.1156
 276   2.0000      -0.283669        -7.7190
 277   2.0000      -0.248835        -6.7711
 278   0.0000      -0.129551        -3.5253
 279   0.0000      -0.110829        -3.0158
 280   0.0000      -0.081234        -2.2105
 281   0.0000      -0.069716        -1.8971
 282   0.0000      -0.061490        -1.6732

MULLIKEN ATOMIC CHARGES
-----------------------
   0 C :    0.296896
   1 C :   -0.299038
   2 C :   -0.189319
   3 N :    0.155714
   4 C :   -0.149854
   5 N :    0.139805
   6 C :    0.036624
   7 C :    0.009794
   8 C :   -0.078464
   9 C :    0.095790
  10 C :    0.095548
  11 C :   -0.077723
  12 C :   -0.016350
  13 C :    0.038601
  14 C :    0.035674
  15 C :   -0.014316
  16 C :    0.132249
  17 O :   -0.129119
  18 C :   -0.083479
  19 C :    0.011644
  20 C :   -0.060237
  21 N :   -0.065585
  22 N :   -0.024529
  23 C :   -0.094288
  24 C :    0.064646
  25 C :    0.064898
  26 N :   -0.246703
  27 S :    0.563470
  28 N :   -0.208516
  29 C :    0.088239
  30 N :   -0.248393
  31 C :    0.114905
  32 C :   -0.015117
  33 C :    0.152613
  34 O :   -0.171577
  35 C :   -0.057318
  36 C :   -0.016865
  37 C :    0.136366
  38 O :   -0.191650
  39 N :   -0.269769
  40 C :    0.103438
  41 C :   -0.000783
  42 C :    0.112740
  43 C :   -0.018676
  44 C :   -0.009088
  45 C :   -0.060249
  46 S :    0.249607
  47 C :   -0.072655
  48 C :    0.124477
  49 C :    0.135467
  50 C :   -0.077018
  51 C :   -0.061633
  52 C :    0.528261
  53 F :   -0.158078
  54 F :   -0.153667
  55 F :   -0.154701
  56 C :   -0.072186
  57 C :   -0.164642
  58 N :    0.149277
  59 C :   -0.050410
  60 C :   -0.033597
  61 C :   -0.092298
  62 C :    0.325646
  63 C :   -0.350652
  64 C :   -0.183217
  65 N :    0.150864
  66 C :   -0.183792
  67 N :    0.147284
  68 C :    0.043298
  69 C :   -0.005557
  70 C :    0.170013
  71 O :   -0.188351
  72 C :   -0.075489
  73 C :    0.094198
  74 C :    0.093931
  75 C :   -0.079659
  76 C :   -0.018550
  77 C :    0.034706
  78 C :    0.035507
  79 C :   -0.013190
  80 H :   -0.009373
  81 H :   -0.002833
  82 H :   -0.009160
  83 H :   -0.002809
  84 H :   -0.002410
  85 H :   -0.015941
  86 H :    0.033944
  87 H :    0.040285
  88 H :    0.036701
  89 H :    0.034055
  90 H :    0.025974
  91 H :    0.016603
  92 H :    0.037859
  93 H :    0.025457
  94 H :    0.037514
  95 H :    0.027730
  96 H :    0.019949
  97 H :    0.031266
  98 H :   -0.021821
  99 H :   -0.006475
 100 H :    0.020437
 101 H :   -0.016456
 102 H :   -0.010497
 103 H :   -0.006670
 104 H :   -0.008052
 105 H :   -0.002153
 106 H :   -0.003178
 107 H :   -0.015789
Sum of atomic charges:   -0.0000000

LOEWDIN ATOMIC CHARGES
----------------------
   0 C :    0.075403
   1 C :   -0.114592
   2 C :   -0.016773
   3 N :   -0.045686
   4 C :   -0.005099
   5 N :   -0.058958
   6 C :   -0.021270
   7 C :   -0.059153
   8 C :    0.035795
   9 C :   -0.008125
  10 C :   -0.003577
  11 C :    0.019123
  12 C :   -0.005404
  13 C :   -0.010266
  14 C :   -0.011119
  15 C :   -0.008098
  16 C :    0.084976
  17 O :   -0.129382
  18 C :   -0.043034
  19 C :    0.054735
  20 C :   -0.011363
  21 N :   -0.032046
  22 N :   -0.032789
  23 C :   -0.006356
  24 C :   -0.049257
  25 C :   -0.051614
  26 N :   -0.273275
  27 S :    0.704369
  28 N :   -0.241234
  29 C :    0.077717
  30 N :    0.014627
  31 C :    0.035033
  32 C :   -0.062892
  33 C :    0.080745
  34 O :   -0.177920
  35 C :   -0.105524
  36 C :   -0.107472
  37 C :    0.084388
  38 O :   -0.192228
  39 N :   -0.004998
  40 C :    0.035495
  41 C :   -0.063952
  42 C :    0.071519
  43 C :   -0.008794
  44 C :   -0.030350
  45 C :   -0.155529
  46 S :    0.586666
  47 C :   -0.184732
  48 C :   -0.017268
  49 C :   -0.043057
  50 C :    0.014869
  51 C :   -0.064752
  52 C :    0.169802
  53 F :   -0.058731
  54 F :   -0.052109
  55 F :   -0.052968
  56 C :   -0.044144
  57 C :   -0.040382
  58 N :   -0.025652
  59 C :    0.031076
  60 C :    0.045868
  61 C :   -0.100605
  62 C :    0.076733
  63 C :   -0.143650
  64 C :   -0.018002
  65 N :   -0.052378
  66 C :   -0.016564
  67 N :   -0.056188
  68 C :   -0.025395
  69 C :   -0.056073
  70 C :    0.085024
  71 O :   -0.173122
  72 C :    0.034241
  73 C :   -0.008770
  74 C :   -0.005974
  75 C :    0.020952
  76 C :   -0.004893
  77 C :   -0.012136
  78 C :   -0.011374
  79 C :   -0.008668
  80 H :    0.040400
  81 H :    0.039797
  82 H :    0.035014
  83 H :    0.034140
  84 H :    0.033760
  85 H :    0.032579
  86 H :    0.054210
  87 H :    0.027803
  88 H :    0.033288
  89 H :    0.021975
  90 H :    0.033501
  91 H :    0.026083
  92 H :    0.037006
  93 H :    0.023764
  94 H :    0.036416
  95 H :    0.032016
  96 H :    0.019210
  97 H :    0.045729
  98 H :    0.033750
  99 H :    0.036146
 100 H :    0.047950
 101 H :    0.047276
 102 H :    0.040048
 103 H :    0.039646
 104 H :    0.035226
 105 H :    0.033945
 106 H :    0.033450
 107 H :    0.032427

  Mayer bond orders larger than 0.100000
B(  0-C ,  1-C ) :   1.6936 B(  0-C ,  6-C ) :   1.0045 B(  0-C , 18-C ) :   1.0001
B(  1-C ,  2-C ) :   1.1357 B(  1-C ,  4-C ) :   1.1630 B(  2-C ,  3-N ) :   2.9869
B(  4-C ,  5-N ) :   2.9252 B(  6-C ,  7-C ) :   1.2112 B(  6-C , 11-C ) :   1.4528
B(  7-C ,  8-C ) :   1.4680 B(  7-C , 16-C ) :   0.9238 B(  8-C ,  9-C ) :   1.1907
B(  8-C , 80-H ) :   1.0155 B(  9-C , 10-C ) :   1.2538 B(  9-C , 15-C ) :   1.2433
B( 10-C , 11-C ) :   1.2098 B( 10-C , 12-C ) :   1.2400 B( 11-C , 81-H ) :   0.9925
B( 12-C , 13-C ) :   1.4916 B( 12-C , 82-H ) :   0.9972 B( 13-C , 14-C ) :   1.2594
B( 13-C , 83-H ) :   0.9881 B( 14-C , 15-C ) :   1.4914 B( 14-C , 84-H ) :   0.9884
B( 15-C , 85-H ) :   0.9974 B( 16-C , 17-O ) :   2.2865 B( 16-C , 18-C ) :   0.9164
B( 18-C , 19-C ) :   1.7214 B( 19-C , 20-C ) :   1.0722 B( 19-C , 86-H ) :   0.9509
B( 20-C , 21-N ) :   1.5961 B( 20-C , 23-C ) :   0.1147 B( 20-C , 25-C ) :   1.1126
B( 21-N , 22-N ) :   1.2372 B( 22-N , 23-C ) :   1.6617 B( 23-C , 24-C ) :   1.1390
B( 23-C , 29-C ) :   1.0341 B( 24-C , 25-C ) :   1.1966 B( 24-C , 28-N ) :   1.5483
B( 25-C , 26-N ) :   1.5645 B( 26-N , 27-S ) :   1.2869 B( 26-N , 28-N ) :   0.1446
B( 27-S , 28-N ) :   1.3071 B( 29-C , 30-N ) :   1.2586 B( 29-C , 36-C ) :   1.4211
B( 30-N , 31-C ) :   0.9291 B( 30-N , 33-C ) :   1.0161 B( 31-C , 32-C ) :   1.1223
B( 31-C , 87-H ) :   0.9371 B( 31-C , 88-H ) :   0.9289 B( 32-C , 89-H ) :   0.9615
B( 32-C , 90-H ) :   0.9662 B( 32-C , 91-H ) :   0.9628 B( 33-C , 34-O ) :   2.1561
B( 33-C , 35-C ) :   0.9730 B( 35-C , 36-C ) :   1.2291 B( 35-C , 42-C ) :   1.3498
B( 36-C , 37-C ) :   0.9594 B( 37-C , 38-O ) :   2.1335 B( 37-C , 39-N ) :   1.0385
B( 39-N , 40-C ) :   0.9438 B( 39-N , 42-C ) :   1.1702 B( 40-C , 41-C ) :   1.1138
B( 40-C , 92-H ) :   0.9283 B( 40-C , 93-H ) :   0.9509 B( 41-C , 94-H ) :   0.9585
B( 41-C , 95-H ) :   0.9691 B( 41-C , 96-H ) :   0.9634 B( 42-C , 43-C ) :   1.1931
B( 43-C , 44-C ) :   1.5587 B( 43-C , 97-H ) :   0.9502 B( 44-C , 45-C ) :   1.2058
B( 44-C , 98-H ) :   0.9692 B( 45-C , 46-S ) :   1.1669 B( 45-C , 49-C ) :   1.2402
B( 46-S , 47-C ) :   1.1206 B( 47-C , 48-C ) :   1.2169 B( 47-C , 60-C ) :   1.3065
B( 48-C , 49-C ) :   1.2449 B( 48-C , 59-C ) :   1.2150 B( 49-C , 50-C ) :   1.2098
B( 50-C , 51-C ) :   1.5349 B( 50-C , 99-H ) :   0.9909 B( 51-C , 52-C ) :   0.9374
B( 51-C , 56-C ) :   1.2462 B( 52-C , 53-F ) :   1.1570 B( 52-C , 54-F ) :   1.1666
B( 52-C , 55-F ) :   1.1648 B( 56-C , 57-C ) :   1.0727 B( 56-C , 59-C ) :   1.5333
B( 57-C , 58-N ) :   3.0425 B( 59-C ,100-H ) :   0.9847 B( 60-C , 61-C ) :   1.5028
B( 60-C ,101-H ) :   0.9290 B( 61-C , 62-C ) :   1.0871 B( 61-C , 70-C ) :   0.9744
B( 62-C , 63-C ) :   1.6108 B( 62-C , 68-C ) :   0.9871 B( 63-C , 64-C ) :   1.1489
B( 63-C , 66-C ) :   1.1510 B( 64-C , 65-N ) :   2.9612 B( 66-C , 67-N ) :   2.9666
B( 68-C , 69-C ) :   1.2130 B( 68-C , 75-C ) :   1.4557 B( 69-C , 70-C ) :   0.9630
B( 69-C , 72-C ) :   1.4729 B( 70-C , 71-O ) :   2.1114 B( 72-C , 73-C ) :   1.1727
B( 72-C ,102-H ) :   1.0176 B( 73-C , 74-C ) :   1.2589 B( 73-C , 79-C ) :   1.2483
B( 74-C , 75-C ) :   1.2021 B( 74-C , 76-C ) :   1.2407 B( 75-C ,103-H ) :   0.9897
B( 76-C , 77-C ) :   1.4866 B( 76-C ,104-H ) :   0.9978 B( 77-C , 78-C ) :   1.2634
B( 77-C ,105-H ) :   0.9885 B( 78-C , 79-C ) :   1.4831 B( 78-C ,106-H ) :   0.9895
B( 79-C ,107-H ) :   0.9983

-----------------------------------------------------------------------------
         ABSORPTION SPECTRUM VIA TRANSITION ELECTRIC DIPOLE MOMENTS
-----------------------------------------------------------------------------
State   Energy  Wavelength   fosc         T2         TX        TY        TZ
        (cm-1)    (nm)                  (au**2)     (au)      (au)      (au)
-----------------------------------------------------------------------------
   0   11042.3    905.6   0.847437338  25.26528   0.71343  -4.81605   1.24979
   1   15683.9    637.6   0.172392135   3.61858  -1.01267  -1.60937  -0.05473
   2   17881.9    559.2   0.000314016   0.00578  -0.04272   0.03915   0.04923
   3   19348.3    516.8   0.366124195   6.22960   1.44483   2.01281   0.30110
   4   22899.6    436.7   0.058965535   0.84771  -0.84556  -0.33559  -0.14181
   5   23238.0    430.3   0.048376130   0.68534   0.81359  -0.13576   0.07059
   6   23299.3    429.2   0.041945859   0.59268  -0.54374  -0.54493   0.00905
   7   23673.3    422.4   0.001529943   0.02128   0.02981  -0.08918   0.11151
   8   24027.6    416.2   0.305478058   4.18548  -1.78845   0.23637  -0.96491
   9   25205.1    396.7   0.000654993   0.00856   0.01428   0.00894  -0.09095
  10   25473.9    392.6   0.033869375   0.43771  -0.29382   0.54690  -0.22864
  11   25785.2    387.8   0.231697205   2.95819  -1.48149   0.58161  -0.65201
  12   25858.2    386.7   0.041275862   0.52550  -0.67588  -0.17137   0.19830
  13   26551.0    376.6   0.047598441   0.59018  -0.51135   0.16238  -0.54985
  14   27147.1    368.4   0.083815632   1.01643  -0.23509  -0.67005   0.71568
  15   27273.4    366.7   0.120590522   1.45562  -0.33631   1.08087  -0.41741
  16   27501.3    363.6   0.051090956   0.61160  -0.17221   0.68639  -0.33287
  17   27977.7    357.4   0.036787551   0.43288  -0.25923   0.28266  -0.53459
  18   28020.2    356.9   0.099591393   1.17011  -0.03211   0.88517  -0.62093
  19   28902.6    346.0   0.092103903   1.04910   0.17851  -0.81300   0.59688
  20   30161.4    331.5   0.010506135   0.11467  -0.23636   0.20086  -0.13589
  21   30527.3    327.6   0.133301373   1.43754   0.08459  -1.02817   0.61094
  22   30698.0    325.8   0.048571778   0.52089   0.28699   0.51026  -0.42210
  23   31061.2    321.9   0.025127126   0.26632  -0.30855   0.39000  -0.13789
  24   31217.4    320.3   0.278393301   2.93587  -1.69849  -0.22395  -0.02901
  25   31621.4    316.2   0.125458487   1.30615  -0.06182  -0.64239   0.94322
  26   31851.7    314.0   0.074900909   0.77416  -0.67018   0.56312  -0.08896
  27   32226.2    310.3   0.263261163   2.68939  -1.25726   0.98573  -0.37016
  28   32301.9    309.6   0.127710393   1.30159  -0.41494  -0.47319   0.95158
  29   32905.9    303.9   0.068231754   0.68263  -0.55756  -0.51944  -0.31928
  30   33452.3    298.9   0.219264571   2.15784  -1.14464   0.91797  -0.07052
  31   33619.5    297.4   0.201981893   1.97787   1.18294   0.72946  -0.21542
  32   33788.8    296.0   0.003210345   0.03128   0.08035  -0.15754  -0.00250
  33   33875.0    295.2   0.155234754   1.50864  -0.85879  -0.05822   0.87620
  34   34008.1    294.0   0.195713332   1.89458  -0.74856   0.57346  -1.00269
  35   34462.6    290.2   0.002017659   0.01927   0.00547   0.13862  -0.00545
  36   34541.3    289.5   0.031847651   0.30354   0.33567   0.35704  -0.25177
  37   35004.8    285.7   0.043455879   0.40869  -0.04041  -0.54525  -0.33130
  38   35404.9    282.4   0.015738182   0.14634   0.28499   0.02503  -0.25396
  39   35613.8    280.8   0.148138257   1.36938  -0.93463   0.66795   0.22294
  40   35876.9    278.7   0.190329877   1.74649   0.36834   1.05035  -0.71245
  41   35988.1    277.9   0.083534643   0.76416   0.53838  -0.39715   0.56265
  42   36086.9    277.1   0.200534041   1.82942   1.23142   0.29008   0.47840
  43   36300.5    275.5   0.093935022   0.85190  -0.64380  -0.16026   0.64167
  44   36495.2    274.0   0.028025241   0.25281  -0.27495  -0.29634  -0.29899
  45   36723.3    272.3   0.054112461   0.48510   0.56203  -0.28811   0.29362
  46   36859.2    271.3   0.009944292   0.08882  -0.13571   0.20837   0.16426
  47   37033.5    270.0   0.109955085   0.97745  -0.41622   0.88800  -0.12523
  48   37145.9    269.2   0.057836532   0.51259   0.35447  -0.23278   0.57685
  49   37311.9    268.0   0.057597227   0.50819   0.27387   0.62205   0.21503
  50   37387.3    267.5   0.001796307   0.01582  -0.05099  -0.09911  -0.05826
  51   37613.3    265.9   0.022164638   0.19400   0.30245   0.30602   0.09419
  52   37730.9    265.0   0.132518672   1.15626  -0.46838  -0.96688  -0.04494
  53   38193.0    261.8   0.034921231   0.30101   0.10423   0.07651   0.53319
  54   38770.5    257.9   0.163123683   1.38513   0.37355  -1.11132  -0.10272
  55   38868.0    257.3   0.043743453   0.37051   0.00992  -0.21370  -0.56986
  56   39281.1    254.6   0.055121670   0.46197  -0.11249  -0.48815   0.45938
  57   39301.3    254.4   0.204641382   1.71420  -0.52997  -1.06038   0.55582
  58   39418.6    253.7   0.006724961   0.05616  -0.03097  -0.10142   0.21194
  59   39458.9    253.4   0.075534043   0.63019  -0.35547   0.70140  -0.10898
  60   39543.7    252.9   0.157824155   1.31393   0.49957  -1.02552  -0.11259
  61   39964.4    250.2   0.071197030   0.58649  -0.03611  -0.58182   0.49666
  62   40180.5    248.9   0.007255035   0.05944  -0.06936  -0.22842   0.04956

FINAL SINGLE POINT ENERGY     -4297.652909567512

DIPOLE MOMENT
-------------
                                X             Y             Z
Electronic contribution:    -46.01063      22.85876     -27.06471
Nuclear contribution   :     48.62177     -26.76443      27.74404
                        -----------------------------------------
Total Dipole Moment    :      2.61114      -3.90568       0.67934
                        -----------------------------------------
Magnitude (a.u.)       :      4.74699
Magnitude (Debye)      :     12.06588

Rotational constants in cm-1:     0.001086     0.000254     0.000221
Rotational constants in MHz :    32.550673     7.614917     6.621421

                             ****ORCA TERMINATED NORMALLY****
TOTAL RUN TIME: 0 days 0 hours 11 minutes 51 seconds 498 msec
