                         Program Version 4.2.0 -  RELEASE  -
|  1> # ORCA input file
|  2> # SCF done       -187.501562347212          0.000769620028
|  3> ! CAM-B3LYP def2-SVP def2/J RIJCOSX Grid4 TightSCF
|  4> %maxcore 5000
|  5> %tddft
|  6>     Mode sTDDFT
|  7>     Ethresh 5.0
|  8>     maxcore 5000
|  9> end
| 10>
| 11> %pal
| 12>   nprocs 6
| 13>   end
| 14> * xyz 0 1
| 15>    C        0.96567         2.67446        -5.27183
| 16>    C        1.45817         3.49280        -6.25454
| 17>    C        2.15575         3.02739        -7.38995
| 18>    N        2.72489         2.71885        -8.33789
| 19>    C        1.39590         4.90269        -6.26982
| 20>    N        1.41412         6.04869        -6.34712
| 21>    C        1.14790         1.22983        -5.21672
| 22>    C        0.66943         0.76420        -3.96024
| 23>    C        0.72574        -0.55344        -3.60723
| 24>    C        1.26861        -1.48671        -4.51792
| 25>    C        1.73961        -1.03115        -5.78333
| 26>    C        1.67152         0.34060        -6.11811
| 27>    C        2.27443        -1.97174        -6.68716
| 28>    C        2.34345        -3.29805        -6.35789
| 29>    C        1.88076        -3.74512        -5.11114
| 30>    C        1.35488        -2.85881        -4.21067
| 31>    C        0.14010         1.89477        -3.18070
| 32>    O       -0.30736         1.83099        -2.05449
| 33>    C        0.25714         3.08306        -4.06518
| 34>    C       -0.27993         4.32693        -3.89645
| 35>    C       -0.95742         4.91489        -2.80397
| 36>    S       -1.59271         6.53099        -3.05304
| 37>    C       -2.18316         6.62835        -1.43329
| 38>    C       -1.89060         5.44687        -0.73938
| 39>    C       -1.20644         4.49799        -1.51163
| 40>    C       -2.21997         5.18514         0.60214
| 41>    N       -2.46348         4.92758         1.69387
| 42>    C       -2.84129         7.81800        -1.00986
| 43>    C       -3.30873         8.04115         0.23631
| 44>    C       -3.95405         9.23969         0.71617
| 45>    C       -4.27576        10.32152        -0.11179
| 46>    C       -4.87530        11.47886         0.37778
| 47>    C       -5.14500        11.53324         1.75567
| 48>    C       -4.84861        10.45143         2.60561
| 49>    C       -4.25926         9.31450         2.07984
| 50>    C       -5.22492        10.72092         3.97114
| 51>    C       -5.79199        11.99660         4.11476
| 52>    S       -5.87597        12.86802         2.59746
| 53>    C       -6.22549        12.46688         5.34259
| 54>    C       -6.08945        11.64329         6.44393
| 55>    C       -5.53132        10.37456         6.31951
| 56>    C       -5.09903         9.90904         5.09436
| 57>    C       -5.21750        12.60593        -0.45271
| 58>    C       -5.25790        12.62305        -1.80059
| 59>    C       -5.62419        13.78167        -2.54180
| 60>    O       -5.89489        14.95008        -1.93275
| 61>    C       -6.22616        15.86299        -2.87354
| 62>    C       -6.17000        15.27165        -4.13642
| 63>    C       -5.77582        13.92283        -3.92164
| 64>    C       -5.57703        12.92071        -4.87973
| 65>    N       -5.40679        12.08574        -5.64687
| 66>    C       -6.43995        15.89223        -5.36325
| 67>    N       -6.65610        16.40437        -6.36561
| 68>    C       -6.55102        17.19507        -2.51672
| 69>    C       -6.49348        17.65080        -1.23807
| 70>    C       -6.81016        18.98808        -0.90205
| 71>    C       -6.70269        19.51558         0.35185
| 72>    C       -7.00124        20.88105         0.74921
| 73>    C       -7.64114        21.83291        -0.00064
| 74>    C       -7.92469        23.13807         0.45534
| 75>    N       -8.18389        24.21277         0.76448
| 76>    C       -8.13706        21.64949        -1.30894
| 77>    N       -8.57885        21.57563        -2.36628
| 78>    C       -6.54277        21.05376         2.12284
| 79>    C       -6.05343        19.80462         2.60101
| 80>    C       -6.16657        18.79199         1.53862
| 81>    O       -5.86915        17.61871         1.62222
| 82>    C       -5.55603        19.65997         3.86433
| 83>    C       -5.51753        20.78122         4.72255
| 84>    C       -5.99851        22.03646         4.24961
| 85>    C       -6.51247        22.15455         2.93808
| 86>    C       -5.94888        23.15111         5.11143
| 87>    C       -5.44861        23.03354         6.37957
| 88>    C       -4.97568        21.79711         6.84434
| 89>    C       -5.00996        20.69491         6.03388
| 90>    H        0.35942        -0.87868        -2.64476
| 91>    H        2.03214         0.65143        -7.08556
| 92>    H        2.63097        -1.62247        -7.64505
| 93>    H        2.75553        -4.01051        -7.05668
| 94>    H        1.94294        -4.79528        -4.86794
| 95>    H        0.99694        -3.19706        -3.24926
| 96>    H       -0.19411         4.99953        -4.74236
| 97>    H       -0.90587         3.53570        -1.13763
| 98>    H       -2.93459         8.57424        -1.77723
| 99>    H       -3.18409         7.26665         0.97973
|100>    H       -4.04407        10.26738        -1.16243
|101>    H       -4.02344         8.48253         2.72589
|102>    H       -6.65802        13.45136         5.42928
|103>    H       -6.42118        11.98886         7.41116
|104>    H       -5.43631         9.74801         7.19323
|105>    H       -4.66721         8.92448         5.00164
|106>    H       -5.48951        13.50990         0.07841
|107>    H       -5.03769        11.75120        -2.39870
|108>    H       -6.84296        17.84596        -3.33034
|109>    H       -6.18831        16.98298        -0.44552
|110>    H       -7.13954        19.62300        -1.71487
|111>    H       -5.19224        18.70110         4.20296
|112>    H       -6.86369        23.11961         2.60943
|113>    H       -6.31479        24.10058         4.74921
|114>    H       -5.41427        23.89313         7.03191
|115>    H       -4.58351        21.72273         7.84760
|116>    H       -4.64654        19.74056         6.38619
|117> *
|118>
|119>                          ****END OF INPUT****

CARTESIAN COORDINATES (ANGSTROEM)
---------------------------------
  C      0.965670    2.674460   -5.271830
  C      1.458170    3.492800   -6.254540
  C      2.155750    3.027390   -7.389950
  N      2.724890    2.718850   -8.337890
  C      1.395900    4.902690   -6.269820
  N      1.414120    6.048690   -6.347120
  C      1.147900    1.229830   -5.216720
  C      0.669430    0.764200   -3.960240
  C      0.725740   -0.553440   -3.607230
  C      1.268610   -1.486710   -4.517920
  C      1.739610   -1.031150   -5.783330
  C      1.671520    0.340600   -6.118110
  C      2.274430   -1.971740   -6.687160
  C      2.343450   -3.298050   -6.357890
  C      1.880760   -3.745120   -5.111140
  C      1.354880   -2.858810   -4.210670
  C      0.140100    1.894770   -3.180700
  O     -0.307360    1.830990   -2.054490
  C      0.257140    3.083060   -4.065180
  C     -0.279930    4.326930   -3.896450
  C     -0.957420    4.914890   -2.803970
  S     -1.592710    6.530990   -3.053040
  C     -2.183160    6.628350   -1.433290
  C     -1.890600    5.446870   -0.739380
  C     -1.206440    4.497990   -1.511630
  C     -2.219970    5.185140    0.602140
  N     -2.463480    4.927580    1.693870
  C     -2.841290    7.818000   -1.009860
  C     -3.308730    8.041150    0.236310
  C     -3.954050    9.239690    0.716170
  C     -4.275760   10.321520   -0.111790
  C     -4.875300   11.478860    0.377780
  C     -5.145000   11.533240    1.755670
  C     -4.848610   10.451430    2.605610
  C     -4.259260    9.314500    2.079840
  C     -5.224920   10.720920    3.971140
  C     -5.791990   11.996600    4.114760
  S     -5.875970   12.868020    2.597460
  C     -6.225490   12.466880    5.342590
  C     -6.089450   11.643290    6.443930
  C     -5.531320   10.374560    6.319510
  C     -5.099030    9.909040    5.094360
  C     -5.217500   12.605930   -0.452710
  C     -5.257900   12.623050   -1.800590
  C     -5.624190   13.781670   -2.541800
  O     -5.894890   14.950080   -1.932750
  C     -6.226160   15.862990   -2.873540
  C     -6.170000   15.271650   -4.136420
  C     -5.775820   13.922830   -3.921640
  C     -5.577030   12.920710   -4.879730
  N     -5.406790   12.085740   -5.646870
  C     -6.439950   15.892230   -5.363250
  N     -6.656100   16.404370   -6.365610
  C     -6.551020   17.195070   -2.516720
  C     -6.493480   17.650800   -1.238070
  C     -6.810160   18.988080   -0.902050
  C     -6.702690   19.515580    0.351850
  C     -7.001240   20.881050    0.749210
  C     -7.641140   21.832910   -0.000640
  C     -7.924690   23.138070    0.455340
  N     -8.183890   24.212770    0.764480
  C     -8.137060   21.649490   -1.308940
  N     -8.578850   21.575630   -2.366280
  C     -6.542770   21.053760    2.122840
  C     -6.053430   19.804620    2.601010
  C     -6.166570   18.791990    1.538620
  O     -5.869150   17.618710    1.622220
  C     -5.556030   19.659970    3.864330
  C     -5.517530   20.781220    4.722550
  C     -5.998510   22.036460    4.249610
  C     -6.512470   22.154550    2.938080
  C     -5.948880   23.151110    5.111430
  C     -5.448610   23.033540    6.379570
  C     -4.975680   21.797110    6.844340
  C     -5.009960   20.694910    6.033880
  H      0.359420   -0.878680   -2.644760
  H      2.032140    0.651430   -7.085560
  H      2.630970   -1.622470   -7.645050
  H      2.755530   -4.010510   -7.056680
  H      1.942940   -4.795280   -4.867940
  H      0.996940   -3.197060   -3.249260
  H     -0.194110    4.999530   -4.742360
  H     -0.905870    3.535700   -1.137630
  H     -2.934590    8.574240   -1.777230
  H     -3.184090    7.266650    0.979730
  H     -4.044070   10.267380   -1.162430
  H     -4.023440    8.482530    2.725890
  H     -6.658020   13.451360    5.429280
  H     -6.421180   11.988860    7.411160
  H     -5.436310    9.748010    7.193230
  H     -4.667210    8.924480    5.001640
  H     -5.489510   13.509900    0.078410
  H     -5.037690   11.751200   -2.398700
  H     -6.842960   17.845960   -3.330340
  H     -6.188310   16.982980   -0.445520
  H     -7.139540   19.623000   -1.714870
  H     -5.192240   18.701100    4.202960
  H     -6.863690   23.119610    2.609430
  H     -6.314790   24.100580    4.749210
  H     -5.414270   23.893130    7.031910
  H     -4.583510   21.722730    7.847600
  H     -4.646540   19.740560    6.386190

 Total Charge           Charge          ....    0
 Multiplicity           Mult            ....    1
 Number of Electrons    NEL             ....  510
 Basis Dimension        Dim             .... 1193

ORBITAL ENERGIES
----------------

  NO   OCC          E(Eh)            E(eV)
   0   2.0000     -88.984115     -2421.3809
   1   2.0000     -88.963079     -2420.8085
   2   2.0000     -19.339012      -526.2413
   3   2.0000     -19.225976      -523.1654
   4   2.0000     -19.222241      -523.0638
   5   2.0000     -14.426003      -392.5515
   6   2.0000     -14.423856      -392.4931
   7   2.0000     -14.422567      -392.4580
   8   2.0000     -14.420780      -392.4094
   9   2.0000     -14.418026      -392.3344
  10   2.0000     -14.415206      -392.2577
  11   2.0000     -14.415119      -392.2553
  12   2.0000     -10.387175      -282.6494
  13   2.0000     -10.382812      -282.5307
  14   2.0000     -10.376607      -282.3618
  15   2.0000     -10.373258      -282.2707
  16   2.0000     -10.349995      -281.6377
  17   2.0000     -10.347356      -281.5659
  18   2.0000     -10.346923      -281.5541
  19   2.0000     -10.346525      -281.5433
  20   2.0000     -10.343715      -281.4668
  21   2.0000     -10.342794      -281.4417
  22   2.0000     -10.341179      -281.3978
  23   2.0000     -10.330058      -281.0952
  24   2.0000     -10.326690      -281.0035
  25   2.0000     -10.325619      -280.9744
  26   2.0000     -10.324716      -280.9498
  27   2.0000     -10.324633      -280.9475
  28   2.0000     -10.324254      -280.9372
  29   2.0000     -10.323997      -280.9302
  30   2.0000     -10.323547      -280.9180
  31   2.0000     -10.323196      -280.9084
  32   2.0000     -10.322941      -280.9015
  33   2.0000     -10.320802      -280.8433
  34   2.0000     -10.318144      -280.7710
  35   2.0000     -10.316620      -280.7295
  36   2.0000     -10.315359      -280.6952
  37   2.0000     -10.313218      -280.6369
  38   2.0000     -10.312604      -280.6202
  39   2.0000     -10.310200      -280.5548
  40   2.0000     -10.309514      -280.5361
  41   2.0000     -10.309380      -280.5325
  42   2.0000     -10.305617      -280.4301
  43   2.0000     -10.304686      -280.4048
  44   2.0000     -10.304566      -280.4015
  45   2.0000     -10.304300      -280.3943
  46   2.0000     -10.304217      -280.3920
  47   2.0000     -10.304075      -280.3881
  48   2.0000     -10.303920      -280.3839
  49   2.0000     -10.303879      -280.3828
  50   2.0000     -10.303732      -280.3788
  51   2.0000     -10.302999      -280.3589
  52   2.0000     -10.301588      -280.3205
  53   2.0000     -10.299545      -280.2649
  54   2.0000     -10.299309      -280.2584
  55   2.0000     -10.299076      -280.2521
  56   2.0000     -10.298832      -280.2455
  57   2.0000     -10.298682      -280.2414
  58   2.0000     -10.298259      -280.2299
  59   2.0000     -10.298073      -280.2248
  60   2.0000     -10.295545      -280.1560
  61   2.0000     -10.292978      -280.0862
  62   2.0000     -10.292666      -280.0777
  63   2.0000     -10.292179      -280.0644
  64   2.0000     -10.291721      -280.0520
  65   2.0000     -10.291202      -280.0378
  66   2.0000     -10.290134      -280.0088
  67   2.0000     -10.288698      -279.9697
  68   2.0000     -10.287841      -279.9464
  69   2.0000     -10.287328      -279.9324
  70   2.0000     -10.286999      -279.9235
  71   2.0000     -10.286879      -279.9202
  72   2.0000     -10.286516      -279.9103
  73   2.0000     -10.284784      -279.8632
  74   2.0000     -10.281071      -279.7622
  75   2.0000      -8.079929      -219.8660
  76   2.0000      -8.058940      -219.2949
  77   2.0000      -6.048968      -164.6008
  78   2.0000      -6.044956      -164.4916
  79   2.0000      -6.042284      -164.4189
  80   2.0000      -6.028556      -164.0453
  81   2.0000      -6.024634      -163.9386
  82   2.0000      -6.020019      -163.8130
  83   2.0000      -1.259824       -34.2815
  84   2.0000      -1.140237       -31.0274
  85   2.0000      -1.137043       -30.9405
  86   2.0000      -1.024627       -27.8815
  87   2.0000      -1.022717       -27.8296
  88   2.0000      -1.019227       -27.7346
  89   2.0000      -1.014866       -27.6159
  90   2.0000      -1.014649       -27.6100
  91   2.0000      -1.006161       -27.3790
  92   2.0000      -1.005114       -27.3506
  93   2.0000      -1.000493       -27.2248
  94   2.0000      -0.999756       -27.2048
  95   2.0000      -0.995365       -27.0852
  96   2.0000      -0.994281       -27.0558
  97   2.0000      -0.978605       -26.6292
  98   2.0000      -0.973386       -26.4872
  99   2.0000      -0.972192       -26.4547
 100   2.0000      -0.959552       -26.1107
 101   2.0000      -0.956829       -26.0367
 102   2.0000      -0.939695       -25.5704
 103   2.0000      -0.934239       -25.4219
 104   2.0000      -0.928067       -25.2540
 105   2.0000      -0.925853       -25.1937
 106   2.0000      -0.916261       -24.9327
 107   2.0000      -0.908794       -24.7295
 108   2.0000      -0.898676       -24.4542
 109   2.0000      -0.892581       -24.2884
 110   2.0000      -0.887157       -24.1408
 111   2.0000      -0.884932       -24.0802
 112   2.0000      -0.881893       -23.9975
 113   2.0000      -0.874455       -23.7951
 114   2.0000      -0.868979       -23.6461
 115   2.0000      -0.858105       -23.3502
 116   2.0000      -0.841156       -22.8890
 117   2.0000      -0.834643       -22.7118
 118   2.0000      -0.833459       -22.6796
 119   2.0000      -0.829666       -22.5764
 120   2.0000      -0.821602       -22.3569
 121   2.0000      -0.809103       -22.0168
 122   2.0000      -0.806201       -21.9378
 123   2.0000      -0.787303       -21.4236
 124   2.0000      -0.782458       -21.2918
 125   2.0000      -0.768905       -20.9230
 126   2.0000      -0.766443       -20.8560
 127   2.0000      -0.764295       -20.7975
 128   2.0000      -0.750866       -20.4321
 129   2.0000      -0.742600       -20.2072
 130   2.0000      -0.737230       -20.0610
 131   2.0000      -0.731881       -19.9155
 132   2.0000      -0.716547       -19.4982
 133   2.0000      -0.710173       -19.3248
 134   2.0000      -0.705997       -19.2111
 135   2.0000      -0.703527       -19.1439
 136   2.0000      -0.701337       -19.0843
 137   2.0000      -0.693623       -18.8744
 138   2.0000      -0.692743       -18.8505
 139   2.0000      -0.687264       -18.7014
 140   2.0000      -0.682076       -18.5602
 141   2.0000      -0.677805       -18.4440
 142   2.0000      -0.677010       -18.4224
 143   2.0000      -0.672092       -18.2886
 144   2.0000      -0.659154       -17.9365
 145   2.0000      -0.650339       -17.6966
 146   2.0000      -0.638551       -17.3759
 147   2.0000      -0.636224       -17.3125
 148   2.0000      -0.628714       -17.1082
 149   2.0000      -0.623696       -16.9716
 150   2.0000      -0.621745       -16.9185
 151   2.0000      -0.616982       -16.7889
 152   2.0000      -0.613117       -16.6838
 153   2.0000      -0.608760       -16.5652
 154   2.0000      -0.607180       -16.5222
 155   2.0000      -0.606385       -16.5006
 156   2.0000      -0.597152       -16.2493
 157   2.0000      -0.594728       -16.1834
 158   2.0000      -0.588048       -16.0016
 159   2.0000      -0.583705       -15.8834
 160   2.0000      -0.581223       -15.8159
 161   2.0000      -0.572791       -15.5864
 162   2.0000      -0.563668       -15.3382
 163   2.0000      -0.559609       -15.2277
 164   2.0000      -0.554930       -15.1004
 165   2.0000      -0.553117       -15.0511
 166   2.0000      -0.552449       -15.0329
 167   2.0000      -0.548707       -14.9311
 168   2.0000      -0.547415       -14.8959
 169   2.0000      -0.545020       -14.8307
 170   2.0000      -0.543554       -14.7909
 171   2.0000      -0.541595       -14.7376
 172   2.0000      -0.540391       -14.7048
 173   2.0000      -0.537685       -14.6311
 174   2.0000      -0.535270       -14.5655
 175   2.0000      -0.527973       -14.3669
 176   2.0000      -0.526994       -14.3402
 177   2.0000      -0.525825       -14.3084
 178   2.0000      -0.522849       -14.2275
 179   2.0000      -0.522403       -14.2153
 180   2.0000      -0.520961       -14.1761
 181   2.0000      -0.518759       -14.1161
 182   2.0000      -0.517464       -14.0809
 183   2.0000      -0.516080       -14.0433
 184   2.0000      -0.512845       -13.9552
 185   2.0000      -0.512246       -13.9389
 186   2.0000      -0.508369       -13.8334
 187   2.0000      -0.503349       -13.6968
 188   2.0000      -0.502619       -13.6769
 189   2.0000      -0.498654       -13.5691
 190   2.0000      -0.497676       -13.5425
 191   2.0000      -0.497427       -13.5357
 192   2.0000      -0.493464       -13.4278
 193   2.0000      -0.490227       -13.3398
 194   2.0000      -0.488394       -13.2899
 195   2.0000      -0.487245       -13.2586
 196   2.0000      -0.483722       -13.1627
 197   2.0000      -0.480101       -13.0642
 198   2.0000      -0.477789       -13.0013
 199   2.0000      -0.473121       -12.8743
 200   2.0000      -0.470577       -12.8051
 201   2.0000      -0.468273       -12.7424
 202   2.0000      -0.466792       -12.7021
 203   2.0000      -0.455276       -12.3887
 204   2.0000      -0.454406       -12.3650
 205   2.0000      -0.452027       -12.3003
 206   2.0000      -0.451297       -12.2804
 207   2.0000      -0.450998       -12.2723
 208   2.0000      -0.450150       -12.2492
 209   2.0000      -0.449665       -12.2360
 210   2.0000      -0.447628       -12.1806
 211   2.0000      -0.446369       -12.1463
 212   2.0000      -0.445197       -12.1144
 213   2.0000      -0.444778       -12.1030
 214   2.0000      -0.442130       -12.0310
 215   2.0000      -0.441597       -12.0165
 216   2.0000      -0.441308       -12.0086
 217   2.0000      -0.440009       -11.9733
 218   2.0000      -0.439645       -11.9633
 219   2.0000      -0.438885       -11.9427
 220   2.0000      -0.437744       -11.9116
 221   2.0000      -0.435352       -11.8465
 222   2.0000      -0.434896       -11.8341
 223   2.0000      -0.434604       -11.8262
 224   2.0000      -0.431880       -11.7521
 225   2.0000      -0.427587       -11.6352
 226   2.0000      -0.425868       -11.5884
 227   2.0000      -0.422415       -11.4945
 228   2.0000      -0.420773       -11.4498
 229   2.0000      -0.420455       -11.4412
 230   2.0000      -0.418321       -11.3831
 231   2.0000      -0.412996       -11.2382
 232   2.0000      -0.412550       -11.2261
 233   2.0000      -0.410332       -11.1657
 234   2.0000      -0.406720       -11.0674
 235   2.0000      -0.400945       -10.9103
 236   2.0000      -0.393128       -10.6976
 237   2.0000      -0.383683       -10.4406
 238   2.0000      -0.379381       -10.3235
 239   2.0000      -0.377384       -10.2691
 240   2.0000      -0.370416       -10.0795
 241   2.0000      -0.364360        -9.9147
 242   2.0000      -0.345948        -9.4137
 243   2.0000      -0.344678        -9.3792
 244   2.0000      -0.341813        -9.3012
 245   2.0000      -0.340257        -9.2589
 246   2.0000      -0.332035        -9.0351
 247   2.0000      -0.322781        -8.7833
 248   2.0000      -0.318872        -8.6770
 249   2.0000      -0.307101        -8.3566
 250   2.0000      -0.304297        -8.2804
 251   2.0000      -0.299390        -8.1468
 252   2.0000      -0.294419        -8.0115
 253   2.0000      -0.279365        -7.6019
 254   2.0000      -0.266411        -7.2494
 255   0.0000      -0.114035        -3.1030
 256   0.0000      -0.100874        -2.7449
 257   0.0000      -0.070643        -1.9223
 258   0.0000      -0.064283        -1.7492
 259   0.0000      -0.062648        -1.7048

MULLIKEN ATOMIC CHARGES
-----------------------
   0 C :    0.308950
   1 C :   -0.351394
   2 C :   -0.180601
   3 N :    0.149552
   4 C :   -0.200212
   5 N :    0.160111
   6 C :    0.048473
   7 C :   -0.002466
   8 C :   -0.081364
   9 C :    0.099021
  10 C :    0.096554
  11 C :   -0.082576
  12 C :   -0.018504
  13 C :    0.037736
  14 C :    0.035017
  15 C :   -0.015389
  16 C :    0.163261
  17 O :   -0.154491
  18 C :   -0.087397
  19 C :    0.053751
  20 C :   -0.105595
  21 S :    0.174301
  22 C :   -0.043695
  23 C :   -0.094203
  24 C :    0.033514
  25 C :   -0.159024
  26 N :    0.111322
  27 C :    0.064318
  28 C :   -0.015782
  29 C :    0.146348
  30 C :   -0.085365
  31 C :    0.113400
  32 C :   -0.108995
  33 C :    0.138589
  34 C :   -0.110768
  35 C :    0.101838
  36 C :   -0.057047
  37 S :    0.128494
  38 C :   -0.010319
  39 C :    0.028073
  40 C :    0.029048
  41 C :   -0.036910
  42 C :   -0.019020
  43 C :   -0.042295
  44 C :    0.138547
  45 O :   -0.180027
  46 C :    0.146967
  47 C :    0.005522
  48 C :   -0.014354
  49 C :   -0.297594
  50 N :    0.228705
  51 C :   -0.297304
  52 N :    0.240669
  53 C :   -0.035452
  54 C :    0.013824
  55 C :   -0.043327
  56 C :   -0.054287
  57 C :    0.327055
  58 C :   -0.348883
  59 C :   -0.178308
  60 N :    0.152280
  61 C :   -0.195622
  62 N :    0.157931
  63 C :    0.049489
  64 C :   -0.001268
  65 C :    0.146803
  66 O :   -0.151128
  67 C :   -0.081290
  68 C :    0.100149
  69 C :    0.097498
  70 C :   -0.084930
  71 C :   -0.018628
  72 C :    0.035848
  73 C :    0.038998
  74 C :   -0.016740
  75 H :   -0.012585
  76 H :   -0.006935
  77 H :   -0.009354
  78 H :   -0.003523
  79 H :   -0.003869
  80 H :   -0.017240
  81 H :    0.014442
  82 H :    0.027284
  83 H :   -0.016192
  84 H :    0.002069
  85 H :   -0.029193
  86 H :   -0.011022
  87 H :   -0.019815
  88 H :   -0.007211
  89 H :   -0.009324
  90 H :   -0.019560
  91 H :    0.021464
  92 H :    0.021551
  93 H :    0.036819
  94 H :    0.038439
  95 H :    0.017824
  96 H :   -0.014790
  97 H :   -0.007322
  98 H :   -0.007605
  99 H :   -0.001884
 100 H :   -0.003662
 101 H :   -0.018209
Sum of atomic charges:   -0.0000000

LOEWDIN ATOMIC CHARGES
----------------------
   0 C :    0.076823
   1 C :   -0.139737
   2 C :   -0.016892
   3 N :   -0.052394
   4 C :   -0.025867
   5 N :   -0.049878
   6 C :   -0.026559
   7 C :   -0.055803
   8 C :    0.033143
   9 C :   -0.008103
  10 C :   -0.005811
  11 C :    0.020333
  12 C :   -0.004862
  13 C :   -0.012700
  14 C :   -0.011733
  15 C :   -0.009206
  16 C :    0.088850
  17 O :   -0.141533
  18 C :   -0.089870
  19 C :    0.047326
  20 C :   -0.183698
  21 S :    0.483723
  22 C :   -0.115230
  23 C :   -0.117774
  24 C :    0.024241
  25 C :   -0.024447
  26 N :   -0.060375
  27 C :   -0.058856
  28 C :    0.025091
  29 C :   -0.035383
  30 C :    0.010072
  31 C :   -0.049776
  32 C :   -0.128854
  33 C :   -0.038681
  34 C :    0.015036
  35 C :   -0.042387
  36 C :   -0.142415
  37 S :    0.401804
  38 C :   -0.037961
  39 C :   -0.014663
  40 C :   -0.024226
  41 C :   -0.008733
  42 C :    0.022378
  43 C :   -0.044386
  44 C :    0.084880
  45 O :    0.041208
  46 C :    0.062158
  47 C :   -0.069576
  48 C :   -0.092341
  49 C :   -0.036209
  50 N :   -0.030662
  51 C :   -0.035878
  52 N :   -0.019516
  53 C :    0.002442
  54 C :   -0.007034
  55 C :    0.062101
  56 C :   -0.077944
  57 C :    0.072671
  58 C :   -0.132131
  59 C :   -0.016831
  60 N :   -0.048490
  61 C :   -0.022159
  62 N :   -0.045311
  63 C :   -0.025534
  64 C :   -0.056866
  65 C :    0.085648
  66 O :   -0.144277
  67 C :    0.032927
  68 C :   -0.008076
  69 C :   -0.005226
  70 C :    0.020565
  71 C :   -0.004341
  72 C :   -0.011601
  73 C :   -0.010714
  74 C :   -0.009613
  75 H :    0.039088
  76 H :    0.039212
  77 H :    0.034878
  78 H :    0.033676
  79 H :    0.033187
  80 H :    0.031992
  81 H :    0.044042
  82 H :    0.042702
  83 H :    0.028255
  84 H :    0.039513
  85 H :    0.027008
  86 H :    0.035446
  87 H :    0.031358
  88 H :    0.031474
  89 H :    0.031465
  90 H :    0.031257
  91 H :    0.031434
  92 H :    0.043777
  93 H :    0.052227
  94 H :    0.037105
  95 H :    0.043961
  96 H :    0.038367
  97 H :    0.039447
  98 H :    0.035426
  99 H :    0.034233
 100 H :    0.033527
 101 H :    0.031648

  Mayer bond orders larger than 0.100000
B(  0-C ,  1-C ) :   1.6309 B(  0-C ,  6-C ) :   0.9857 B(  0-C , 18-C ) :   1.0693
B(  1-C ,  2-C ) :   1.1483 B(  1-C ,  4-C ) :   1.1364 B(  2-C ,  3-N ) :   2.9662
B(  4-C ,  5-N ) :   2.9850 B(  6-C ,  7-C ) :   1.2141 B(  6-C , 11-C ) :   1.4499
B(  7-C ,  8-C ) :   1.4701 B(  7-C , 16-C ) :   0.9550 B(  8-C ,  9-C ) :   1.1800
B(  8-C , 75-H ) :   1.0160 B(  9-C , 10-C ) :   1.2532 B(  9-C , 15-C ) :   1.2447
B( 10-C , 11-C ) :   1.2078 B( 10-C , 12-C ) :   1.2413 B( 11-C , 76-H ) :   0.9890
B( 12-C , 13-C ) :   1.4909 B( 12-C , 77-H ) :   0.9963 B( 13-C , 14-C ) :   1.2587
B( 13-C , 78-H ) :   0.9881 B( 14-C , 15-C ) :   1.4896 B( 14-C , 79-H ) :   0.9890
B( 15-C , 80-H ) :   0.9972 B( 16-C , 17-O ) :   2.1679 B( 16-C , 18-C ) :   0.9362
B( 18-C , 19-C ) :   1.6187 B( 19-C , 20-C ) :   1.1895 B( 19-C , 81-H ) :   0.9131
B( 20-C , 21-S ) :   1.0948 B( 20-C , 24-C ) :   1.4447 B( 21-S , 22-C ) :   1.1875
B( 22-C , 23-C ) :   1.4040 B( 22-C , 27-C ) :   1.1437 B( 23-C , 24-C ) :   1.2996
B( 23-C , 25-C ) :   1.1213 B( 24-C , 82-H ) :   0.9803 B( 25-C , 26-N ) :   2.9642
B( 27-C , 28-C ) :   1.6767 B( 27-C , 83-H ) :   0.9398 B( 28-C , 29-C ) :   1.0717
B( 28-C , 84-H ) :   0.9708 B( 29-C , 30-C ) :   1.3117 B( 29-C , 34-C ) :   1.3140
B( 30-C , 31-C ) :   1.3886 B( 30-C , 85-H ) :   0.9837 B( 31-C , 32-C ) :   1.3288
B( 31-C , 42-C ) :   1.0314 B( 32-C , 33-C ) :   1.3298 B( 32-C , 37-S ) :   1.0713
B( 33-C , 34-C ) :   1.3323 B( 33-C , 35-C ) :   1.0546 B( 34-C , 86-H ) :   1.0025
B( 35-C , 36-C ) :   1.3559 B( 35-C , 41-C ) :   1.3533 B( 36-C , 37-S ) :   1.0174
B( 36-C , 38-C ) :   1.3629 B( 38-C , 39-C ) :   1.4220 B( 38-C , 87-H ) :   0.9940
B( 39-C , 40-C ) :   1.3536 B( 39-C , 88-H ) :   0.9884 B( 40-C , 41-C ) :   1.4166
B( 40-C , 89-H ) :   0.9866 B( 41-C , 90-H ) :   0.9905 B( 42-C , 43-C ) :   1.6731
B( 42-C , 91-H ) :   0.9850 B( 43-C , 44-C ) :   1.1902 B( 43-C , 92-H ) :   0.9485
B( 44-C , 45-O ) :   1.1723 B( 44-C , 48-C ) :   1.3712 B( 45-O , 46-C ) :   1.1405
B( 46-C , 47-C ) :   1.3811 B( 46-C , 53-C ) :   1.1674 B( 47-C , 48-C ) :   1.3199
B( 47-C , 51-C ) :   1.1519 B( 48-C , 49-C ) :   1.1491 B( 49-C , 50-N ) :   3.0179
B( 51-C , 52-N ) :   3.0183 B( 53-C , 54-C ) :   1.5607 B( 53-C , 93-H ) :   0.9665
B( 54-C , 55-C ) :   1.1309 B( 54-C , 94-H ) :   0.9884 B( 55-C , 56-C ) :   1.5659
B( 55-C , 95-H ) :   0.9655 B( 56-C , 57-C ) :   1.0531 B( 56-C , 65-C ) :   0.9368
B( 57-C , 58-C ) :   1.6386 B( 57-C , 63-C ) :   0.9897 B( 58-C , 59-C ) :   1.1449
B( 58-C , 61-C ) :   1.1460 B( 59-C , 60-N ) :   2.9648 B( 61-C , 62-N ) :   2.9723
B( 63-C , 64-C ) :   1.2149 B( 63-C , 70-C ) :   1.4474 B( 64-C , 65-C ) :   0.9470
B( 64-C , 67-C ) :   1.4675 B( 65-C , 66-O ) :   2.2026 B( 67-C , 68-C ) :   1.1824
B( 67-C , 96-H ) :   1.0159 B( 68-C , 69-C ) :   1.2544 B( 68-C , 74-C ) :   1.2430
B( 69-C , 70-C ) :   1.2074 B( 69-C , 71-C ) :   1.2401 B( 70-C , 97-H ) :   0.9900
B( 71-C , 72-C ) :   1.4901 B( 71-C , 98-H ) :   0.9973 B( 72-C , 73-C ) :   1.2589
B( 72-C , 99-H ) :   0.9888 B( 73-C , 74-C ) :   1.4903 B( 73-C ,100-H ) :   0.9883
B( 74-C ,101-H ) :   0.9977

-----------------------------------------------------------------------------
         ABSORPTION SPECTRUM VIA TRANSITION ELECTRIC DIPOLE MOMENTS
-----------------------------------------------------------------------------
State   Energy  Wavelength   fosc         T2         TX        TY        TZ
        (cm-1)    (nm)                  (au**2)     (au)      (au)      (au)
-----------------------------------------------------------------------------
   0   19219.6    520.3   1.290282579  22.10116   1.23244  -4.31230  -1.40938
   1   21462.0    465.9   1.112885537  17.07088  -2.24381   2.47657   2.42956
   2   23357.3    428.1   0.317564223   4.47595  -0.39824   1.52339   1.41302
   3   24936.3    401.0   0.075626800   0.99843  -0.16986  -0.51842  -0.83715
   4   26263.9    380.8   0.116180113   1.45629  -0.20599   1.17105   0.20616
   5   26485.9    377.6   0.000284676   0.00354  -0.01027   0.05307   0.02483
   6   27085.3    369.2   0.019035807   0.23137  -0.26870   0.01976   0.39848
   7   27869.7    358.8   0.047917684   0.56603   0.26249  -0.41347   0.57112
   8   28203.0    354.6   0.191552532   2.23598   0.01493  -0.27997   1.46880
   9   28254.4    353.9   0.033607444   0.39158   0.00187  -0.13438  -0.61116
  10   28561.9    350.1   0.020708794   0.23870   0.03555  -0.47958   0.08621
  11   28795.1    347.3   0.125073606   1.42996   0.36735  -1.12191  -0.19061
  12   29845.4    335.1   0.318707398   3.51552  -0.20276   1.86248   0.07460
  13   30079.4    332.5   0.245692049   2.68904  -0.62077   0.62770  -1.38191
  14   30786.4    324.8   0.048933353   0.52327   0.24359  -0.02195   0.68077
  15   31364.1    318.8   0.081919632   0.85987  -0.11833   0.00439  -0.91970
  16   31791.6    314.5   0.050308872   0.52096  -0.35027  -0.15181   0.61256
  17   32257.0    310.0   0.202442028   2.06611  -0.67427   1.00828   0.77126
  18   32731.6    305.5   0.242126463   2.43529  -0.79317  -0.07612  -1.34178
  19   33535.2    298.2   0.584387351   5.73687   0.08086  -2.38189  -0.23860
  20   33568.2    297.9   0.180701531   1.77219  -0.24043   1.11551  -0.68557
  21   34003.0    294.1   0.698184023   6.75972  -0.41486  -0.13007  -2.56334
  22   34165.3    292.7   0.000753546   0.00726  -0.00329  -0.07754   0.03519
  23   34434.1    290.4   0.414973908   3.96741   0.32019   0.21190   1.95448
  24   34599.8    289.0   0.000988542   0.00941  -0.00912   0.02070  -0.09431
  25   34862.1    286.8   0.025780226   0.24345  -0.15966  -0.04465  -0.46472
  26   35000.6    285.7   0.102314653   0.96236   0.20697  -0.46028   0.84123
  27   35499.0    281.7   0.025249688   0.23416  -0.13843   0.35368   0.29985
  28   36091.8    277.1   0.014631944   0.13347   0.08629   0.30458  -0.18234
  29   36516.3    273.9   0.214457476   1.93344   0.12353   0.21801   1.36772
  30   37441.3    267.1   0.002810317   0.02471  -0.05967  -0.10285  -0.10282
  31   37491.3    266.7   0.016476817   0.14468   0.05544  -0.27438   0.25754
  32   37786.7    264.6   0.123321284   1.07442  -0.16524  -0.54622   0.86531
  33   38233.0    261.6   0.084987671   0.73180  -0.48822   0.67527  -0.19352
  34   38475.3    259.9   0.035691997   0.30540  -0.19396  -0.26513   0.44439
  35   38579.3    259.2   0.057251527   0.48855   0.32315  -0.61061   0.10620
  36   38802.8    257.7   0.102889986   0.87294  -0.27570   0.89198   0.03612
  37   39346.4    254.2   0.050454094   0.42215  -0.34194   0.43777   0.33701
  38   39555.9    252.8   0.028815217   0.23982   0.15461  -0.46444   0.01451
  39   39613.9    252.4   0.085301203   0.70890  -0.04943   0.39159   0.74371
  40   39871.5    250.8   0.170589708   1.40853  -0.45444  -0.14088   1.08728
  41   39909.1    250.6   0.130356167   1.07531  -0.19790   1.01732   0.03494

FINAL SINGLE POINT ENERGY     -3818.089614057940

DIPOLE MOMENT
-------------
                                X             Y             Z
Electronic contribution:     -4.69344      10.91053     -29.31304
Nuclear contribution   :      5.18886     -12.64388      34.17889
                        -----------------------------------------
Total Dipole Moment    :      0.49542      -1.73335       4.86585
                        -----------------------------------------
Magnitude (a.u.)       :      5.18907
Magnitude (Debye)      :     13.18957

Rotational constants in cm-1:     0.001593     0.000218     0.000198
Rotational constants in MHz :    47.753590     6.524454     5.942211

                             ****ORCA TERMINATED NORMALLY****
TOTAL RUN TIME: 0 days 0 hours 9 minutes 58 seconds 114 msec
