                         Program Version 4.2.0 -  RELEASE  -
|  1> # ORCA input file
|  2> # SCF done       -167.084069260373          0.000599685929
|  3> ! CAM-B3LYP def2-SVP def2/J RIJCOSX Grid4 TightSCF
|  4> %maxcore 5000
|  5> %tddft
|  6>     Mode sTDDFT
|  7>     Ethresh 5.0
|  8>     maxcore 5000
|  9> end
| 10>
| 11> %pal
| 12>   nprocs 6
| 13>   end
| 14> * xyz 0 1
| 15>    C        0.62864         0.58429         0.01069
| 16>    F        1.30837         1.35990         0.84594
| 17>    C       -0.10630         1.14700        -1.03652
| 18>    C       -0.22309         2.65481        -1.13420
| 19>    O       -0.20593         3.34544        -0.16107
| 20>    O       -0.34263         3.16634        -2.35779
| 21>    C       -0.76071         0.26268        -1.89360
| 22>    F       -1.48099         0.74272        -2.92298
| 23>    C       -0.70024        -1.11140        -1.71690
| 24>    F       -1.37988        -1.89773        -2.55873
| 25>    C        0.02951        -1.67925        -0.66866
| 26>    C        0.69683        -0.79304         0.18166
| 27>    F        1.44524        -1.27860         1.17914
| 28>    C        0.09397        -3.12456        -0.47174
| 29>    C        0.28190        -4.03074        -1.52857
| 30>    N        0.33190        -5.32288        -1.33909
| 31>    C        0.21330        -5.78664        -0.09304
| 32>    N        0.04062        -5.00823         0.97939
| 33>    C       -0.02471        -3.71118         0.79386
| 34>    C        0.28076        -7.21941         0.05507
| 35>    N        0.30209        -7.90072         1.24408
| 36>    C        0.19774        -7.36449         2.58017
| 37>    C       -1.25293        -7.07847         2.95553
| 38>    C        0.38416        -9.29195         1.04085
| 39>    O        0.42341       -10.09971         1.94634
| 40>    C        0.41634        -9.44215        -0.39596
| 41>    C        0.35473        -8.14614        -0.97474
| 42>    C        0.38294        -8.30058        -2.42068
| 43>    O        0.35620        -7.51991        -3.33990
| 44>    N        0.46542        -9.70332        -2.60692
| 45>    C        0.47716       -10.28066        -3.92960
| 46>    C       -0.89245       -10.82558        -4.32757
| 47>    C        0.48097       -10.38355        -1.41757
| 48>    C        0.55093       -11.80356        -1.33059
| 49>    C        0.59969       -12.48514        -0.16814
| 50>    C        0.64740       -13.93324        -0.14823
| 51>    N        0.84862       -14.52199         1.03359
| 52>    C        0.89131       -15.83862         1.05526
| 53>    C        0.72202       -16.60892        -0.08806
| 54>    C        0.50078       -15.91118        -1.28078
| 55>    N        0.47550       -14.58113        -1.29749
| 56>    C        0.27473       -16.60955        -2.53706
| 57>    C       -0.00130       -15.92899        -3.66010
| 58>    C       -0.27128       -16.45502        -4.97922
| 59>    C       -0.38094       -17.81079        -5.31424
| 60>    C       -0.64151       -18.23444        -6.61258
| 61>    C       -0.82726       -17.32462        -7.65657
| 62>    C       -0.73500       -15.97222        -7.32754
| 63>    C       -0.46136       -15.55227        -6.03755
| 64>    F       -0.38041       -14.23645        -5.79902
| 65>    F       -0.91220       -15.03783        -8.28024
| 66>    C       -1.03428       -17.84105        -9.06576
| 67>    O       -0.56011       -18.87488        -9.42718
| 68>    O       -1.77345       -17.08566        -9.87610
| 69>    F       -0.74793       -19.53884        -6.83489
| 70>    F       -0.24075       -18.75082        -4.37375
| 71>    H       -0.43268         2.51970        -3.07085
| 72>    H        0.41336        -3.69872        -2.54932
| 73>    H       -0.19966        -3.11757         1.68152
| 74>    H        0.79253        -6.45321         2.64991
| 75>    H        0.60690        -8.13107         3.24425
| 76>    H       -1.66578        -6.31382         2.30300
| 77>    H       -1.30230        -6.72677         3.98177
| 78>    H       -1.84839        -7.98396         2.86686
| 79>    H        1.23614       -11.06605        -3.97876
| 80>    H        0.76113        -9.47241        -4.60919
| 81>    H       -1.23344       -11.57838        -3.62055
| 82>    H       -0.83482       -11.27584        -5.31442
| 83>    H       -1.62056       -10.01880        -4.35214
| 84>    H        0.56740       -12.36713        -2.25243
| 85>    H        0.60876       -11.99127         0.79289
| 86>    H        1.06506       -16.29067         2.02346
| 87>    H        0.75101       -17.68573        -0.06063
| 88>    H        0.33347       -17.68549        -2.49645
| 89>    H       -0.02723       -14.85035        -3.58140
| 90>    H       -2.03436       -16.22613        -9.51862
| 91> *
| 92>
| 93>                          ****END OF INPUT****

CARTESIAN COORDINATES (ANGSTROEM)
---------------------------------
  C      0.628640    0.584290    0.010690
  F      1.308370    1.359900    0.845940
  C     -0.106300    1.147000   -1.036520
  C     -0.223090    2.654810   -1.134200
  O     -0.205930    3.345440   -0.161070
  O     -0.342630    3.166340   -2.357790
  C     -0.760710    0.262680   -1.893600
  F     -1.480990    0.742720   -2.922980
  C     -0.700240   -1.111400   -1.716900
  F     -1.379880   -1.897730   -2.558730
  C      0.029510   -1.679250   -0.668660
  C      0.696830   -0.793040    0.181660
  F      1.445240   -1.278600    1.179140
  C      0.093970   -3.124560   -0.471740
  C      0.281900   -4.030740   -1.528570
  N      0.331900   -5.322880   -1.339090
  C      0.213300   -5.786640   -0.093040
  N      0.040620   -5.008230    0.979390
  C     -0.024710   -3.711180    0.793860
  C      0.280760   -7.219410    0.055070
  N      0.302090   -7.900720    1.244080
  C      0.197740   -7.364490    2.580170
  C     -1.252930   -7.078470    2.955530
  C      0.384160   -9.291950    1.040850
  O      0.423410  -10.099710    1.946340
  C      0.416340   -9.442150   -0.395960
  C      0.354730   -8.146140   -0.974740
  C      0.382940   -8.300580   -2.420680
  O      0.356200   -7.519910   -3.339900
  N      0.465420   -9.703320   -2.606920
  C      0.477160  -10.280660   -3.929600
  C     -0.892450  -10.825580   -4.327570
  C      0.480970  -10.383550   -1.417570
  C      0.550930  -11.803560   -1.330590
  C      0.599690  -12.485140   -0.168140
  C      0.647400  -13.933240   -0.148230
  N      0.848620  -14.521990    1.033590
  C      0.891310  -15.838620    1.055260
  C      0.722020  -16.608920   -0.088060
  C      0.500780  -15.911180   -1.280780
  N      0.475500  -14.581130   -1.297490
  C      0.274730  -16.609550   -2.537060
  C     -0.001300  -15.928990   -3.660100
  C     -0.271280  -16.455020   -4.979220
  C     -0.380940  -17.810790   -5.314240
  C     -0.641510  -18.234440   -6.612580
  C     -0.827260  -17.324620   -7.656570
  C     -0.735000  -15.972220   -7.327540
  C     -0.461360  -15.552270   -6.037550
  F     -0.380410  -14.236450   -5.799020
  F     -0.912200  -15.037830   -8.280240
  C     -1.034280  -17.841050   -9.065760
  O     -0.560110  -18.874880   -9.427180
  O     -1.773450  -17.085660   -9.876100
  F     -0.747930  -19.538840   -6.834890
  F     -0.240750  -18.750820   -4.373750
  H     -0.432680    2.519700   -3.070850
  H      0.413360   -3.698720   -2.549320
  H     -0.199660   -3.117570    1.681520
  H      0.792530   -6.453210    2.649910
  H      0.606900   -8.131070    3.244250
  H     -1.665780   -6.313820    2.303000
  H     -1.302300   -6.726770    3.981770
  H     -1.848390   -7.983960    2.866860
  H      1.236140  -11.066050   -3.978760
  H      0.761130   -9.472410   -4.609190
  H     -1.233440  -11.578380   -3.620550
  H     -0.834820  -11.275840   -5.314420
  H     -1.620560  -10.018800   -4.352140
  H      0.567400  -12.367130   -2.252430
  H      0.608760  -11.991270    0.792890
  H      1.065060  -16.290670    2.023460
  H      0.751010  -17.685730   -0.060630
  H      0.333470  -17.685490   -2.496450
  H     -0.027230  -14.850350   -3.581400
  H     -2.034360  -16.226130   -9.518620

 Total Charge           Charge          ....    0
 Multiplicity           Mult            ....    1
 Number of Electrons    NEL             ....  398
 Basis Dimension        Dim             ....  884

ORBITAL ENERGIES
----------------

  NO   OCC          E(Eh)            E(eV)
   0   2.0000     -24.834080      -675.7697
   1   2.0000     -24.834032      -675.7684
   2   2.0000     -24.821459      -675.4262
   3   2.0000     -24.820993      -675.4136
   4   2.0000     -24.819730      -675.3792
   5   2.0000     -24.818374      -675.3423
   6   2.0000     -24.810577      -675.1301
   7   2.0000     -24.809188      -675.0923
   8   2.0000     -19.272738      -524.4379
   9   2.0000     -19.271998      -524.4177
  10   2.0000     -19.213214      -522.8181
  11   2.0000     -19.212462      -522.7977
  12   2.0000     -19.188884      -522.1561
  13   2.0000     -19.183639      -522.0134
  14   2.0000     -14.451378      -393.2420
  15   2.0000     -14.448047      -393.1513
  16   2.0000     -14.429058      -392.6346
  17   2.0000     -14.422221      -392.4486
  18   2.0000     -14.420581      -392.4040
  19   2.0000     -14.415619      -392.2689
  20   2.0000     -10.426338      -283.7151
  21   2.0000     -10.425696      -283.6976
  22   2.0000     -10.407368      -283.1989
  23   2.0000     -10.406086      -283.1640
  24   2.0000     -10.402558      -283.0680
  25   2.0000     -10.402031      -283.0537
  26   2.0000     -10.401038      -283.0266
  27   2.0000     -10.399932      -282.9965
  28   2.0000     -10.399308      -282.9796
  29   2.0000     -10.398191      -282.9492
  30   2.0000     -10.373444      -282.2758
  31   2.0000     -10.366927      -282.0984
  32   2.0000     -10.364567      -282.0342
  33   2.0000     -10.351054      -281.6665
  34   2.0000     -10.342438      -281.4320
  35   2.0000     -10.341995      -281.4200
  36   2.0000     -10.340864      -281.3892
  37   2.0000     -10.340362      -281.3755
  38   2.0000     -10.339072      -281.3405
  39   2.0000     -10.337156      -281.2883
  40   2.0000     -10.335036      -281.2306
  41   2.0000     -10.334126      -281.2059
  42   2.0000     -10.331814      -281.1430
  43   2.0000     -10.329609      -281.0830
  44   2.0000     -10.319615      -280.8110
  45   2.0000     -10.307519      -280.4819
  46   2.0000     -10.307376      -280.4780
  47   2.0000     -10.300433      -280.2890
  48   2.0000     -10.296862      -280.1919
  49   2.0000     -10.290754      -280.0257
  50   2.0000     -10.289694      -279.9968
  51   2.0000     -10.285088      -279.8715
  52   2.0000     -10.266250      -279.3589
  53   2.0000     -10.263364      -279.2803
  54   2.0000     -10.258648      -279.1520
  55   2.0000     -10.247285      -278.8428
  56   2.0000      -1.352597       -36.8060
  57   2.0000      -1.352158       -36.7941
  58   2.0000      -1.342100       -36.5204
  59   2.0000      -1.341224       -36.4966
  60   2.0000      -1.333103       -36.2756
  61   2.0000      -1.332603       -36.2620
  62   2.0000      -1.324183       -36.0329
  63   2.0000      -1.323520       -36.0148
  64   2.0000      -1.199240       -32.6330
  65   2.0000      -1.198630       -32.6164
  66   2.0000      -1.131353       -30.7857
  67   2.0000      -1.122947       -30.5570
  68   2.0000      -1.114289       -30.3213
  69   2.0000      -1.113594       -30.3024
  70   2.0000      -1.103009       -30.0144
  71   2.0000      -1.092454       -29.7272
  72   2.0000      -1.061186       -28.8763
  73   2.0000      -1.049468       -28.5575
  74   2.0000      -1.011339       -27.5199
  75   2.0000      -1.009214       -27.4621
  76   2.0000      -0.996312       -27.1110
  77   2.0000      -0.991800       -26.9883
  78   2.0000      -0.940584       -25.5946
  79   2.0000      -0.935955       -25.4686
  80   2.0000      -0.924794       -25.1649
  81   2.0000      -0.918875       -25.0039
  82   2.0000      -0.890697       -24.2371
  83   2.0000      -0.884358       -24.0646
  84   2.0000      -0.874562       -23.7980
  85   2.0000      -0.873197       -23.7609
  86   2.0000      -0.867250       -23.5991
  87   2.0000      -0.862096       -23.4588
  88   2.0000      -0.829921       -22.5833
  89   2.0000      -0.814338       -22.1593
  90   2.0000      -0.805107       -21.9081
  91   2.0000      -0.801709       -21.8156
  92   2.0000      -0.778279       -21.1781
  93   2.0000      -0.769540       -20.9403
  94   2.0000      -0.755239       -20.5511
  95   2.0000      -0.754725       -20.5371
  96   2.0000      -0.752630       -20.4801
  97   2.0000      -0.749657       -20.3992
  98   2.0000      -0.738884       -20.1060
  99   2.0000      -0.729604       -19.8535
 100   2.0000      -0.728692       -19.8287
 101   2.0000      -0.727865       -19.8062
 102   2.0000      -0.704285       -19.1646
 103   2.0000      -0.701734       -19.0951
 104   2.0000      -0.695142       -18.9158
 105   2.0000      -0.693904       -18.8821
 106   2.0000      -0.693078       -18.8596
 107   2.0000      -0.686597       -18.6833
 108   2.0000      -0.680220       -18.5097
 109   2.0000      -0.672746       -18.3064
 110   2.0000      -0.663813       -18.0633
 111   2.0000      -0.660311       -17.9680
 112   2.0000      -0.650300       -17.6956
 113   2.0000      -0.639833       -17.4107
 114   2.0000      -0.638022       -17.3615
 115   2.0000      -0.637763       -17.3544
 116   2.0000      -0.633463       -17.2374
 117   2.0000      -0.631678       -17.1888
 118   2.0000      -0.629007       -17.1162
 119   2.0000      -0.621399       -16.9091
 120   2.0000      -0.620177       -16.8759
 121   2.0000      -0.618380       -16.8270
 122   2.0000      -0.612273       -16.6608
 123   2.0000      -0.602974       -16.4078
 124   2.0000      -0.597200       -16.2506
 125   2.0000      -0.596864       -16.2415
 126   2.0000      -0.594363       -16.1734
 127   2.0000      -0.590600       -16.0710
 128   2.0000      -0.582762       -15.8578
 129   2.0000      -0.581200       -15.8153
 130   2.0000      -0.576222       -15.6798
 131   2.0000      -0.575121       -15.6498
 132   2.0000      -0.574926       -15.6445
 133   2.0000      -0.564803       -15.3691
 134   2.0000      -0.562959       -15.3189
 135   2.0000      -0.562318       -15.3014
 136   2.0000      -0.550610       -14.9829
 137   2.0000      -0.547379       -14.8949
 138   2.0000      -0.545793       -14.8518
 139   2.0000      -0.544185       -14.8080
 140   2.0000      -0.543614       -14.7925
 141   2.0000      -0.541933       -14.7467
 142   2.0000      -0.541315       -14.7299
 143   2.0000      -0.537493       -14.6259
 144   2.0000      -0.534703       -14.5500
 145   2.0000      -0.534243       -14.5375
 146   2.0000      -0.533741       -14.5238
 147   2.0000      -0.529517       -14.4089
 148   2.0000      -0.526792       -14.3347
 149   2.0000      -0.523349       -14.2410
 150   2.0000      -0.520969       -14.1763
 151   2.0000      -0.517897       -14.0927
 152   2.0000      -0.510944       -13.9035
 153   2.0000      -0.508540       -13.8381
 154   2.0000      -0.507698       -13.8152
 155   2.0000      -0.504676       -13.7329
 156   2.0000      -0.499570       -13.5940
 157   2.0000      -0.498650       -13.5690
 158   2.0000      -0.496905       -13.5215
 159   2.0000      -0.492581       -13.4038
 160   2.0000      -0.487422       -13.2634
 161   2.0000      -0.484971       -13.1967
 162   2.0000      -0.472554       -12.8588
 163   2.0000      -0.471430       -12.8283
 164   2.0000      -0.468706       -12.7541
 165   2.0000      -0.468241       -12.7415
 166   2.0000      -0.465172       -12.6580
 167   2.0000      -0.460425       -12.5288
 168   2.0000      -0.456712       -12.4278
 169   2.0000      -0.455003       -12.3813
 170   2.0000      -0.453567       -12.3422
 171   2.0000      -0.445392       -12.1197
 172   2.0000      -0.440885       -11.9971
 173   2.0000      -0.437004       -11.8915
 174   2.0000      -0.431784       -11.7494
 175   2.0000      -0.423748       -11.5308
 176   2.0000      -0.423155       -11.5146
 177   2.0000      -0.416253       -11.3268
 178   2.0000      -0.406197       -11.0532
 179   2.0000      -0.406004       -11.0479
 180   2.0000      -0.403447       -10.9784
 181   2.0000      -0.394422       -10.7328
 182   2.0000      -0.393562       -10.7094
 183   2.0000      -0.388716       -10.5775
 184   2.0000      -0.388255       -10.5650
 185   2.0000      -0.383843       -10.4449
 186   2.0000      -0.367057        -9.9881
 187   2.0000      -0.366347        -9.9688
 188   2.0000      -0.346612        -9.4318
 189   2.0000      -0.340129        -9.2554
 190   2.0000      -0.338050        -9.1988
 191   2.0000      -0.337708        -9.1895
 192   2.0000      -0.333576        -9.0771
 193   2.0000      -0.331652        -9.0247
 194   2.0000      -0.330469        -8.9925
 195   2.0000      -0.320679        -8.7261
 196   2.0000      -0.313015        -8.5176
 197   2.0000      -0.311345        -8.4721
 198   2.0000      -0.244891        -6.6638
 199   0.0000      -0.089694        -2.4407
 200   0.0000      -0.074544        -2.0284
 201   0.0000      -0.050717        -1.3801
 202   0.0000      -0.020610        -0.5608
 203   0.0000      -0.013106        -0.3566

MULLIKEN ATOMIC CHARGES
-----------------------
   0 C :    0.206512
   1 F :   -0.135386
   2 C :   -0.218116
   3 C :    0.187010
   4 O :   -0.142068
   5 O :   -0.143410
   6 C :    0.205288
   7 F :   -0.180499
   8 C :    0.197447
   9 F :   -0.158654
  10 C :   -0.059138
  11 C :    0.188309
  12 F :   -0.161350
  13 C :   -0.029790
  14 C :    0.063971
  15 N :    0.004335
  16 C :   -0.183731
  17 N :   -0.060047
  18 C :    0.065757
  19 C :    0.193274
  20 N :   -0.260024
  21 C :    0.142127
  22 C :    0.003896
  23 C :    0.153206
  24 O :   -0.200605
  25 C :   -0.067804
  26 C :   -0.058957
  27 C :    0.148997
  28 O :   -0.151887
  29 N :   -0.267753
  30 C :    0.098148
  31 C :    0.003652
  32 C :    0.156712
  33 C :    0.000022
  34 C :    0.051544
  35 C :   -0.075726
  36 N :   -0.045836
  37 C :    0.085797
  38 C :   -0.048141
  39 C :    0.049778
  40 N :   -0.065834
  41 C :    0.009949
  42 C :    0.012531
  43 C :   -0.019911
  44 C :    0.182206
  45 C :    0.209562
  46 C :   -0.222864
  47 C :    0.208420
  48 C :    0.194259
  49 F :   -0.167370
  50 F :   -0.182621
  51 C :    0.183409
  52 O :   -0.142083
  53 O :   -0.143219
  54 F :   -0.137703
  55 F :   -0.163702
  56 H :    0.187501
  57 H :    0.018600
  58 H :    0.015444
  59 H :    0.022591
  60 H :    0.032237
  61 H :    0.012604
  62 H :    0.013223
  63 H :    0.019315
  64 H :    0.024717
  65 H :    0.042945
  66 H :    0.016769
  67 H :    0.020339
  68 H :    0.028611
  69 H :   -0.011083
  70 H :    0.023182
  71 H :    0.013139
  72 H :    0.001831
  73 H :    0.001902
  74 H :    0.017121
  75 H :    0.187125
Sum of atomic charges:   -0.0000000

LOEWDIN ATOMIC CHARGES
----------------------
   0 C :    0.077884
   1 F :   -0.018935
   2 C :   -0.121430
   3 C :    0.080446
   4 O :   -0.126415
   5 O :   -0.015360
   6 C :    0.057454
   7 F :   -0.047541
   8 C :    0.059534
   9 F :   -0.037527
  10 C :   -0.053488
  11 C :    0.061489
  12 F :   -0.038325
  13 C :   -0.074743
  14 C :    0.068434
  15 N :   -0.042303
  16 C :    0.027327
  17 N :   -0.068513
  18 C :    0.063268
  19 C :    0.045473
  20 N :    0.010015
  21 C :    0.036014
  22 C :   -0.061722
  23 C :    0.076572
  24 O :   -0.195954
  25 C :   -0.124725
  26 C :   -0.092618
  27 C :    0.084559
  28 O :   -0.162139
  29 N :   -0.005820
  30 C :    0.035732
  31 C :   -0.061863
  32 C :    0.088703
  33 C :   -0.023793
  34 C :    0.025972
  35 C :    0.027271
  36 N :   -0.076292
  37 C :    0.056089
  38 C :   -0.057895
  39 C :    0.031981
  40 N :   -0.080821
  41 C :   -0.012170
  42 C :    0.005358
  43 C :   -0.055130
  44 C :    0.065742
  45 C :    0.077407
  46 C :   -0.121800
  47 C :    0.055522
  48 C :    0.062415
  49 F :   -0.043292
  50 F :   -0.049199
  51 C :    0.079936
  52 O :   -0.127164
  53 O :   -0.016198
  54 F :   -0.020240
  55 F :   -0.034993
  56 H :    0.088320
  57 H :    0.030878
  58 H :    0.028815
  59 H :    0.022330
  60 H :    0.030612
  61 H :    0.017671
  62 H :    0.027502
  63 H :    0.026078
  64 H :    0.023653
  65 H :    0.037128
  66 H :    0.022152
  67 H :    0.029099
  68 H :    0.031613
  69 H :    0.030642
  70 H :    0.042951
  71 H :    0.029462
  72 H :    0.035881
  73 H :    0.029056
  74 H :    0.036671
  75 H :    0.087300

  Mayer bond orders larger than 0.100000
B(  0-C ,  1-F ) :   1.2095 B(  0-C ,  2-C ) :   1.3506 B(  0-C , 11-C ) :   1.2874
B(  2-C ,  3-C ) :   0.8491 B(  2-C ,  6-C ) :   1.3344 B(  2-C , 10-C ) :   0.1194
B(  3-C ,  4-O ) :   2.2182 B(  3-C ,  5-O ) :   1.2595 B(  5-O , 56-H ) :   0.9400
B(  6-C ,  7-F ) :   1.1236 B(  6-C ,  8-C ) :   1.3079 B(  8-C ,  9-F ) :   1.1746
B(  8-C , 10-C ) :   1.3347 B( 10-C , 11-C ) :   1.3346 B( 10-C , 13-C ) :   0.9599
B( 11-C , 12-F ) :   1.1662 B( 13-C , 14-C ) :   1.3156 B( 13-C , 18-C ) :   1.3495
B( 14-C , 15-N ) :   1.5911 B( 14-C , 57-H ) :   0.9913 B( 15-N , 16-C ) :   1.6453
B( 15-N , 19-C ) :  -0.1294 B( 16-C , 17-N ) :   1.4961 B( 16-C , 19-C ) :   0.9851
B( 17-N , 18-C ) :   1.5505 B( 18-C , 58-H ) :   0.9883 B( 19-C , 20-N ) :   1.2017
B( 19-C , 26-C ) :   1.3983 B( 20-N , 21-C ) :   0.9388 B( 20-N , 23-C ) :   1.0552
B( 21-C , 22-C ) :   1.1225 B( 21-C , 59-H ) :   0.9369 B( 21-C , 60-H ) :   0.9272
B( 22-C , 61-H ) :   0.9649 B( 22-C , 62-H ) :   0.9683 B( 22-C , 63-H ) :   0.9658
B( 23-C , 24-O ) :   2.0524 B( 23-C , 25-C ) :   0.9854 B( 25-C , 26-C ) :   1.2431
B( 25-C , 32-C ) :   1.3403 B( 26-C , 27-C ) :   0.9403 B( 27-C , 28-O ) :   2.1902
B( 27-C , 29-N ) :   1.0107 B( 29-N , 30-C ) :   0.9459 B( 29-N , 32-C ) :   1.1852
B( 30-C , 31-C ) :   1.1209 B( 30-C , 64-H ) :   0.9503 B( 30-C , 65-H ) :   0.9275
B( 31-C , 66-H ) :   0.9685 B( 31-C , 67-H ) :   0.9667 B( 31-C , 68-H ) :   0.9627
B( 32-C , 33-C ) :   1.1074 B( 33-C , 34-C ) :   1.6460 B( 33-C , 69-H ) :   0.9652
B( 34-C , 35-C ) :   1.0171 B( 34-C , 70-H ) :   0.9580 B( 35-C , 36-N ) :   1.5381
B( 35-C , 40-N ) :   1.5304 B( 36-N , 37-C ) :   1.5531 B( 37-C , 38-C ) :   1.3614
B( 37-C , 71-H ) :   0.9801 B( 38-C , 39-C ) :   1.3355 B( 38-C , 72-H ) :   0.9778
B( 39-C , 40-N ) :   1.5220 B( 39-C , 41-C ) :   1.0474 B( 41-C , 42-C ) :   1.7324
B( 41-C , 73-H ) :   0.9757 B( 42-C , 43-C ) :   1.0809 B( 42-C , 74-H ) :   0.9727
B( 43-C , 44-C ) :   1.2754 B( 43-C , 46-C ) :   0.1197 B( 43-C , 48-C ) :   1.2985
B( 44-C , 45-C ) :   1.3059 B( 44-C , 55-F ) :   1.1384 B( 45-C , 46-C ) :   1.3585
B( 45-C , 54-F ) :   1.2046 B( 46-C , 47-C ) :   1.3248 B( 46-C , 51-C ) :   0.8483
B( 47-C , 48-C ) :   1.3224 B( 47-C , 50-F ) :   1.1218 B( 48-C , 49-F ) :   1.1431
B( 51-C , 52-O ) :   2.2185 B( 51-C , 53-O ) :   1.2624 B( 53-O , 75-H ) :   0.9389

-----------------------------------------------------------------------------
         ABSORPTION SPECTRUM VIA TRANSITION ELECTRIC DIPOLE MOMENTS
-----------------------------------------------------------------------------
State   Energy  Wavelength   fosc         T2         TX        TY        TZ
        (cm-1)    (nm)                  (au**2)     (au)      (au)      (au)
-----------------------------------------------------------------------------
   0   17116.1    584.2   0.603170499  11.60139  -0.15383   3.16591   1.24689
   1   24096.2    415.0   0.007461978   0.10195   0.06190   0.02149   0.31250
   2   25607.5    390.5   0.015521311   0.19954   0.04233  -0.41531   0.15896
   3   26465.3    377.9   0.000691250   0.00860   0.07756   0.04509  -0.02346
   4   27374.2    365.3   0.020590991   0.24763   0.04363  -0.40201   0.29003
   5   28795.9    347.3   0.000892131   0.01020   0.03429   0.09435  -0.01102
   6   30833.9    324.3   0.011701175   0.12493   0.03744  -0.31692  -0.15197
   7   30997.6    322.6   0.003865444   0.04105  -0.01691  -0.20187   0.00376
   8   31504.3    317.4   0.012794407   0.13370   0.01981   0.36497   0.01024
   9   32081.1    311.7   0.005825311   0.05978  -0.23957  -0.04755   0.01105
  10   32797.1    304.9   0.207255421   2.08040  -0.10133  -1.20812  -0.78139
  11   33246.5    300.8   0.278311379   2.75588  -0.17627  -1.63219  -0.24649
  12   35951.2    278.2   0.638166376   5.84381  -0.37446  -1.51169  -1.84889
  13   36280.0    275.6   0.972787044   8.82726   0.40626  -1.91795   2.23242
  14   38387.4    260.5   0.003025674   0.02595  -0.09268   0.01800   0.13051
  15   38521.0    259.6   0.102927934   0.87965   0.53932  -0.11965   0.75794
  16   38682.1    258.5   0.334101787   2.84344  -0.01448   1.64190  -0.38391
  17   38877.6    257.2   0.050744517   0.42970   0.06561   0.59545   0.26614
  18   38897.3    257.1   0.043571758   0.36877  -0.05257   0.39194  -0.46086
  19   40306.6    248.1   0.159277106   1.30093  -0.06767  -0.99138  -0.55992

FINAL SINGLE POINT ENERGY     -2959.019996812014

DIPOLE MOMENT
-------------
                                X             Y             Z
Electronic contribution:      0.70993      19.80473     -28.52113
Nuclear contribution   :     -1.04525     -20.61173      28.43580
                        -----------------------------------------
Total Dipole Moment    :     -0.33531      -0.80700      -0.08533
                        -----------------------------------------
Magnitude (a.u.)       :      0.87805
Magnitude (Debye)      :      2.23182

Rotational constants in cm-1:     0.002986     0.000408     0.000362
Rotational constants in MHz :    89.512026    12.227259    10.863312

                             ****ORCA TERMINATED NORMALLY****
TOTAL RUN TIME: 0 days 0 hours 5 minutes 4 seconds 540 msec
