                         Program Version 4.2.0 -  RELEASE  -
|  1> # ORCA input file
|  2> # SCF done       -176.640684099866          0.000313379565
|  3> ! CAM-B3LYP def2-SVP def2/J RIJCOSX Grid4 TightSCF
|  4> %maxcore 5000
|  5> %tddft
|  6>     Mode sTDDFT
|  7>     Ethresh 5.0
|  8>     maxcore 5000
|  9> end
| 10>
| 11> %pal
| 12>   nprocs 6
| 13>   end
| 14> * xyz 0 1
| 15>    C       10.14587        -4.59103         3.81072
| 16>    S        8.89604        -5.74738         3.59158
| 17>    C        7.93903        -5.03002         4.85858
| 18>    C        8.58804        -3.91451         5.38705
| 19>    C        9.85072        -3.69259         4.78362
| 20>    C        8.02578        -2.96078         6.33639
| 21>    O        8.65326        -2.07901         6.86724
| 22>    C        6.69829        -5.63057         5.18775
| 23>    C        6.06166        -5.52875         6.38737
| 24>    C        4.79082        -6.08086         6.66951
| 25>    C        4.32149        -6.50330         7.91165
| 26>    N        4.95360        -6.39115         9.15871
| 27>    O        4.35795        -6.82702        10.13035
| 28>    O        6.05437        -5.86221         9.21751
| 29>    C        3.05685        -7.15520         7.74201
| 30>    C        2.74586        -7.17302         6.41659
| 31>    C        3.75869        -6.47078         5.69296
| 32>    C        3.68706        -6.06478         4.37009
| 33>    C        4.19065        -4.84101         3.83592
| 34>    C        3.72047        -4.69488         2.56626
| 35>    C        2.94532        -5.84231         2.20870
| 36>    N        2.37399        -5.91582         0.93136
| 37>    O        1.49872        -6.74093         0.69945
| 38>    O        2.77118        -5.11692         0.09789
| 39>    C        2.92141        -6.73354         3.29807
| 40>    C        2.55380        -8.08131         3.44168
| 41>    C        1.85436        -8.86790         2.55863
| 42>    C        1.56140       -10.21241         2.82736
| 43>    N        0.84788       -11.01788         1.96989
| 44>    C        0.29055       -10.62977         0.69394
| 45>    C       -1.00109        -9.83306         0.85162
| 46>    C        0.65994       -12.30608         2.48268
| 47>    O        0.06256       -13.18870         1.89896
| 48>    C        1.32868       -12.28176         3.77073
| 49>    C        1.87739       -10.99970         3.95163
| 50>    C        2.55449       -10.98155         5.23329
| 51>    O        3.18800       -10.11844         5.80830
| 52>    N        2.35374       -12.27074         5.75190
| 53>    C        2.83793       -12.63355         7.06262
| 54>    C        1.72390       -12.60703         8.10588
| 55>    C        1.62677       -13.06436         4.89912
| 56>    C        1.29578       -14.40652         5.17701
| 57>    C        0.57615       -15.17245         4.31044
| 58>    C        0.19899       -16.53267         4.50536
| 59>    C       -0.49845       -17.18507         3.47982
| 60>    N       -0.90302       -18.43782         3.49539
| 61>    C       -0.66225       -19.19971         4.55655
| 62>    C        0.02929       -18.66836         5.69436
| 63>    C        0.46799       -17.31647         5.67195
| 64>    N        1.11194       -16.80587         6.74068
| 65>    C        1.31471       -17.59073         7.76648
| 66>    C        0.88449       -18.92931         7.77895
| 67>    N        0.25223       -19.45378         6.76222
| 68>    C       -1.09620       -20.56117         4.55854
| 69>    C       -1.74661       -21.12133         3.51276
| 70>    C       -2.19052       -22.46745         3.46095
| 71>    S       -1.94596       -23.58502         4.78396
| 72>    C       -2.73447       -24.86454         3.93002
| 73>    C       -3.14601       -24.44614         2.66866
| 74>    C       -2.84440       -23.09047         2.42527
| 75>    C       -3.70988       -25.30650         1.63270
| 76>    O       -4.26339       -24.91056         0.63830
| 77>    C       -2.91421       -26.13216         4.58746
| 78>    C       -3.92579       -26.97117         4.37386
| 79>    H       11.02650        -4.64578         3.20180
| 80>    H       10.48552        -2.87464         5.07264
| 81>    H        6.93896        -3.07229         6.50857
| 82>    H        6.27779        -6.27421         4.42509
| 83>    H        6.58056        -5.09287         7.23120
| 84>    H        2.48001        -7.55150         8.55569
| 85>    H        1.82952        -7.53306         5.99257
| 86>    H        4.74467        -4.11111         4.39287
| 87>    H        3.87042        -3.85937         1.90870
| 88>    H        2.88755        -8.54665         4.35951
| 89>    H        1.48982        -8.44560         1.63573
| 90>    H        0.08633       -11.56173         0.15962
| 91>    H        1.02989       -10.05226         0.13416
| 92>    H       -1.72886       -10.40682         1.42081
| 93>    H       -1.41538        -9.61983        -0.12929
| 94>    H       -0.81799        -8.88979         1.35955
| 95>    H        3.59965       -11.89208         7.31944
| 96>    H        3.30438       -13.62119         7.01793
| 97>    H        1.28386       -11.61403         8.15536
| 98>    H        2.13149       -12.85278         9.08234
| 99>    H        0.94258       -13.32291         7.86116
|100>    H        1.62779       -14.83842         6.10793
|101>    H        0.25083       -14.73495         3.37442
|102>    H       -0.73664       -16.63853         2.57566
|103>    H        1.83124       -17.15543         8.61183
|104>    H        1.05784       -19.57293         8.63031
|105>    H       -0.87242       -21.13012         5.45006
|106>    H       -1.94813       -20.51072         2.64282
|107>    H       -3.09189       -22.60514         1.49814
|108>    H       -3.55340       -26.38761         1.81029
|109>    H       -2.17423       -26.36335         5.34334
|110>    H       -4.72622       -26.74611         3.69033
|111>    H       -3.99386       -27.90399         4.90591
|112> *
|113>
|114>                          ****END OF INPUT****

CARTESIAN COORDINATES (ANGSTROEM)
---------------------------------
  C     10.145870   -4.591030    3.810720
  S      8.896040   -5.747380    3.591580
  C      7.939030   -5.030020    4.858580
  C      8.588040   -3.914510    5.387050
  C      9.850720   -3.692590    4.783620
  C      8.025780   -2.960780    6.336390
  O      8.653260   -2.079010    6.867240
  C      6.698290   -5.630570    5.187750
  C      6.061660   -5.528750    6.387370
  C      4.790820   -6.080860    6.669510
  C      4.321490   -6.503300    7.911650
  N      4.953600   -6.391150    9.158710
  O      4.357950   -6.827020   10.130350
  O      6.054370   -5.862210    9.217510
  C      3.056850   -7.155200    7.742010
  C      2.745860   -7.173020    6.416590
  C      3.758690   -6.470780    5.692960
  C      3.687060   -6.064780    4.370090
  C      4.190650   -4.841010    3.835920
  C      3.720470   -4.694880    2.566260
  C      2.945320   -5.842310    2.208700
  N      2.373990   -5.915820    0.931360
  O      1.498720   -6.740930    0.699450
  O      2.771180   -5.116920    0.097890
  C      2.921410   -6.733540    3.298070
  C      2.553800   -8.081310    3.441680
  C      1.854360   -8.867900    2.558630
  C      1.561400  -10.212410    2.827360
  N      0.847880  -11.017880    1.969890
  C      0.290550  -10.629770    0.693940
  C     -1.001090   -9.833060    0.851620
  C      0.659940  -12.306080    2.482680
  O      0.062560  -13.188700    1.898960
  C      1.328680  -12.281760    3.770730
  C      1.877390  -10.999700    3.951630
  C      2.554490  -10.981550    5.233290
  O      3.188000  -10.118440    5.808300
  N      2.353740  -12.270740    5.751900
  C      2.837930  -12.633550    7.062620
  C      1.723900  -12.607030    8.105880
  C      1.626770  -13.064360    4.899120
  C      1.295780  -14.406520    5.177010
  C      0.576150  -15.172450    4.310440
  C      0.198990  -16.532670    4.505360
  C     -0.498450  -17.185070    3.479820
  N     -0.903020  -18.437820    3.495390
  C     -0.662250  -19.199710    4.556550
  C      0.029290  -18.668360    5.694360
  C      0.467990  -17.316470    5.671950
  N      1.111940  -16.805870    6.740680
  C      1.314710  -17.590730    7.766480
  C      0.884490  -18.929310    7.778950
  N      0.252230  -19.453780    6.762220
  C     -1.096200  -20.561170    4.558540
  C     -1.746610  -21.121330    3.512760
  C     -2.190520  -22.467450    3.460950
  S     -1.945960  -23.585020    4.783960
  C     -2.734470  -24.864540    3.930020
  C     -3.146010  -24.446140    2.668660
  C     -2.844400  -23.090470    2.425270
  C     -3.709880  -25.306500    1.632700
  O     -4.263390  -24.910560    0.638300
  C     -2.914210  -26.132160    4.587460
  C     -3.925790  -26.971170    4.373860
  H     11.026500   -4.645780    3.201800
  H     10.485520   -2.874640    5.072640
  H      6.938960   -3.072290    6.508570
  H      6.277790   -6.274210    4.425090
  H      6.580560   -5.092870    7.231200
  H      2.480010   -7.551500    8.555690
  H      1.829520   -7.533060    5.992570
  H      4.744670   -4.111110    4.392870
  H      3.870420   -3.859370    1.908700
  H      2.887550   -8.546650    4.359510
  H      1.489820   -8.445600    1.635730
  H      0.086330  -11.561730    0.159620
  H      1.029890  -10.052260    0.134160
  H     -1.728860  -10.406820    1.420810
  H     -1.415380   -9.619830   -0.129290
  H     -0.817990   -8.889790    1.359550
  H      3.599650  -11.892080    7.319440
  H      3.304380  -13.621190    7.017930
  H      1.283860  -11.614030    8.155360
  H      2.131490  -12.852780    9.082340
  H      0.942580  -13.322910    7.861160
  H      1.627790  -14.838420    6.107930
  H      0.250830  -14.734950    3.374420
  H     -0.736640  -16.638530    2.575660
  H      1.831240  -17.155430    8.611830
  H      1.057840  -19.572930    8.630310
  H     -0.872420  -21.130120    5.450060
  H     -1.948130  -20.510720    2.642820
  H     -3.091890  -22.605140    1.498140
  H     -3.553400  -26.387610    1.810290
  H     -2.174230  -26.363350    5.343340
  H     -4.726220  -26.746110    3.690330
  H     -3.993860  -27.903990    4.905910

 Total Charge           Charge          ....    0
 Multiplicity           Mult            ....    1
 Number of Electrons    NEL             ....  460
 Basis Dimension        Dim             .... 1069

ORBITAL ENERGIES
----------------

  NO   OCC          E(Eh)            E(eV)
   0   2.0000     -88.971997     -2421.0511
   1   2.0000     -88.968538     -2420.9570
   2   2.0000     -19.231748      -523.3225
   3   2.0000     -19.229393      -523.2584
   4   2.0000     -19.227000      -523.1933
   5   2.0000     -19.226438      -523.1780
   6   2.0000     -19.210956      -522.7567
   7   2.0000     -19.206803      -522.6437
   8   2.0000     -19.205341      -522.6039
   9   2.0000     -19.191353      -522.2233
  10   2.0000     -14.639829      -398.3700
  11   2.0000     -14.635894      -398.2629
  12   2.0000     -14.463034      -393.5592
  13   2.0000     -14.454752      -393.3338
  14   2.0000     -14.449516      -393.1913
  15   2.0000     -14.447191      -393.1281
  16   2.0000     -14.419165      -392.3654
  17   2.0000     -10.386708      -282.6367
  18   2.0000     -10.375735      -282.3381
  19   2.0000     -10.357065      -281.8301
  20   2.0000     -10.351556      -281.6802
  21   2.0000     -10.348016      -281.5838
  22   2.0000     -10.344857      -281.4979
  23   2.0000     -10.343779      -281.4685
  24   2.0000     -10.338851      -281.3344
  25   2.0000     -10.338561      -281.3265
  26   2.0000     -10.337528      -281.2984
  27   2.0000     -10.335827      -281.2521
  28   2.0000     -10.328643      -281.0567
  29   2.0000     -10.324877      -280.9542
  30   2.0000     -10.321977      -280.8753
  31   2.0000     -10.321369      -280.8587
  32   2.0000     -10.320639      -280.8389
  33   2.0000     -10.318802      -280.7889
  34   2.0000     -10.317270      -280.7472
  35   2.0000     -10.316071      -280.7146
  36   2.0000     -10.314763      -280.6790
  37   2.0000     -10.314396      -280.6690
  38   2.0000     -10.310807      -280.5713
  39   2.0000     -10.304839      -280.4089
  40   2.0000     -10.304565      -280.4015
  41   2.0000     -10.303975      -280.3854
  42   2.0000     -10.301873      -280.3282
  43   2.0000     -10.300140      -280.2811
  44   2.0000     -10.299078      -280.2522
  45   2.0000     -10.297522      -280.2098
  46   2.0000     -10.293478      -280.0998
  47   2.0000     -10.293041      -280.0879
  48   2.0000     -10.292591      -280.0756
  49   2.0000     -10.290950      -280.0310
  50   2.0000     -10.290611      -280.0218
  51   2.0000     -10.290059      -280.0067
  52   2.0000     -10.288432      -279.9625
  53   2.0000     -10.286330      -279.9053
  54   2.0000     -10.285431      -279.8808
  55   2.0000     -10.283626      -279.8317
  56   2.0000     -10.281295      -279.7683
  57   2.0000     -10.281290      -279.7681
  58   2.0000     -10.278523      -279.6928
  59   2.0000     -10.276080      -279.6264
  60   2.0000     -10.275798      -279.6187
  61   2.0000     -10.269615      -279.4504
  62   2.0000     -10.268319      -279.4152
  63   2.0000     -10.257903      -279.1317
  64   2.0000      -8.067804      -219.5361
  65   2.0000      -8.064669      -219.4508
  66   2.0000      -6.036883      -164.2719
  67   2.0000      -6.033870      -164.1899
  68   2.0000      -6.032858      -164.1624
  69   2.0000      -6.030159      -164.0890
  70   2.0000      -6.029491      -164.0708
  71   2.0000      -6.027122      -164.0063
  72   2.0000      -1.308789       -35.6140
  73   2.0000      -1.305161       -35.5152
  74   2.0000      -1.144647       -31.1474
  75   2.0000      -1.131282       -30.7837
  76   2.0000      -1.124681       -30.6041
  77   2.0000      -1.124625       -30.6026
  78   2.0000      -1.122024       -30.5318
  79   2.0000      -1.118706       -30.4415
  80   2.0000      -1.105353       -30.0782
  81   2.0000      -1.072545       -29.1854
  82   2.0000      -1.059905       -28.8415
  83   2.0000      -1.053162       -28.6580
  84   2.0000      -1.026316       -27.9275
  85   2.0000      -1.009997       -27.4834
  86   2.0000      -1.001811       -27.2607
  87   2.0000      -0.994369       -27.0582
  88   2.0000      -0.988021       -26.8854
  89   2.0000      -0.936355       -25.4795
  90   2.0000      -0.931173       -25.3385
  91   2.0000      -0.919236       -25.0137
  92   2.0000      -0.911855       -24.8128
  93   2.0000      -0.909409       -24.7463
  94   2.0000      -0.902452       -24.5570
  95   2.0000      -0.900671       -24.5085
  96   2.0000      -0.890624       -24.2351
  97   2.0000      -0.875161       -23.8143
  98   2.0000      -0.873512       -23.7695
  99   2.0000      -0.865317       -23.5465
 100   2.0000      -0.852269       -23.1914
 101   2.0000      -0.851863       -23.1804
 102   2.0000      -0.844925       -22.9916
 103   2.0000      -0.841767       -22.9056
 104   2.0000      -0.824676       -22.4406
 105   2.0000      -0.823623       -22.4119
 106   2.0000      -0.806502       -21.9460
 107   2.0000      -0.792683       -21.5700
 108   2.0000      -0.786287       -21.3960
 109   2.0000      -0.778848       -21.1935
 110   2.0000      -0.773424       -21.0459
 111   2.0000      -0.763354       -20.7719
 112   2.0000      -0.760051       -20.6820
 113   2.0000      -0.742267       -20.1981
 114   2.0000      -0.731301       -19.8997
 115   2.0000      -0.726055       -19.7570
 116   2.0000      -0.722677       -19.6650
 117   2.0000      -0.716459       -19.4958
 118   2.0000      -0.711999       -19.3745
 119   2.0000      -0.699530       -19.0352
 120   2.0000      -0.695481       -18.9250
 121   2.0000      -0.683422       -18.5969
 122   2.0000      -0.675175       -18.3724
 123   2.0000      -0.665562       -18.1109
 124   2.0000      -0.664941       -18.0940
 125   2.0000      -0.661368       -17.9967
 126   2.0000      -0.658787       -17.9265
 127   2.0000      -0.654018       -17.7967
 128   2.0000      -0.649386       -17.6707
 129   2.0000      -0.645539       -17.5660
 130   2.0000      -0.634675       -17.2704
 131   2.0000      -0.628825       -17.1112
 132   2.0000      -0.622509       -16.9393
 133   2.0000      -0.621424       -16.9098
 134   2.0000      -0.617099       -16.7921
 135   2.0000      -0.616689       -16.7810
 136   2.0000      -0.611495       -16.6396
 137   2.0000      -0.609994       -16.5988
 138   2.0000      -0.607624       -16.5343
 139   2.0000      -0.602953       -16.4072
 140   2.0000      -0.594674       -16.1819
 141   2.0000      -0.593208       -16.1420
 142   2.0000      -0.592675       -16.1275
 143   2.0000      -0.587913       -15.9979
 144   2.0000      -0.582990       -15.8640
 145   2.0000      -0.581282       -15.8175
 146   2.0000      -0.573973       -15.6186
 147   2.0000      -0.571513       -15.5516
 148   2.0000      -0.565148       -15.3785
 149   2.0000      -0.560467       -15.2511
 150   2.0000      -0.556312       -15.1380
 151   2.0000      -0.554662       -15.0931
 152   2.0000      -0.551258       -15.0005
 153   2.0000      -0.549222       -14.9451
 154   2.0000      -0.544895       -14.8273
 155   2.0000      -0.537686       -14.6312
 156   2.0000      -0.534007       -14.5311
 157   2.0000      -0.531930       -14.4746
 158   2.0000      -0.529048       -14.3961
 159   2.0000      -0.526314       -14.3217
 160   2.0000      -0.524143       -14.2627
 161   2.0000      -0.522410       -14.2155
 162   2.0000      -0.519219       -14.1287
 163   2.0000      -0.518623       -14.1124
 164   2.0000      -0.515921       -14.0389
 165   2.0000      -0.511211       -13.9108
 166   2.0000      -0.509802       -13.8724
 167   2.0000      -0.507202       -13.8017
 168   2.0000      -0.503003       -13.6874
 169   2.0000      -0.501733       -13.6529
 170   2.0000      -0.499945       -13.6042
 171   2.0000      -0.499711       -13.5978
 172   2.0000      -0.497752       -13.5445
 173   2.0000      -0.492131       -13.3916
 174   2.0000      -0.491139       -13.3646
 175   2.0000      -0.489935       -13.3318
 176   2.0000      -0.483004       -13.1432
 177   2.0000      -0.480947       -13.0872
 178   2.0000      -0.478292       -13.0150
 179   2.0000      -0.475901       -12.9499
 180   2.0000      -0.471816       -12.8388
 181   2.0000      -0.471321       -12.8253
 182   2.0000      -0.471085       -12.8189
 183   2.0000      -0.467080       -12.7099
 184   2.0000      -0.466477       -12.6935
 185   2.0000      -0.464654       -12.6439
 186   2.0000      -0.463069       -12.6007
 187   2.0000      -0.459054       -12.4915
 188   2.0000      -0.456776       -12.4295
 189   2.0000      -0.454789       -12.3754
 190   2.0000      -0.453918       -12.3517
 191   2.0000      -0.450823       -12.2675
 192   2.0000      -0.447670       -12.1817
 193   2.0000      -0.443866       -12.0782
 194   2.0000      -0.439891       -11.9700
 195   2.0000      -0.437585       -11.9073
 196   2.0000      -0.434867       -11.8333
 197   2.0000      -0.431594       -11.7443
 198   2.0000      -0.430065       -11.7027
 199   2.0000      -0.429221       -11.6797
 200   2.0000      -0.420749       -11.4492
 201   2.0000      -0.414406       -11.2766
 202   2.0000      -0.403897       -10.9906
 203   2.0000      -0.395506       -10.7623
 204   2.0000      -0.390889       -10.6366
 205   2.0000      -0.381449       -10.3798
 206   2.0000      -0.376229       -10.2377
 207   2.0000      -0.373557       -10.1650
 208   2.0000      -0.369040       -10.0421
 209   2.0000      -0.367825       -10.0090
 210   2.0000      -0.366222        -9.9654
 211   2.0000      -0.359947        -9.7947
 212   2.0000      -0.357735        -9.7345
 213   2.0000      -0.354615        -9.6496
 214   2.0000      -0.353299        -9.6138
 215   2.0000      -0.351794        -9.5728
 216   2.0000      -0.340170        -9.2565
 217   2.0000      -0.336239        -9.1495
 218   2.0000      -0.334457        -9.1011
 219   2.0000      -0.332540        -9.0489
 220   2.0000      -0.329935        -8.9780
 221   2.0000      -0.329822        -8.9749
 222   2.0000      -0.325137        -8.8474
 223   2.0000      -0.323160        -8.7936
 224   2.0000      -0.322811        -8.7841
 225   2.0000      -0.317371        -8.6361
 226   2.0000      -0.298193        -8.1142
 227   2.0000      -0.274333        -7.4650
 228   2.0000      -0.266490        -7.2516
 229   2.0000      -0.231010        -6.2861
 230   0.0000      -0.136065        -3.7025
 231   0.0000      -0.097609        -2.6561
 232   0.0000      -0.073099        -1.9891
 233   0.0000      -0.049758        -1.3540
 234   0.0000      -0.045399        -1.2354

MULLIKEN ATOMIC CHARGES
-----------------------
   0 C :   -0.056689
   1 S :    0.145069
   2 C :   -0.128093
   3 C :    0.006333
   4 C :    0.031517
   5 C :    0.135600
   6 O :   -0.181888
   7 C :    0.044032
   8 C :   -0.056373
   9 C :    0.026805
  10 C :    0.082642
  11 N :    0.273961
  12 O :   -0.253474
  13 O :   -0.258033
  14 C :    0.013670
  15 C :    0.039416
  16 C :    0.037893
  17 C :   -0.008006
  18 C :    0.003355
  19 C :    0.025524
  20 C :    0.051639
  21 N :    0.280219
  22 O :   -0.266362
  23 O :   -0.254359
  24 C :    0.094230
  25 C :   -0.085222
  26 C :   -0.004792
  27 C :    0.131252
  28 N :   -0.251861
  29 C :    0.099257
  30 C :    0.007118
  31 C :    0.163254
  32 O :   -0.215335
  33 C :   -0.072555
  34 C :   -0.051119
  35 C :    0.159199
  36 O :   -0.194433
  37 N :   -0.252164
  38 C :    0.101792
  39 C :    0.004585
  40 C :    0.161224
  41 C :   -0.024292
  42 C :   -0.017157
  43 C :    0.024732
  44 C :   -0.018169
  45 N :   -0.036464
  46 C :   -0.023497
  47 C :   -0.033623
  48 C :    0.035423
  49 N :   -0.029948
  50 C :    0.049945
  51 C :    0.023854
  52 N :   -0.003665
  53 C :   -0.045383
  54 C :    0.079778
  55 C :   -0.038766
  56 S :    0.139187
  57 C :   -0.097660
  58 C :    0.021399
  59 C :   -0.004974
  60 C :    0.122270
  61 O :   -0.183194
  62 C :    0.006736
  63 C :   -0.013973
  64 H :    0.039352
  65 H :    0.008811
  66 H :   -0.010232
  67 H :    0.021895
  68 H :    0.035312
  69 H :   -0.003193
  70 H :   -0.011719
  71 H :   -0.003961
  72 H :    0.002965
  73 H :    0.020792
  74 H :   -0.005041
  75 H :    0.039684
  76 H :    0.035525
  77 H :    0.022120
  78 H :    0.026435
  79 H :    0.024646
  80 H :    0.044709
  81 H :    0.027636
  82 H :    0.024531
  83 H :    0.023266
  84 H :    0.021825
  85 H :   -0.013055
  86 H :    0.004981
  87 H :    0.023675
  88 H :    0.017871
  89 H :    0.020086
  90 H :   -0.001495
  91 H :    0.013119
  92 H :    0.003018
  93 H :   -0.006925
  94 H :    0.012316
  95 H :    0.041262
  96 H :    0.038400
Sum of atomic charges:   -0.0000000

LOEWDIN ATOMIC CHARGES
----------------------
   0 C :   -0.171041
   1 S :    0.458410
   2 C :   -0.153969
   3 C :   -0.105885
   4 C :   -0.029533
   5 C :    0.100845
   6 O :   -0.133613
   7 C :   -0.015640
   8 C :   -0.016568
   9 C :    0.005752
  10 C :   -0.049924
  11 N :    0.286554
  12 O :   -0.217988
  13 O :   -0.221024
  14 C :    0.016799
  15 C :   -0.030052
  16 C :    0.040266
  17 C :    0.042995
  18 C :   -0.048860
  19 C :    0.012721
  20 C :   -0.059504
  21 N :    0.287855
  22 O :   -0.228651
  23 O :   -0.217895
  24 C :    0.003428
  25 C :   -0.001051
  26 C :   -0.005449
  27 C :    0.057418
  28 N :    0.005445
  29 C :    0.038304
  30 C :   -0.058854
  31 C :    0.075715
  32 O :   -0.206559
  33 C :   -0.121560
  34 C :   -0.097278
  35 C :    0.082951
  36 O :   -0.181555
  37 N :    0.003977
  38 C :    0.037820
  39 C :   -0.060111
  40 C :    0.090812
  41 C :   -0.056764
  42 C :    0.046198
  43 C :   -0.066816
  44 C :    0.050653
  45 N :   -0.068967
  46 C :    0.032800
  47 C :   -0.026696
  48 C :    0.016084
  49 N :   -0.035281
  50 C :    0.023585
  51 C :    0.003440
  52 N :   -0.021631
  53 C :   -0.052213
  54 C :    0.020778
  55 C :   -0.171227
  56 S :    0.454819
  57 C :   -0.138944
  58 C :   -0.117807
  59 C :   -0.007977
  60 C :    0.099905
  61 O :   -0.136772
  62 C :   -0.046602
  63 C :   -0.015162
  64 H :    0.028448
  65 H :    0.039808
  66 H :   -0.002126
  67 H :    0.035146
  68 H :    0.038952
  69 H :    0.035944
  70 H :    0.028761
  71 H :    0.029958
  72 H :    0.037420
  73 H :    0.038258
  74 H :    0.027453
  75 H :    0.036471
  76 H :    0.028468
  77 H :    0.028982
  78 H :    0.033061
  79 H :    0.025821
  80 H :    0.037711
  81 H :    0.025920
  82 H :    0.030571
  83 H :    0.031006
  84 H :    0.024492
  85 H :    0.024667
  86 H :    0.038461
  87 H :    0.033979
  88 H :    0.029737
  89 H :    0.030075
  90 H :    0.024036
  91 H :    0.043208
  92 H :    0.040299
  93 H :   -0.001599
  94 H :    0.034770
  95 H :    0.028629
  96 H :    0.032303

  Mayer bond orders larger than 0.100000
B(  0-C ,  1-S ) :   1.1539 B(  0-C ,  4-C ) :   1.5656 B(  0-C , 64-H ) :   0.9729
B(  1-S ,  2-C ) :   1.1608 B(  2-C ,  3-C ) :   1.4136 B(  2-C ,  7-C ) :   1.1531
B(  3-C ,  4-C ) :   1.2564 B(  3-C ,  5-C ) :   0.9872 B(  4-C , 65-H ) :   0.9981
B(  5-C ,  6-O ) :   2.1751 B(  5-C , 66-H ) :   0.9587 B(  7-C ,  8-C ) :   1.5826
B(  7-C , 67-H ) :   0.9453 B(  8-C ,  9-C ) :   1.2045 B(  8-C , 68-H ) :   0.9479
B(  9-C , 10-C ) :   1.4814 B(  9-C , 16-C ) :   1.0261 B( 10-C , 11-N ) :   0.9550
B( 10-C , 14-C ) :   1.1466 B( 11-N , 12-O ) :   1.5301 B( 11-N , 13-O ) :   1.4886
B( 12-O , 13-O ) :   0.2569 B( 14-C , 15-C ) :   1.5462 B( 14-C , 69-H ) :   1.0107
B( 15-C , 16-C ) :   1.1675 B( 15-C , 70-H ) :   1.0027 B( 16-C , 17-C ) :   1.4479
B( 17-C , 18-C ) :   1.1595 B( 17-C , 24-C ) :   1.0236 B( 18-C , 19-C ) :   1.5395
B( 18-C , 71-H ) :   0.9981 B( 19-C , 20-C ) :   1.1693 B( 19-C , 72-H ) :   1.0058
B( 20-C , 21-N ) :   0.9748 B( 20-C , 24-C ) :   1.3905 B( 21-N , 22-O ) :   1.4504
B( 21-N , 23-O ) :   1.5298 B( 22-O , 23-O ) :   0.2410 B( 22-O , 74-H ) :   0.1096
B( 24-C , 25-C ) :   1.2253 B( 25-C , 26-C ) :   1.4915 B( 25-C , 73-H ) :   0.9443
B( 26-C , 27-C ) :   1.2031 B( 26-C , 74-H ) :   0.9417 B( 27-C , 28-N ) :   1.1548
B( 27-C , 34-C ) :   1.2691 B( 28-N , 29-C ) :   0.9375 B( 28-N , 31-C ) :   1.0789
B( 29-C , 30-C ) :   1.1268 B( 29-C , 75-H ) :   0.9275 B( 29-C , 76-H ) :   0.9480
B( 30-C , 77-H ) :   0.9630 B( 30-C , 78-H ) :   0.9668 B( 30-C , 79-H ) :   0.9675
B( 31-C , 32-O ) :   2.0185 B( 31-C , 33-C ) :   0.9854 B( 32-O , 86-H ) :   0.1181
B( 33-C , 34-C ) :   1.3085 B( 33-C , 40-C ) :   1.2686 B( 34-C , 35-C ) :   0.9745
B( 35-C , 36-O ) :   2.0282 B( 35-C , 37-N ) :   1.0616 B( 37-N , 38-C ) :   0.9410
B( 37-N , 40-C ) :   1.1730 B( 38-C , 39-C ) :   1.1236 B( 38-C , 80-H ) :   0.9283
B( 38-C , 81-H ) :   0.9480 B( 39-C , 82-H ) :   0.9630 B( 39-C , 83-H ) :   0.9679
B( 39-C , 84-H ) :   0.9678 B( 40-C , 41-C ) :   1.1687 B( 41-C , 42-C ) :   1.5518
B( 41-C , 85-H ) :   0.9402 B( 42-C , 43-C ) :   1.1340 B( 42-C , 86-H ) :   0.9501
B( 43-C , 44-C ) :   1.3426 B( 43-C , 48-C ) :   1.1887 B( 44-C , 45-N ) :   1.5058
B( 44-C , 87-H ) :   0.9810 B( 45-N , 46-C ) :   1.5873 B( 46-C , 47-C ) :   1.1265
B( 46-C , 53-C ) :   1.1698 B( 47-C , 48-C ) :   1.2581 B( 47-C , 52-N ) :   1.5102
B( 48-C , 49-N ) :   1.4493 B( 49-N , 50-C ) :   1.6373 B( 50-C , 51-C ) :   1.2355
B( 50-C , 88-H ) :   0.9733 B( 51-C , 52-N ) :   1.6480 B( 51-C , 89-H ) :   0.9759
B( 53-C , 54-C ) :   1.6072 B( 53-C , 90-H ) :   0.9638 B( 54-C , 55-C ) :   1.1282
B( 54-C , 91-H ) :   0.9806 B( 55-C , 56-S ) :   1.0864 B( 55-C , 59-C ) :   1.4792
B( 56-S , 57-C ) :   1.1666 B( 57-C , 58-C ) :   1.4512 B( 57-C , 62-C ) :   1.0790
B( 58-C , 59-C ) :   1.2284 B( 58-C , 60-C ) :   0.9736 B( 59-C , 92-H ) :   1.0118
B( 60-C , 61-O ) :   2.1817 B( 60-C , 93-H ) :   0.9582 B( 62-C , 63-C ) :   1.9332
B( 62-C , 94-H ) :   0.9525 B( 63-C , 95-H ) :   0.9638 B( 63-C , 96-H ) :   0.9492

-----------------------------------------------------------------------------
         ABSORPTION SPECTRUM VIA TRANSITION ELECTRIC DIPOLE MOMENTS
-----------------------------------------------------------------------------
State   Energy  Wavelength   fosc         T2         TX        TY        TZ
        (cm-1)    (nm)                  (au**2)     (au)      (au)      (au)
-----------------------------------------------------------------------------
   0    5069.2   1972.7   0.254738931  16.54368   1.68253   3.70126   0.11600
   1   11052.4    904.8   0.046190842   1.37586  -0.87186   0.77176  -0.14186
   2   14728.4    679.0   0.580629637  12.97831  -0.45891  -3.44781   0.93826
   3   16973.5    589.2   0.006172495   0.11972  -0.19031  -0.22050   0.18677
   4   19500.4    512.8   0.172476513   2.91181  -0.38087  -1.66292  -0.03792
   5   19792.1    505.3   0.493104975   8.20205   1.71808   2.18663   0.68478
   6   22866.0    437.3   0.016722573   0.24076  -0.39507  -0.26542  -0.11931
   7   23105.2    432.8   0.010931031   0.15575   0.01498  -0.26341   0.29350
   8   23582.0    424.1   0.183341299   2.55951  -1.38783  -0.49180   0.62576
   9   23810.3    420.0   0.059466265   0.82221   0.31598   0.83442  -0.16160
  10   24430.6    409.3   0.140024905   1.88689   0.05843   0.39412   1.31459
  11   24735.0    404.3   0.194599643   2.59004  -0.95120  -1.19613  -0.50452
  12   24854.6    402.3   0.002772049   0.03672   0.17129  -0.03353  -0.07907
  13   25535.7    391.6   0.104200359   1.34338   0.23576  -0.33716   1.08357
  14   26498.6    377.4   0.074700118   0.92806   0.37737  -0.04288   0.88533
  15   26800.7    373.1   0.030263397   0.37175  -0.53420  -0.16597  -0.24254
  16   27084.9    369.2   0.001564869   0.01902  -0.11038   0.08152   0.01385
  17   27227.9    367.3   0.014690771   0.17763  -0.18390   0.20840   0.31682
  18   28364.0    352.6   0.072917253   0.84633  -0.55585  -0.35583  -0.64089
  19   28467.9    351.3   0.163301993   1.88848  -0.67216  -1.17949  -0.21327
  20   28730.4    348.1   0.263626145   3.02081  -0.53757  -1.57824  -0.49090
  21   28854.0    346.6   0.057963040   0.66133  -0.51454  -0.29272   0.55758
  22   29453.3    339.5   0.052413347   0.58585  -0.05970   0.41035   0.64334
  23   29879.9    334.7   0.634150584   6.98697   0.54252   1.46880  -2.12962
  24   30541.1    327.4   0.003193164   0.03442   0.15343  -0.06678  -0.08012
  25   30794.8    324.7   0.009834916   0.10514  -0.16177  -0.13070   0.24877
  26   31165.3    320.9   0.070197100   0.74152  -0.03705   0.36158  -0.78065
  27   31292.0    319.6   0.025436020   0.26760  -0.23764   0.01301  -0.45930
  28   31473.9    317.7   0.016407483   0.17162  -0.08380  -0.37698  -0.14993
  29   31529.8    317.2   0.048654243   0.50801  -0.05608  -0.16450  -0.69124
  30   31965.6    312.8   0.015381942   0.15842  -0.12117  -0.33500   0.17752
  31   32324.6    309.4   0.135809596   1.38316   0.48783   0.69162  -0.81660
  32   32594.8    306.8   0.015135005   0.15287  -0.33132  -0.19825  -0.06154
  33   32719.5    305.6   0.008894793   0.08950   0.13862   0.23430  -0.12403
  34   33021.5    302.8   0.009270228   0.09242  -0.04519  -0.03296  -0.29882
  35   33074.4    302.3   0.061089784   0.60807  -0.24467  -0.04941  -0.73876
  36   33560.4    298.0   0.015670559   0.15372   0.08205   0.25250  -0.28850
  37   33683.7    296.9   0.069785272   0.68206   0.67716   0.47277   0.00156
  38   33718.3    296.6   0.001385903   0.01353   0.05238   0.10386   0.00127
  39   33950.4    294.5   0.002281121   0.02212   0.03518  -0.03069  -0.14121
  40   34394.8    290.7   0.008420528   0.08060   0.19018   0.19461   0.08096
  41   34510.1    289.8   0.032068526   0.30592   0.08459   0.32480  -0.43962
  42   35003.8    285.7   0.079362741   0.74641  -0.35518  -0.34249   0.70920
  43   35104.3    284.9   0.022154517   0.20777  -0.02757   0.43668  -0.12774
  44   35286.9    283.4   0.007068236   0.06594   0.04708  -0.11253   0.22597
  45   36140.9    276.7   0.046332695   0.42205   0.19013   0.62116  -0.00808
  46   36206.1    276.2   0.013555253   0.12325   0.23375   0.06311   0.25423
  47   36557.3    273.5   0.212969501   1.91787   0.65506   1.03634   0.64403
  48   36805.3    271.7   0.060686110   0.54282  -0.07530  -0.60379   0.41543
  49   37014.7    270.2   0.031712788   0.28206   0.21756   0.19636   0.44291
  50   37184.0    268.9   0.001418824   0.01256   0.08091  -0.07616   0.01465
  51   37444.0    267.1   0.046976357   0.41302   0.58071   0.04346   0.27185
  52   37487.7    266.8   0.024626177   0.21626   0.28832   0.17555   0.31987
  53   37701.2    265.2   0.026261393   0.22932   0.25725   0.14309   0.37771
  54   38067.4    262.7   0.020716592   0.17916   0.07994   0.37262  -0.18419
  55   38317.9    261.0   0.040800704   0.35054  -0.26594   0.02153  -0.52854
  56   38483.0    259.9   0.067651243   0.57874  -0.44748  -0.11385  -0.60459
  57   38555.8    259.4   0.000761839   0.00651  -0.04794  -0.01805   0.06230
  58   38625.9    258.9   0.063399803   0.54036  -0.47158  -0.16858  -0.53810
  59   38877.6    257.2   0.032817178   0.27789   0.01288   0.46900  -0.24035
  60   39197.6    255.1   0.024307930   0.20416   0.20215   0.35604   0.19112
  61   39284.3    254.6   0.008763330   0.07344  -0.12652  -0.22496  -0.08261
  62   39711.2    251.8   0.087615791   0.72635  -0.24266  -0.57641  -0.57898
  63   40241.0    248.5   0.002399175   0.01963   0.11926  -0.05627   0.04731

FINAL SINGLE POINT ENERGY     -3588.287746591154

DIPOLE MOMENT
-------------
                                X             Y             Z
Electronic contribution:     17.45629      15.88677       0.65820
Nuclear contribution   :    -17.77449     -20.25052       0.28335
                        -----------------------------------------
Total Dipole Moment    :     -0.31821      -4.36375       0.94155
                        -----------------------------------------
Magnitude (a.u.)       :      4.47550
Magnitude (Debye)      :     11.37582

Rotational constants in cm-1:     0.002456     0.000303     0.000284
Rotational constants in MHz :    73.641262     9.078293     8.510668

                             ****ORCA TERMINATED NORMALLY****
TOTAL RUN TIME: 0 days 0 hours 10 minutes 15 seconds 6 msec
