                         Program Version 4.2.0 -  RELEASE  -
|  1> # ORCA input file
|  2> # SCF done       -179.993955212680          0.000534893332
|  3> ! CAM-B3LYP def2-SVP def2/J RIJCOSX Grid4 TightSCF
|  4> %maxcore 5000
|  5> %tddft
|  6>     Mode sTDDFT
|  7>     Ethresh 5.0
|  8>     maxcore 5000
|  9> end
| 10>
| 11> %pal
| 12>   nprocs 6
| 13>   end
| 14> * xyz 0 1
| 15>    C       -0.89040        -2.51369        -1.53562
| 16>    C       -1.14367        -3.85487        -1.42597
| 17>    C       -0.46895        -4.84964        -2.16199
| 18>    N        0.04755        -5.69852        -2.73711
| 19>    C       -2.10514        -4.41278        -0.55850
| 20>    N       -2.86607        -4.92488         0.13175
| 21>    C        0.08526        -1.90179        -2.43429
| 22>    C        0.07073        -0.49869        -2.24549
| 23>    C        0.86128         0.35979        -2.96751
| 24>    C        1.67861        -0.18988        -3.95811
| 25>    C        1.66312        -1.58814        -4.16628
| 26>    C        0.89345        -2.46099        -3.40701
| 27>    S        2.68484        -2.04382        -5.49707
| 28>    C        3.11281        -0.37059        -5.74632
| 29>    C        2.53200         0.48425        -4.87364
| 30>   Br        4.24552         0.10224        -7.16428
| 31>    C       -0.95133        -0.15359        -1.24231
| 32>    O       -1.14259         0.93382        -0.74338
| 33>    C       -1.61945        -1.43589        -0.89659
| 34>    C       -2.78290        -1.48652        -0.19216
| 35>    C       -3.64613        -0.34258        -0.10524
| 36>    C       -4.32528         0.01885         1.03378
| 37>    O       -4.25600        -0.62791         2.19691
| 38>    C       -4.92246        -0.06017         3.30206
| 39>    S       -5.20439         1.50764         0.82864
| 40>    C       -4.68194         1.61656        -0.84094
| 41>    O       -5.09425         2.59278        -1.65656
| 42>    C       -5.98305         3.54961        -1.12730
| 43>    C       -3.88555         0.56977        -1.20317
| 44>    C       -3.36584         0.36225        -2.54126
| 45>    C       -3.29186        -0.85864        -3.09120
| 46>    C       -2.53919        -1.22413        -4.27092
| 47>    N       -2.54717        -2.53348        -4.55141
| 48>    C       -1.79419        -2.94655        -5.55082
| 49>    C       -1.00623        -2.07734        -6.28805
| 50>    C       -1.05994        -0.72631        -5.92842
| 51>    N       -1.82804        -0.30972        -4.92395
| 52>    C       -0.23825         0.25108        -6.62521
| 53>    C       -0.26101         1.55510        -6.35379
| 54>    C        0.58285         2.54223        -7.04857
| 55>    S        1.42927         3.75815        -5.89895
| 56>    C        0.39031         4.71368        -6.91095
| 57>    C       -0.13356         3.72287        -7.66037
| 58>    C       -1.08965         3.71048        -8.74902
| 59>    O       -1.62085         4.68057        -9.23886
| 60>    O       -1.31692         2.44729        -9.17292
| 61>    C       -2.20045         2.33488       -10.28062
| 62>    C       -3.52880         2.92690        -9.96842
| 63>    C       -4.34771         3.62041       -10.77205
| 64>    C       -4.25179         3.98416       -12.17859
| 65>    C       -3.72007         3.22067       -13.17957
| 66>    C       -3.67123         3.61830       -14.53349
| 67>    N       -3.59674         3.90618       -15.64141
| 68>    C       -3.26966         1.89903       -12.98249
| 69>    N       -2.94745         0.80406       -12.86555
| 70>    C       -5.00160         5.21996       -12.34939
| 71>    C       -5.75346         5.46831       -11.17173
| 72>    C       -5.45645         4.42843       -10.16925
| 73>    O       -5.95375         4.27303        -9.08232
| 74>    C       -6.59821         6.54599       -11.05247
| 75>    C       -6.69835         7.42177       -12.13823
| 76>    C       -5.93236         7.17191       -13.30374
| 77>    C       -5.08372         6.08001       -13.42915
| 78>    S       -6.20181         8.38389       -14.51779
| 79>    C       -7.32743         9.19667       -13.46287
| 80>    C       -7.49283         8.59410       -12.26099
| 81>   Br       -8.17626        10.76223       -14.04677
| 82>    H        0.82867         1.42387        -2.79643
| 83>    H        0.92361        -3.52041        -3.60003
| 84>    H        2.68787         1.54782        -4.87535
| 85>    H       -3.12666        -2.40019         0.27313
| 86>    H       -4.74901        -0.73481         4.13748
| 87>    H       -5.99665         0.02608         3.11031
| 88>    H       -4.52070         0.93105         3.53412
| 89>    H       -6.18492         4.25174        -1.93325
| 90>    H       -5.53420         4.07744        -0.27938
| 91>    H       -6.91777         3.08145        -0.80165
| 92>    H       -2.99531         1.22759        -3.07151
| 93>    H       -3.74443        -1.70902        -2.59905
| 94>    H       -1.81730        -4.00997        -5.75340
| 95>    H       -0.37999        -2.42195        -7.09459
| 96>    H        0.41117        -0.14203        -7.39642
| 97>    H       -0.93200         1.92751        -5.59305
| 98>    H        1.31899         2.07973        -7.70642
| 99>    H        0.26437         5.77823        -6.88917
|100>    H       -2.27916         1.25992       -10.47421
|101>    H       -1.74709         2.82352       -11.15171
|102>    H       -3.82845         2.85000        -8.92841
|103>    H       -7.16439         6.70882       -10.14894
|104>    H       -4.51401         5.93194       -14.33176
|105>    H       -8.14770         8.96033       -11.49165
|106> *
|107>
|108>                          ****END OF INPUT****

CARTESIAN COORDINATES (ANGSTROEM)
---------------------------------
  C     -0.890400   -2.513690   -1.535620
  C     -1.143670   -3.854870   -1.425970
  C     -0.468950   -4.849640   -2.161990
  N      0.047550   -5.698520   -2.737110
  C     -2.105140   -4.412780   -0.558500
  N     -2.866070   -4.924880    0.131750
  C      0.085260   -1.901790   -2.434290
  C      0.070730   -0.498690   -2.245490
  C      0.861280    0.359790   -2.967510
  C      1.678610   -0.189880   -3.958110
  C      1.663120   -1.588140   -4.166280
  C      0.893450   -2.460990   -3.407010
  S      2.684840   -2.043820   -5.497070
  C      3.112810   -0.370590   -5.746320
  C      2.532000    0.484250   -4.873640
  Br     4.245520    0.102240   -7.164280
  C     -0.951330   -0.153590   -1.242310
  O     -1.142590    0.933820   -0.743380
  C     -1.619450   -1.435890   -0.896590
  C     -2.782900   -1.486520   -0.192160
  C     -3.646130   -0.342580   -0.105240
  C     -4.325280    0.018850    1.033780
  O     -4.256000   -0.627910    2.196910
  C     -4.922460   -0.060170    3.302060
  S     -5.204390    1.507640    0.828640
  C     -4.681940    1.616560   -0.840940
  O     -5.094250    2.592780   -1.656560
  C     -5.983050    3.549610   -1.127300
  C     -3.885550    0.569770   -1.203170
  C     -3.365840    0.362250   -2.541260
  C     -3.291860   -0.858640   -3.091200
  C     -2.539190   -1.224130   -4.270920
  N     -2.547170   -2.533480   -4.551410
  C     -1.794190   -2.946550   -5.550820
  C     -1.006230   -2.077340   -6.288050
  C     -1.059940   -0.726310   -5.928420
  N     -1.828040   -0.309720   -4.923950
  C     -0.238250    0.251080   -6.625210
  C     -0.261010    1.555100   -6.353790
  C      0.582850    2.542230   -7.048570
  S      1.429270    3.758150   -5.898950
  C      0.390310    4.713680   -6.910950
  C     -0.133560    3.722870   -7.660370
  C     -1.089650    3.710480   -8.749020
  O     -1.620850    4.680570   -9.238860
  O     -1.316920    2.447290   -9.172920
  C     -2.200450    2.334880  -10.280620
  C     -3.528800    2.926900   -9.968420
  C     -4.347710    3.620410  -10.772050
  C     -4.251790    3.984160  -12.178590
  C     -3.720070    3.220670  -13.179570
  C     -3.671230    3.618300  -14.533490
  N     -3.596740    3.906180  -15.641410
  C     -3.269660    1.899030  -12.982490
  N     -2.947450    0.804060  -12.865550
  C     -5.001600    5.219960  -12.349390
  C     -5.753460    5.468310  -11.171730
  C     -5.456450    4.428430  -10.169250
  O     -5.953750    4.273030   -9.082320
  C     -6.598210    6.545990  -11.052470
  C     -6.698350    7.421770  -12.138230
  C     -5.932360    7.171910  -13.303740
  C     -5.083720    6.080010  -13.429150
  S     -6.201810    8.383890  -14.517790
  C     -7.327430    9.196670  -13.462870
  C     -7.492830    8.594100  -12.260990
  Br    -8.176260   10.762230  -14.046770
  H      0.828670    1.423870   -2.796430
  H      0.923610   -3.520410   -3.600030
  H      2.687870    1.547820   -4.875350
  H     -3.126660   -2.400190    0.273130
  H     -4.749010   -0.734810    4.137480
  H     -5.996650    0.026080    3.110310
  H     -4.520700    0.931050    3.534120
  H     -6.184920    4.251740   -1.933250
  H     -5.534200    4.077440   -0.279380
  H     -6.917770    3.081450   -0.801650
  H     -2.995310    1.227590   -3.071510
  H     -3.744430   -1.709020   -2.599050
  H     -1.817300   -4.009970   -5.753400
  H     -0.379990   -2.421950   -7.094590
  H      0.411170   -0.142030   -7.396420
  H     -0.932000    1.927510   -5.593050
  H      1.318990    2.079730   -7.706420
  H      0.264370    5.778230   -6.889170
  H     -2.279160    1.259920  -10.474210
  H     -1.747090    2.823520  -11.151710
  H     -3.828450    2.850000   -8.928410
  H     -7.164390    6.708820  -10.148940
  H     -4.514010    5.931940  -14.331760
  H     -8.147700    8.960330  -11.491650

 Total Charge           Charge          ....    0
 Multiplicity           Mult            ....    1
 Number of Electrons    NEL             ....  542
 Basis Dimension        Dim             .... 1110

ORBITAL ENERGIES
----------------

  NO   OCC          E(Eh)            E(eV)
   0   2.0000    -482.889410    -13140.0889
   1   2.0000    -482.887379    -13140.0336
   2   2.0000     -88.980073     -2421.2709
   3   2.0000     -88.973553     -2421.0935
   4   2.0000     -88.971581     -2421.0398
   5   2.0000     -88.952022     -2420.5076
   6   2.0000     -62.567122     -1702.5380
   7   2.0000     -62.564940     -1702.4786
   8   2.0000     -56.401077     -1534.7513
   9   2.0000     -56.398878     -1534.6915
  10   2.0000     -56.398353     -1534.6772
  11   2.0000     -56.398324     -1534.6764
  12   2.0000     -56.396215     -1534.6190
  13   2.0000     -56.396133     -1534.6168
  14   2.0000     -19.275344      -524.5088
  15   2.0000     -19.273118      -524.4482
  16   2.0000     -19.265557      -524.2425
  17   2.0000     -19.220609      -523.0194
  18   2.0000     -19.213623      -522.8293
  19   2.0000     -19.202648      -522.5306
  20   2.0000     -14.423453      -392.4821
  21   2.0000     -14.422743      -392.4628
  22   2.0000     -14.406598      -392.0235
  23   2.0000     -14.405649      -391.9976
  24   2.0000     -14.405030      -391.9808
  25   2.0000     -14.399898      -391.8412
  26   2.0000     -10.411424      -283.3092
  27   2.0000     -10.371446      -282.2214
  28   2.0000     -10.367986      -282.1272
  29   2.0000     -10.363368      -282.0016
  30   2.0000     -10.356243      -281.8077
  31   2.0000     -10.356218      -281.8070
  32   2.0000     -10.353377      -281.7297
  33   2.0000     -10.352694      -281.7111
  34   2.0000     -10.349247      -281.6173
  35   2.0000     -10.347026      -281.5569
  36   2.0000     -10.341247      -281.3996
  37   2.0000     -10.337539      -281.2987
  38   2.0000     -10.336225      -281.2630
  39   2.0000     -10.331102      -281.1236
  40   2.0000     -10.330945      -281.1193
  41   2.0000     -10.330551      -281.1086
  42   2.0000     -10.330242      -281.1002
  43   2.0000     -10.326829      -281.0073
  44   2.0000     -10.325365      -280.9675
  45   2.0000     -10.325196      -280.9629
  46   2.0000     -10.325055      -280.9590
  47   2.0000     -10.320438      -280.8334
  48   2.0000     -10.320268      -280.8288
  49   2.0000     -10.314460      -280.6707
  50   2.0000     -10.313858      -280.6543
  51   2.0000     -10.312740      -280.6239
  52   2.0000     -10.311328      -280.5855
  53   2.0000     -10.309925      -280.5473
  54   2.0000     -10.308191      -280.5001
  55   2.0000     -10.306327      -280.4494
  56   2.0000     -10.304306      -280.3944
  57   2.0000     -10.301323      -280.3132
  58   2.0000     -10.301103      -280.3073
  59   2.0000     -10.300945      -280.3030
  60   2.0000     -10.300857      -280.3006
  61   2.0000     -10.298745      -280.2431
  62   2.0000     -10.298507      -280.2366
  63   2.0000     -10.297949      -280.2214
  64   2.0000     -10.294768      -280.1349
  65   2.0000     -10.292263      -280.0667
  66   2.0000     -10.287641      -279.9409
  67   2.0000     -10.282856      -279.8107
  68   2.0000     -10.282641      -279.8049
  69   2.0000     -10.279642      -279.7233
  70   2.0000     -10.279436      -279.7177
  71   2.0000     -10.278868      -279.7022
  72   2.0000     -10.274994      -279.5968
  73   2.0000     -10.273641      -279.5600
  74   2.0000     -10.259732      -279.1815
  75   2.0000      -8.796554      -239.3664
  76   2.0000      -8.794311      -239.3054
  77   2.0000      -8.076063      -219.7609
  78   2.0000      -8.069201      -219.5741
  79   2.0000      -8.068085      -219.5438
  80   2.0000      -8.047876      -218.9938
  81   2.0000      -6.632872      -180.4896
  82   2.0000      -6.630486      -180.4247
  83   2.0000      -6.618280      -180.0925
  84   2.0000      -6.618076      -180.0870
  85   2.0000      -6.616145      -180.0344
  86   2.0000      -6.615880      -180.0273
  87   2.0000      -6.045752      -164.5133
  88   2.0000      -6.041473      -164.3969
  89   2.0000      -6.038921      -164.3274
  90   2.0000      -6.037524      -164.2894
  91   2.0000      -6.037294      -164.2831
  92   2.0000      -6.034657      -164.2114
  93   2.0000      -6.033581      -164.1821
  94   2.0000      -6.030434      -164.0964
  95   2.0000      -6.029463      -164.0700
  96   2.0000      -6.017416      -163.7422
  97   2.0000      -6.014442      -163.6613
  98   2.0000      -6.008140      -163.4898
  99   2.0000      -2.748745       -74.7971
 100   2.0000      -2.746351       -74.7320
 101   2.0000      -2.744650       -74.6857
 102   2.0000      -2.744493       -74.6815
 103   2.0000      -2.742386       -74.6241
 104   2.0000      -2.742191       -74.6188
 105   2.0000      -2.732901       -74.3660
 106   2.0000      -2.732873       -74.3653
 107   2.0000      -2.730786       -74.3085
 108   2.0000      -2.730771       -74.3080
 109   2.0000      -1.204038       -32.7635
 110   2.0000      -1.184495       -32.2317
 111   2.0000      -1.174419       -31.9576
 112   2.0000      -1.136895       -30.9365
 113   2.0000      -1.118594       -30.4385
 114   2.0000      -1.106957       -30.1218
 115   2.0000      -1.076470       -29.2923
 116   2.0000      -1.028941       -27.9989
 117   2.0000      -1.019565       -27.7438
 118   2.0000      -1.016723       -27.6664
 119   2.0000      -1.005455       -27.3598
 120   2.0000      -1.002028       -27.2666
 121   2.0000      -0.999504       -27.1979
 122   2.0000      -0.995289       -27.0832
 123   2.0000      -0.985308       -26.8116
 124   2.0000      -0.984095       -26.7786
 125   2.0000      -0.978947       -26.6385
 126   2.0000      -0.975414       -26.5424
 127   2.0000      -0.948329       -25.8054
 128   2.0000      -0.936995       -25.4969
 129   2.0000      -0.914901       -24.8957
 130   2.0000      -0.913083       -24.8463
 131   2.0000      -0.909462       -24.7477
 132   2.0000      -0.903692       -24.5907
 133   2.0000      -0.898375       -24.4460
 134   2.0000      -0.891400       -24.2562
 135   2.0000      -0.882542       -24.0152
 136   2.0000      -0.880353       -23.9556
 137   2.0000      -0.875024       -23.8106
 138   2.0000      -0.867652       -23.6100
 139   2.0000      -0.864636       -23.5279
 140   2.0000      -0.837400       -22.7868
 141   2.0000      -0.834804       -22.7162
 142   2.0000      -0.833030       -22.6679
 143   2.0000      -0.828973       -22.5575
 144   2.0000      -0.823605       -22.4114
 145   2.0000      -0.806902       -21.9569
 146   2.0000      -0.794580       -21.6216
 147   2.0000      -0.790913       -21.5218
 148   2.0000      -0.774303       -21.0698
 149   2.0000      -0.771156       -20.9842
 150   2.0000      -0.754389       -20.5280
 151   2.0000      -0.753895       -20.5145
 152   2.0000      -0.745249       -20.2792
 153   2.0000      -0.738601       -20.0983
 154   2.0000      -0.722119       -19.6499
 155   2.0000      -0.711940       -19.3729
 156   2.0000      -0.700431       -19.0597
 157   2.0000      -0.699863       -19.0442
 158   2.0000      -0.687063       -18.6959
 159   2.0000      -0.682515       -18.5722
 160   2.0000      -0.679021       -18.4771
 161   2.0000      -0.671678       -18.2773
 162   2.0000      -0.666694       -18.1417
 163   2.0000      -0.663462       -18.0537
 164   2.0000      -0.657179       -17.8828
 165   2.0000      -0.655882       -17.8475
 166   2.0000      -0.651173       -17.7193
 167   2.0000      -0.639286       -17.3959
 168   2.0000      -0.634674       -17.2703
 169   2.0000      -0.629529       -17.1304
 170   2.0000      -0.626562       -17.0496
 171   2.0000      -0.617410       -16.8006
 172   2.0000      -0.615651       -16.7527
 173   2.0000      -0.614754       -16.7283
 174   2.0000      -0.602307       -16.3896
 175   2.0000      -0.600232       -16.3332
 176   2.0000      -0.594789       -16.1850
 177   2.0000      -0.592183       -16.1141
 178   2.0000      -0.589858       -16.0509
 179   2.0000      -0.585624       -15.9356
 180   2.0000      -0.579532       -15.7699
 181   2.0000      -0.577103       -15.7038
 182   2.0000      -0.569583       -15.4992
 183   2.0000      -0.568872       -15.4798
 184   2.0000      -0.564535       -15.3618
 185   2.0000      -0.558081       -15.1862
 186   2.0000      -0.554612       -15.0918
 187   2.0000      -0.553315       -15.0565
 188   2.0000      -0.546839       -14.8802
 189   2.0000      -0.546323       -14.8662
 190   2.0000      -0.543682       -14.7943
 191   2.0000      -0.540339       -14.7034
 192   2.0000      -0.536971       -14.6117
 193   2.0000      -0.536266       -14.5925
 194   2.0000      -0.530340       -14.4313
 195   2.0000      -0.529537       -14.4094
 196   2.0000      -0.523223       -14.2376
 197   2.0000      -0.520886       -14.1740
 198   2.0000      -0.519774       -14.1438
 199   2.0000      -0.516948       -14.0669
 200   2.0000      -0.516493       -14.0545
 201   2.0000      -0.514376       -13.9969
 202   2.0000      -0.510386       -13.8883
 203   2.0000      -0.505616       -13.7585
 204   2.0000      -0.503104       -13.6901
 205   2.0000      -0.502405       -13.6711
 206   2.0000      -0.501548       -13.6478
 207   2.0000      -0.498254       -13.5582
 208   2.0000      -0.492872       -13.4117
 209   2.0000      -0.491238       -13.3673
 210   2.0000      -0.486958       -13.2508
 211   2.0000      -0.486473       -13.2376
 212   2.0000      -0.485790       -13.2190
 213   2.0000      -0.483077       -13.1452
 214   2.0000      -0.478615       -13.0238
 215   2.0000      -0.473024       -12.8716
 216   2.0000      -0.471521       -12.8308
 217   2.0000      -0.465766       -12.6741
 218   2.0000      -0.462942       -12.5973
 219   2.0000      -0.459393       -12.5007
 220   2.0000      -0.458224       -12.4689
 221   2.0000      -0.455114       -12.3843
 222   2.0000      -0.452644       -12.3171
 223   2.0000      -0.451246       -12.2790
 224   2.0000      -0.449678       -12.2364
 225   2.0000      -0.446406       -12.1473
 226   2.0000      -0.444225       -12.0880
 227   2.0000      -0.440800       -11.9948
 228   2.0000      -0.440169       -11.9776
 229   2.0000      -0.438056       -11.9201
 230   2.0000      -0.436964       -11.8904
 231   2.0000      -0.435861       -11.8604
 232   2.0000      -0.434300       -11.8179
 233   2.0000      -0.433241       -11.7891
 234   2.0000      -0.432303       -11.7636
 235   2.0000      -0.430733       -11.7208
 236   2.0000      -0.425713       -11.5842
 237   2.0000      -0.419799       -11.4233
 238   2.0000      -0.418436       -11.3862
 239   2.0000      -0.417156       -11.3514
 240   2.0000      -0.415265       -11.2999
 241   2.0000      -0.413673       -11.2566
 242   2.0000      -0.408746       -11.1225
 243   2.0000      -0.404492       -11.0068
 244   2.0000      -0.401202       -10.9173
 245   2.0000      -0.399928       -10.8826
 246   2.0000      -0.392784       -10.6882
 247   2.0000      -0.391985       -10.6665
 248   2.0000      -0.391599       -10.6560
 249   2.0000      -0.387617       -10.5476
 250   2.0000      -0.382964       -10.4210
 251   2.0000      -0.379613       -10.3298
 252   2.0000      -0.378657       -10.3038
 253   2.0000      -0.376306       -10.2398
 254   2.0000      -0.373729       -10.1697
 255   2.0000      -0.366692        -9.9782
 256   2.0000      -0.362383        -9.8610
 257   2.0000      -0.349699        -9.5158
 258   2.0000      -0.344725        -9.3804
 259   2.0000      -0.333311        -9.0699
 260   2.0000      -0.326810        -8.8930
 261   2.0000      -0.326140        -8.8747
 262   2.0000      -0.319979        -8.7071
 263   2.0000      -0.319521        -8.6946
 264   2.0000      -0.317189        -8.6311
 265   2.0000      -0.306840        -8.3495
 266   2.0000      -0.299039        -8.1373
 267   2.0000      -0.298156        -8.1132
 268   2.0000      -0.288275        -7.8444
 269   2.0000      -0.269861        -7.3433
 270   2.0000      -0.255969        -6.9653
 271   0.0000      -0.085183        -2.3179
 272   0.0000      -0.078368        -2.1325
 273   0.0000      -0.053011        -1.4425
 274   0.0000      -0.044883        -1.2213
 275   0.0000      -0.032213        -0.8766

MULLIKEN ATOMIC CHARGES
-----------------------
   0 C :    0.331297
   1 C :   -0.340563
   2 C :   -0.186165
   3 N :    0.144137
   4 C :   -0.194930
   5 N :    0.148525
   6 C :    0.022095
   7 C :   -0.000311
   8 C :   -0.073251
   9 C :    0.130312
  10 C :   -0.089123
  11 C :   -0.031058
  12 S :    0.169502
  13 C :   -0.137902
  14 C :    0.044873
  15 Br:    0.017322
  16 C :    0.145221
  17 O :   -0.142175
  18 C :   -0.134436
  19 C :   -0.025035
  20 C :    0.052143
  21 C :    0.019006
  22 O :   -0.262671
  23 C :    0.168044
  24 S :    0.011316
  25 C :   -0.010758
  26 O :   -0.272153
  27 C :    0.172095
  28 C :    0.092549
  29 C :    0.021675
  30 C :    0.074657
  31 C :   -0.098354
  32 N :   -0.078952
  33 C :    0.074378
  34 C :   -0.042153
  35 C :    0.035228
  36 N :   -0.051668
  37 C :    0.016438
  38 C :    0.106297
  39 C :   -0.083320
  40 S :    0.026739
  41 C :   -0.006397
  42 C :   -0.039771
  43 C :    0.191365
  44 O :   -0.199820
  45 O :   -0.302252
  46 C :    0.316047
  47 C :   -0.115061
  48 C :   -0.066475
  49 C :    0.265614
  50 C :   -0.326027
  51 C :   -0.176784
  52 N :    0.155458
  53 C :   -0.199862
  54 N :    0.151942
  55 C :    0.009801
  56 C :   -0.003129
  57 C :    0.139878
  58 O :   -0.132142
  59 C :   -0.064517
  60 C :    0.111752
  61 C :   -0.088075
  62 C :   -0.015996
  63 S :    0.188932
  64 C :   -0.124351
  65 C :    0.042033
  66 Br:    0.027221
  67 H :   -0.016170
  68 H :   -0.011470
  69 H :   -0.011618
  70 H :    0.034287
  71 H :    0.057308
  72 H :    0.035720
  73 H :    0.037002
  74 H :    0.052583
  75 H :    0.031597
  76 H :    0.031796
  77 H :    0.014719
  78 H :   -0.007391
  79 H :    0.013679
  80 H :   -0.007854
  81 H :   -0.016108
  82 H :    0.020123
  83 H :    0.057338
  84 H :    0.035357
  85 H :    0.069501
  86 H :    0.044292
  87 H :    0.038729
  88 H :   -0.007648
  89 H :   -0.001732
  90 H :   -0.002295
Sum of atomic charges:   -0.0000000

LOEWDIN ATOMIC CHARGES
----------------------
   0 C :    0.078271
   1 C :   -0.138297
   2 C :   -0.014485
   3 N :   -0.062776
   4 C :   -0.016668
   5 N :   -0.054591
   6 C :   -0.017520
   7 C :   -0.044223
   8 C :    0.025395
   9 C :   -0.033385
  10 C :   -0.144371
  11 C :   -0.011241
  12 S :    0.422706
  13 C :   -0.279622
  14 C :   -0.069130
  15 Br:    0.131559
  16 C :    0.082478
  17 O :   -0.139006
  18 C :   -0.090522
  19 C :    0.084430
  20 C :   -0.098994
  21 C :   -0.078029
  22 O :   -0.078816
  23 C :    0.072724
  24 S :    0.383276
  25 C :   -0.093322
  26 O :   -0.089686
  27 C :    0.070487
  28 C :   -0.088212
  29 C :    0.023697
  30 C :   -0.043892
  31 C :    0.026023
  32 N :   -0.094197
  33 C :    0.048977
  34 C :   -0.069586
  35 C :    0.033432
  36 N :   -0.085572
  37 C :   -0.033845
  38 C :    0.000131
  39 C :   -0.062517
  40 S :    0.289480
  41 C :   -0.066726
  42 C :   -0.132455
  43 C :    0.080590
  44 O :   -0.177431
  45 O :   -0.086905
  46 C :    0.080984
  47 C :    0.067012
  48 C :   -0.080902
  49 C :    0.078663
  50 C :   -0.135422
  51 C :   -0.019001
  52 N :   -0.044130
  53 C :   -0.018991
  54 N :   -0.049476
  55 C :   -0.017716
  56 C :   -0.050547
  57 C :    0.090433
  58 O :   -0.131171
  59 C :    0.024895
  60 C :   -0.031058
  61 C :   -0.142232
  62 C :   -0.009135
  63 S :    0.434858
  64 C :   -0.270552
  65 C :   -0.069904
  66 Br:    0.140011
  67 H :    0.038869
  68 H :    0.038915
  69 H :    0.027016
  70 H :    0.043891
  71 H :    0.037109
  72 H :    0.017112
  73 H :    0.018396
  74 H :    0.035289
  75 H :    0.015071
  76 H :    0.015527
  77 H :    0.035100
  78 H :    0.031926
  79 H :    0.028742
  80 H :    0.030646
  81 H :    0.027845
  82 H :    0.032973
  83 H :    0.036502
  84 H :    0.029128
  85 H :    0.051302
  86 H :    0.033271
  87 H :    0.048045
  88 H :    0.042136
  89 H :    0.041581
  90 H :    0.039358

  Mayer bond orders larger than 0.100000
B(  0-C ,  1-C ) :   1.6404 B(  0-C ,  6-C ) :   1.0004 B(  0-C , 18-C ) :   1.0668
B(  1-C ,  2-C ) :   1.1406 B(  1-C ,  4-C ) :   1.1501 B(  2-C ,  3-N ) :   2.9645
B(  4-C ,  5-N ) :   2.9713 B(  6-C ,  7-C ) :   1.2800 B(  6-C , 11-C ) :   1.4100
B(  7-C ,  8-C ) :   1.4201 B(  7-C , 16-C ) :   0.9353 B(  8-C ,  9-C ) :   1.2456
B(  8-C , 67-H ) :   1.0164 B(  9-C , 10-C ) :   1.3166 B(  9-C , 14-C ) :   1.1535
B( 10-C , 11-C ) :   1.3310 B( 10-C , 12-S ) :   1.0739 B( 11-C , 68-H ) :   0.9798
B( 12-S , 13-C ) :   1.0763 B( 13-C , 14-C ) :   1.6202 B( 13-C , 15-Br) :   1.0150
B( 14-C , 69-H ) :   0.9966 B( 16-C , 17-O ) :   2.2417 B( 16-C , 18-C ) :   0.9368
B( 18-C , 19-C ) :   1.6451 B( 19-C , 20-C ) :   1.0811 B( 19-C , 70-H ) :   0.9451
B( 20-C , 21-C ) :   1.4919 B( 20-C , 28-C ) :   1.1702 B( 21-C , 22-O ) :   1.2141
B( 21-C , 24-S ) :   1.0780 B( 22-O , 23-C ) :   0.9371 B( 23-C , 71-H ) :   0.9816
B( 23-C , 72-H ) :   0.9663 B( 23-C , 73-H ) :   0.9671 B( 24-S , 25-C ) :   1.0313
B( 25-C , 26-O ) :   1.1931 B( 25-C , 28-C ) :   1.5728 B( 26-O , 27-C ) :   0.9452
B( 27-C , 74-H ) :   0.9818 B( 27-C , 75-H ) :   0.9661 B( 27-C , 76-H ) :   0.9665
B( 28-C , 29-C ) :   1.0363 B( 29-C , 30-C ) :   1.7456 B( 29-C , 77-H ) :   0.9538
B( 30-C , 31-C ) :   1.0652 B( 30-C , 78-H ) :   0.9384 B( 31-C , 32-N ) :   1.4986
B( 31-C , 36-N ) :   1.5395 B( 32-N , 33-C ) :   1.5486 B( 33-C , 34-C ) :   1.3571
B( 33-C , 79-H ) :   0.9805 B( 34-C , 35-C ) :   1.3303 B( 34-C , 80-H ) :   0.9794
B( 35-C , 36-N ) :   1.5225 B( 35-C , 37-C ) :   1.0499 B( 37-C , 38-C ) :   1.7919
B( 37-C , 81-H ) :   0.9808 B( 38-C , 39-C ) :   0.9536 B( 38-C , 82-H ) :   0.9579
B( 39-C , 40-S ) :   0.9951 B( 39-C , 42-C ) :   0.9553 B( 39-C , 83-H ) :   0.9189
B( 40-S , 41-C ) :   1.0988 B( 41-C , 42-C ) :   1.6726 B( 41-C , 84-H ) :   1.0081
B( 42-C , 43-C ) :   0.9988 B( 43-C , 44-O ) :   2.1286 B( 43-C , 45-O ) :   1.1983
B( 45-O , 46-C ) :   0.9207 B( 46-C , 47-C ) :   1.0282 B( 46-C , 85-H ) :   0.9117
B( 46-C , 86-H ) :   0.9418 B( 47-C , 48-C ) :   1.8174 B( 47-C , 87-H ) :   0.9232
B( 48-C , 49-C ) :   1.0005 B( 48-C , 57-C ) :   0.9249 B( 49-C , 50-C ) :   1.6670
B( 49-C , 55-C ) :   1.0315 B( 50-C , 51-C ) :   1.1204 B( 50-C , 53-C ) :   1.1664
B( 51-C , 52-N ) :   2.9918 B( 53-C , 54-N ) :   2.9673 B( 55-C , 56-C ) :   1.2701
B( 55-C , 62-C ) :   1.4099 B( 56-C , 57-C ) :   0.9235 B( 56-C , 59-C ) :   1.4246
B( 57-C , 58-O ) :   2.2837 B( 59-C , 60-C ) :   1.2584 B( 59-C , 88-H ) :   1.0146
B( 60-C , 61-C ) :   1.3021 B( 60-C , 65-C ) :   1.1639 B( 61-C , 62-C ) :   1.3351
B( 61-C , 63-S ) :   1.0850 B( 62-C , 89-H ) :   0.9820 B( 63-S , 64-C ) :   1.0876
B( 64-C , 65-C ) :   1.6177 B( 64-C , 66-Br) :   1.0210 B( 65-C , 90-H ) :   1.0003

-----------------------------------------------------------------------------
         ABSORPTION SPECTRUM VIA TRANSITION ELECTRIC DIPOLE MOMENTS
-----------------------------------------------------------------------------
State   Energy  Wavelength   fosc         T2         TX        TY        TZ
        (cm-1)    (nm)                  (au**2)     (au)      (au)      (au)
-----------------------------------------------------------------------------
   0   20258.1    493.6   0.058800601   0.95556   0.68559  -0.35514  -0.59951
   1   22277.8    448.9   0.285001989   4.21163  -1.43974   1.21254   0.81763
   2   26108.9    383.0   0.033754532   0.42562   0.59257  -0.26938  -0.04371
   3   27037.2    369.9   0.016721930   0.20361  -0.41450  -0.00162   0.17832
   4   28199.4    354.6   0.000368854   0.00431   0.03630  -0.03255   0.04392
   5   29002.9    344.8   0.298068228   3.38338  -0.99524  -1.12647   1.06016
   6   29378.2    340.4   0.434698654   4.87123   1.06747  -1.90977   0.29070
   7   29954.1    333.8   0.059706144   0.65620  -0.19220  -0.74050   0.26630
   8   30461.0    328.3   0.008996951   0.09724  -0.22005   0.22076   0.00906
   9   31165.3    320.9   0.110310918   1.16526   0.42690  -0.14213  -0.98123
  10   31242.8    320.1   0.125527064   1.32270  -0.79417   0.80447   0.21171
  11   31382.3    318.7   0.034152832   0.35828   0.28052  -0.44845  -0.28013
  12   31750.6    315.0   0.021743536   0.22545  -0.16125   0.20383   0.39737
  13   32011.0    312.4   0.063253919   0.65052  -0.22722   0.25276  -0.73144
  14   32219.2    310.4   0.062434941   0.63795   0.53447   0.44081  -0.39746
  15   32489.6    307.8   0.113866761   1.15379   0.29529  -0.64113  -0.80966
  16   32688.4    305.9   0.012197919   0.12285  -0.19460   0.20614  -0.20612
  17   32804.7    304.8   0.084733846   0.85035  -0.56839  -0.54553   0.47925
  18   33097.3    302.1   0.012832446   0.12764   0.06272  -0.34988   0.03594
  19   34181.7    292.6   0.461481874   4.44464  -1.20134   0.04101   1.73198
  20   34311.0    291.5   0.020275490   0.19454   0.38162   0.21736  -0.04074
  21   34319.3    291.4   0.002915210   0.02796  -0.09195  -0.04845   0.13100
  22   34685.8    288.3   0.194029089   1.84158   0.31897   1.27659  -0.33188
  23   34813.3    287.2   0.051821934   0.49005  -0.13591  -0.68074  -0.09046
  24   34915.4    286.4   0.079023962   0.74510  -0.69382   0.36874  -0.35742
  25   35221.1    283.9   0.168249733   1.57263   0.65595  -0.90964  -0.56117
  26   35402.1    282.5   0.239956845   2.23141   0.63076  -0.96816  -0.94669
  27   36385.2    274.8   0.029366877   0.26571   0.06879   0.46714   0.20679
  28   36476.5    274.1   0.001243401   0.01122  -0.09178  -0.05222  -0.00848
  29   36685.8    272.6   0.285950266   2.56607  -1.17445   0.24299   1.06194
  30   37753.5    264.9   0.036850529   0.32134  -0.00846  -0.55139   0.13128
  31   37778.2    264.7   0.011563474   0.10077   0.26430   0.06116   0.16483
  32   38031.2    262.9   0.009779912   0.08466  -0.20256  -0.04125   0.20476
  33   38103.2    262.4   0.058861316   0.50856   0.61173  -0.24380  -0.27369
  34   38310.4    261.0   0.013273193   0.11406  -0.19712   0.25236  -0.10732
  35   38674.4    258.6   0.034995226   0.29789  -0.00918   0.23814  -0.49102
  36   38805.4    257.7   0.164212573   1.39313   0.40678  -1.00490   0.46673
  37   38891.0    257.1   0.042644120   0.36098   0.15102   0.54520  -0.20233
  38   38953.4    256.7   0.024951165   0.21087  -0.11926   0.44257  -0.02799
  39   39230.5    254.9   0.104033592   0.87302  -0.81030  -0.02593  -0.46451
  40   39327.2    254.3   0.031039043   0.25983  -0.08369  -0.03395   0.50167
  41   40137.9    249.1   0.008531094   0.06997  -0.22497  -0.10532   0.09093
  42   40317.1    248.0   0.004417057   0.03607   0.03775  -0.02966   0.18375

FINAL SINGLE POINT ENERGY     -9398.221883686791

DIPOLE MOMENT
-------------
                                X             Y             Z
Electronic contribution:     17.22923      75.96439    -113.55302
Nuclear contribution   :    -18.19513     -71.76942     114.82418
                        -----------------------------------------
Total Dipole Moment    :     -0.96589       4.19498       1.27116
                        -----------------------------------------
Magnitude (a.u.)       :      4.48850
Magnitude (Debye)      :     11.40886

Rotational constants in cm-1:     0.001172     0.000358     0.000303
Rotational constants in MHz :    35.134880    10.732313     9.085037

                             ****ORCA TERMINATED NORMALLY****
TOTAL RUN TIME: 0 days 0 hours 8 minutes 49 seconds 333 msec
