                         Program Version 4.2.0 -  RELEASE  -
|  1> # ORCA input file
|  2> # SCF done       -169.070046970739          0.000792506947
|  3> ! CAM-B3LYP def2-SVP def2/J RIJCOSX Grid4 TightSCF
|  4> %maxcore 5000
|  5> %tddft
|  6>     Mode sTDDFT
|  7>     Ethresh 5.0
|  8>     maxcore 5000
|  9> end
| 10>
| 11> %pal
| 12>   nprocs 6
| 13>   end
| 14> * xyz 0 1
| 15>    C       -0.68252         4.92983         1.11051
| 16>    C       -0.07181         3.95725         1.86599
| 17>    C        1.14905         4.13162         2.54497
| 18>    N        2.14028         4.21777         3.11862
| 19>    C       -0.59252         2.66278         2.05471
| 20>    N       -0.97991         1.59650         2.23447
| 21>    C       -0.17865         6.28029         0.88712
| 22>    C       -1.09045         6.98235         0.05496
| 23>    C       -0.88991         8.28618        -0.32827
| 24>    C        0.26442         8.93147         0.12926
| 25>    C        1.16847         8.22334         0.95556
| 26>    C        0.96655         6.90396         1.34382
| 27>    S        2.52674         9.20721         1.40691
| 28>    C        1.87020        10.53974         0.49309
| 29>    C        0.69474        10.26319        -0.12004
| 30>   Br        2.79811        12.16907         0.43436
| 31>    C       -2.20660         6.08982        -0.27737
| 32>    O       -3.18417         6.34475        -0.98024
| 33>    C       -1.93122         4.82028         0.39603
| 34>    C       -2.79604         3.75434         0.30623
| 35>    N       -3.92241         3.86755        -0.40798
| 36>    C       -4.87905         2.92575        -0.59149
| 37>    S       -4.73919         1.34011         0.10519
| 38>    C       -6.26624         0.92380        -0.60422
| 39>    N       -6.76207        -0.36513        -0.39123
| 40>    O       -7.83743        -0.64673        -0.89361
| 41>    O       -6.07843        -1.11587         0.28555
| 42>    C       -6.83606         1.94145        -1.32324
| 43>    C       -6.05551         3.11194        -1.33115
| 44>    C       -6.38466         4.34349        -2.00639
| 45>    C       -7.56662         4.57794        -2.60267
| 46>    C       -7.97428         5.76058        -3.31909
| 47>    C       -7.22301         6.63877        -3.99808
| 48>    C       -5.73589         6.56604        -4.13913
| 49>    C       -7.85424         7.79262        -4.75479
| 50>    N       -9.29096         7.81333        -4.75059
| 51>    C      -10.02184         8.51917        -3.85900
| 52>    C      -11.29093         8.20060        -3.48976
| 53>    C      -12.11246         8.95547        -2.62594
| 54>    C      -12.01726        10.28117        -2.28736
| 55>    C      -12.84585        10.94964        -1.35270
| 56>    C      -12.63388        12.29189        -1.26184
| 57>    C      -11.63856        12.77638        -2.13698
| 58>    S      -10.93016        11.45107        -3.03454
| 59>    C      -11.26234        14.09264        -2.33770
| 60>    C      -11.68283        15.22670        -1.61172
| 61>    C      -11.17336        16.40052        -2.07872
| 62>    C      -10.33749        16.27116        -3.21532
| 63>    S      -10.18876        14.57165        -3.63580
| 64>    C       -9.76410        17.31507        -3.89694
| 65>    C       -9.00816        17.28517        -5.08613
| 66>    C       -8.63818        16.21215        -5.89599
| 67>    C       -7.92906        16.71555        -7.01845
| 68>    C       -7.38114        16.08754        -8.11105
| 69>    C       -6.74915        16.88856        -9.08185
| 70>    C       -6.12593        16.56811       -10.27323
| 71>    C       -5.64826        17.77336       -10.89235
| 72>    C       -5.97897        18.83388       -10.07594
| 73>    C       -6.67341        18.33324        -8.92685
| 74>    C       -7.21442        18.96298        -7.84340
| 75>    C       -7.85808        18.16127        -6.87066
| 76>    C       -8.50921        18.48994        -5.70461
| 77>    C       -4.94646        17.87788       -12.14827
| 78>    C       -4.63312        16.86211       -12.94848
| 79>    H       -1.60021         8.79607        -0.96013
| 80>    H        1.68425         6.40819         1.97559
| 81>    H        0.15239        10.96871        -0.72261
| 82>    H       -2.60945         2.80893         0.79778
| 83>    H       -4.04089         4.79749        -0.84699
| 84>    H       -7.77870         1.81792        -1.82288
| 85>    H       -5.63633         5.11929        -1.98534
| 86>    H       -8.33915         3.82349        -2.53212
| 87>    H       -9.04829         5.90028        -3.32510
| 88>    H       -5.40464         5.53098        -4.19325
| 89>    H       -5.24369         7.03421        -3.28665
| 90>    H       -5.41048         7.08787        -5.03667
| 91>    H       -7.51095         7.74821        -5.79652
| 92>    H       -7.49457         8.73522        -4.32942
| 93>    H       -9.73502         6.99977        -5.15479
| 94>    H       -9.52124         9.37939        -3.43974
| 95>    H      -11.70379         7.26275        -3.84112
| 96>    H      -12.94870         8.42681        -2.18480
| 97>    H      -13.58101        10.41273        -0.77899
| 98>    H      -13.18969        12.94847        -0.61698
| 99>    H      -12.33992        15.14796        -0.76424
|100>    H      -11.38462        17.36524        -1.65138
|101>    H       -9.94794        18.29815        -3.47940
|102>    H       -8.85317        15.17513        -5.72464
|103>    H       -7.43364        15.01497        -8.23332
|104>    H       -6.01480        15.57871       -10.67756
|105>    H       -5.76074        19.87006       -10.25984
|106>    H       -7.16657        20.03619        -7.72059
|107>    H       -8.64293        19.47868        -5.30199
|108>    H       -4.66849        18.88599       -12.43123
|109>    H       -4.88841        15.84358       -12.71146
|110>    H       -4.10699        17.01647       -13.87467
|111> *
|112>
|113>                          ****END OF INPUT****

CARTESIAN COORDINATES (ANGSTROEM)
---------------------------------
  C     -0.682520    4.929830    1.110510
  C     -0.071810    3.957250    1.865990
  C      1.149050    4.131620    2.544970
  N      2.140280    4.217770    3.118620
  C     -0.592520    2.662780    2.054710
  N     -0.979910    1.596500    2.234470
  C     -0.178650    6.280290    0.887120
  C     -1.090450    6.982350    0.054960
  C     -0.889910    8.286180   -0.328270
  C      0.264420    8.931470    0.129260
  C      1.168470    8.223340    0.955560
  C      0.966550    6.903960    1.343820
  S      2.526740    9.207210    1.406910
  C      1.870200   10.539740    0.493090
  C      0.694740   10.263190   -0.120040
  Br     2.798110   12.169070    0.434360
  C     -2.206600    6.089820   -0.277370
  O     -3.184170    6.344750   -0.980240
  C     -1.931220    4.820280    0.396030
  C     -2.796040    3.754340    0.306230
  N     -3.922410    3.867550   -0.407980
  C     -4.879050    2.925750   -0.591490
  S     -4.739190    1.340110    0.105190
  C     -6.266240    0.923800   -0.604220
  N     -6.762070   -0.365130   -0.391230
  O     -7.837430   -0.646730   -0.893610
  O     -6.078430   -1.115870    0.285550
  C     -6.836060    1.941450   -1.323240
  C     -6.055510    3.111940   -1.331150
  C     -6.384660    4.343490   -2.006390
  C     -7.566620    4.577940   -2.602670
  C     -7.974280    5.760580   -3.319090
  C     -7.223010    6.638770   -3.998080
  C     -5.735890    6.566040   -4.139130
  C     -7.854240    7.792620   -4.754790
  N     -9.290960    7.813330   -4.750590
  C    -10.021840    8.519170   -3.859000
  C    -11.290930    8.200600   -3.489760
  C    -12.112460    8.955470   -2.625940
  C    -12.017260   10.281170   -2.287360
  C    -12.845850   10.949640   -1.352700
  C    -12.633880   12.291890   -1.261840
  C    -11.638560   12.776380   -2.136980
  S    -10.930160   11.451070   -3.034540
  C    -11.262340   14.092640   -2.337700
  C    -11.682830   15.226700   -1.611720
  C    -11.173360   16.400520   -2.078720
  C    -10.337490   16.271160   -3.215320
  S    -10.188760   14.571650   -3.635800
  C     -9.764100   17.315070   -3.896940
  C     -9.008160   17.285170   -5.086130
  C     -8.638180   16.212150   -5.895990
  C     -7.929060   16.715550   -7.018450
  C     -7.381140   16.087540   -8.111050
  C     -6.749150   16.888560   -9.081850
  C     -6.125930   16.568110  -10.273230
  C     -5.648260   17.773360  -10.892350
  C     -5.978970   18.833880  -10.075940
  C     -6.673410   18.333240   -8.926850
  C     -7.214420   18.962980   -7.843400
  C     -7.858080   18.161270   -6.870660
  C     -8.509210   18.489940   -5.704610
  C     -4.946460   17.877880  -12.148270
  C     -4.633120   16.862110  -12.948480
  H     -1.600210    8.796070   -0.960130
  H      1.684250    6.408190    1.975590
  H      0.152390   10.968710   -0.722610
  H     -2.609450    2.808930    0.797780
  H     -4.040890    4.797490   -0.846990
  H     -7.778700    1.817920   -1.822880
  H     -5.636330    5.119290   -1.985340
  H     -8.339150    3.823490   -2.532120
  H     -9.048290    5.900280   -3.325100
  H     -5.404640    5.530980   -4.193250
  H     -5.243690    7.034210   -3.286650
  H     -5.410480    7.087870   -5.036670
  H     -7.510950    7.748210   -5.796520
  H     -7.494570    8.735220   -4.329420
  H     -9.735020    6.999770   -5.154790
  H     -9.521240    9.379390   -3.439740
  H    -11.703790    7.262750   -3.841120
  H    -12.948700    8.426810   -2.184800
  H    -13.581010   10.412730   -0.778990
  H    -13.189690   12.948470   -0.616980
  H    -12.339920   15.147960   -0.764240
  H    -11.384620   17.365240   -1.651380
  H     -9.947940   18.298150   -3.479400
  H     -8.853170   15.175130   -5.724640
  H     -7.433640   15.014970   -8.233320
  H     -6.014800   15.578710  -10.677560
  H     -5.760740   19.870060  -10.259840
  H     -7.166570   20.036190   -7.720590
  H     -8.642930   19.478680   -5.301990
  H     -4.668490   18.885990  -12.431230
  H     -4.888410   15.843580  -12.711460
  H     -4.106990   17.016470  -13.874670

 Total Charge           Charge          ....    0
 Multiplicity           Mult            ....    1
 Number of Electrons    NEL             ....  496
 Basis Dimension        Dim             .... 1090

ORBITAL ENERGIES
----------------

  NO   OCC          E(Eh)            E(eV)
   0   2.0000    -482.891608    -13140.1487
   1   2.0000     -88.993940     -2421.6482
   2   2.0000     -88.983614     -2421.3672
   3   2.0000     -88.932940     -2419.9883
   4   2.0000     -88.930507     -2419.9221
   5   2.0000     -62.569307     -1702.5974
   6   2.0000     -56.403275     -1534.8111
   7   2.0000     -56.400530     -1534.7365
   8   2.0000     -56.400501     -1534.7357
   9   2.0000     -19.242565      -523.6168
  10   2.0000     -19.241335      -523.5833
  11   2.0000     -19.241313      -523.5827
  12   2.0000     -14.653502      -398.7421
  13   2.0000     -14.502465      -394.6321
  14   2.0000     -14.438864      -392.9015
  15   2.0000     -14.424935      -392.5224
  16   2.0000     -14.420395      -392.3989
  17   2.0000     -10.387629      -282.6618
  18   2.0000     -10.376870      -282.3690
  19   2.0000     -10.375769      -282.3390
  20   2.0000     -10.366322      -282.0820
  21   2.0000     -10.352729      -281.7121
  22   2.0000     -10.351895      -281.6894
  23   2.0000     -10.348210      -281.5891
  24   2.0000     -10.334303      -281.2107
  25   2.0000     -10.327152      -281.0161
  26   2.0000     -10.323480      -280.9162
  27   2.0000     -10.322575      -280.8916
  28   2.0000     -10.318110      -280.7700
  29   2.0000     -10.316434      -280.7244
  30   2.0000     -10.315454      -280.6978
  31   2.0000     -10.315415      -280.6967
  32   2.0000     -10.314834      -280.6809
  33   2.0000     -10.312988      -280.6307
  34   2.0000     -10.311599      -280.5929
  35   2.0000     -10.305912      -280.4381
  36   2.0000     -10.304929      -280.4114
  37   2.0000     -10.304351      -280.3957
  38   2.0000     -10.297788      -280.2171
  39   2.0000     -10.295461      -280.1537
  40   2.0000     -10.294492      -280.1274
  41   2.0000     -10.292207      -280.0652
  42   2.0000     -10.290431      -280.0169
  43   2.0000     -10.289200      -279.9834
  44   2.0000     -10.287615      -279.9402
  45   2.0000     -10.287330      -279.9325
  46   2.0000     -10.282530      -279.8019
  47   2.0000     -10.277099      -279.6541
  48   2.0000     -10.276945      -279.6499
  49   2.0000     -10.274777      -279.5909
  50   2.0000     -10.273373      -279.5527
  51   2.0000     -10.273002      -279.5426
  52   2.0000     -10.271086      -279.4904
  53   2.0000     -10.270354      -279.4706
  54   2.0000     -10.270218      -279.4668
  55   2.0000     -10.266647      -279.3697
  56   2.0000     -10.262222      -279.2493
  57   2.0000     -10.260763      -279.2096
  58   2.0000     -10.260558      -279.2040
  59   2.0000     -10.258547      -279.1492
  60   2.0000     -10.258505      -279.1481
  61   2.0000     -10.256776      -279.1011
  62   2.0000     -10.255541      -279.0675
  63   2.0000     -10.255337      -279.0619
  64   2.0000     -10.254547      -279.0404
  65   2.0000     -10.254289      -279.0334
  66   2.0000     -10.252388      -278.9817
  67   2.0000     -10.251117      -278.9471
  68   2.0000      -8.798729      -239.4256
  69   2.0000      -8.089132      -220.1165
  70   2.0000      -8.079619      -219.8576
  71   2.0000      -8.028899      -218.4774
  72   2.0000      -8.026220      -218.4046
  73   2.0000      -6.635102      -180.5503
  74   2.0000      -6.620436      -180.1512
  75   2.0000      -6.620208      -180.1450
  76   2.0000      -6.058788      -164.8680
  77   2.0000      -6.054424      -164.7493
  78   2.0000      -6.050586      -164.6448
  79   2.0000      -6.049281      -164.6093
  80   2.0000      -6.045006      -164.4930
  81   2.0000      -6.040870      -164.3804
  82   2.0000      -5.998635      -163.2312
  83   2.0000      -5.995946      -163.1580
  84   2.0000      -5.994634      -163.1223
  85   2.0000      -5.991932      -163.0487
  86   2.0000      -5.989865      -162.9925
  87   2.0000      -5.987255      -162.9215
  88   2.0000      -2.750922       -74.8564
  89   2.0000      -2.746836       -74.7452
  90   2.0000      -2.746722       -74.7421
  91   2.0000      -2.735033       -74.4240
  92   2.0000      -2.735019       -74.4236
  93   2.0000      -1.321666       -35.9644
  94   2.0000      -1.154334       -31.4110
  95   2.0000      -1.140665       -31.0391
  96   2.0000      -1.109896       -30.2018
  97   2.0000      -1.042475       -28.3672
  98   2.0000      -1.032132       -28.0857
  99   2.0000      -1.021321       -27.7916
 100   2.0000      -1.014721       -27.6120
 101   2.0000      -1.001857       -27.2619
 102   2.0000      -0.998385       -27.1674
 103   2.0000      -0.979294       -26.6479
 104   2.0000      -0.974369       -26.5139
 105   2.0000      -0.957662       -26.0593
 106   2.0000      -0.950618       -25.8676
 107   2.0000      -0.947310       -25.7776
 108   2.0000      -0.935436       -25.4545
 109   2.0000      -0.918879       -25.0040
 110   2.0000      -0.916949       -24.9515
 111   2.0000      -0.902461       -24.5572
 112   2.0000      -0.895016       -24.3546
 113   2.0000      -0.890966       -24.2444
 114   2.0000      -0.886775       -24.1304
 115   2.0000      -0.881889       -23.9974
 116   2.0000      -0.860886       -23.4259
 117   2.0000      -0.857989       -23.3471
 118   2.0000      -0.852212       -23.1899
 119   2.0000      -0.851204       -23.1624
 120   2.0000      -0.840348       -22.8670
 121   2.0000      -0.838702       -22.8222
 122   2.0000      -0.827546       -22.5187
 123   2.0000      -0.819517       -22.3002
 124   2.0000      -0.807616       -21.9763
 125   2.0000      -0.806510       -21.9462
 126   2.0000      -0.793057       -21.5802
 127   2.0000      -0.791061       -21.5259
 128   2.0000      -0.785212       -21.3667
 129   2.0000      -0.772252       -21.0141
 130   2.0000      -0.766704       -20.8631
 131   2.0000      -0.756375       -20.5820
 132   2.0000      -0.745868       -20.2961
 133   2.0000      -0.738822       -20.1044
 134   2.0000      -0.733481       -19.9590
 135   2.0000      -0.719972       -19.5914
 136   2.0000      -0.718904       -19.5624
 137   2.0000      -0.699613       -19.0374
 138   2.0000      -0.697886       -18.9905
 139   2.0000      -0.695690       -18.9307
 140   2.0000      -0.678925       -18.4745
 141   2.0000      -0.673634       -18.3305
 142   2.0000      -0.666515       -18.1368
 143   2.0000      -0.661159       -17.9910
 144   2.0000      -0.657902       -17.9024
 145   2.0000      -0.656513       -17.8646
 146   2.0000      -0.641239       -17.4490
 147   2.0000      -0.638846       -17.3839
 148   2.0000      -0.637847       -17.3567
 149   2.0000      -0.634340       -17.2613
 150   2.0000      -0.628576       -17.1044
 151   2.0000      -0.626779       -17.0555
 152   2.0000      -0.619766       -16.8647
 153   2.0000      -0.612278       -16.6609
 154   2.0000      -0.611798       -16.6479
 155   2.0000      -0.609229       -16.5780
 156   2.0000      -0.607968       -16.5437
 157   2.0000      -0.601454       -16.3664
 158   2.0000      -0.598533       -16.2869
 159   2.0000      -0.590962       -16.0809
 160   2.0000      -0.587668       -15.9913
 161   2.0000      -0.584200       -15.8969
 162   2.0000      -0.578704       -15.7473
 163   2.0000      -0.568453       -15.4684
 164   2.0000      -0.567066       -15.4307
 165   2.0000      -0.565607       -15.3909
 166   2.0000      -0.565351       -15.3840
 167   2.0000      -0.561351       -15.2751
 168   2.0000      -0.556199       -15.1349
 169   2.0000      -0.554479       -15.0881
 170   2.0000      -0.546530       -14.8718
 171   2.0000      -0.541765       -14.7422
 172   2.0000      -0.540916       -14.7191
 173   2.0000      -0.539928       -14.6922
 174   2.0000      -0.533752       -14.5241
 175   2.0000      -0.528324       -14.3764
 176   2.0000      -0.528199       -14.3730
 177   2.0000      -0.526470       -14.3260
 178   2.0000      -0.523306       -14.2399
 179   2.0000      -0.516829       -14.0636
 180   2.0000      -0.511516       -13.9190
 181   2.0000      -0.507712       -13.8156
 182   2.0000      -0.505959       -13.7679
 183   2.0000      -0.505292       -13.7497
 184   2.0000      -0.504072       -13.7165
 185   2.0000      -0.496723       -13.5165
 186   2.0000      -0.494359       -13.4522
 187   2.0000      -0.491993       -13.3878
 188   2.0000      -0.487606       -13.2684
 189   2.0000      -0.485046       -13.1988
 190   2.0000      -0.484426       -13.1819
 191   2.0000      -0.482153       -13.1201
 192   2.0000      -0.479875       -13.0581
 193   2.0000      -0.478579       -13.0228
 194   2.0000      -0.475606       -12.9419
 195   2.0000      -0.474640       -12.9156
 196   2.0000      -0.467809       -12.7297
 197   2.0000      -0.467258       -12.7147
 198   2.0000      -0.461000       -12.5444
 199   2.0000      -0.459502       -12.5037
 200   2.0000      -0.457626       -12.4526
 201   2.0000      -0.456092       -12.4109
 202   2.0000      -0.455685       -12.3998
 203   2.0000      -0.451072       -12.2743
 204   2.0000      -0.450305       -12.2534
 205   2.0000      -0.449104       -12.2207
 206   2.0000      -0.447381       -12.1739
 207   2.0000      -0.445751       -12.1295
 208   2.0000      -0.444777       -12.1030
 209   2.0000      -0.440301       -11.9812
 210   2.0000      -0.437930       -11.9167
 211   2.0000      -0.434342       -11.8190
 212   2.0000      -0.434259       -11.8168
 213   2.0000      -0.433864       -11.8060
 214   2.0000      -0.424141       -11.5415
 215   2.0000      -0.420445       -11.4409
 216   2.0000      -0.418751       -11.3948
 217   2.0000      -0.417022       -11.3477
 218   2.0000      -0.414690       -11.2843
 219   2.0000      -0.412536       -11.2257
 220   2.0000      -0.411279       -11.1915
 221   2.0000      -0.406386       -11.0583
 222   2.0000      -0.396940       -10.8013
 223   2.0000      -0.393939       -10.7196
 224   2.0000      -0.389542       -10.6000
 225   2.0000      -0.387921       -10.5559
 226   2.0000      -0.381413       -10.3788
 227   2.0000      -0.381245       -10.3742
 228   2.0000      -0.381015       -10.3679
 229   2.0000      -0.379189       -10.3183
 230   2.0000      -0.370607       -10.0847
 231   2.0000      -0.368036       -10.0148
 232   2.0000      -0.363884        -9.9018
 233   2.0000      -0.359419        -9.7803
 234   2.0000      -0.355256        -9.6670
 235   2.0000      -0.346254        -9.4220
 236   2.0000      -0.338873        -9.2212
 237   2.0000      -0.326545        -8.8857
 238   2.0000      -0.324340        -8.8258
 239   2.0000      -0.311070        -8.4646
 240   2.0000      -0.310451        -8.4478
 241   2.0000      -0.303506        -8.2588
 242   2.0000      -0.301246        -8.1973
 243   2.0000      -0.271711        -7.3936
 244   2.0000      -0.269210        -7.3256
 245   2.0000      -0.258202        -7.0260
 246   2.0000      -0.236105        -6.4247
 247   2.0000      -0.188119        -5.1190
 248   0.0000      -0.094618        -2.5747
 249   0.0000      -0.084965        -2.3120
 250   0.0000      -0.076668        -2.0862
 251   0.0000      -0.051398        -1.3986
 252   0.0000      -0.048002        -1.3062

MULLIKEN ATOMIC CHARGES
-----------------------
   0 C :    0.330450
   1 C :   -0.341872
   2 C :   -0.186202
   3 N :    0.152069
   4 C :   -0.195014
   5 N :    0.145495
   6 C :    0.009193
   7 C :   -0.003280
   8 C :   -0.070777
   9 C :    0.118326
  10 C :   -0.090894
  11 C :   -0.021324
  12 S :    0.193539
  13 C :   -0.123301
  14 C :    0.037396
  15 Br:    0.029964
  16 C :    0.171362
  17 O :   -0.231027
  18 C :   -0.133001
  19 C :    0.031404
  20 N :   -0.008090
  21 C :   -0.127740
  22 S :    0.177755
  23 C :    0.002404
  24 N :    0.274641
  25 O :   -0.248694
  26 O :   -0.255376
  27 C :    0.005821
  28 C :    0.132506
  29 C :   -0.042760
  30 C :    0.014629
  31 C :    0.007724
  32 C :   -0.212172
  33 C :    0.076785
  34 C :    0.192949
  35 N :   -0.153434
  36 C :    0.059252
  37 C :   -0.040680
  38 C :    0.004305
  39 C :   -0.050121
  40 C :    0.039621
  41 C :    0.015580
  42 C :   -0.044540
  43 S :    0.049372
  44 C :   -0.047512
  45 C :    0.023670
  46 C :    0.025381
  47 C :   -0.013677
  48 S :    0.050160
  49 C :   -0.033276
  50 C :    0.074212
  51 C :   -0.059552
  52 C :    0.064437
  53 C :   -0.018716
  54 C :    0.062268
  55 C :   -0.039350
  56 C :    0.070313
  57 C :   -0.038367
  58 C :    0.063188
  59 C :   -0.013216
  60 C :    0.065118
  61 C :   -0.044656
  62 C :    0.009148
  63 C :   -0.026607
  64 H :   -0.011151
  65 H :   -0.003951
  66 H :   -0.001250
  67 H :    0.047784
  68 H :    0.183922
  69 H :    0.013521
  70 H :   -0.017628
  71 H :   -0.010526
  72 H :   -0.021259
  73 H :    0.030294
  74 H :    0.055504
  75 H :    0.008628
  76 H :    0.027023
  77 H :    0.034326
  78 H :    0.118189
  79 H :    0.019902
  80 H :   -0.029727
  81 H :   -0.013951
  82 H :   -0.018568
  83 H :   -0.020255
  84 H :   -0.019881
  85 H :   -0.021745
  86 H :   -0.034014
  87 H :   -0.022923
  88 H :   -0.033019
  89 H :   -0.031417
  90 H :   -0.034161
  91 H :   -0.030450
  92 H :   -0.027965
  93 H :   -0.022567
  94 H :    0.005568
  95 H :    0.016539
Sum of atomic charges:   -0.0000000

LOEWDIN ATOMIC CHARGES
----------------------
   0 C :    0.078938
   1 C :   -0.147962
   2 C :   -0.020000
   3 N :   -0.052462
   4 C :   -0.020931
   5 N :   -0.051907
   6 C :   -0.018386
   7 C :   -0.051956
   8 C :    0.024229
   9 C :   -0.033368
  10 C :   -0.143208
  11 C :   -0.006314
  12 S :    0.439106
  13 C :   -0.269982
  14 C :   -0.069937
  15 Br:    0.141292
  16 C :    0.098712
  17 O :   -0.184882
  18 C :   -0.146813
  19 C :    0.113882
  20 N :    0.080804
  21 C :   -0.116457
  22 S :    0.471479
  23 C :   -0.199519
  24 N :    0.274529
  25 O :   -0.215841
  26 O :   -0.222539
  27 C :    0.003197
  28 C :   -0.080530
  29 C :   -0.037391
  30 C :   -0.011040
  31 C :   -0.068284
  32 C :   -0.022165
  33 C :   -0.052229
  34 C :    0.040544
  35 N :    0.002163
  36 C :    0.043388
  37 C :   -0.132584
  38 C :   -0.037724
  39 C :   -0.173712
  40 C :   -0.027408
  41 C :   -0.052868
  42 C :   -0.172708
  43 S :    0.358049
  44 C :   -0.195683
  45 C :   -0.040646
  46 C :   -0.042303
  47 C :   -0.145270
  48 S :    0.373181
  49 C :   -0.068093
  50 C :   -0.058347
  51 C :   -0.027583
  52 C :   -0.046145
  53 C :    0.048825
  54 C :   -0.055166
  55 C :    0.029068
  56 C :   -0.056044
  57 C :   -0.000292
  58 C :   -0.054218
  59 C :    0.060043
  60 C :   -0.061920
  61 C :    0.038959
  62 C :   -0.019655
  63 C :   -0.059636
  64 H :    0.041010
  65 H :    0.042493
  66 H :    0.039598
  67 H :    0.036488
  68 H :    0.084934
  69 H :    0.044804
  70 H :    0.028081
  71 H :    0.028624
  72 H :    0.025147
  73 H :    0.037164
  74 H :    0.043206
  75 H :    0.028821
  76 H :    0.031313
  77 H :    0.039408
  78 H :    0.076277
  79 H :    0.017166
  80 H :    0.020381
  81 H :    0.033022
  82 H :    0.030715
  83 H :    0.028717
  84 H :    0.028826
  85 H :    0.029460
  86 H :    0.029127
  87 H :    0.009552
  88 H :    0.031252
  89 H :    0.021804
  90 H :    0.021288
  91 H :    0.032409
  92 H :    0.023105
  93 H :    0.028117
  94 H :    0.016729
  95 H :    0.022681

  Mayer bond orders larger than 0.100000
B(  0-C ,  1-C ) :   1.6227 B(  0-C ,  6-C ) :   1.0049 B(  0-C , 18-C ) :   1.0990
B(  1-C ,  2-C ) :   1.1469 B(  1-C ,  4-C ) :   1.1499 B(  2-C ,  3-N ) :   2.9663
B(  4-C ,  5-N ) :   2.9510 B(  6-C ,  7-C ) :   1.2704 B(  6-C , 11-C ) :   1.4242
B(  7-C ,  8-C ) :   1.4202 B(  7-C , 16-C ) :   0.9825 B(  8-C ,  9-C ) :   1.2427
B(  8-C , 64-H ) :   1.0184 B(  9-C , 10-C ) :   1.3076 B(  9-C , 14-C ) :   1.1635
B( 10-C , 11-C ) :   1.3194 B( 10-C , 12-S ) :   1.0915 B( 11-C , 65-H ) :   0.9803
B( 12-S , 13-C ) :   1.0886 B( 13-C , 14-C ) :   1.6166 B( 13-C , 15-Br) :   1.0222
B( 14-C , 66-H ) :   1.0007 B( 16-C , 17-O ) :   2.0180 B( 16-C , 18-C ) :   1.0089
B( 17-O , 68-H ) :   0.1409 B( 18-C , 19-C ) :   1.4496 B( 19-C , 20-N ) :   1.3428
B( 19-C , 67-H ) :   0.9296 B( 20-N , 21-C ) :   1.1904 B( 20-N , 68-H ) :   0.8261
B( 21-C , 22-S ) :   1.1333 B( 21-C , 28-C ) :   1.3810 B( 22-S , 23-C ) :   1.0850
B( 23-C , 24-N ) :   0.9685 B( 23-C , 27-C ) :   1.5009 B( 24-N , 25-O ) :   1.5300
B( 24-N , 26-O ) :   1.5141 B( 25-O , 26-O ) :   0.2633 B( 27-C , 28-C ) :   1.2191
B( 27-C , 69-H ) :   0.9975 B( 28-C , 29-C ) :   1.0676 B( 29-C , 30-C ) :   1.7667
B( 29-C , 70-H ) :   0.9646 B( 30-C , 31-C ) :   1.0957 B( 30-C , 71-H ) :   0.9578
B( 31-C , 32-C ) :   1.8418 B( 31-C , 72-H ) :   0.9355 B( 32-C , 33-C ) :   1.0887
B( 32-C , 34-C ) :   0.9961 B( 33-C , 73-H ) :   0.9411 B( 33-C , 74-H ) :   0.9386
B( 33-C , 75-H ) :   0.9491 B( 34-C , 35-N ) :   1.0525 B( 34-C , 76-H ) :   0.9336
B( 34-C , 77-H ) :   0.9285 B( 35-N , 36-C ) :   1.2137 B( 35-N , 78-H ) :   0.9417
B( 36-C , 37-C ) :   1.6041 B( 36-C , 79-H ) :   0.9474 B( 37-C , 38-C ) :   1.1949
B( 37-C , 80-H ) :   0.9562 B( 38-C , 39-C ) :   1.6020 B( 38-C , 81-H ) :   0.9589
B( 39-C , 40-C ) :   1.1520 B( 39-C , 43-S ) :   1.0073 B( 40-C , 41-C ) :   1.5857
B( 40-C , 82-H ) :   0.9968 B( 41-C , 42-C ) :   1.1900 B( 41-C , 83-H ) :   0.9933
B( 42-C , 43-S ) :   1.0472 B( 42-C , 44-C ) :   1.5009 B( 44-C , 45-C ) :   1.1935
B( 44-C , 48-S ) :   1.0279 B( 45-C , 46-C ) :   1.5782 B( 45-C , 84-H ) :   0.9936
B( 46-C , 47-C ) :   1.1492 B( 46-C , 85-H ) :   0.9993 B( 47-C , 48-S ) :   1.0375
B( 47-C , 49-C ) :   1.5612 B( 49-C , 50-C ) :   1.1404 B( 49-C , 86-H ) :   0.9680
B( 50-C , 51-C ) :   1.4661 B( 50-C , 61-C ) :   1.0989 B( 51-C , 52-C ) :   1.1163
B( 51-C , 87-H ) :   0.9977 B( 52-C , 53-C ) :   1.4661 B( 52-C , 60-C ) :   1.1175
B( 53-C , 54-C ) :   1.1129 B( 53-C , 88-H ) :   1.0044 B( 54-C , 55-C ) :   1.4676
B( 54-C , 58-C ) :   1.1189 B( 55-C , 56-C ) :   1.1213 B( 55-C , 89-H ) :   1.0084
B( 56-C , 57-C ) :   1.5280 B( 56-C , 62-C ) :   1.0881 B( 57-C , 58-C ) :   1.0728
B( 57-C , 90-H ) :   1.0175 B( 58-C , 59-C ) :   1.4899 B( 59-C , 60-C ) :   1.1041
B( 59-C , 91-H ) :   1.0057 B( 60-C , 61-C ) :   1.4636 B( 61-C , 92-H ) :   1.0163
B( 62-C , 63-C ) :   1.9292 B( 62-C , 93-H ) :   0.9662 B( 63-C , 94-H ) :   0.9524
B( 63-C , 95-H ) :   0.9492

-----------------------------------------------------------------------------
         ABSORPTION SPECTRUM VIA TRANSITION ELECTRIC DIPOLE MOMENTS
-----------------------------------------------------------------------------
State   Energy  Wavelength   fosc         T2         TX        TY        TZ
        (cm-1)    (nm)                  (au**2)     (au)      (au)      (au)
-----------------------------------------------------------------------------
   0    6660.2   1501.5   0.054939205   2.71563   0.69219   1.07775  -1.03680
   1   12237.3    817.2   0.000690544   0.01858   0.07016  -0.09133   0.07290
   2   14647.3    682.7   0.359963238   8.09049   0.87325   2.28651  -1.44907
   3   15723.4    636.0   0.001361661   0.02851   0.01324   0.15143  -0.07351
   4   16073.9    622.1   0.769737286  15.76514  -0.95817  -3.53814   1.52597
   5   21265.1    470.3   0.001138525   0.01763  -0.12495  -0.04281   0.01342
   6   21932.1    456.0   0.891030617  13.37484  -3.13485  -1.54075  -1.08333
   7   22612.3    442.2   0.157167270   2.28819  -0.80686  -0.29814   1.24430
   8   23359.9    428.1   0.011579753   0.16319   0.31637   0.21489   0.13010
   9   24335.0    410.9   0.051589150   0.69792   0.32284  -0.61008  -0.47063
  10   24809.1    403.1   0.106533204   1.41367  -0.66688  -0.98231   0.06339
  11   25023.7    399.6   0.002635076   0.03467   0.11131  -0.12760  -0.07743
  12   26257.7    380.8   0.072363449   0.90727  -0.52687   0.05339   0.79173
  13   26888.1    371.9   0.001424788   0.01744   0.09531   0.08983  -0.01712
  14   28214.8    354.4   1.547800530  18.05981   2.34888  -1.22256  -3.32384
  15   28967.8    345.2   0.257655964   2.92820  -0.21051  -1.64421   0.42479
  16   29075.1    343.9   0.070223857   0.79513  -0.22671  -0.83955   0.19719
  17   29754.6    336.1   0.023290995   0.25770   0.22837  -0.29306  -0.34592
  18   29983.1    333.5   0.239168457   2.62605  -0.89751  -1.34061  -0.15268
  19   30270.2    330.4   0.004094919   0.04454  -0.12352  -0.16683  -0.03800
  20   30434.5    328.6   0.024293458   0.26278  -0.36973  -0.33587   0.11520
  21   30512.3    327.7   0.133828113   1.44394  -0.87446  -0.58130  -0.58425
  22   31368.1    318.8   0.332348953   3.48804  -0.26243  -1.68142   0.76941
  23   31505.0    317.4   0.011048107   0.11545  -0.07905  -0.25649   0.20835
  24   32473.6    307.9   0.224478617   2.27573   0.62478  -0.71605  -1.17160
  25   32499.5    307.7   0.007573560   0.07672  -0.14600  -0.03662   0.23251
  26   32502.2    307.7   0.015890914   0.16096   0.10818  -0.22967  -0.31066
  27   32821.7    304.7   0.001514031   0.01519   0.08789  -0.07791  -0.03732
  28   33133.2    301.8   0.065370355   0.64952  -0.21088   0.53018   0.56917
  29   33311.0    300.2   0.000275450   0.00272  -0.03504  -0.03034   0.02396
  30   33458.2    298.9   0.037657774   0.37053   0.41597   0.43839   0.07290
  31   33561.5    298.0   0.020825232   0.20428   0.43265  -0.00722  -0.13055
  32   33774.5    296.1   0.187453591   1.82718   0.19831  -1.20635   0.57668
  33   33993.9    294.2   0.047867255   0.46357  -0.05953  -0.64645   0.20524
  34   34067.1    293.5   0.369980896   3.57536  -0.15913  -1.76980   0.64639
  35   35227.1    283.9   0.037855417   0.35377  -0.17700  -0.23580  -0.51657
  36   36326.8    275.3   0.009308826   0.08436   0.03693  -0.12621   0.25897
  37   36378.0    274.9   0.000075128   0.00068   0.01807   0.01278  -0.01379
  38   36582.8    273.4   0.030517377   0.27463   0.12936   0.42310   0.28086
  39   37651.8    265.6   0.249862370   2.18469   0.34530   0.07420  -1.43525
  40   37767.3    264.8   0.064801826   0.56487   0.42246  -0.26638  -0.56164
  41   37809.0    264.5   0.002591924   0.02257   0.10139   0.08160  -0.07504
  42   37963.0    263.4   0.007358272   0.06381  -0.24295  -0.05521  -0.04169
  43   38021.1    263.0   0.178438641   1.54504  -1.03112  -0.59731  -0.35361
  44   38287.1    261.2   0.044559965   0.38315  -0.44322   0.41037   0.13529
  45   38597.9    259.1   0.479970119   4.09379   0.92254  -1.34927   1.19256
  46   38954.4    256.7   0.030292546   0.25601   0.24832  -0.18081   0.40206
  47   39215.0    255.0   0.068302394   0.57340   0.02055   0.73731   0.17133
  48   39336.4    254.2   0.000852951   0.00714   0.03498   0.07466   0.01847
  49   39563.1    252.8   0.036224980   0.30143   0.20979  -0.08417  -0.50034
  50   39674.9    252.0   0.001308251   0.01086  -0.06799  -0.03115   0.07255
  51   39796.1    251.3   0.059366145   0.49110   0.42654  -0.33152   0.44640
  52   40006.3    250.0   0.007011706   0.05770  -0.13247  -0.00352  -0.20034
  53   40079.7    249.5   0.125448149   1.03042  -0.74861   0.42183  -0.54042
  54   40120.3    249.3   0.000123764   0.00102  -0.02066  -0.01214  -0.02101
  55   40306.3    248.1   0.071595097   0.58477   0.16693  -0.59746  -0.44716

FINAL SINGLE POINT ENERGY     -6624.963589257179

DIPOLE MOMENT
-------------
                                X             Y             Z
Electronic contribution:    135.72078     -14.54042      86.48111
Nuclear contribution   :   -135.91793      16.69017     -87.64439
                        -----------------------------------------
Total Dipole Moment    :     -0.19715       2.14975      -1.16328
                        -----------------------------------------
Magnitude (a.u.)       :      2.45225
Magnitude (Debye)      :      6.23312

Rotational constants in cm-1:     0.000724     0.000352     0.000271
Rotational constants in MHz :    21.701647    10.562995     8.124051

                             ****ORCA TERMINATED NORMALLY****
TOTAL RUN TIME: 0 days 0 hours 9 minutes 14 seconds 150 msec
