                         Program Version 4.2.0 -  RELEASE  -
|  1> # ORCA input file
|  2> # SCF done       -175.799827179424          0.000599823024
|  3> ! CAM-B3LYP def2-SVP def2/J RIJCOSX Grid4 TightSCF
|  4> %maxcore 5000
|  5> %tddft
|  6>     Mode sTDDFT
|  7>     Ethresh 5.0
|  8>     maxcore 5000
|  9> end
| 10>
| 11> %pal
| 12>   nprocs 6
| 13>   end
| 14> * xyz 0 1
| 15>    C      -14.98208        -4.11498         4.92877
| 16>    S      -16.68244        -3.92565         5.13253
| 17>    C      -14.34743        -2.94061         5.17667
| 18>    S      -12.70227        -2.37632         5.16642
| 19>    C      -13.32398        -0.80747         5.67726
| 20>    N      -14.58265        -0.69916         5.83217
| 21>    C      -15.22601        -1.86515         5.54130
| 22>    C      -16.56111        -2.22820         5.52838
| 23>    C      -17.75298        -1.49467         5.79113
| 24>    C      -17.93755        -0.15425         5.72626
| 25>    C      -17.03981         0.82663         5.20545
| 26>    C      -17.05750         2.14537         5.71192
| 27>    C      -16.04803         3.11402         5.36413
| 28>    N      -16.08098         4.33597         5.89646
| 29>    C      -17.04230         4.64813         6.74245
| 30>    C      -18.03957         3.68693         7.09420
| 31>    N      -18.02587         2.47987         6.58408
| 32>    C      -19.07317         4.04324         7.99699
| 33>    N      -19.89057         4.36706         8.73154
| 34>    C      -17.07849         5.95129         7.28954
| 35>    N      -17.13161         7.00049         7.74884
| 36>    C      -14.95739         2.78878         4.49475
| 37>    C      -15.07915         1.53987         3.83343
| 38>    C      -16.11655         0.59306         4.16338
| 39>    N      -16.08562        -0.47071         3.36166
| 40>    S      -14.86380        -0.32133         2.32727
| 41>    N      -14.31938         1.10952         2.83517
| 42>    C      -13.89243         3.68721         4.38316
| 43>    C      -12.62660         3.51970         3.85497
| 44>    C      -11.62656         4.52025         3.91443
| 45>    C      -10.39451         4.11973         3.48580
| 46>    C      -10.36424         2.77458         3.07143
| 47>    S      -11.95859         2.05727         3.17638
| 48>    C       -9.27747         2.03334         2.63667
| 49>    C       -7.94288         2.45237         2.45084
| 50>    C       -7.11010         1.46119         2.03133
| 51>    C       -7.73032         0.19186         1.86483
| 52>    S       -9.43978         0.33820         2.25651
| 53>    C       -7.06205        -0.94259         1.49126
| 54>    C       -7.52042        -2.28185         1.31436
| 55>    C       -6.55092        -3.27452         1.04786
| 56>    C       -6.92586        -4.58426         0.90430
| 57>    C       -8.28930        -4.93892         0.95981
| 58>    C       -9.25757        -3.97371         1.20852
| 59>    C       -8.87076        -2.66584         1.39499
| 60>    C       -8.41288        -6.34953         0.68850
| 61>    C       -7.12883        -6.87794         0.46907
| 62>    C       -6.07258        -5.80826         0.65518
| 63>    C       -5.17488        -5.65414        -0.58074
| 64>    C       -5.97755        -5.40101        -1.85180
| 65>    C       -5.25623        -6.20053         1.90989
| 66>    C       -4.24784        -5.16946         2.39880
| 67>    C       -6.96518        -8.20923         0.17970
| 68>    C       -8.08640        -9.05274         0.09784
| 69>    C       -9.36051        -8.50518         0.31177
| 70>    C       -9.53140        -7.16954         0.60459
| 71>    C       -7.87009       -10.44872        -0.18558
| 72>    C       -8.81401       -11.40981        -0.26628
| 73>    C       -8.53657       -12.78111        -0.51691
| 74>    S       -9.85233       -13.93608        -0.58886
| 75>    C       -7.35075       -13.44990        -0.71774
| 76>    S       -5.66948       -13.02854        -0.78537
| 77>    C       -5.32852       -14.73554        -1.07390
| 78>    N       -6.32321       -15.52626        -1.11718
| 79>    C       -7.49368       -14.85627        -0.92232
| 80>    C       -8.80459       -15.29276        -0.88183
| 81>    C       -9.27059       -16.63480        -1.04517
| 82>    C      -10.54856       -17.00734        -0.99150
| 83>    H      -14.57369        -5.06192         4.64220
| 84>    H      -12.63673         0.00035         5.83765
| 85>    H      -18.59338        -2.10379         6.10009
| 86>    H      -18.85125         0.25046         6.14186
| 87>    H      -14.07009         4.64305         4.86255
| 88>    H      -11.84746         5.50419         4.28929
| 89>    H       -9.52232         4.74861         3.47592
| 90>    H       -7.63585         3.46707         2.62968
| 91>    H       -6.06010         1.59487         1.83820
| 92>    H       -5.99933        -0.80014         1.32702
| 93>    H       -5.51601        -2.97889         0.95736
| 94>    H      -10.30193        -4.24325         1.25229
| 95>    H       -9.62625        -1.92182         1.58568
| 96>    H       -4.58091        -6.56259        -0.70043
| 97>    H       -4.48744        -4.82203        -0.42285
| 98>    H       -6.65343        -6.22954        -2.05150
| 99>    H       -5.30863        -5.28978        -2.70212
|100>    H       -6.56883        -4.49269        -1.75706
|101>    H       -4.73264        -7.13231         1.68469
|102>    H       -5.96360        -6.40763         2.71740
|103>    H       -3.52725        -4.91962         1.62453
|104>    H       -3.70175        -5.57654         3.24719
|105>    H       -4.74828        -4.26205         2.72549
|106>    H       -5.98145        -8.62427         0.01181
|107>    H      -10.22951        -9.14094         0.24752
|108>    H      -10.52009        -6.76747         0.76807
|109>    H       -6.83566       -10.73458        -0.33095
|110>    H       -9.86022       -11.17687        -0.13162
|111>    H       -4.31160       -15.05100        -1.20171
|112>    H       -8.48203       -17.35448        -1.22097
|113>    H      -11.33472       -16.29085        -0.81654
|114>    H      -10.84307       -18.03301        -1.12100
|115> *
|116>
|117>                          ****END OF INPUT****

CARTESIAN COORDINATES (ANGSTROEM)
---------------------------------
  C    -14.982080   -4.114980    4.928770
  S    -16.682440   -3.925650    5.132530
  C    -14.347430   -2.940610    5.176670
  S    -12.702270   -2.376320    5.166420
  C    -13.323980   -0.807470    5.677260
  N    -14.582650   -0.699160    5.832170
  C    -15.226010   -1.865150    5.541300
  C    -16.561110   -2.228200    5.528380
  C    -17.752980   -1.494670    5.791130
  C    -17.937550   -0.154250    5.726260
  C    -17.039810    0.826630    5.205450
  C    -17.057500    2.145370    5.711920
  C    -16.048030    3.114020    5.364130
  N    -16.080980    4.335970    5.896460
  C    -17.042300    4.648130    6.742450
  C    -18.039570    3.686930    7.094200
  N    -18.025870    2.479870    6.584080
  C    -19.073170    4.043240    7.996990
  N    -19.890570    4.367060    8.731540
  C    -17.078490    5.951290    7.289540
  N    -17.131610    7.000490    7.748840
  C    -14.957390    2.788780    4.494750
  C    -15.079150    1.539870    3.833430
  C    -16.116550    0.593060    4.163380
  N    -16.085620   -0.470710    3.361660
  S    -14.863800   -0.321330    2.327270
  N    -14.319380    1.109520    2.835170
  C    -13.892430    3.687210    4.383160
  C    -12.626600    3.519700    3.854970
  C    -11.626560    4.520250    3.914430
  C    -10.394510    4.119730    3.485800
  C    -10.364240    2.774580    3.071430
  S    -11.958590    2.057270    3.176380
  C     -9.277470    2.033340    2.636670
  C     -7.942880    2.452370    2.450840
  C     -7.110100    1.461190    2.031330
  C     -7.730320    0.191860    1.864830
  S     -9.439780    0.338200    2.256510
  C     -7.062050   -0.942590    1.491260
  C     -7.520420   -2.281850    1.314360
  C     -6.550920   -3.274520    1.047860
  C     -6.925860   -4.584260    0.904300
  C     -8.289300   -4.938920    0.959810
  C     -9.257570   -3.973710    1.208520
  C     -8.870760   -2.665840    1.394990
  C     -8.412880   -6.349530    0.688500
  C     -7.128830   -6.877940    0.469070
  C     -6.072580   -5.808260    0.655180
  C     -5.174880   -5.654140   -0.580740
  C     -5.977550   -5.401010   -1.851800
  C     -5.256230   -6.200530    1.909890
  C     -4.247840   -5.169460    2.398800
  C     -6.965180   -8.209230    0.179700
  C     -8.086400   -9.052740    0.097840
  C     -9.360510   -8.505180    0.311770
  C     -9.531400   -7.169540    0.604590
  C     -7.870090  -10.448720   -0.185580
  C     -8.814010  -11.409810   -0.266280
  C     -8.536570  -12.781110   -0.516910
  S     -9.852330  -13.936080   -0.588860
  C     -7.350750  -13.449900   -0.717740
  S     -5.669480  -13.028540   -0.785370
  C     -5.328520  -14.735540   -1.073900
  N     -6.323210  -15.526260   -1.117180
  C     -7.493680  -14.856270   -0.922320
  C     -8.804590  -15.292760   -0.881830
  C     -9.270590  -16.634800   -1.045170
  C    -10.548560  -17.007340   -0.991500
  H    -14.573690   -5.061920    4.642200
  H    -12.636730    0.000350    5.837650
  H    -18.593380   -2.103790    6.100090
  H    -18.851250    0.250460    6.141860
  H    -14.070090    4.643050    4.862550
  H    -11.847460    5.504190    4.289290
  H     -9.522320    4.748610    3.475920
  H     -7.635850    3.467070    2.629680
  H     -6.060100    1.594870    1.838200
  H     -5.999330   -0.800140    1.327020
  H     -5.516010   -2.978890    0.957360
  H    -10.301930   -4.243250    1.252290
  H     -9.626250   -1.921820    1.585680
  H     -4.580910   -6.562590   -0.700430
  H     -4.487440   -4.822030   -0.422850
  H     -6.653430   -6.229540   -2.051500
  H     -5.308630   -5.289780   -2.702120
  H     -6.568830   -4.492690   -1.757060
  H     -4.732640   -7.132310    1.684690
  H     -5.963600   -6.407630    2.717400
  H     -3.527250   -4.919620    1.624530
  H     -3.701750   -5.576540    3.247190
  H     -4.748280   -4.262050    2.725490
  H     -5.981450   -8.624270    0.011810
  H    -10.229510   -9.140940    0.247520
  H    -10.520090   -6.767470    0.768070
  H     -6.835660  -10.734580   -0.330950
  H     -9.860220  -11.176870   -0.131620
  H     -4.311600  -15.051000   -1.201710
  H     -8.482030  -17.354480   -1.220970
  H    -11.334720  -16.290850   -0.816540
  H    -10.843070  -18.033010   -1.121000

 Total Charge           Charge          ....    0
 Multiplicity           Mult            ....    1
 Number of Electrons    NEL             ....  518
 Basis Dimension        Dim             .... 1140

ORBITAL ENERGIES
----------------

  NO   OCC          E(Eh)            E(eV)
   0   2.0000     -89.025130     -2422.4969
   1   2.0000     -88.962167     -2420.7836
   2   2.0000     -88.961657     -2420.7697
   3   2.0000     -88.959818     -2420.7197
   4   2.0000     -88.958295     -2420.6783
   5   2.0000     -88.957679     -2420.6615
   6   2.0000     -88.953599     -2420.5505
   7   2.0000     -14.444957      -393.0673
   8   2.0000     -14.440343      -392.9417
   9   2.0000     -14.439683      -392.9238
  10   2.0000     -14.429801      -392.6548
  11   2.0000     -14.417577      -392.3222
  12   2.0000     -14.415088      -392.2545
  13   2.0000     -14.414041      -392.2260
  14   2.0000     -14.411195      -392.1486
  15   2.0000     -10.362907      -281.9890
  16   2.0000     -10.357700      -281.8473
  17   2.0000     -10.340142      -281.3696
  18   2.0000     -10.338655      -281.3291
  19   2.0000     -10.329607      -281.0829
  20   2.0000     -10.327850      -281.0351
  21   2.0000     -10.326395      -280.9955
  22   2.0000     -10.325997      -280.9847
  23   2.0000     -10.320405      -280.8325
  24   2.0000     -10.319946      -280.8200
  25   2.0000     -10.318249      -280.7738
  26   2.0000     -10.310403      -280.5603
  27   2.0000     -10.310116      -280.5525
  28   2.0000     -10.307804      -280.4896
  29   2.0000     -10.306800      -280.4623
  30   2.0000     -10.306179      -280.4454
  31   2.0000     -10.304764      -280.4069
  32   2.0000     -10.303999      -280.3861
  33   2.0000     -10.302718      -280.3512
  34   2.0000     -10.300973      -280.3037
  35   2.0000     -10.300687      -280.2959
  36   2.0000     -10.300058      -280.2788
  37   2.0000     -10.299978      -280.2767
  38   2.0000     -10.298672      -280.2411
  39   2.0000     -10.297464      -280.2082
  40   2.0000     -10.296723      -280.1881
  41   2.0000     -10.295052      -280.1426
  42   2.0000     -10.290111      -280.0082
  43   2.0000     -10.288461      -279.9633
  44   2.0000     -10.286718      -279.9158
  45   2.0000     -10.285671      -279.8873
  46   2.0000     -10.284261      -279.8490
  47   2.0000     -10.284155      -279.8461
  48   2.0000     -10.283223      -279.8207
  49   2.0000     -10.281101      -279.7630
  50   2.0000     -10.280964      -279.7593
  51   2.0000     -10.280384      -279.7435
  52   2.0000     -10.279968      -279.7321
  53   2.0000     -10.279517      -279.7199
  54   2.0000     -10.279420      -279.7172
  55   2.0000     -10.277729      -279.6712
  56   2.0000     -10.276833      -279.6468
  57   2.0000     -10.276808      -279.6462
  58   2.0000     -10.275196      -279.6023
  59   2.0000     -10.274432      -279.5815
  60   2.0000     -10.274152      -279.5739
  61   2.0000     -10.273609      -279.5591
  62   2.0000     -10.269866      -279.4573
  63   2.0000     -10.269565      -279.4491
  64   2.0000     -10.269474      -279.4466
  65   2.0000     -10.266709      -279.3714
  66   2.0000     -10.258242      -279.1410
  67   2.0000     -10.252408      -278.9822
  68   2.0000      -8.116129      -220.8511
  69   2.0000      -8.057854      -219.2653
  70   2.0000      -8.056798      -219.2366
  71   2.0000      -8.055588      -219.2037
  72   2.0000      -8.054082      -219.1627
  73   2.0000      -8.053629      -219.1504
  74   2.0000      -8.048191      -219.0024
  75   2.0000      -6.087344      -165.6450
  76   2.0000      -6.079682      -165.4366
  77   2.0000      -6.078636      -165.4081
  78   2.0000      -6.027481      -164.0161
  79   2.0000      -6.026057      -163.9774
  80   2.0000      -6.025280      -163.9562
  81   2.0000      -6.023604      -163.9106
  82   2.0000      -6.023339      -163.9034
  83   2.0000      -6.022938      -163.8925
  84   2.0000      -6.022073      -163.8689
  85   2.0000      -6.021223      -163.8458
  86   2.0000      -6.019644      -163.8028
  87   2.0000      -6.019216      -163.7912
  88   2.0000      -6.018919      -163.7831
  89   2.0000      -6.018656      -163.7760
  90   2.0000      -6.017937      -163.7564
  91   2.0000      -6.016648      -163.7213
  92   2.0000      -6.015939      -163.7020
  93   2.0000      -6.015327      -163.6854
  94   2.0000      -6.013579      -163.6378
  95   2.0000      -6.009439      -163.5252
  96   2.0000      -1.123219       -30.5644
  97   2.0000      -1.100418       -29.9439
  98   2.0000      -1.070045       -29.1174
  99   2.0000      -1.067048       -29.0358
 100   2.0000      -1.027361       -27.9559
 101   2.0000      -1.005687       -27.3661
 102   2.0000      -0.997041       -27.1309
 103   2.0000      -0.994347       -27.0576
 104   2.0000      -0.987908       -26.8823
 105   2.0000      -0.984689       -26.7947
 106   2.0000      -0.979285       -26.6477
 107   2.0000      -0.976633       -26.5755
 108   2.0000      -0.970485       -26.4082
 109   2.0000      -0.958265       -26.0757
 110   2.0000      -0.953069       -25.9343
 111   2.0000      -0.928733       -25.2721
 112   2.0000      -0.911770       -24.8105
 113   2.0000      -0.906400       -24.6644
 114   2.0000      -0.901173       -24.5222
 115   2.0000      -0.894510       -24.3409
 116   2.0000      -0.886944       -24.1350
 117   2.0000      -0.885660       -24.1000
 118   2.0000      -0.874345       -23.7921
 119   2.0000      -0.866444       -23.5771
 120   2.0000      -0.859088       -23.3770
 121   2.0000      -0.852684       -23.2027
 122   2.0000      -0.844994       -22.9935
 123   2.0000      -0.842877       -22.9358
 124   2.0000      -0.840431       -22.8693
 125   2.0000      -0.838968       -22.8295
 126   2.0000      -0.830662       -22.6035
 127   2.0000      -0.826601       -22.4930
 128   2.0000      -0.820556       -22.3285
 129   2.0000      -0.818576       -22.2746
 130   2.0000      -0.811735       -22.0884
 131   2.0000      -0.793584       -21.5945
 132   2.0000      -0.790649       -21.5147
 133   2.0000      -0.777534       -21.1578
 134   2.0000      -0.771506       -20.9937
 135   2.0000      -0.764251       -20.7963
 136   2.0000      -0.746078       -20.3018
 137   2.0000      -0.731712       -19.9109
 138   2.0000      -0.719798       -19.5867
 139   2.0000      -0.716452       -19.4957
 140   2.0000      -0.710084       -19.3224
 141   2.0000      -0.707229       -19.2447
 142   2.0000      -0.698597       -19.0098
 143   2.0000      -0.696989       -18.9660
 144   2.0000      -0.693651       -18.8752
 145   2.0000      -0.686347       -18.6765
 146   2.0000      -0.682398       -18.5690
 147   2.0000      -0.679787       -18.4980
 148   2.0000      -0.669417       -18.2158
 149   2.0000      -0.667445       -18.1621
 150   2.0000      -0.660885       -17.9836
 151   2.0000      -0.658895       -17.9294
 152   2.0000      -0.652351       -17.7514
 153   2.0000      -0.646584       -17.5944
 154   2.0000      -0.637573       -17.3492
 155   2.0000      -0.633396       -17.2356
 156   2.0000      -0.626238       -17.0408
 157   2.0000      -0.619908       -16.8685
 158   2.0000      -0.613734       -16.7006
 159   2.0000      -0.613444       -16.6927
 160   2.0000      -0.606462       -16.5027
 161   2.0000      -0.603035       -16.4094
 162   2.0000      -0.598805       -16.2943
 163   2.0000      -0.593467       -16.1491
 164   2.0000      -0.581836       -15.8325
 165   2.0000      -0.575698       -15.6655
 166   2.0000      -0.574323       -15.6281
 167   2.0000      -0.565855       -15.3977
 168   2.0000      -0.562757       -15.3134
 169   2.0000      -0.556997       -15.1567
 170   2.0000      -0.553906       -15.0725
 171   2.0000      -0.550049       -14.9676
 172   2.0000      -0.546906       -14.8821
 173   2.0000      -0.545496       -14.8437
 174   2.0000      -0.542264       -14.7558
 175   2.0000      -0.539644       -14.6845
 176   2.0000      -0.538638       -14.6571
 177   2.0000      -0.538046       -14.6410
 178   2.0000      -0.530001       -14.4221
 179   2.0000      -0.528718       -14.3872
 180   2.0000      -0.524862       -14.2822
 181   2.0000      -0.523778       -14.2527
 182   2.0000      -0.523178       -14.2364
 183   2.0000      -0.519867       -14.1463
 184   2.0000      -0.516995       -14.0681
 185   2.0000      -0.516092       -14.0436
 186   2.0000      -0.511623       -13.9220
 187   2.0000      -0.509084       -13.8529
 188   2.0000      -0.507279       -13.8038
 189   2.0000      -0.505836       -13.7645
 190   2.0000      -0.504344       -13.7239
 191   2.0000      -0.499081       -13.5807
 192   2.0000      -0.495045       -13.4708
 193   2.0000      -0.489342       -13.3157
 194   2.0000      -0.487280       -13.2596
 195   2.0000      -0.484553       -13.1854
 196   2.0000      -0.480934       -13.0869
 197   2.0000      -0.476984       -12.9794
 198   2.0000      -0.474719       -12.9178
 199   2.0000      -0.472623       -12.8607
 200   2.0000      -0.466891       -12.7047
 201   2.0000      -0.465187       -12.6584
 202   2.0000      -0.463729       -12.6187
 203   2.0000      -0.462475       -12.5846
 204   2.0000      -0.459736       -12.5100
 205   2.0000      -0.457208       -12.4413
 206   2.0000      -0.455070       -12.3831
 207   2.0000      -0.452532       -12.3140
 208   2.0000      -0.449736       -12.2379
 209   2.0000      -0.447494       -12.1769
 210   2.0000      -0.445291       -12.1170
 211   2.0000      -0.442017       -12.0279
 212   2.0000      -0.440597       -11.9893
 213   2.0000      -0.440489       -11.9863
 214   2.0000      -0.437917       -11.9163
 215   2.0000      -0.437623       -11.9083
 216   2.0000      -0.436892       -11.8884
 217   2.0000      -0.433042       -11.7837
 218   2.0000      -0.430079       -11.7030
 219   2.0000      -0.428187       -11.6515
 220   2.0000      -0.427111       -11.6223
 221   2.0000      -0.425177       -11.5696
 222   2.0000      -0.424280       -11.5452
 223   2.0000      -0.421333       -11.4651
 224   2.0000      -0.419665       -11.4197
 225   2.0000      -0.416846       -11.3430
 226   2.0000      -0.413888       -11.2625
 227   2.0000      -0.413316       -11.2469
 228   2.0000      -0.410932       -11.1820
 229   2.0000      -0.409020       -11.1300
 230   2.0000      -0.403764       -10.9870
 231   2.0000      -0.400835       -10.9073
 232   2.0000      -0.396274       -10.7832
 233   2.0000      -0.393203       -10.6996
 234   2.0000      -0.391484       -10.6528
 235   2.0000      -0.391106       -10.6425
 236   2.0000      -0.386196       -10.5089
 237   2.0000      -0.382846       -10.4178
 238   2.0000      -0.378419       -10.2973
 239   2.0000      -0.358326        -9.7506
 240   2.0000      -0.355073        -9.6620
 241   2.0000      -0.353190        -9.6108
 242   2.0000      -0.352349        -9.5879
 243   2.0000      -0.350256        -9.5310
 244   2.0000      -0.346449        -9.4274
 245   2.0000      -0.344021        -9.3613
 246   2.0000      -0.342059        -9.3079
 247   2.0000      -0.332323        -9.0430
 248   2.0000      -0.328289        -8.9332
 249   2.0000      -0.324161        -8.8209
 250   2.0000      -0.321526        -8.7492
 251   2.0000      -0.320628        -8.7247
 252   2.0000      -0.312407        -8.5010
 253   2.0000      -0.305855        -8.3227
 254   2.0000      -0.296788        -8.0760
 255   2.0000      -0.279046        -7.5932
 256   2.0000      -0.258642        -7.0380
 257   2.0000      -0.240356        -6.5404
 258   2.0000      -0.209660        -5.7051
 259   0.0000      -0.115872        -3.1530
 260   0.0000      -0.069728        -1.8974
 261   0.0000      -0.049840        -1.3562
 262   0.0000      -0.036108        -0.9825
 263   0.0000      -0.027113        -0.7378

MULLIKEN ATOMIC CHARGES
-----------------------
   0 C :   -0.179599
   1 S :    0.131112
   2 C :    0.003734
   3 S :    0.076115
   4 C :    0.017830
   5 N :   -0.063684
   6 C :    0.085452
   7 C :   -0.156387
   8 C :    0.049554
   9 C :   -0.051435
  10 C :    0.088328
  11 C :   -0.048351
  12 C :   -0.060148
  13 N :    0.046436
  14 C :   -0.149970
  15 C :   -0.134085
  16 N :    0.051121
  17 C :   -0.210337
  18 N :    0.225395
  19 C :   -0.212505
  20 N :    0.222220
  21 C :    0.116141
  22 C :    0.022621
  23 C :   -0.001163
  24 N :   -0.268261
  25 S :    0.510139
  26 N :   -0.316381
  27 C :   -0.120459
  28 C :    0.015333
  29 C :    0.023355
  30 C :    0.038121
  31 C :   -0.043629
  32 S :    0.120301
  33 C :   -0.027718
  34 C :    0.026076
  35 C :    0.043830
  36 C :   -0.014635
  37 S :    0.064205
  38 C :   -0.025769
  39 C :    0.116334
  40 C :   -0.115657
  41 C :    0.030179
  42 C :    0.107711
  43 C :   -0.055230
  44 C :   -0.013232
  45 C :    0.097255
  46 C :    0.025829
  47 C :   -0.131144
  48 C :    0.049698
  49 C :    0.024792
  50 C :    0.079182
  51 C :    0.031330
  52 C :   -0.112721
  53 C :    0.131350
  54 C :   -0.016050
  55 C :   -0.039342
  56 C :   -0.027642
  57 C :    0.085039
  58 C :   -0.200233
  59 S :    0.129482
  60 C :   -0.000973
  61 S :    0.070335
  62 C :    0.024447
  63 N :   -0.048897
  64 C :    0.070463
  65 C :   -0.155748
  66 C :    0.008187
  67 C :   -0.022881
  68 H :    0.022186
  69 H :    0.043906
  70 H :   -0.008457
  71 H :    0.007906
  72 H :    0.002562
  73 H :   -0.003295
  74 H :   -0.010946
  75 H :   -0.010167
  76 H :   -0.006693
  77 H :   -0.017906
  78 H :   -0.035850
  79 H :   -0.033691
  80 H :   -0.015882
  81 H :   -0.000782
  82 H :    0.005978
  83 H :    0.022910
  84 H :    0.010384
  85 H :    0.018937
  86 H :   -0.002747
  87 H :    0.006325
  88 H :    0.002835
  89 H :    0.013686
  90 H :    0.018156
  91 H :   -0.038966
  92 H :   -0.030657
  93 H :   -0.037665
  94 H :   -0.029412
  95 H :   -0.025510
  96 H :    0.043043
  97 H :    0.007831
  98 H :    0.019218
  99 H :    0.027993
Sum of atomic charges:   -0.0000000

LOEWDIN ATOMIC CHARGES
----------------------
   0 C :   -0.216953
   1 S :    0.459144
   2 C :   -0.211095
   3 S :    0.356181
   4 C :   -0.095100
   5 N :   -0.081659
   6 C :   -0.075924
   7 C :   -0.170306
   8 C :   -0.038512
   9 C :   -0.008324
  10 C :   -0.043809
  11 C :    0.003311
  12 C :   -0.008925
  13 N :   -0.001072
  14 C :   -0.048599
  15 C :   -0.028552
  16 N :   -0.007556
  17 C :   -0.033358
  18 N :   -0.014695
  19 C :   -0.038135
  20 N :   -0.023216
  21 C :   -0.022747
  22 C :   -0.044066
  23 C :   -0.036779
  24 N :   -0.274445
  25 S :    0.644297
  26 N :   -0.292878
  27 C :   -0.046802
  28 C :   -0.127862
  29 C :   -0.034235
  30 C :   -0.023954
  31 C :   -0.198154
  32 S :    0.432075
  33 C :   -0.158200
  34 C :   -0.042123
  35 C :   -0.014659
  36 C :   -0.154890
  37 S :    0.393033
  38 C :   -0.024443
  39 C :   -0.036310
  40 C :   -0.012835
  41 C :    0.000863
  42 C :   -0.005538
  43 C :   -0.017853
  44 C :   -0.017831
  45 C :   -0.023375
  46 C :    0.007895
  47 C :   -0.034203
  48 C :   -0.015683
  49 C :   -0.056468
  50 C :   -0.008853
  51 C :   -0.059232
  52 C :   -0.021937
  53 C :   -0.018786
  54 C :   -0.015512
  55 C :   -0.014326
  56 C :   -0.024248
  57 C :   -0.040055
  58 C :   -0.190103
  59 S :    0.450026
  60 C :   -0.205231
  61 S :    0.365653
  62 C :   -0.093695
  63 N :   -0.082993
  64 C :   -0.067252
  65 C :   -0.176652
  66 C :   -0.032023
  67 C :   -0.046391
  68 H :    0.024275
  69 H :    0.017047
  70 H :    0.031912
  71 H :    0.037317
  72 H :    0.040418
  73 H :    0.036451
  74 H :    0.032100
  75 H :    0.033766
  76 H :    0.035442
  77 H :    0.035738
  78 H :    0.024050
  79 H :    0.028246
  80 H :    0.011320
  81 H :    0.020754
  82 H :    0.019303
  83 H :    0.025929
  84 H :    0.024311
  85 H :    0.025020
  86 H :    0.020468
  87 H :    0.027264
  88 H :    0.019614
  89 H :    0.028439
  90 H :    0.023322
  91 H :    0.023878
  92 H :    0.025118
  93 H :    0.026600
  94 H :    0.016133
  95 H :    0.026008
  96 H :    0.020093
  97 H :    0.041649
  98 H :    0.017336
  99 H :    0.027614

  Mayer bond orders larger than 0.100000
B(  0-C ,  1-S ) :   1.1622 B(  0-C ,  2-C ) :   1.5422 B(  0-C ,  7-C ) :   0.1048
B(  0-C , 68-H ) :   0.9797 B(  1-S ,  7-C ) :   1.1525 B(  2-C ,  3-S ) :   1.0223
B(  2-C ,  6-C ) :   1.2300 B(  3-S ,  4-C ) :   1.0831 B(  3-S ,  5-N ) :   0.1061
B(  4-C ,  5-N ) :   1.7672 B(  4-C , 69-H ) :   0.9593 B(  5-N ,  6-C ) :   1.2622
B(  6-C ,  7-C ) :   1.4507 B(  7-C ,  8-C ) :   1.1251 B(  8-C ,  9-C ) :   1.7220
B(  8-C , 70-H ) :   0.9434 B(  9-C , 10-C ) :   1.1490 B(  9-C , 71-H ) :   0.9401
B( 10-C , 11-C ) :   1.2917 B( 10-C , 21-C ) :   0.1071 B( 10-C , 23-C ) :   1.1868
B( 11-C , 12-C ) :   1.1123 B( 11-C , 16-N ) :   1.4510 B( 12-C , 13-N ) :   1.4995
B( 12-C , 21-C ) :   1.1805 B( 13-N , 14-C ) :   1.6865 B( 14-C , 15-C ) :   1.2272
B( 14-C , 19-C ) :   1.1575 B( 15-C , 16-N ) :   1.7347 B( 15-C , 17-C ) :   1.1522
B( 17-C , 18-N ) :   3.0505 B( 19-C , 20-N ) :   3.0439 B( 21-C , 22-C ) :   1.1402
B( 21-C , 27-C ) :   1.3134 B( 22-C , 23-C ) :   1.1020 B( 22-C , 26-N ) :   1.4990
B( 23-C , 24-N ) :   1.5353 B( 24-N , 25-S ) :   1.2592 B( 24-N , 26-N ) :   0.1384
B( 25-S , 26-N ) :   1.2439 B( 27-C , 28-C ) :   1.4234 B( 27-C , 72-H ) :   0.9432
B( 28-C , 29-C ) :   1.1830 B( 28-C , 32-S ) :   1.0778 B( 29-C , 30-C ) :   1.5421
B( 29-C , 73-H ) :   1.0016 B( 30-C , 31-C ) :   1.2098 B( 30-C , 74-H ) :   0.9949
B( 31-C , 32-S ) :   1.0281 B( 31-C , 33-C ) :   1.4629 B( 33-C , 34-C ) :   1.1987
B( 33-C , 37-S ) :   1.0606 B( 34-C , 35-C ) :   1.5797 B( 34-C , 75-H ) :   0.9935
B( 35-C , 36-C ) :   1.1421 B( 35-C , 76-H ) :   0.9991 B( 36-C , 37-S ) :   1.0223
B( 36-C , 38-C ) :   1.5708 B( 38-C , 39-C ) :   1.1216 B( 38-C , 77-H ) :   0.9716
B( 39-C , 40-C ) :   1.2483 B( 39-C , 44-C ) :   1.3124 B( 40-C , 41-C ) :   1.4016
B( 40-C , 78-H ) :   1.0074 B( 41-C , 42-C ) :   1.3662 B( 41-C , 47-C ) :   0.9153
B( 42-C , 43-C ) :   1.3231 B( 42-C , 45-C ) :   1.0111 B( 43-C , 44-C ) :   1.4221
B( 43-C , 79-H ) :   0.9904 B( 44-C , 80-H ) :   0.9690 B( 45-C , 46-C ) :   1.3745
B( 45-C , 55-C ) :   1.3184 B( 46-C , 47-C ) :   0.9261 B( 46-C , 52-C ) :   1.3757
B( 47-C , 48-C ) :   1.0326 B( 47-C , 50-C ) :   1.0142 B( 48-C , 49-C ) :   1.1031
B( 48-C , 81-H ) :   0.9397 B( 48-C , 82-H ) :   0.9383 B( 49-C , 83-H ) :   0.9632
B( 49-C , 84-H ) :   0.9648 B( 49-C , 85-H ) :   0.9654 B( 50-C , 51-C ) :   1.1142
B( 50-C , 86-H ) :   0.9370 B( 50-C , 87-H ) :   0.9389 B( 51-C , 88-H ) :   0.9630
B( 51-C , 89-H ) :   0.9595 B( 51-C , 90-H ) :   0.9606 B( 52-C , 53-C ) :   1.2859
B( 52-C , 91-H ) :   1.0121 B( 53-C , 54-C ) :   1.3354 B( 53-C , 56-C ) :   1.0901
B( 54-C , 55-C ) :   1.4095 B( 54-C , 92-H ) :   0.9850 B( 55-C , 93-H ) :   0.9895
B( 56-C , 57-C ) :   1.6681 B( 56-C , 94-H ) :   0.9799 B( 57-C , 58-C ) :   1.1371
B( 57-C , 95-H ) :   0.9531 B( 58-C , 59-S ) :   1.1259 B( 58-C , 60-C ) :   1.5224
B( 58-C , 65-C ) :   0.1067 B( 59-S , 65-C ) :   1.1123 B( 60-C , 61-S ) :   1.0483
B( 60-C , 64-C ) :   1.2349 B( 61-S , 62-C ) :   1.0718 B( 61-S , 63-N ) :   0.1060
B( 62-C , 63-N ) :   1.8064 B( 62-C , 96-H ) :   0.9623 B( 63-N , 64-C ) :   1.2981
B( 64-C , 65-C ) :   1.4470 B( 65-C , 66-C ) :   1.1471 B( 66-C , 67-C ) :   1.8919
B( 66-C , 97-H ) :   0.9661 B( 67-C , 98-H ) :   0.9564 B( 67-C , 99-H ) :   0.9518

-----------------------------------------------------------------------------
         ABSORPTION SPECTRUM VIA TRANSITION ELECTRIC DIPOLE MOMENTS
-----------------------------------------------------------------------------
State   Energy  Wavelength   fosc         T2         TX        TY        TZ
        (cm-1)    (nm)                  (au**2)     (au)      (au)      (au)
-----------------------------------------------------------------------------
   0    6030.5   1658.2   0.297449022  16.23796  -3.59334   0.73052   1.67100
   1   14587.1    685.5   0.310940121   7.01753   1.19657  -2.30325  -0.52990
   2   16346.4    611.8   0.822562630  16.56622   2.00830  -3.28796  -1.31236
   3   18404.4    543.3   0.219959220   3.93456  -0.94816  -1.74174  -0.04353
   4   21266.9    470.2   0.077451624   1.19895  -0.28400  -1.05388  -0.08741
   5   22260.6    449.2   0.523523446   7.74240  -0.67774   2.68681   0.25317
   6   23290.2    429.4   0.329994298   4.66453   0.43448   2.11548   0.02262
   7   23741.9    421.2   0.059086527   0.81931   0.16013   0.84557   0.28049
   8   24743.0    404.2   0.018711962   0.24897  -0.02259   0.46832   0.17070
   9   24919.9    401.3   0.795650447  10.51118   1.20855   2.98759   0.35343
  10   25696.0    389.2   0.177117620   2.26919   0.12071  -1.46126  -0.34546
  11   26340.3    379.6   0.038788374   0.48479   0.17560   0.65415  -0.16140
  12   27233.8    367.2   0.092180079   1.11431  -0.09473  -0.80966  -0.67065
  13   27504.0    363.6   0.032441108   0.38831   0.08297   0.59111   0.17892
  14   27848.8    359.1   0.013920379   0.16456   0.37843   0.14607  -0.00383
  15   29131.4    343.3   0.244331747   2.76118  -0.72157   0.91698   1.18307
  16   29598.7    337.9   0.030407480   0.33821  -0.55617  -0.15767   0.06347
  17   29900.2    334.4   0.156388455   1.72189   0.10066   1.28298   0.25638
  18   30753.3    325.2   0.011509856   0.12321  -0.13195   0.26803   0.18429
  19   31598.2    316.5   0.007773163   0.08099   0.00805  -0.14501  -0.24473
  20   31724.0    315.2   0.097548494   1.01230   0.29622   0.91688   0.28962
  21   32146.8    311.1   0.013020810   0.13334   0.16362   0.19014  -0.26537
  22   32504.9    307.6   0.158718022   1.60751  -1.02578   0.62056   0.41255
  23   32959.0    303.4   0.200026848   1.99797  -1.17988   0.60581   0.48872
  24   33388.0    299.5   0.141748232   1.39766  -0.77977   0.83195   0.31222
  25   33523.0    298.3   0.050252283   0.49350  -0.42300   0.36614   0.42487
  26   33709.8    296.6   0.058506918   0.57138  -0.03531  -0.74923  -0.09378
  27   33830.3    295.6   0.070587227   0.68690   0.49097  -0.62859  -0.22522
  28   33966.1    294.4   0.058276047   0.56483  -0.09408   0.56357   0.48823
  29   34587.3    289.1   0.105657129   1.00568  -0.17484   0.93728   0.31081
  30   35437.5    282.2   0.017588238   0.16339  -0.18610   0.35227  -0.06830
  31   35544.4    281.3   0.002072564   0.01920  -0.13036  -0.00317   0.04682
  32   35717.2    280.0   0.022806739   0.21021   0.03969   0.44679  -0.09496
  33   36091.4    277.1   0.007786723   0.07103  -0.24868  -0.09527  -0.01060
  34   36252.3    275.8   0.027128349   0.24636   0.44017  -0.22489  -0.04507
  35   36556.3    273.6   0.023022450   0.20733   0.08616   0.44711  -0.00178
  36   36880.4    271.1   0.092357196   0.82442  -0.64488  -0.57977  -0.26911
  37   37405.9    267.3   0.013510503   0.11891   0.30717  -0.10482  -0.11648
  38   37550.5    266.3   0.036624899   0.32110   0.29360   0.34265   0.34276
  39   37702.6    265.2   0.003076777   0.02687  -0.00783  -0.08860   0.13768
  40   37995.3    263.2   0.051722472   0.44815  -0.37283  -0.51397   0.21210
  41   38258.6    261.4   0.016822346   0.14475  -0.22560   0.23614   0.19519
  42   38439.5    260.1   0.073919172   0.63308  -0.22452   0.72115   0.25020
  43   38839.6    257.5   0.037529052   0.31810   0.53394   0.07319   0.16630
  44   39043.2    256.1   0.017514471   0.14768  -0.12537   0.17521   0.31822
  45   39170.7    255.3   0.040099295   0.33702  -0.16036   0.39317   0.39588
  46   39223.6    254.9   0.002637709   0.02214  -0.08968  -0.04035   0.11166
  47   39490.6    253.2   0.109035405   0.90897  -0.63079   0.44791   0.55718
  48   39825.1    251.1   0.002197040   0.01816  -0.05117  -0.02973   0.12107
  49   40295.5    248.2   0.012698555   0.10375   0.12744   0.18551   0.23042

FINAL SINGLE POINT ENERGY     -5260.113007870002

DIPOLE MOMENT
-------------
                                X             Y             Z
Electronic contribution:    -80.94225      53.13100      35.34420
Nuclear contribution   :     85.71114     -55.65676     -37.99316
                        -----------------------------------------
Total Dipole Moment    :      4.76889      -2.52576      -2.64896
                        -----------------------------------------
Magnitude (a.u.)       :      6.01155
Magnitude (Debye)      :     15.28014

Rotational constants in cm-1:     0.001548     0.000302     0.000259
Rotational constants in MHz :    46.405926     9.067648     7.774063

                             ****ORCA TERMINATED NORMALLY****
TOTAL RUN TIME: 0 days 0 hours 10 minutes 21 seconds 116 msec
