                         Program Version 4.2.0 -  RELEASE  -
|  1> # ORCA input file
|  2> # SCF done       -149.232365246510          0.000585433142
|  3> ! CAM-B3LYP def2-SVP def2/J RIJCOSX Grid4 TightSCF
|  4> %maxcore 5000
|  5> %tddft
|  6>     Mode sTDDFT
|  7>     Ethresh 5.0
|  8>     maxcore 5000
|  9> end
| 10>
| 11> %pal
| 12>   nprocs 6
| 13>   end
| 14> * xyz 0 1
| 15>    C       -0.61871        -1.47434         4.62479
| 16>    C       -0.19072        -1.24648         3.38516
| 17>    C       -0.39453         0.09267         2.87693
| 18>    C       -0.99812         0.94997         3.72324
| 19>    S       -1.33811         0.04745         5.26246
| 20>    O       -2.75092        -0.09840         5.47190
| 21>    O       -0.55532         0.57259         6.34550
| 22>    C       -1.35898         2.30868         3.59813
| 23>    C       -1.17645         3.16062         2.53051
| 24>    C       -1.66575         4.45129         2.88430
| 25>    C       -2.20826         4.32877         4.25180
| 26>    C       -2.02194         3.04895         4.66509
| 27>    C       -2.89608         5.31700         4.97008
| 28>    N       -3.50225         6.08706         5.56760
| 29>    C       -1.61620         5.59855         2.12176
| 30>    C       -1.92466         6.92196         2.52930
| 31>    C       -1.74713         7.78472         1.45822
| 32>    C       -1.31910         6.98787         0.31719
| 33>    C       -1.21276         5.69047         0.70756
| 34>    C       -0.81558         4.63760        -0.12434
| 35>    N       -0.48308         3.79705        -0.83331
| 36>    C       -1.92831         9.18591         1.54059
| 37>    N       -2.01358        10.07694         0.50176
| 38>    C       -2.00353         9.80012        -0.90965
| 39>    C       -2.20608        11.39854         0.95389
| 40>    O       -2.32831        12.34645         0.20815
| 41>    C       -2.21487        11.28677         2.39620
| 42>    C       -2.05262         9.92934         2.72627
| 43>    C       -2.01081         9.82001         4.17424
| 44>    O       -1.84356         8.88441         4.92121
| 45>    N       -2.19259        11.14462         4.62048
| 46>    C       -2.23841        11.45645         6.02342
| 47>    C       -2.30810        12.03334         3.58338
| 48>    C       -2.47591        13.41971         3.76058
| 49>    C       -2.54077        14.29771         2.71464
| 50>    C       -2.68584        15.69477         2.84690
| 51>    C       -2.67768        16.60228         1.80140
| 52>    C       -2.82548        17.91839         2.31590
| 53>    C       -2.94708        17.76921         3.78076
| 54>    C       -2.85665        16.44901         4.08286
| 55>    C       -3.12416        18.78953         4.72246
| 56>    N       -3.27275        19.59579         5.52727
| 57>    C       -2.83263        19.10674         1.61871
| 58>    C       -2.96878        20.42096         2.15574
| 59>    C       -2.90102        21.33307         1.12584
| 60>    C       -2.71884        20.60167        -0.12070
| 61>    C       -2.67915        19.27346         0.15997
| 62>    C       -2.51344        18.25282        -0.78438
| 63>    N       -2.37673        17.43350        -1.57709
| 64>    C       -2.97752        22.74223         1.17796
| 65>    C       -3.15079        23.60245         2.19976
| 66>    C       -3.16831        25.00396         1.83915
| 67>    C       -3.01115        25.27871         0.54643
| 68>    S       -2.82361        23.72474        -0.34183
| 69>    O       -1.50478        23.60337        -0.89658
| 70>    O       -3.93725        23.49245        -1.21795
| 71>    H       -0.57568        -2.37623         5.19892
| 72>    H        0.28586        -1.98555         2.75948
| 73>    H       -0.07267         0.35160         1.88081
| 74>    H       -0.71063         2.91651         1.59666
| 75>    H       -2.30831         2.61413         5.60389
| 76>    H       -2.22043         7.20323         3.52074
| 77>    H       -1.08692         7.35491        -0.66307
| 78>    H       -2.71451         9.01140        -1.15712
| 79>    H       -1.00386         9.52548        -1.25184
| 80>    H       -2.29776        10.72341        -1.41101
| 81>    H       -2.11598        10.51474         6.55909
| 82>    H       -3.19890        11.89862         6.29406
| 83>    H       -1.42992        12.13509         6.30163
| 84>    H       -2.54023        13.78150         4.77664
| 85>    H       -2.46431        13.91920         1.70338
| 86>    H       -2.56745        16.35335         0.76419
| 87>    H       -2.91049        16.02940         5.07005
| 88>    H       -3.09958        20.64833         3.19470
| 89>    H       -2.63370        21.07146        -1.08225
| 90>    H       -3.27251        23.30404         3.22892
| 91>    H       -3.30366        25.74871         2.60852
| 92>    H       -2.99019        26.22918         0.05551
| 93> *
| 94>
| 95>                          ****END OF INPUT****

CARTESIAN COORDINATES (ANGSTROEM)
---------------------------------
  C     -0.618710   -1.474340    4.624790
  C     -0.190720   -1.246480    3.385160
  C     -0.394530    0.092670    2.876930
  C     -0.998120    0.949970    3.723240
  S     -1.338110    0.047450    5.262460
  O     -2.750920   -0.098400    5.471900
  O     -0.555320    0.572590    6.345500
  C     -1.358980    2.308680    3.598130
  C     -1.176450    3.160620    2.530510
  C     -1.665750    4.451290    2.884300
  C     -2.208260    4.328770    4.251800
  C     -2.021940    3.048950    4.665090
  C     -2.896080    5.317000    4.970080
  N     -3.502250    6.087060    5.567600
  C     -1.616200    5.598550    2.121760
  C     -1.924660    6.921960    2.529300
  C     -1.747130    7.784720    1.458220
  C     -1.319100    6.987870    0.317190
  C     -1.212760    5.690470    0.707560
  C     -0.815580    4.637600   -0.124340
  N     -0.483080    3.797050   -0.833310
  C     -1.928310    9.185910    1.540590
  N     -2.013580   10.076940    0.501760
  C     -2.003530    9.800120   -0.909650
  C     -2.206080   11.398540    0.953890
  O     -2.328310   12.346450    0.208150
  C     -2.214870   11.286770    2.396200
  C     -2.052620    9.929340    2.726270
  C     -2.010810    9.820010    4.174240
  O     -1.843560    8.884410    4.921210
  N     -2.192590   11.144620    4.620480
  C     -2.238410   11.456450    6.023420
  C     -2.308100   12.033340    3.583380
  C     -2.475910   13.419710    3.760580
  C     -2.540770   14.297710    2.714640
  C     -2.685840   15.694770    2.846900
  C     -2.677680   16.602280    1.801400
  C     -2.825480   17.918390    2.315900
  C     -2.947080   17.769210    3.780760
  C     -2.856650   16.449010    4.082860
  C     -3.124160   18.789530    4.722460
  N     -3.272750   19.595790    5.527270
  C     -2.832630   19.106740    1.618710
  C     -2.968780   20.420960    2.155740
  C     -2.901020   21.333070    1.125840
  C     -2.718840   20.601670   -0.120700
  C     -2.679150   19.273460    0.159970
  C     -2.513440   18.252820   -0.784380
  N     -2.376730   17.433500   -1.577090
  C     -2.977520   22.742230    1.177960
  C     -3.150790   23.602450    2.199760
  C     -3.168310   25.003960    1.839150
  C     -3.011150   25.278710    0.546430
  S     -2.823610   23.724740   -0.341830
  O     -1.504780   23.603370   -0.896580
  O     -3.937250   23.492450   -1.217950
  H     -0.575680   -2.376230    5.198920
  H      0.285860   -1.985550    2.759480
  H     -0.072670    0.351600    1.880810
  H     -0.710630    2.916510    1.596660
  H     -2.308310    2.614130    5.603890
  H     -2.220430    7.203230    3.520740
  H     -1.086920    7.354910   -0.663070
  H     -2.714510    9.011400   -1.157120
  H     -1.003860    9.525480   -1.251840
  H     -2.297760   10.723410   -1.411010
  H     -2.115980   10.514740    6.559090
  H     -3.198900   11.898620    6.294060
  H     -1.429920   12.135090    6.301630
  H     -2.540230   13.781500    4.776640
  H     -2.464310   13.919200    1.703380
  H     -2.567450   16.353350    0.764190
  H     -2.910490   16.029400    5.070050
  H     -3.099580   20.648330    3.194700
  H     -2.633700   21.071460   -1.082250
  H     -3.272510   23.304040    3.228920
  H     -3.303660   25.748710    2.608520
  H     -2.990190   26.229180    0.055510

 Total Charge           Charge          ....    0
 Multiplicity           Mult            ....    1
 Number of Electrons    NEL             ....  396
 Basis Dimension        Dim             ....  902

ORBITAL ENERGIES
----------------

  NO   OCC          E(Eh)            E(eV)
   0   2.0000     -89.152816     -2425.9715
   1   2.0000     -89.151583     -2425.9379
   2   2.0000     -19.208767      -522.6971
   3   2.0000     -19.208556      -522.6914
   4   2.0000     -19.207437      -522.6609
   5   2.0000     -19.207121      -522.6523
   6   2.0000     -19.205890      -522.6188
   7   2.0000     -19.205490      -522.6079
   8   2.0000     -14.471588      -393.7919
   9   2.0000     -14.469384      -393.7320
  10   2.0000     -14.420559      -392.4033
  11   2.0000     -14.417293      -392.3145
  12   2.0000     -14.409201      -392.0943
  13   2.0000     -14.402248      -391.9051
  14   2.0000     -10.388237      -282.6783
  15   2.0000     -10.388206      -282.6775
  16   2.0000     -10.356285      -281.8088
  17   2.0000     -10.355620      -281.7908
  18   2.0000     -10.334376      -281.2127
  19   2.0000     -10.333458      -281.1877
  20   2.0000     -10.331671      -281.1391
  21   2.0000     -10.328652      -281.0569
  22   2.0000     -10.328310      -281.0476
  23   2.0000     -10.325630      -280.9747
  24   2.0000     -10.324304      -280.9386
  25   2.0000     -10.324230      -280.9366
  26   2.0000     -10.322643      -280.8934
  27   2.0000     -10.322136      -280.8796
  28   2.0000     -10.321551      -280.8637
  29   2.0000     -10.321322      -280.8574
  30   2.0000     -10.320876      -280.8453
  31   2.0000     -10.320420      -280.8329
  32   2.0000     -10.320174      -280.8262
  33   2.0000     -10.320080      -280.8236
  34   2.0000     -10.319461      -280.8068
  35   2.0000     -10.318751      -280.7875
  36   2.0000     -10.317812      -280.7619
  37   2.0000     -10.317319      -280.7485
  38   2.0000     -10.316987      -280.7395
  39   2.0000     -10.316815      -280.7348
  40   2.0000     -10.316324      -280.7215
  41   2.0000     -10.315958      -280.7115
  42   2.0000     -10.315901      -280.7099
  43   2.0000     -10.312680      -280.6223
  44   2.0000     -10.312462      -280.6164
  45   2.0000     -10.310992      -280.5764
  46   2.0000     -10.310793      -280.5710
  47   2.0000     -10.309401      -280.5331
  48   2.0000     -10.309310      -280.5306
  49   2.0000     -10.303162      -280.3633
  50   2.0000     -10.298801      -280.2446
  51   2.0000     -10.296877      -280.1923
  52   2.0000     -10.296109      -280.1714
  53   2.0000     -10.291797      -280.0540
  54   2.0000     -10.281634      -279.7775
  55   2.0000     -10.279575      -279.7215
  56   2.0000      -8.218616      -223.6399
  57   2.0000      -8.217335      -223.6051
  58   2.0000      -6.187459      -168.3693
  59   2.0000      -6.187324      -168.3656
  60   2.0000      -6.186758      -168.3503
  61   2.0000      -6.186172      -168.3343
  62   2.0000      -6.186053      -168.3311
  63   2.0000      -6.185482      -168.3155
  64   2.0000      -1.213659       -33.0253
  65   2.0000      -1.212371       -32.9903
  66   2.0000      -1.149566       -31.2813
  67   2.0000      -1.143040       -31.1037
  68   2.0000      -1.091580       -29.7034
  69   2.0000      -1.090318       -29.6690
  70   2.0000      -1.079621       -29.3780
  71   2.0000      -1.070926       -29.1414
  72   2.0000      -1.025915       -27.9166
  73   2.0000      -1.022364       -27.8199
  74   2.0000      -1.009506       -27.4700
  75   2.0000      -1.006066       -27.3764
  76   2.0000      -0.995277       -27.0829
  77   2.0000      -0.991526       -26.9808
  78   2.0000      -0.991041       -26.9676
  79   2.0000      -0.985851       -26.8264
  80   2.0000      -0.979066       -26.6417
  81   2.0000      -0.975556       -26.5462
  82   2.0000      -0.937741       -25.5172
  83   2.0000      -0.926288       -25.2056
  84   2.0000      -0.899903       -24.4876
  85   2.0000      -0.896619       -24.3982
  86   2.0000      -0.883750       -24.0480
  87   2.0000      -0.870980       -23.7006
  88   2.0000      -0.862800       -23.4780
  89   2.0000      -0.860477       -23.4148
  90   2.0000      -0.853557       -23.2265
  91   2.0000      -0.839543       -22.8451
  92   2.0000      -0.838146       -22.8071
  93   2.0000      -0.818721       -22.2785
  94   2.0000      -0.813372       -22.1330
  95   2.0000      -0.803821       -21.8731
  96   2.0000      -0.798447       -21.7268
  97   2.0000      -0.779913       -21.2225
  98   2.0000      -0.777338       -21.1525
  99   2.0000      -0.769964       -20.9518
 100   2.0000      -0.737125       -20.0582
 101   2.0000      -0.727386       -19.7932
 102   2.0000      -0.725245       -19.7349
 103   2.0000      -0.720959       -19.6183
 104   2.0000      -0.717750       -19.5310
 105   2.0000      -0.701650       -19.0929
 106   2.0000      -0.694738       -18.9048
 107   2.0000      -0.683541       -18.6001
 108   2.0000      -0.681570       -18.5465
 109   2.0000      -0.677043       -18.4233
 110   2.0000      -0.674561       -18.3557
 111   2.0000      -0.672382       -18.2965
 112   2.0000      -0.651121       -17.7179
 113   2.0000      -0.646981       -17.6052
 114   2.0000      -0.641192       -17.4477
 115   2.0000      -0.634341       -17.2613
 116   2.0000      -0.632082       -17.1998
 117   2.0000      -0.622530       -16.9399
 118   2.0000      -0.609716       -16.5912
 119   2.0000      -0.601626       -16.3711
 120   2.0000      -0.598802       -16.2942
 121   2.0000      -0.587325       -15.9819
 122   2.0000      -0.580221       -15.7886
 123   2.0000      -0.576194       -15.6790
 124   2.0000      -0.571002       -15.5377
 125   2.0000      -0.568377       -15.4663
 126   2.0000      -0.566664       -15.4197
 127   2.0000      -0.557590       -15.1728
 128   2.0000      -0.555516       -15.1164
 129   2.0000      -0.554079       -15.0772
 130   2.0000      -0.552414       -15.0319
 131   2.0000      -0.551723       -15.0131
 132   2.0000      -0.541073       -14.7234
 133   2.0000      -0.538555       -14.6548
 134   2.0000      -0.536938       -14.6108
 135   2.0000      -0.536795       -14.6069
 136   2.0000      -0.531401       -14.4601
 137   2.0000      -0.530607       -14.4386
 138   2.0000      -0.529522       -14.4090
 139   2.0000      -0.528808       -14.3896
 140   2.0000      -0.527164       -14.3449
 141   2.0000      -0.525425       -14.2975
 142   2.0000      -0.523661       -14.2495
 143   2.0000      -0.514374       -13.9968
 144   2.0000      -0.512112       -13.9353
 145   2.0000      -0.509129       -13.8541
 146   2.0000      -0.508184       -13.8284
 147   2.0000      -0.506527       -13.7833
 148   2.0000      -0.504992       -13.7415
 149   2.0000      -0.499581       -13.5943
 150   2.0000      -0.496157       -13.5011
 151   2.0000      -0.495146       -13.4736
 152   2.0000      -0.493449       -13.4274
 153   2.0000      -0.490115       -13.3367
 154   2.0000      -0.486011       -13.2250
 155   2.0000      -0.485583       -13.2134
 156   2.0000      -0.482166       -13.1204
 157   2.0000      -0.478738       -13.0271
 158   2.0000      -0.478107       -13.0100
 159   2.0000      -0.467222       -12.7138
 160   2.0000      -0.466804       -12.7024
 161   2.0000      -0.464099       -12.6288
 162   2.0000      -0.462606       -12.5881
 163   2.0000      -0.458720       -12.4824
 164   2.0000      -0.449524       -12.2322
 165   2.0000      -0.448773       -12.2117
 166   2.0000      -0.446597       -12.1525
 167   2.0000      -0.438537       -11.9332
 168   2.0000      -0.438026       -11.9193
 169   2.0000      -0.435898       -11.8614
 170   2.0000      -0.432474       -11.7682
 171   2.0000      -0.430502       -11.7145
 172   2.0000      -0.423795       -11.5321
 173   2.0000      -0.422779       -11.5044
 174   2.0000      -0.419300       -11.4097
 175   2.0000      -0.416663       -11.3380
 176   2.0000      -0.410639       -11.1741
 177   2.0000      -0.409181       -11.1344
 178   2.0000      -0.408214       -11.1081
 179   2.0000      -0.403168       -10.9708
 180   2.0000      -0.398153       -10.8343
 181   2.0000      -0.387031       -10.5317
 182   2.0000      -0.377113       -10.2618
 183   2.0000      -0.376217       -10.2374
 184   2.0000      -0.370958       -10.0943
 185   2.0000      -0.369521       -10.0552
 186   2.0000      -0.364678        -9.9234
 187   2.0000      -0.362919        -9.8755
 188   2.0000      -0.358689        -9.7604
 189   2.0000      -0.347356        -9.4520
 190   2.0000      -0.333741        -9.0815
 191   2.0000      -0.333590        -9.0774
 192   2.0000      -0.332293        -9.0421
 193   2.0000      -0.320387        -8.7182
 194   2.0000      -0.313358        -8.5269
 195   2.0000      -0.295955        -8.0534
 196   2.0000      -0.293073        -7.9749
 197   2.0000      -0.245044        -6.6680
 198   0.0000      -0.147127        -4.0035
 199   0.0000      -0.130266        -3.5447
 200   0.0000      -0.072880        -1.9832
 201   0.0000      -0.056504        -1.5375
 202   0.0000      -0.054533        -1.4839

MULLIKEN ATOMIC CHARGES
-----------------------
   0 C :   -0.004624
   1 C :    0.047394
   2 C :    0.016150
   3 C :   -0.052317
   4 S :    0.741293
   5 O :   -0.446583
   6 O :   -0.447520
   7 C :    0.139764
   8 C :   -0.121139
   9 C :    0.100789
  10 C :   -0.083913
  11 C :    0.004283
  12 C :   -0.180858
  13 N :    0.155028
  14 C :    0.124484
  15 C :   -0.114624
  16 C :    0.045818
  17 C :   -0.031548
  18 C :   -0.095441
  19 C :   -0.174913
  20 N :    0.136596
  21 C :    0.154583
  22 N :   -0.266907
  23 C :    0.114813
  24 C :    0.162133
  25 O :   -0.190291
  26 C :   -0.072574
  27 C :   -0.065116
  28 C :    0.158328
  29 O :   -0.167446
  30 N :   -0.268322
  31 C :    0.113869
  32 C :    0.161034
  33 C :   -0.032534
  34 C :    0.018095
  35 C :    0.103104
  36 C :   -0.092917
  37 C :    0.120956
  38 C :   -0.100120
  39 C :   -0.001571
  40 C :   -0.168884
  41 N :    0.132284
  42 C :    0.110440
  43 C :   -0.122343
  44 C :    0.137179
  45 C :    0.009557
  46 C :   -0.097037
  47 C :   -0.179098
  48 N :    0.147438
  49 C :   -0.052891
  50 C :    0.017307
  51 C :    0.044678
  52 C :   -0.004222
  53 S :    0.742622
  54 O :   -0.447828
  55 O :   -0.447054
  56 H :    0.055695
  57 H :    0.022047
  58 H :    0.017450
  59 H :   -0.000337
  60 H :    0.022643
  61 H :    0.031784
  62 H :   -0.013031
  63 H :    0.040596
  64 H :    0.044043
  65 H :    0.067601
  66 H :    0.072485
  67 H :    0.038797
  68 H :    0.037106
  69 H :   -0.030579
  70 H :    0.021763
  71 H :    0.021009
  72 H :    0.000453
  73 H :   -0.000455
  74 H :    0.023863
  75 H :    0.018494
  76 H :    0.023430
  77 H :    0.055757
Sum of atomic charges:    0.0000000

LOEWDIN ATOMIC CHARGES
----------------------
   0 C :   -0.138564
   1 C :   -0.014009
   2 C :   -0.004366
   3 C :   -0.144247
   4 S :    1.164712
   5 O :   -0.487815
   6 O :   -0.488250
   7 C :   -0.024526
   8 C :   -0.013695
   9 C :    0.049265
  10 C :   -0.077808
  11 C :    0.056497
  12 C :   -0.034362
  13 N :   -0.045680
  14 C :    0.032360
  15 C :    0.015006
  16 C :   -0.036278
  17 C :    0.046685
  18 C :   -0.079126
  19 C :   -0.030191
  20 N :   -0.064265
  21 C :    0.071500
  22 N :   -0.004477
  23 C :    0.029336
  24 C :    0.080150
  25 O :   -0.184631
  26 C :   -0.113190
  27 C :   -0.098607
  28 C :    0.083155
  29 O :   -0.163065
  30 N :   -0.004648
  31 C :    0.029428
  32 C :    0.080140
  33 C :   -0.040080
  34 C :    0.042165
  35 C :   -0.020473
  36 C :   -0.000615
  37 C :    0.037581
  38 C :   -0.076594
  39 C :    0.054787
  40 C :   -0.029374
  41 N :   -0.062635
  42 C :    0.041896
  43 C :   -0.010992
  44 C :   -0.027221
  45 C :    0.058407
  46 C :   -0.081864
  47 C :   -0.030775
  48 N :   -0.054277
  49 C :   -0.144173
  50 C :   -0.005152
  51 C :   -0.013629
  52 C :   -0.138914
  53 S :    1.164960
  54 O :   -0.488449
  55 O :   -0.488132
  56 H :    0.040527
  57 H :    0.042691
  58 H :    0.042596
  59 H :    0.033847
  60 H :    0.037271
  61 H :    0.039125
  62 H :    0.035382
  63 H :    0.029552
  64 H :    0.026717
  65 H :    0.045385
  66 H :    0.047390
  67 H :    0.028576
  68 H :    0.027487
  69 H :    0.029500
  70 H :    0.044664
  71 H :    0.042558
  72 H :    0.035641
  73 H :    0.034078
  74 H :    0.037686
  75 H :    0.042756
  76 H :    0.043017
  77 H :    0.040669

  Mayer bond orders larger than 0.100000
B(  0-C ,  1-C ) :   1.7674 B(  0-C ,  4-S ) :   0.8204 B(  0-C , 56-H ) :   0.9760
B(  1-C ,  2-C ) :   1.0763 B(  1-C , 57-H ) :   0.9893 B(  2-C ,  3-C ) :   1.6936
B(  2-C , 58-H ) :   0.9913 B(  3-C ,  4-S ) :   0.7945 B(  3-C ,  7-C ) :   1.1433
B(  4-S ,  5-O ) :   1.7025 B(  4-S ,  6-O ) :   1.7044 B(  7-C ,  8-C ) :   1.5547
B(  7-C , 11-C ) :   1.0479 B(  8-C ,  9-C ) :   1.1275 B(  8-C , 59-H ) :   0.9992
B(  9-C , 10-C ) :   1.1110 B(  9-C , 14-C ) :   1.3835 B( 10-C , 11-C ) :   1.6695
B( 10-C , 12-C ) :   1.0881 B( 11-C , 60-H ) :   0.9997 B( 12-C , 13-N ) :   2.9911
B( 14-C , 15-C ) :   1.1270 B( 14-C , 18-C ) :   1.0996 B( 15-C , 16-C ) :   1.5226
B( 15-C , 61-H ) :   0.9871 B( 16-C , 17-C ) :   1.0282 B( 16-C , 21-C ) :   1.0693
B( 17-C , 18-C ) :   1.6629 B( 17-C , 62-H ) :   1.0259 B( 18-C , 19-C ) :   1.0839
B( 19-C , 20-N ) :   2.9692 B( 21-C , 22-N ) :   1.2057 B( 21-C , 27-C ) :   1.3474
B( 22-N , 23-C ) :   0.9588 B( 22-N , 24-C ) :   1.0440 B( 23-C , 63-H ) :   0.9707
B( 23-C , 64-H ) :   0.9697 B( 23-C , 65-H ) :   0.9451 B( 24-C , 25-O ) :   2.0479
B( 24-C , 26-C ) :   0.9931 B( 25-O , 70-H ) :   0.1071 B( 26-C , 27-C ) :   1.2824
B( 26-C , 32-C ) :   1.2901 B( 27-C , 28-C ) :   0.9713 B( 28-C , 29-O ) :   2.0997
B( 28-C , 30-N ) :   1.0388 B( 30-N , 31-C ) :   0.9608 B( 30-N , 32-C ) :   1.1796
B( 31-C , 66-H ) :   0.9503 B( 31-C , 67-H ) :   0.9724 B( 31-C , 68-H ) :   0.9723
B( 32-C , 33-C ) :   1.1819 B( 33-C , 34-C ) :   1.5282 B( 33-C , 69-H ) :   0.9642
B( 34-C , 35-C ) :   1.1407 B( 34-C , 70-H ) :   0.9592 B( 35-C , 36-C ) :   1.4905
B( 35-C , 39-C ) :   1.0305 B( 36-C , 37-C ) :   1.1191 B( 36-C , 71-H ) :   1.0117
B( 37-C , 38-C ) :   1.0983 B( 37-C , 42-C ) :   1.4002 B( 38-C , 39-C ) :   1.6946
B( 38-C , 40-C ) :   1.0893 B( 39-C , 72-H ) :   1.0151 B( 40-C , 41-N ) :   2.9654
B( 42-C , 43-C ) :   1.1215 B( 42-C , 46-C ) :   1.1121 B( 43-C , 44-C ) :   1.5582
B( 43-C , 73-H ) :   0.9983 B( 44-C , 45-C ) :   1.0506 B( 44-C , 49-C ) :   1.1416
B( 45-C , 46-C ) :   1.6692 B( 45-C , 74-H ) :   0.9992 B( 46-C , 47-C ) :   1.0923
B( 47-C , 48-N ) :   2.9710 B( 49-C , 50-C ) :   1.6953 B( 49-C , 53-S ) :   0.7957
B( 50-C , 51-C ) :   1.0749 B( 50-C , 75-H ) :   0.9917 B( 51-C , 52-C ) :   1.7682
B( 51-C , 76-H ) :   0.9895 B( 52-C , 53-S ) :   0.8199 B( 52-C , 77-H ) :   0.9760
B( 53-S , 54-O ) :   1.7036 B( 53-S , 55-O ) :   1.7013

-----------------------------------------------------------------------------
         ABSORPTION SPECTRUM VIA TRANSITION ELECTRIC DIPOLE MOMENTS
-----------------------------------------------------------------------------
State   Energy  Wavelength   fosc         T2         TX        TY        TZ
        (cm-1)    (nm)                  (au**2)     (au)      (au)      (au)
-----------------------------------------------------------------------------
   0    7511.2   1331.3   0.684484709  30.00048  -0.37942   5.45012  -0.39080
   1   11257.1    888.3   0.073873824   2.16043  -0.12511   1.45565  -0.16078
   2   15208.4    657.5   0.020827948   0.45086  -0.00322   0.50522  -0.44227
   3   15740.8    635.3   0.092790569   1.94067  -0.00318   1.15560  -0.77798
   4   18913.1    528.7   0.034096311   0.59350  -0.03964  -0.04072   0.76829
   5   19618.4    509.7   0.062023003   1.04080  -0.13498   0.87629   0.50468
   6   21799.9    458.7   0.262065394   3.95760  -0.19410   1.80244   0.81922
   7   23369.5    427.9   0.000178681   0.00252   0.00452  -0.04965  -0.00561
   8   24402.7    409.8   0.608929733   8.21495   0.17146  -2.66347   1.04475
   9   24802.6    403.2   0.001266982   0.01682  -0.04799  -0.11741  -0.02698
  10   25197.7    396.9   0.381569739   4.98527   0.19593  -1.93880   1.08992
  11   25798.7    387.6   0.263733480   3.36545   0.01793   1.53478  -1.00477
  12   26154.5    382.3   0.006526074   0.08214  -0.02132   0.13781  -0.25040
  13   27781.9    359.9   0.002971979   0.03522   0.04604  -0.15610  -0.09344
  14   28085.2    356.1   0.065787974   0.77116   0.10191  -0.85502   0.17240
  15   28617.4    349.4   0.076435632   0.87931  -0.12843   0.88065  -0.29541
  16   28713.5    348.3   0.121638935   1.39464   0.15593  -1.16806   0.07718
  17   29251.7    341.9   0.077413274   0.87125   0.21595  -0.89214   0.16940
  18   29898.2    334.5   0.117369259   1.29237   0.04289  -1.10335   0.27044
  19   30679.0    326.0   0.039592998   0.42487   0.04263  -0.58368  -0.28700
  20   30775.5    324.9   0.000431793   0.00462  -0.01492   0.06453  -0.01524
  21   31293.2    319.6   0.000006535   0.00007   0.00146  -0.00806   0.00128
  22   32055.5    312.0   0.082619666   0.84851  -0.12476  -0.69748   0.58861
  23   32250.0    310.1   0.004443698   0.04536  -0.03279  -0.10095   0.18465
  24   33362.4    299.7   0.013778869   0.13597   0.09653  -0.34921  -0.06854
  25   33497.5    298.5   0.014253495   0.14008  -0.06429  -0.13222   0.34419
  26   33636.5    297.3   0.021506056   0.21049  -0.01618   0.03419   0.45723
  27   33706.8    296.7   0.002436653   0.02380   0.05086  -0.10522   0.10070
  28   33813.1    295.7   0.223940308   2.18034  -0.05185  -1.10689   0.97593
  29   34087.5    293.4   0.130235707   1.25780   0.29105  -1.06542   0.19488
  30   34210.7    292.3   0.035620661   0.34278  -0.06453   0.23381   0.53287
  31   34395.2    290.7   0.248494878   2.37846  -0.09323   1.49192  -0.37938
  32   34473.4    290.1   0.000707494   0.00676  -0.03192  -0.06802   0.03332
  33   34909.0    286.5   0.002934188   0.02767  -0.03815   0.10302  -0.12491
  34   35756.4    279.7   0.012957169   0.11930   0.06178  -0.33981  -0.00335
  35   36224.9    276.1   0.055947677   0.50845  -0.22108   0.66612   0.12593
  36   36789.4    271.8   0.050209734   0.44930   0.08760   0.23839  -0.62032
  37   36831.9    271.5   0.085822720   0.76710   0.00681  -0.80436   0.34650
  38   37232.0    268.6   0.011192383   0.09897  -0.07774   0.29367  -0.08173
  39   37703.5    265.2   0.026655850   0.23275   0.10378  -0.45678   0.11544
  40   38513.9    259.6   0.047459642   0.40568  -0.00334  -0.58835   0.24396
  41   38560.6    259.3   0.008667488   0.07400   0.05312  -0.23784  -0.12087
  42   39253.0    254.8   0.014613851   0.12257   0.02133  -0.34942   0.00437
  43   39973.4    250.2   0.004363085   0.03593  -0.04212   0.17524  -0.05875

FINAL SINGLE POINT ENERGY     -3186.322342153206

DIPOLE MOMENT
-------------
                                X             Y             Z
Electronic contribution:     -1.28480      -0.70278      -1.79070
Nuclear contribution   :      2.08065       1.06881       2.39143
                        -----------------------------------------
Total Dipole Moment    :      0.79585       0.36603       0.60073
                        -----------------------------------------
Magnitude (a.u.)       :      1.06219
Magnitude (Debye)      :      2.69986

Rotational constants in cm-1:     0.005597     0.000322     0.000307
Rotational constants in MHz :   167.799325     9.656419     9.193134

                             ****ORCA TERMINATED NORMALLY****
TOTAL RUN TIME: 0 days 0 hours 7 minutes 16 seconds 129 msec
