                         Program Version 4.2.0 -  RELEASE  -
|  1> # ORCA input file
|  2> # SCF done       -179.229123681090          0.000806415808
|  3> ! CAM-B3LYP def2-SVP def2/J RIJCOSX Grid4 TightSCF
|  4> %maxcore 5000
|  5> %tddft
|  6>     Mode sTDDFT
|  7>     Ethresh 5.0
|  8>     maxcore 5000
|  9> end
| 10>
| 11> %pal
| 12>   nprocs 6
| 13>   end
| 14> * xyz 0 1
| 15>    C        1.61247         1.36869        -3.73372
| 16>    C        1.03380         0.38821        -2.96831
| 17>    C        0.17810         0.64818        -1.78560
| 18>    O       -0.47391         1.64637        -1.67976
| 19>    O        0.21596        -0.27642        -0.81477
| 20>    C        1.52835        -0.81843        -3.57152
| 21>    N        2.32496        -0.51188        -4.57355
| 22>    O        2.37635         0.82564        -4.67112
| 23>    C        1.25551        -2.20306        -3.28115
| 24>    C        0.17582        -2.76065        -2.65512
| 25>    C        0.32819        -4.19124        -2.66860
| 26>    C        1.61832        -4.46088        -3.32613
| 27>    C        2.15508        -3.27027        -3.69888
| 28>    C        2.24620        -5.70565        -3.47338
| 29>    N        2.81526        -6.69827        -3.56558
| 30>    C       -0.55109        -5.12774        -2.18670
| 31>    C       -0.42711        -6.54520        -2.27411
| 32>    C       -1.46580        -7.13777        -1.58227
| 33>    C       -2.30901        -6.07320        -1.05188
| 34>    C       -1.79117        -4.87647        -1.43073
| 35>    C       -2.36083        -3.63138        -1.13292
| 36>    N       -2.85949        -2.63080        -0.87365
| 37>    C       -1.60988        -8.54439        -1.46589
| 38>    N       -2.32896        -9.24635        -0.53912
| 39>    C       -3.05800        -8.74582         0.60435
| 40>    C       -2.13783        -8.10242         1.63589
| 41>    C       -2.18381       -10.64343        -0.71277
| 42>    O       -2.74083       -11.46337        -0.01990
| 43>    C       -1.30960       -10.77362        -1.86068
| 44>    C       -0.98819        -9.48368        -2.30806
| 45>    C       -0.22640        -9.61235        -3.54139
| 46>    O        0.22528        -8.79525        -4.30753
| 47>    N       -0.12771       -11.00605        -3.73779
| 48>    C        0.64314       -11.54776        -4.83214
| 49>    C        2.03818       -11.97230        -4.38265
| 50>    C       -0.73856       -11.71377        -2.73781
| 51>    C       -0.77449       -13.11813        -2.64888
| 52>    C       -1.18148       -13.75688        -1.50915
| 53>    C       -1.25609       -15.15171        -1.33321
| 54>    C       -1.02892       -15.83493        -0.14253
| 55>    N       -0.69643       -15.28091         1.11174
| 56>    O       -0.70512       -16.03253         2.06792
| 57>    O       -0.41351       -14.09617         1.16565
| 58>    C       -1.07727       -17.24752        -0.38120
| 59>    C       -1.30941       -17.46092        -1.70444
| 60>    C       -1.49738       -16.19635        -2.35451
| 61>    C       -2.00768       -16.00814        -3.61861
| 62>    C       -2.72356       -14.85308        -4.12211
| 63>    C       -3.17602       -15.11902        -5.36736
| 64>    C       -2.73119       -16.44653        -5.73137
| 65>    N       -2.87018       -17.01701        -7.00697
| 66>    O       -3.56818       -16.44680        -7.81879
| 67>    O       -2.24719       -18.05001        -7.23354
| 68>    C       -2.05071       -17.01625        -4.67755
| 69>    C       -1.45850       -18.32816        -4.73754
| 70>    C       -0.15633       -18.58972        -4.55024
| 71>    C        0.45379       -19.86485        -4.78857
| 72>    C        0.02173       -21.07919        -5.30480
| 73>    C       -1.29355       -21.60375        -5.75682
| 74>    O       -1.68780       -22.66940        -5.37036
| 75>    O       -2.01221       -20.87731        -6.61557
| 76>    C        1.18542       -21.88990        -5.22877
| 77>    N        2.19240       -21.22172        -4.74866
| 78>    O        1.75767       -19.97982        -4.46912
| 79>    H        1.55260         2.43723        -3.67710
| 80>    H        0.78435        -1.03059        -1.02380
| 81>    H       -0.69145        -2.25512        -2.27519
| 82>    H        3.08443        -3.10052        -4.20725
| 83>    H        0.35562        -7.05795        -2.79625
| 84>    H       -3.21672        -6.20111        -0.49484
| 85>    H       -3.54536        -9.62181         1.04278
| 86>    H       -3.83586        -8.05254         0.27570
| 87>    H       -1.39748        -8.82279         1.97517
| 88>    H       -2.72261        -7.77855         2.49200
| 89>    H       -1.61967        -7.23952         1.22278
| 90>    H        0.72410       -10.74603        -5.57102
| 91>    H        0.10049       -12.38616        -5.27768
| 92>    H        2.57852       -11.11381        -3.99206
| 93>    H        2.58982       -12.37179        -5.22864
| 94>    H        1.98483       -12.73303        -3.60661
| 95>    H       -0.41098       -13.69302        -3.48946
| 96>    H       -1.37847       -13.16214        -0.62395
| 97>    H       -0.93933       -17.98422         0.38766
| 98>    H       -1.44438       -18.41296        -2.17759
| 99>    H       -2.93450       -13.97689        -3.54215
|100>    H       -3.76243       -14.49224        -6.01101
|101>    H       -2.13176       -19.11195        -5.05858
|102>    H        0.53061       -17.81214        -4.24485
|103>    H       -1.63971       -20.03086        -6.91300
|104>    H        1.28654       -22.91427        -5.52280
|105> *
|106>
|107>                          ****END OF INPUT****

CARTESIAN COORDINATES (ANGSTROEM)
---------------------------------
  C      1.612470    1.368690   -3.733720
  C      1.033800    0.388210   -2.968310
  C      0.178100    0.648180   -1.785600
  O     -0.473910    1.646370   -1.679760
  O      0.215960   -0.276420   -0.814770
  C      1.528350   -0.818430   -3.571520
  N      2.324960   -0.511880   -4.573550
  O      2.376350    0.825640   -4.671120
  C      1.255510   -2.203060   -3.281150
  C      0.175820   -2.760650   -2.655120
  C      0.328190   -4.191240   -2.668600
  C      1.618320   -4.460880   -3.326130
  C      2.155080   -3.270270   -3.698880
  C      2.246200   -5.705650   -3.473380
  N      2.815260   -6.698270   -3.565580
  C     -0.551090   -5.127740   -2.186700
  C     -0.427110   -6.545200   -2.274110
  C     -1.465800   -7.137770   -1.582270
  C     -2.309010   -6.073200   -1.051880
  C     -1.791170   -4.876470   -1.430730
  C     -2.360830   -3.631380   -1.132920
  N     -2.859490   -2.630800   -0.873650
  C     -1.609880   -8.544390   -1.465890
  N     -2.328960   -9.246350   -0.539120
  C     -3.058000   -8.745820    0.604350
  C     -2.137830   -8.102420    1.635890
  C     -2.183810  -10.643430   -0.712770
  O     -2.740830  -11.463370   -0.019900
  C     -1.309600  -10.773620   -1.860680
  C     -0.988190   -9.483680   -2.308060
  C     -0.226400   -9.612350   -3.541390
  O      0.225280   -8.795250   -4.307530
  N     -0.127710  -11.006050   -3.737790
  C      0.643140  -11.547760   -4.832140
  C      2.038180  -11.972300   -4.382650
  C     -0.738560  -11.713770   -2.737810
  C     -0.774490  -13.118130   -2.648880
  C     -1.181480  -13.756880   -1.509150
  C     -1.256090  -15.151710   -1.333210
  C     -1.028920  -15.834930   -0.142530
  N     -0.696430  -15.280910    1.111740
  O     -0.705120  -16.032530    2.067920
  O     -0.413510  -14.096170    1.165650
  C     -1.077270  -17.247520   -0.381200
  C     -1.309410  -17.460920   -1.704440
  C     -1.497380  -16.196350   -2.354510
  C     -2.007680  -16.008140   -3.618610
  C     -2.723560  -14.853080   -4.122110
  C     -3.176020  -15.119020   -5.367360
  C     -2.731190  -16.446530   -5.731370
  N     -2.870180  -17.017010   -7.006970
  O     -3.568180  -16.446800   -7.818790
  O     -2.247190  -18.050010   -7.233540
  C     -2.050710  -17.016250   -4.677550
  C     -1.458500  -18.328160   -4.737540
  C     -0.156330  -18.589720   -4.550240
  C      0.453790  -19.864850   -4.788570
  C      0.021730  -21.079190   -5.304800
  C     -1.293550  -21.603750   -5.756820
  O     -1.687800  -22.669400   -5.370360
  O     -2.012210  -20.877310   -6.615570
  C      1.185420  -21.889900   -5.228770
  N      2.192400  -21.221720   -4.748660
  O      1.757670  -19.979820   -4.469120
  H      1.552600    2.437230   -3.677100
  H      0.784350   -1.030590   -1.023800
  H     -0.691450   -2.255120   -2.275190
  H      3.084430   -3.100520   -4.207250
  H      0.355620   -7.057950   -2.796250
  H     -3.216720   -6.201110   -0.494840
  H     -3.545360   -9.621810    1.042780
  H     -3.835860   -8.052540    0.275700
  H     -1.397480   -8.822790    1.975170
  H     -2.722610   -7.778550    2.492000
  H     -1.619670   -7.239520    1.222780
  H      0.724100  -10.746030   -5.571020
  H      0.100490  -12.386160   -5.277680
  H      2.578520  -11.113810   -3.992060
  H      2.589820  -12.371790   -5.228640
  H      1.984830  -12.733030   -3.606610
  H     -0.410980  -13.693020   -3.489460
  H     -1.378470  -13.162140   -0.623950
  H     -0.939330  -17.984220    0.387660
  H     -1.444380  -18.412960   -2.177590
  H     -2.934500  -13.976890   -3.542150
  H     -3.762430  -14.492240   -6.011010
  H     -2.131760  -19.111950   -5.058580
  H      0.530610  -17.812140   -4.244850
  H     -1.639710  -20.030860   -6.913000
  H      1.286540  -22.914270   -5.522800

 Total Charge           Charge          ....    0
 Multiplicity           Mult            ....    1
 Number of Electrons    NEL             ....  442
 Basis Dimension        Dim             .... 1026

ORBITAL ENERGIES
----------------

  NO   OCC          E(Eh)            E(eV)
   0   2.0000     -19.346148      -526.4354
   1   2.0000     -19.328370      -525.9517
   2   2.0000     -19.271506      -524.4044
   3   2.0000     -19.268623      -524.3259
   4   2.0000     -19.265787      -524.2487
   5   2.0000     -19.265511      -524.2412
   6   2.0000     -19.249854      -523.8152
   7   2.0000     -19.248877      -523.7886
   8   2.0000     -19.216057      -522.8955
   9   2.0000     -19.212380      -522.7954
  10   2.0000     -19.209194      -522.7087
  11   2.0000     -19.205827      -522.6171
  12   2.0000     -14.675299      -399.3352
  13   2.0000     -14.658595      -398.8806
  14   2.0000     -14.485193      -394.1622
  15   2.0000     -14.478846      -393.9894
  16   2.0000     -14.474982      -393.8843
  17   2.0000     -14.469424      -393.7330
  18   2.0000     -14.423710      -392.4891
  19   2.0000     -14.417957      -392.3326
  20   2.0000     -10.420279      -283.5502
  21   2.0000     -10.416740      -283.4539
  22   2.0000     -10.397835      -282.9395
  23   2.0000     -10.395873      -282.8861
  24   2.0000     -10.371666      -282.2274
  25   2.0000     -10.370768      -282.2029
  26   2.0000     -10.367248      -282.1072
  27   2.0000     -10.364037      -282.0198
  28   2.0000     -10.354151      -281.7508
  29   2.0000     -10.353438      -281.7314
  30   2.0000     -10.350398      -281.6487
  31   2.0000     -10.349691      -281.6294
  32   2.0000     -10.347593      -281.5723
  33   2.0000     -10.345246      -281.5084
  34   2.0000     -10.342683      -281.4387
  35   2.0000     -10.341881      -281.4169
  36   2.0000     -10.338018      -281.3118
  37   2.0000     -10.335755      -281.2502
  38   2.0000     -10.331739      -281.1409
  39   2.0000     -10.331550      -281.1358
  40   2.0000     -10.331533      -281.1353
  41   2.0000     -10.327811      -281.0340
  42   2.0000     -10.326728      -281.0045
  43   2.0000     -10.325180      -280.9624
  44   2.0000     -10.325060      -280.9592
  45   2.0000     -10.324505      -280.9441
  46   2.0000     -10.323659      -280.9211
  47   2.0000     -10.323194      -280.9084
  48   2.0000     -10.322479      -280.8889
  49   2.0000     -10.320037      -280.8225
  50   2.0000     -10.319681      -280.8128
  51   2.0000     -10.318866      -280.7906
  52   2.0000     -10.318548      -280.7820
  53   2.0000     -10.316502      -280.7263
  54   2.0000     -10.314728      -280.6780
  55   2.0000     -10.313284      -280.6387
  56   2.0000     -10.307703      -280.4869
  57   2.0000     -10.306958      -280.4666
  58   2.0000     -10.306072      -280.4425
  59   2.0000     -10.304412      -280.3973
  60   2.0000     -10.289430      -279.9896
  61   2.0000     -10.289085      -279.9802
  62   2.0000     -10.280213      -279.7388
  63   2.0000     -10.276415      -279.6355
  64   2.0000      -1.344731       -36.5920
  65   2.0000      -1.329492       -36.1773
  66   2.0000      -1.287610       -35.0377
  67   2.0000      -1.268340       -34.5133
  68   2.0000      -1.194698       -32.5094
  69   2.0000      -1.189527       -32.3687
  70   2.0000      -1.162944       -31.6453
  71   2.0000      -1.158468       -31.5235
  72   2.0000      -1.151378       -31.3306
  73   2.0000      -1.147333       -31.2205
  74   2.0000      -1.109854       -30.2007
  75   2.0000      -1.103083       -30.0164
  76   2.0000      -1.088894       -29.6303
  77   2.0000      -1.080016       -29.3887
  78   2.0000      -1.039325       -28.2815
  79   2.0000      -1.036038       -28.1920
  80   2.0000      -1.019192       -27.7336
  81   2.0000      -1.018550       -27.7162
  82   2.0000      -1.002093       -27.2683
  83   2.0000      -0.999610       -27.2008
  84   2.0000      -0.984128       -26.7795
  85   2.0000      -0.977552       -26.6005
  86   2.0000      -0.951677       -25.8965
  87   2.0000      -0.945332       -25.7238
  88   2.0000      -0.936516       -25.4839
  89   2.0000      -0.931309       -25.3422
  90   2.0000      -0.925447       -25.1827
  91   2.0000      -0.905706       -24.6455
  92   2.0000      -0.903512       -24.5858
  93   2.0000      -0.896690       -24.4002
  94   2.0000      -0.891121       -24.2486
  95   2.0000      -0.879150       -23.9229
  96   2.0000      -0.866528       -23.5794
  97   2.0000      -0.864572       -23.5262
  98   2.0000      -0.845089       -22.9960
  99   2.0000      -0.839934       -22.8558
 100   2.0000      -0.829968       -22.5846
 101   2.0000      -0.818296       -22.2670
 102   2.0000      -0.798412       -21.7259
 103   2.0000      -0.782207       -21.2849
 104   2.0000      -0.778524       -21.1847
 105   2.0000      -0.770917       -20.9777
 106   2.0000      -0.770156       -20.9570
 107   2.0000      -0.749794       -20.4029
 108   2.0000      -0.747859       -20.3503
 109   2.0000      -0.740103       -20.1392
 110   2.0000      -0.735026       -20.0011
 111   2.0000      -0.728918       -19.8349
 112   2.0000      -0.726576       -19.7711
 113   2.0000      -0.716413       -19.4946
 114   2.0000      -0.715469       -19.4689
 115   2.0000      -0.702665       -19.1205
 116   2.0000      -0.701143       -19.0791
 117   2.0000      -0.697058       -18.9679
 118   2.0000      -0.689948       -18.7744
 119   2.0000      -0.686788       -18.6884
 120   2.0000      -0.685680       -18.6583
 121   2.0000      -0.676829       -18.4175
 122   2.0000      -0.668382       -18.1876
 123   2.0000      -0.659481       -17.9454
 124   2.0000      -0.658641       -17.9225
 125   2.0000      -0.655715       -17.8429
 126   2.0000      -0.645047       -17.5526
 127   2.0000      -0.642697       -17.4887
 128   2.0000      -0.640475       -17.4282
 129   2.0000      -0.636564       -17.3218
 130   2.0000      -0.633408       -17.2359
 131   2.0000      -0.631362       -17.1802
 132   2.0000      -0.614741       -16.7280
 133   2.0000      -0.610179       -16.6038
 134   2.0000      -0.606917       -16.5150
 135   2.0000      -0.605407       -16.4740
 136   2.0000      -0.602166       -16.3858
 137   2.0000      -0.598889       -16.2966
 138   2.0000      -0.596342       -16.2273
 139   2.0000      -0.590650       -16.0724
 140   2.0000      -0.589118       -16.0307
 141   2.0000      -0.587543       -15.9879
 142   2.0000      -0.583216       -15.8701
 143   2.0000      -0.572078       -15.5670
 144   2.0000      -0.570017       -15.5109
 145   2.0000      -0.564276       -15.3547
 146   2.0000      -0.557689       -15.1755
 147   2.0000      -0.555295       -15.1104
 148   2.0000      -0.552185       -15.0257
 149   2.0000      -0.548746       -14.9322
 150   2.0000      -0.545249       -14.8370
 151   2.0000      -0.543450       -14.7880
 152   2.0000      -0.541979       -14.7480
 153   2.0000      -0.540560       -14.7094
 154   2.0000      -0.539792       -14.6885
 155   2.0000      -0.536224       -14.5914
 156   2.0000      -0.535411       -14.5693
 157   2.0000      -0.532000       -14.4764
 158   2.0000      -0.531171       -14.4539
 159   2.0000      -0.527870       -14.3641
 160   2.0000      -0.526630       -14.3303
 161   2.0000      -0.524982       -14.2855
 162   2.0000      -0.522975       -14.2309
 163   2.0000      -0.520978       -14.1765
 164   2.0000      -0.513200       -13.9649
 165   2.0000      -0.510995       -13.9049
 166   2.0000      -0.508037       -13.8244
 167   2.0000      -0.504014       -13.7149
 168   2.0000      -0.503223       -13.6934
 169   2.0000      -0.502062       -13.6618
 170   2.0000      -0.498660       -13.5692
 171   2.0000      -0.495572       -13.4852
 172   2.0000      -0.493541       -13.4299
 173   2.0000      -0.492256       -13.3950
 174   2.0000      -0.489487       -13.3196
 175   2.0000      -0.483431       -13.1548
 176   2.0000      -0.480837       -13.0842
 177   2.0000      -0.476258       -12.9596
 178   2.0000      -0.472041       -12.8449
 179   2.0000      -0.471391       -12.8272
 180   2.0000      -0.470950       -12.8152
 181   2.0000      -0.464751       -12.6465
 182   2.0000      -0.463284       -12.6066
 183   2.0000      -0.458888       -12.4870
 184   2.0000      -0.452616       -12.3163
 185   2.0000      -0.451297       -12.2804
 186   2.0000      -0.450554       -12.2602
 187   2.0000      -0.446331       -12.1453
 188   2.0000      -0.443784       -12.0760
 189   2.0000      -0.439482       -11.9589
 190   2.0000      -0.431175       -11.7329
 191   2.0000      -0.430726       -11.7206
 192   2.0000      -0.427980       -11.6459
 193   2.0000      -0.412055       -11.2126
 194   2.0000      -0.411134       -11.1875
 195   2.0000      -0.410058       -11.1583
 196   2.0000      -0.408031       -11.1031
 197   2.0000      -0.407226       -11.0812
 198   2.0000      -0.403227       -10.9724
 199   2.0000      -0.402297       -10.9471
 200   2.0000      -0.400605       -10.9010
 201   2.0000      -0.394280       -10.7289
 202   2.0000      -0.390530       -10.6269
 203   2.0000      -0.388832       -10.5807
 204   2.0000      -0.386723       -10.5233
 205   2.0000      -0.385439       -10.4883
 206   2.0000      -0.374467       -10.1898
 207   2.0000      -0.372740       -10.1428
 208   2.0000      -0.370704       -10.0874
 209   2.0000      -0.361789        -9.8448
 210   2.0000      -0.359362        -9.7787
 211   2.0000      -0.355784        -9.6814
 212   2.0000      -0.354938        -9.6584
 213   2.0000      -0.350245        -9.5307
 214   2.0000      -0.347956        -9.4684
 215   2.0000      -0.341071        -9.2810
 216   2.0000      -0.330817        -9.0020
 217   2.0000      -0.324872        -8.8402
 218   2.0000      -0.322849        -8.7852
 219   2.0000      -0.307857        -8.3772
 220   2.0000      -0.256413        -6.9774
 221   0.0000      -0.156935        -4.2704
 222   0.0000      -0.139032        -3.7833
 223   0.0000      -0.090599        -2.4653
 224   0.0000      -0.061390        -1.6705
 225   0.0000      -0.041987        -1.1425

MULLIKEN ATOMIC CHARGES
-----------------------
   0 C :    0.182617
   1 C :   -0.140884
   2 C :    0.165329
   3 O :   -0.158185
   4 O :   -0.149793
   5 C :    0.008573
   6 N :    0.001821
   7 O :   -0.132308
   8 C :    0.061071
   9 C :   -0.148947
  10 C :    0.090085
  11 C :   -0.081266
  12 C :    0.011132
  13 C :   -0.172515
  14 N :    0.150838
  15 C :    0.126036
  16 C :   -0.096988
  17 C :    0.036220
  18 C :   -0.018555
  19 C :   -0.092505
  20 C :   -0.191631
  21 N :    0.165253
  22 C :    0.157798
  23 N :   -0.254874
  24 C :    0.093649
  25 C :   -0.009101
  26 C :    0.155398
  27 O :   -0.180133
  28 C :   -0.061712
  29 C :   -0.060301
  30 C :    0.151583
  31 O :   -0.173053
  32 N :   -0.253259
  33 C :    0.090791
  34 C :   -0.002445
  35 C :    0.136848
  36 C :   -0.051132
  37 C :   -0.016481
  38 C :    0.038282
  39 C :    0.099451
  40 N :    0.268509
  41 O :   -0.238887
  42 O :   -0.238495
  43 C :    0.030832
  44 C :   -0.003725
  45 C :    0.035286
  46 C :    0.032553
  47 C :   -0.004832
  48 C :    0.015049
  49 C :    0.090434
  50 N :    0.283343
  51 O :   -0.218050
  52 O :   -0.279583
  53 C :    0.012611
  54 C :   -0.056240
  55 C :    0.035502
  56 C :    0.161824
  57 C :   -0.173585
  58 C :    0.171641
  59 O :   -0.167665
  60 O :   -0.160899
  61 C :    0.036975
  62 N :    0.023927
  63 O :   -0.170816
  64 H :    0.055273
  65 H :    0.181995
  66 H :    0.024504
  67 H :    0.016814
  68 H :    0.029975
  69 H :   -0.006514
  70 H :    0.054230
  71 H :    0.028419
  72 H :    0.035582
  73 H :    0.032817
  74 H :    0.028952
  75 H :    0.053173
  76 H :    0.023392
  77 H :    0.043980
  78 H :    0.029376
  79 H :    0.017760
  80 H :    0.001298
  81 H :    0.054201
  82 H :    0.016999
  83 H :    0.008317
  84 H :    0.017868
  85 H :    0.008211
  86 H :    0.035370
  87 H :    0.014303
  88 H :    0.203045
  89 H :    0.028246
Sum of atomic charges:   -0.0000000

LOEWDIN ATOMIC CHARGES
----------------------
   0 C :    0.101704
   1 C :   -0.145428
   2 C :    0.076358
   3 O :   -0.143525
   4 O :   -0.017477
   5 C :   -0.038201
   6 N :   -0.031647
   7 O :    0.061063
   8 C :   -0.026892
   9 C :   -0.027810
  10 C :    0.045232
  11 C :   -0.076862
  12 C :    0.066770
  13 C :   -0.032298
  14 N :   -0.044999
  15 C :    0.037031
  16 C :    0.023001
  17 C :   -0.034979
  18 C :    0.050672
  19 C :   -0.076223
  20 C :   -0.038543
  21 N :   -0.042946
  22 C :    0.077868
  23 N :    0.001865
  24 C :    0.035813
  25 C :   -0.060038
  26 C :    0.081715
  27 O :   -0.173135
  28 C :   -0.106965
  29 C :   -0.102554
  30 C :    0.082073
  31 O :   -0.168065
  32 N :    0.002881
  33 C :    0.037018
  34 C :   -0.060085
  35 C :    0.073366
  36 C :   -0.024628
  37 C :    0.032475
  38 C :    0.002256
  39 C :   -0.031745
  40 N :    0.282875
  41 O :   -0.203652
  42 O :   -0.202190
  43 C :    0.030840
  44 C :   -0.039583
  45 C :    0.056165
  46 C :    0.027831
  47 C :   -0.032929
  48 C :    0.001861
  49 C :   -0.033953
  50 N :    0.294390
  51 O :   -0.182987
  52 O :   -0.224375
  53 C :    0.009907
  54 C :   -0.007258
  55 C :   -0.023264
  56 C :    0.038258
  57 C :   -0.139481
  58 C :    0.070569
  59 O :   -0.146032
  60 O :   -0.018901
  61 C :    0.001243
  62 N :   -0.021427
  63 O :    0.031303
  64 H :    0.044703
  65 H :    0.085324
  66 H :    0.036992
  67 H :    0.045096
  68 H :    0.040657
  69 H :    0.037349
  70 H :    0.041673
  71 H :    0.020959
  72 H :    0.035668
  73 H :    0.036019
  74 H :    0.023652
  75 H :    0.041431
  76 H :    0.022662
  77 H :    0.037874
  78 H :    0.033415
  79 H :    0.022247
  80 H :    0.032644
  81 H :    0.046757
  82 H :    0.044119
  83 H :    0.033284
  84 H :    0.035774
  85 H :    0.040723
  86 H :    0.037180
  87 H :    0.042527
  88 H :    0.087019
  89 H :    0.040926

  Mayer bond orders larger than 0.100000
B(  0-C ,  1-C ) :   1.5572 B(  0-C ,  7-O ) :   1.2126 B(  0-C , 64-H ) :   0.9808
B(  1-C ,  2-C ) :   0.8994 B(  1-C ,  5-C ) :   1.1878 B(  2-C ,  3-O ) :   2.2216
B(  2-C ,  4-O ) :   1.2373 B(  4-O , 65-H ) :   0.9421 B(  5-C ,  6-N ) :   1.7200
B(  5-C ,  8-C ) :   0.9824 B(  6-N ,  7-O ) :   1.0197 B(  8-C ,  9-C ) :   1.5983
B(  8-C , 12-C ) :   1.0655 B(  9-C , 10-C ) :   1.0863 B(  9-C , 66-H ) :   0.9980
B( 10-C , 11-C ) :   1.1178 B( 10-C , 15-C ) :   1.4270 B( 11-C , 12-C ) :   1.6382
B( 11-C , 13-C ) :   1.0831 B( 12-C , 67-H ) :   1.0322 B( 13-C , 14-N ) :   2.9792
B( 15-C , 16-C ) :   1.1036 B( 15-C , 19-C ) :   1.0966 B( 16-C , 17-C ) :   1.5553
B( 16-C , 68-H ) :   0.9907 B( 17-C , 18-C ) :   1.0172 B( 17-C , 22-C ) :   1.0456
B( 18-C , 19-C ) :   1.6787 B( 18-C , 69-H ) :   1.0282 B( 19-C , 20-C ) :   1.0829
B( 20-C , 21-N ) :   2.9785 B( 22-C , 23-N ) :   1.2168 B( 22-C , 29-C ) :   1.3504
B( 23-N , 24-C ) :   0.9355 B( 23-N , 26-C ) :   1.0296 B( 24-C , 25-C ) :   1.1178
B( 24-C , 70-H ) :   0.9221 B( 24-C , 71-H ) :   0.9516 B( 25-C , 72-H ) :   0.9615
B( 25-C , 73-H ) :   0.9662 B( 25-C , 74-H ) :   0.9662 B( 26-C , 27-O ) :   2.0830
B( 26-C , 28-C ) :   0.9825 B( 28-C , 29-C ) :   1.2772 B( 28-C , 35-C ) :   1.2982
B( 29-C , 30-C ) :   0.9657 B( 30-C , 31-O ) :   2.1101 B( 30-C , 32-N ) :   1.0385
B( 32-N , 33-C ) :   0.9397 B( 32-N , 35-C ) :   1.1787 B( 33-C , 34-C ) :   1.1203
B( 33-C , 75-H ) :   0.9280 B( 33-C , 76-H ) :   0.9501 B( 34-C , 77-H ) :   0.9637
B( 34-C , 78-H ) :   0.9677 B( 34-C , 79-H ) :   0.9681 B( 35-C , 36-C ) :   1.1907
B( 36-C , 37-C ) :   1.5294 B( 36-C , 80-H ) :   0.9563 B( 37-C , 38-C ) :   1.1945
B( 37-C , 81-H ) :   0.9214 B( 38-C , 39-C ) :   1.5125 B( 38-C , 45-C ) :   0.9930
B( 39-C , 40-N ) :   0.9378 B( 39-C , 43-C ) :   1.1313 B( 40-N , 41-O ) :   1.5318
B( 40-N , 42-O ) :   1.5009 B( 41-O , 42-O ) :   0.2673 B( 43-C , 44-C ) :   1.5636
B( 43-C , 82-H ) :   1.0132 B( 44-C , 45-C ) :   1.1380 B( 44-C , 83-H ) :   1.0030
B( 45-C , 46-C ) :   1.5073 B( 46-C , 47-C ) :   1.1007 B( 46-C , 53-C ) :   1.0667
B( 47-C , 48-C ) :   1.6177 B( 47-C , 84-H ) :   0.9962 B( 48-C , 49-C ) :   1.1069
B( 48-C , 85-H ) :   1.0175 B( 49-C , 50-N ) :   0.9438 B( 49-C , 53-C ) :   1.5874
B( 50-N , 51-O ) :   1.5589 B( 50-N , 52-O ) :   1.4604 B( 51-O , 52-O ) :   0.2593
B( 53-C , 54-C ) :   1.0715 B( 54-C , 55-C ) :   1.7440 B( 54-C , 86-H ) :   0.9188
B( 55-C , 56-C ) :   1.1342 B( 55-C , 87-H ) :   0.9549 B( 56-C , 57-C ) :   1.5051
B( 56-C , 62-N ) :   0.1034 B( 56-C , 63-O ) :   1.1618 B( 57-C , 58-C ) :   0.8886
B( 57-C , 61-C ) :   1.2159 B( 58-C , 59-O ) :   2.2012 B( 58-C , 60-O ) :   1.2368
B( 60-O , 88-H ) :   0.9183 B( 61-C , 62-N ) :   1.7306 B( 61-C , 89-H ) :   0.9942
B( 62-N , 63-O ) :   1.0156

-----------------------------------------------------------------------------
         ABSORPTION SPECTRUM VIA TRANSITION ELECTRIC DIPOLE MOMENTS
-----------------------------------------------------------------------------
State   Energy  Wavelength   fosc         T2         TX        TY        TZ
        (cm-1)    (nm)                  (au**2)     (au)      (au)      (au)
-----------------------------------------------------------------------------
   0    6413.4   1559.2   0.304679625  15.63971  -0.38408  -3.92228  -0.32849
   1   10110.8    989.0   0.052525939   1.71027  -0.47898  -1.15969   0.36874
   2   14613.4    684.3   0.009848979   0.22188   0.25544  -0.38343  -0.09803
   3   17670.4    565.9   0.027781886   0.51760   0.47106  -0.54213  -0.04231
   4   18746.4    533.4   0.018857790   0.33117  -0.48660  -0.14020   0.27338
   5   19514.4    512.4   0.139587898   2.35488   0.48538  -1.43825  -0.22521
   6   20327.2    492.0   0.005508252   0.08921   0.04310  -0.28037   0.09352
   7   22560.7    443.2   0.013562365   0.19791   0.22718  -0.37154  -0.09086
   8   22581.5    442.8   0.016100713   0.23473  -0.23017   0.40189   0.14224
   9   23984.7    416.9   0.004023872   0.05523   0.10240   0.18520  -0.10221
  10   24724.0    404.5   0.093254904   1.24174   0.44488   1.02116  -0.03238
  11   25278.8    395.6   0.024560342   0.31986   0.16756   0.33712   0.42205
  12   26383.1    379.0   0.044173838   0.55121  -0.08822  -0.73653   0.03074
  13   26515.4    377.1   0.130377026   1.61874   0.31674   1.22714  -0.11206
  14   27159.0    368.2   0.077132191   0.93497  -0.19909  -0.94600  -0.02035
  15   27493.6    363.7   0.080637857   0.96557  -0.05985   0.69028   0.69678
  16   28376.2    352.4   0.162496216   1.88523   0.21620   0.93699  -0.98007
  17   28491.4    351.0   0.073117897   0.84486  -0.11970  -0.26047   0.87332
  18   28550.6    350.3   0.046208513   0.53282  -0.41235  -0.40848   0.44265
  19   28883.3    346.2   0.291712773   3.32495  -1.42894  -0.95995   0.60133
  20   29292.8    341.4   0.049495431   0.55626   0.33062   0.58838  -0.31744
  21   29333.4    340.9   0.113075975   1.26906  -0.79937  -0.78731  -0.10111
  22   29418.3    339.9   0.088577811   0.99125  -0.63404  -0.65754   0.39608
  23   29813.0    335.4   0.002141964   0.02365  -0.00057   0.09909  -0.11762
  24   30596.8    326.8   0.147630336   1.58846   0.24282   0.16303   1.22594
  25   30716.2    325.6   0.048728309   0.52226   0.29874  -0.17259   0.63500
  26   31265.9    319.8   0.241794922   2.54596  -0.13819   0.24137   1.57118
  27   31529.8    317.2   0.014529572   0.15171   0.06699   0.38258   0.02918
  28   32523.2    307.5   0.015710821   0.15903   0.23472  -0.30792  -0.09552
  29   32746.4    305.4   0.017668887   0.17763  -0.41355   0.06794   0.04461
  30   33220.4    301.0   0.087072558   0.86288  -0.32754  -0.78415   0.37511
  31   33327.4    300.1   0.019992085   0.19748   0.39179   0.19556   0.07576
  32   33546.0    298.1   0.119448481   1.17224   0.10524  -0.42268   0.99121
  33   33944.5    294.6   0.241956005   2.34662   0.50863  -0.56715   1.32901
  34   34051.8    293.7   0.095521754   0.92350   0.13047  -0.37222   0.87632
  35   34167.2    292.7   0.076411234   0.73625  -0.39307   0.47860  -0.59387
  36   34638.2    288.7   0.035447019   0.33690  -0.33116   0.17072  -0.44507
  37   35613.1    280.8   0.060438609   0.55870   0.16711   0.71623  -0.13340
  38   35830.2    279.1   0.008623195   0.07923   0.11560  -0.03606   0.25410
  39   35884.2    278.7   0.014550774   0.13349   0.18735  -0.14871   0.27619
  40   35976.8    278.0   0.034291457   0.31379   0.34732   0.43603  -0.05513
  41   36196.8    276.3   0.067211989   0.61130   0.16352   0.75060  -0.14543
  42   36257.8    275.8   0.025508438   0.23161  -0.33419  -0.34104  -0.06015
  43   36781.0    271.9   0.256388742   2.29483  -0.41174   0.43384  -1.39179
  44   37171.6    269.0   0.036132878   0.32001  -0.09882  -0.49031   0.26427
  45   37333.5    267.9   0.072448704   0.63886  -0.27393  -0.74424  -0.09967
  46   37915.2    263.7   0.000413790   0.00359  -0.02242  -0.05208  -0.01945
  47   38136.1    262.2   0.004783234   0.04129   0.05864   0.08664  -0.17420
  48   38497.2    259.8   0.008135188   0.06957  -0.22995   0.10765   0.07145
  49   38759.0    258.0   0.038543210   0.32738  -0.18033   0.33560  -0.42689
  50   38767.6    257.9   0.003648549   0.03098  -0.07040   0.15423   0.04733
  51   39090.2    255.8   0.012004439   0.10110   0.05880   0.30836   0.05056
  52   39254.6    254.7   0.025780360   0.21621   0.31624  -0.28912   0.18058
  53   39593.8    252.6   0.007315804   0.06083  -0.15509   0.16050  -0.10495
  54   39723.4    251.7   0.025878729   0.21447  -0.02675   0.39060   0.24736
  55   39939.6    250.4   0.006144131   0.05064   0.17515  -0.09944   0.10040
  56   40159.8    249.0   0.035031754   0.28717  -0.01876  -0.53550  -0.00760
  57   40273.7    248.3   0.091534622   0.74824  -0.19222   0.83128   0.14233

FINAL SINGLE POINT ENERGY     -3028.917215257456

DIPOLE MOMENT
-------------
                                X             Y             Z
Electronic contribution:      0.48004       6.33442      -8.00772
Nuclear contribution   :     -0.12969      -5.26722       7.80773
                        -----------------------------------------
Total Dipole Moment    :      0.35035       1.06720      -0.19998
                        -----------------------------------------
Magnitude (a.u.)       :      1.14090
Magnitude (Debye)      :      2.89994

Rotational constants in cm-1:     0.002757     0.000378     0.000359
Rotational constants in MHz :    82.644807    11.339164    10.756351

                             ****ORCA TERMINATED NORMALLY****
TOTAL RUN TIME: 0 days 0 hours 8 minutes 41 seconds 525 msec
