                         Program Version 4.2.0 -  RELEASE  -
|  1> # ORCA input file
|  2> # SCF done       -195.824311902518          0.000441492125
|  3> ! CAM-B3LYP def2-SVP def2/J RIJCOSX Grid4 TightSCF
|  4> %maxcore 5000
|  5> %tddft
|  6>     Mode sTDDFT
|  7>     Ethresh 5.0
|  8>     maxcore 5000
|  9> end
| 10>
| 11> %pal
| 12>   nprocs 6
| 13>   end
| 14> * xyz 0 1
| 15>    C       -5.49201         2.64380        -3.13564
| 16>    S       -6.15259         2.34238        -4.68930
| 17>    C       -5.89197         0.62301        -4.54511
| 18>    C       -5.36069         0.33100        -3.30004
| 19>    C       -5.13563         1.48578        -2.50506
| 20>    C       -4.60966         1.11149        -1.18666
| 21>    O       -4.32641         1.83067        -0.26497
| 22>    C       -4.49671        -0.41009        -1.21008
| 23>    C       -5.12748        -0.87620        -2.51291
| 24>    O       -5.43343        -2.01693        -2.77844
| 25>    C       -6.15011        -0.31096        -5.59026
| 26>    C       -7.23041        -0.40073        -6.45722
| 27>    N       -8.25380         0.53355        -6.64289
| 28>    O       -8.07432         1.67511        -6.23041
| 29>    O       -9.26617         0.16903        -7.21160
| 30>    C       -7.18625        -1.66502        -7.14274
| 31>    C       -6.09920        -2.35260        -6.71325
| 32>    C       -5.37661        -1.53665        -5.77091
| 33>    C       -4.07843        -1.74347        -5.33848
| 34>    C       -3.09616        -0.74162        -5.08925
| 35>    C       -1.87028        -1.33800        -5.00274
| 36>    C       -2.03055        -2.75286        -5.11874
| 37>    N       -0.97116        -3.66037        -4.95337
| 38>    O        0.15332        -3.19413        -4.86893
| 39>    O       -1.22510        -4.85204        -4.89598
| 40>    C       -3.38347        -3.04694        -5.29508
| 41>    C       -4.00539        -4.30469        -5.27178
| 42>    C       -5.28564        -4.47732        -4.80756
| 43>    C       -5.93986        -5.71747        -4.79034
| 44>    N       -7.12685        -5.94831        -4.13997
| 45>    C       -7.90250        -4.96714        -3.41702
| 46>    C       -8.74604        -4.11372        -4.36095
| 47>    C       -7.55598        -7.28223        -4.26809
| 48>    O       -8.56063        -7.72486        -3.75984
| 49>    C       -6.53087        -7.89835        -5.09487
| 50>    C       -5.56299        -6.92972        -5.39523
| 51>    C       -4.57129        -7.54927        -6.25023
| 52>    O       -3.59167        -7.11016        -6.80752
| 53>    N       -4.99404        -8.89779        -6.36404
| 54>    C       -4.28147        -9.78515        -7.25402
| 55>    C       -5.08439       -10.09539        -8.51386
| 56>    C       -6.16943        -9.11469        -5.69390
| 57>    C       -6.95602       -10.28637        -5.57804
| 58>    C       -6.61510       -11.56779        -5.86363
| 59>    C       -7.49530       -12.67931        -5.73085
| 60>    S       -6.78277       -14.22721        -5.36252
| 61>    C       -8.87867       -12.77510        -5.82630
| 62>    C       -9.76212       -11.73865        -6.41684
| 63>    O       -9.35298       -10.70631        -6.91633
| 64>    C      -11.15840       -12.13307        -6.41459
| 65>    C      -12.25754       -11.42724        -6.85598
| 66>    N      -13.36570       -12.17214        -6.63874
| 67>    C      -14.70133       -11.80602        -7.03883
| 68>    C      -14.98137       -12.24912        -8.47329
| 69>    C      -13.01646       -13.35013        -6.07132
| 70>    C      -11.64826       -13.37222        -5.90901
| 71>    C      -10.79605       -14.40083        -5.34890
| 72>    O      -11.19526       -15.37898        -4.74577
| 73>    C       -9.35599       -14.07967        -5.52089
| 74>    C       -8.33816       -14.98189        -5.27732
| 75>    C       -8.45855       -16.39292        -5.07398
| 76>    S       -7.44408       -17.26476        -3.95072
| 77>    C       -8.19693       -18.76563        -4.31745
| 78>    C       -9.17199       -18.60862        -5.25506
| 79>    C       -9.31892       -17.26436        -5.69438
| 80>    C      -10.31920       -17.17708        -6.76275
| 81>    O      -10.58037       -16.23394        -7.46698
| 82>    C      -10.94407       -18.56242        -6.85100
| 83>    C      -10.11745       -19.48481        -5.96332
| 84>    O      -10.22535       -20.67976        -5.88137
| 85>    H       -5.43340         3.64554        -2.75783
| 86>    H       -4.96849        -0.86748        -0.33898
| 87>    H       -3.44344        -0.70185        -1.18790
| 88>    H       -7.90892        -1.96252        -7.87807
| 89>    H       -5.75079        -3.29423        -7.08940
| 90>    H       -3.28106         0.31495        -5.09337
| 91>    H       -0.92000        -0.85718        -4.86377
| 92>    H       -3.40367        -5.16422        -5.54597
| 93>    H       -5.78544        -3.63386        -4.35486
| 94>    H       -7.23301        -4.34010        -2.82341
| 95>    H       -8.55680        -5.52948        -2.74549
| 96>    H       -8.11767        -3.57283        -5.06518
| 97>    H       -9.32303        -3.39466        -3.78675
| 98>    H       -9.43346        -4.74364        -4.92020
| 99>    H       -3.99823       -10.69828        -6.72501
|100>    H       -3.36484        -9.25115        -7.52342
|101>    H       -6.03981       -10.55479        -8.27201
|102>    H       -4.51947       -10.77140        -9.14949
|103>    H       -5.27442        -9.17854        -9.06625
|104>    H       -7.93940       -10.08513        -5.17618
|105>    H       -5.60058       -11.82578        -6.13058
|106>    H      -12.30243       -10.44830        -7.29041
|107>    H      -14.80418       -10.72118        -6.95497
|108>    H      -15.41057       -12.27886        -6.35501
|109>    H      -14.27985       -11.77948        -9.15840
|110>    H      -15.99059       -11.96671        -8.75867
|111>    H      -14.88093       -13.32799        -8.56298
|112>    H      -13.74023       -14.10022        -5.82176
|113>    H       -7.87987       -19.66058        -3.81979
|114>    H      -11.00570       -18.92425        -7.87857
|115>    H      -11.96699       -18.51519        -6.46798
|116> *
|117>
|118>                          ****END OF INPUT****

CARTESIAN COORDINATES (ANGSTROEM)
---------------------------------
  C     -5.492010    2.643800   -3.135640
  S     -6.152590    2.342380   -4.689300
  C     -5.891970    0.623010   -4.545110
  C     -5.360690    0.331000   -3.300040
  C     -5.135630    1.485780   -2.505060
  C     -4.609660    1.111490   -1.186660
  O     -4.326410    1.830670   -0.264970
  C     -4.496710   -0.410090   -1.210080
  C     -5.127480   -0.876200   -2.512910
  O     -5.433430   -2.016930   -2.778440
  C     -6.150110   -0.310960   -5.590260
  C     -7.230410   -0.400730   -6.457220
  N     -8.253800    0.533550   -6.642890
  O     -8.074320    1.675110   -6.230410
  O     -9.266170    0.169030   -7.211600
  C     -7.186250   -1.665020   -7.142740
  C     -6.099200   -2.352600   -6.713250
  C     -5.376610   -1.536650   -5.770910
  C     -4.078430   -1.743470   -5.338480
  C     -3.096160   -0.741620   -5.089250
  C     -1.870280   -1.338000   -5.002740
  C     -2.030550   -2.752860   -5.118740
  N     -0.971160   -3.660370   -4.953370
  O      0.153320   -3.194130   -4.868930
  O     -1.225100   -4.852040   -4.895980
  C     -3.383470   -3.046940   -5.295080
  C     -4.005390   -4.304690   -5.271780
  C     -5.285640   -4.477320   -4.807560
  C     -5.939860   -5.717470   -4.790340
  N     -7.126850   -5.948310   -4.139970
  C     -7.902500   -4.967140   -3.417020
  C     -8.746040   -4.113720   -4.360950
  C     -7.555980   -7.282230   -4.268090
  O     -8.560630   -7.724860   -3.759840
  C     -6.530870   -7.898350   -5.094870
  C     -5.562990   -6.929720   -5.395230
  C     -4.571290   -7.549270   -6.250230
  O     -3.591670   -7.110160   -6.807520
  N     -4.994040   -8.897790   -6.364040
  C     -4.281470   -9.785150   -7.254020
  C     -5.084390  -10.095390   -8.513860
  C     -6.169430   -9.114690   -5.693900
  C     -6.956020  -10.286370   -5.578040
  C     -6.615100  -11.567790   -5.863630
  C     -7.495300  -12.679310   -5.730850
  S     -6.782770  -14.227210   -5.362520
  C     -8.878670  -12.775100   -5.826300
  C     -9.762120  -11.738650   -6.416840
  O     -9.352980  -10.706310   -6.916330
  C    -11.158400  -12.133070   -6.414590
  C    -12.257540  -11.427240   -6.855980
  N    -13.365700  -12.172140   -6.638740
  C    -14.701330  -11.806020   -7.038830
  C    -14.981370  -12.249120   -8.473290
  C    -13.016460  -13.350130   -6.071320
  C    -11.648260  -13.372220   -5.909010
  C    -10.796050  -14.400830   -5.348900
  O    -11.195260  -15.378980   -4.745770
  C     -9.355990  -14.079670   -5.520890
  C     -8.338160  -14.981890   -5.277320
  C     -8.458550  -16.392920   -5.073980
  S     -7.444080  -17.264760   -3.950720
  C     -8.196930  -18.765630   -4.317450
  C     -9.171990  -18.608620   -5.255060
  C     -9.318920  -17.264360   -5.694380
  C    -10.319200  -17.177080   -6.762750
  O    -10.580370  -16.233940   -7.466980
  C    -10.944070  -18.562420   -6.851000
  C    -10.117450  -19.484810   -5.963320
  O    -10.225350  -20.679760   -5.881370
  H     -5.433400    3.645540   -2.757830
  H     -4.968490   -0.867480   -0.338980
  H     -3.443440   -0.701850   -1.187900
  H     -7.908920   -1.962520   -7.878070
  H     -5.750790   -3.294230   -7.089400
  H     -3.281060    0.314950   -5.093370
  H     -0.920000   -0.857180   -4.863770
  H     -3.403670   -5.164220   -5.545970
  H     -5.785440   -3.633860   -4.354860
  H     -7.233010   -4.340100   -2.823410
  H     -8.556800   -5.529480   -2.745490
  H     -8.117670   -3.572830   -5.065180
  H     -9.323030   -3.394660   -3.786750
  H     -9.433460   -4.743640   -4.920200
  H     -3.998230  -10.698280   -6.725010
  H     -3.364840   -9.251150   -7.523420
  H     -6.039810  -10.554790   -8.272010
  H     -4.519470  -10.771400   -9.149490
  H     -5.274420   -9.178540   -9.066250
  H     -7.939400  -10.085130   -5.176180
  H     -5.600580  -11.825780   -6.130580
  H    -12.302430  -10.448300   -7.290410
  H    -14.804180  -10.721180   -6.954970
  H    -15.410570  -12.278860   -6.355010
  H    -14.279850  -11.779480   -9.158400
  H    -15.990590  -11.966710   -8.758670
  H    -14.880930  -13.327990   -8.562980
  H    -13.740230  -14.100220   -5.821760
  H     -7.879870  -19.660580   -3.819790
  H    -11.005700  -18.924250   -7.878570
  H    -11.966990  -18.515190   -6.467980

 Total Charge           Charge          ....    0
 Multiplicity           Mult            ....    1
 Number of Electrons    NEL             ....  510
 Basis Dimension        Dim             .... 1147

ORBITAL ENERGIES
----------------

  NO   OCC          E(Eh)            E(eV)
   0   2.0000     -88.991140     -2421.5720
   1   2.0000     -88.984037     -2421.3787
   2   2.0000     -88.979375     -2421.2519
   3   2.0000     -19.248690      -523.7835
   4   2.0000     -19.248522      -523.7789
   5   2.0000     -19.228420      -523.2319
   6   2.0000     -19.226501      -523.1797
   7   2.0000     -19.226168      -523.1706
   8   2.0000     -19.217451      -522.9334
   9   2.0000     -19.210846      -522.7537
  10   2.0000     -19.210022      -522.7313
  11   2.0000     -19.203167      -522.5447
  12   2.0000     -19.199934      -522.4568
  13   2.0000     -19.197926      -522.4021
  14   2.0000     -19.189257      -522.1662
  15   2.0000     -14.655376      -398.7930
  16   2.0000     -14.636265      -398.2730
  17   2.0000     -14.487303      -394.2196
  18   2.0000     -14.460463      -393.4892
  19   2.0000     -14.453440      -393.2981
  20   2.0000     -10.383122      -282.5391
  21   2.0000     -10.382824      -282.5310
  22   2.0000     -10.374872      -282.3146
  23   2.0000     -10.372815      -282.2587
  24   2.0000     -10.365109      -282.0490
  25   2.0000     -10.365044      -282.0472
  26   2.0000     -10.361921      -281.9622
  27   2.0000     -10.360224      -281.9160
  28   2.0000     -10.346857      -281.5523
  29   2.0000     -10.341974      -281.4194
  30   2.0000     -10.340608      -281.3823
  31   2.0000     -10.339725      -281.3582
  32   2.0000     -10.333186      -281.1803
  33   2.0000     -10.332791      -281.1695
  34   2.0000     -10.330928      -281.1188
  35   2.0000     -10.329047      -281.0676
  36   2.0000     -10.327996      -281.0391
  37   2.0000     -10.327224      -281.0181
  38   2.0000     -10.327022      -281.0126
  39   2.0000     -10.323339      -280.9123
  40   2.0000     -10.321094      -280.8512
  41   2.0000     -10.319493      -280.8077
  42   2.0000     -10.317949      -280.7657
  43   2.0000     -10.311388      -280.5871
  44   2.0000     -10.311273      -280.5840
  45   2.0000     -10.309964      -280.5484
  46   2.0000     -10.305430      -280.4250
  47   2.0000     -10.304356      -280.3958
  48   2.0000     -10.303262      -280.3660
  49   2.0000     -10.300935      -280.3027
  50   2.0000     -10.299929      -280.2753
  51   2.0000     -10.298568      -280.2383
  52   2.0000     -10.295722      -280.1608
  53   2.0000     -10.295505      -280.1549
  54   2.0000     -10.295050      -280.1425
  55   2.0000     -10.294484      -280.1271
  56   2.0000     -10.293934      -280.1122
  57   2.0000     -10.291850      -280.0555
  58   2.0000     -10.287956      -279.9495
  59   2.0000     -10.286958      -279.9224
  60   2.0000     -10.286712      -279.9157
  61   2.0000     -10.285932      -279.8944
  62   2.0000     -10.280901      -279.7575
  63   2.0000     -10.276873      -279.6479
  64   2.0000     -10.274058      -279.5713
  65   2.0000     -10.268819      -279.4288
  66   2.0000     -10.268114      -279.4096
  67   2.0000     -10.267460      -279.3918
  68   2.0000     -10.262522      -279.2574
  69   2.0000     -10.259729      -279.1814
  70   2.0000      -8.084926      -220.0020
  71   2.0000      -8.079468      -219.8535
  72   2.0000      -8.075337      -219.7411
  73   2.0000      -6.054134      -164.7414
  74   2.0000      -6.049221      -164.6077
  75   2.0000      -6.048626      -164.5915
  76   2.0000      -6.047998      -164.5744
  77   2.0000      -6.044391      -164.4762
  78   2.0000      -6.044113      -164.4687
  79   2.0000      -6.042228      -164.4174
  80   2.0000      -6.040361      -164.3666
  81   2.0000      -6.037688      -164.2938
  82   2.0000      -1.326055       -36.0838
  83   2.0000      -1.305887       -35.5350
  84   2.0000      -1.144415       -31.1411
  85   2.0000      -1.143653       -31.1204
  86   2.0000      -1.141755       -31.0687
  87   2.0000      -1.134076       -30.8598
  88   2.0000      -1.130566       -30.7643
  89   2.0000      -1.129518       -30.7358
  90   2.0000      -1.125825       -30.6352
  91   2.0000      -1.123139       -30.5622
  92   2.0000      -1.119513       -30.4635
  93   2.0000      -1.114383       -30.3239
  94   2.0000      -1.106918       -30.1208
  95   2.0000      -1.069405       -29.1000
  96   2.0000      -1.058911       -28.8144
  97   2.0000      -1.027221       -27.9521
  98   2.0000      -1.015958       -27.6456
  99   2.0000      -1.010338       -27.4927
 100   2.0000      -0.997313       -27.1383
 101   2.0000      -0.997168       -27.1343
 102   2.0000      -0.937361       -25.5069
 103   2.0000      -0.932916       -25.3859
 104   2.0000      -0.929155       -25.2836
 105   2.0000      -0.922474       -25.1018
 106   2.0000      -0.918376       -24.9903
 107   2.0000      -0.913772       -24.8650
 108   2.0000      -0.911699       -24.8086
 109   2.0000      -0.886236       -24.1157
 110   2.0000      -0.885122       -24.0854
 111   2.0000      -0.877920       -23.8894
 112   2.0000      -0.876517       -23.8513
 113   2.0000      -0.867684       -23.6109
 114   2.0000      -0.845332       -23.0026
 115   2.0000      -0.840005       -22.8577
 116   2.0000      -0.838452       -22.8154
 117   2.0000      -0.829876       -22.5821
 118   2.0000      -0.827177       -22.5086
 119   2.0000      -0.821854       -22.3638
 120   2.0000      -0.819366       -22.2961
 121   2.0000      -0.818002       -22.2590
 122   2.0000      -0.794905       -21.6305
 123   2.0000      -0.790529       -21.5114
 124   2.0000      -0.766000       -20.8439
 125   2.0000      -0.763904       -20.7869
 126   2.0000      -0.760722       -20.7003
 127   2.0000      -0.752373       -20.4731
 128   2.0000      -0.732187       -19.9238
 129   2.0000      -0.725311       -19.7367
 130   2.0000      -0.721535       -19.6340
 131   2.0000      -0.715231       -19.4624
 132   2.0000      -0.712995       -19.4016
 133   2.0000      -0.710742       -19.3403
 134   2.0000      -0.704303       -19.1651
 135   2.0000      -0.700404       -19.0590
 136   2.0000      -0.696773       -18.9602
 137   2.0000      -0.683095       -18.5880
 138   2.0000      -0.681931       -18.5563
 139   2.0000      -0.679542       -18.4913
 140   2.0000      -0.672433       -18.2978
 141   2.0000      -0.655924       -17.8486
 142   2.0000      -0.652829       -17.7644
 143   2.0000      -0.649766       -17.6810
 144   2.0000      -0.646656       -17.5964
 145   2.0000      -0.638765       -17.3817
 146   2.0000      -0.635849       -17.3023
 147   2.0000      -0.628162       -17.0931
 148   2.0000      -0.621347       -16.9077
 149   2.0000      -0.619595       -16.8600
 150   2.0000      -0.618265       -16.8238
 151   2.0000      -0.615646       -16.7526
 152   2.0000      -0.610988       -16.6258
 153   2.0000      -0.603907       -16.4331
 154   2.0000      -0.599456       -16.3120
 155   2.0000      -0.596757       -16.2386
 156   2.0000      -0.590010       -16.0550
 157   2.0000      -0.588111       -16.0033
 158   2.0000      -0.581086       -15.8121
 159   2.0000      -0.578856       -15.7515
 160   2.0000      -0.573883       -15.6162
 161   2.0000      -0.571654       -15.5555
 162   2.0000      -0.568812       -15.4782
 163   2.0000      -0.567235       -15.4353
 164   2.0000      -0.560013       -15.2387
 165   2.0000      -0.556804       -15.1514
 166   2.0000      -0.555247       -15.1090
 167   2.0000      -0.553301       -15.0561
 168   2.0000      -0.550911       -14.9911
 169   2.0000      -0.549053       -14.9405
 170   2.0000      -0.547336       -14.8938
 171   2.0000      -0.544605       -14.8195
 172   2.0000      -0.542599       -14.7649
 173   2.0000      -0.541128       -14.7249
 174   2.0000      -0.537331       -14.6215
 175   2.0000      -0.534039       -14.5320
 176   2.0000      -0.530536       -14.4366
 177   2.0000      -0.529680       -14.4133
 178   2.0000      -0.527046       -14.3416
 179   2.0000      -0.522443       -14.2164
 180   2.0000      -0.518990       -14.1224
 181   2.0000      -0.518364       -14.1054
 182   2.0000      -0.518235       -14.1019
 183   2.0000      -0.515417       -14.0252
 184   2.0000      -0.511877       -13.9289
 185   2.0000      -0.510898       -13.9023
 186   2.0000      -0.508900       -13.8479
 187   2.0000      -0.508274       -13.8308
 188   2.0000      -0.507462       -13.8087
 189   2.0000      -0.506623       -13.7859
 190   2.0000      -0.504197       -13.7199
 191   2.0000      -0.502083       -13.6624
 192   2.0000      -0.500388       -13.6163
 193   2.0000      -0.497192       -13.5293
 194   2.0000      -0.496888       -13.5210
 195   2.0000      -0.491647       -13.3784
 196   2.0000      -0.486263       -13.2319
 197   2.0000      -0.485859       -13.2209
 198   2.0000      -0.484735       -13.1903
 199   2.0000      -0.482309       -13.1243
 200   2.0000      -0.480176       -13.0662
 201   2.0000      -0.477327       -12.9887
 202   2.0000      -0.476467       -12.9653
 203   2.0000      -0.475518       -12.9395
 204   2.0000      -0.472657       -12.8617
 205   2.0000      -0.470795       -12.8110
 206   2.0000      -0.469887       -12.7863
 207   2.0000      -0.465941       -12.6789
 208   2.0000      -0.463124       -12.6022
 209   2.0000      -0.462522       -12.5859
 210   2.0000      -0.460363       -12.5271
 211   2.0000      -0.455249       -12.3880
 212   2.0000      -0.454853       -12.3772
 213   2.0000      -0.451651       -12.2900
 214   2.0000      -0.450457       -12.2576
 215   2.0000      -0.450152       -12.2493
 216   2.0000      -0.449643       -12.2354
 217   2.0000      -0.444494       -12.0953
 218   2.0000      -0.442039       -12.0285
 219   2.0000      -0.437894       -11.9157
 220   2.0000      -0.437267       -11.8986
 221   2.0000      -0.434201       -11.8152
 222   2.0000      -0.430813       -11.7230
 223   2.0000      -0.423811       -11.5325
 224   2.0000      -0.423530       -11.5248
 225   2.0000      -0.419636       -11.4189
 226   2.0000      -0.396049       -10.7770
 227   2.0000      -0.389621       -10.6021
 228   2.0000      -0.385796       -10.4980
 229   2.0000      -0.379971       -10.3395
 230   2.0000      -0.376162       -10.2359
 231   2.0000      -0.369640       -10.0584
 232   2.0000      -0.364530        -9.9194
 233   2.0000      -0.359286        -9.7767
 234   2.0000      -0.356977        -9.7138
 235   2.0000      -0.354038        -9.6339
 236   2.0000      -0.352494        -9.5918
 237   2.0000      -0.348775        -9.4907
 238   2.0000      -0.345151        -9.3920
 239   2.0000      -0.343154        -9.3377
 240   2.0000      -0.341724        -9.2988
 241   2.0000      -0.339581        -9.2405
 242   2.0000      -0.338122        -9.2008
 243   2.0000      -0.334749        -9.1090
 244   2.0000      -0.328865        -8.9489
 245   2.0000      -0.327388        -8.9087
 246   2.0000      -0.324262        -8.8236
 247   2.0000      -0.321951        -8.7607
 248   2.0000      -0.318841        -8.6761
 249   2.0000      -0.316126        -8.6022
 250   2.0000      -0.307043        -8.3551
 251   2.0000      -0.302119        -8.2211
 252   2.0000      -0.290280        -7.8989
 253   2.0000      -0.284777        -7.7492
 254   2.0000      -0.235933        -6.4201
 255   0.0000      -0.139658        -3.8003
 256   0.0000      -0.092260        -2.5105
 257   0.0000      -0.064266        -1.7488
 258   0.0000      -0.059242        -1.6120
 259   0.0000      -0.043279        -1.1777

MULLIKEN ATOMIC CHARGES
-----------------------
   0 C :   -0.119783
   1 S :    0.258927
   2 C :   -0.240541
   3 C :    0.015060
   4 C :    0.024903
   5 C :    0.040787
   6 O :   -0.133758
   7 C :    0.049225
   8 C :    0.051970
   9 O :   -0.163113
  10 C :    0.072049
  11 C :    0.065540
  12 N :    0.286506
  13 O :   -0.271113
  14 O :   -0.234708
  15 C :    0.008953
  16 C :    0.018475
  17 C :    0.002239
  18 C :    0.037270
  19 C :   -0.005599
  20 C :    0.020196
  21 C :    0.089622
  22 N :    0.273758
  23 O :   -0.259995
  24 O :   -0.247882
  25 C :    0.039237
  26 C :   -0.023438
  27 C :   -0.051840
  28 C :    0.143273
  29 N :   -0.261001
  30 C :    0.091515
  31 C :    0.009843
  32 C :    0.152312
  33 O :   -0.185754
  34 C :   -0.040963
  35 C :   -0.050054
  36 C :    0.155469
  37 O :   -0.175329
  38 N :   -0.267784
  39 C :    0.095824
  40 C :   -0.008545
  41 C :    0.095900
  42 C :    0.036488
  43 C :    0.043605
  44 C :   -0.150043
  45 S :    0.174619
  46 C :   -0.005724
  47 C :    0.129537
  48 O :   -0.168276
  49 C :   -0.007073
  50 C :    0.020879
  51 N :   -0.134913
  52 C :    0.086229
  53 C :    0.003272
  54 C :    0.018016
  55 C :   -0.002994
  56 C :    0.138319
  57 O :   -0.174257
  58 C :    0.046078
  59 C :   -0.164729
  60 C :   -0.166203
  61 S :    0.176734
  62 C :   -0.120485
  63 C :    0.017111
  64 C :    0.089214
  65 C :    0.050791
  66 O :   -0.158402
  67 C :    0.031982
  68 C :    0.045877
  69 O :   -0.139099
  70 H :    0.043282
  71 H :    0.060860
  72 H :    0.075307
  73 H :    0.001124
  74 H :    0.010090
  75 H :   -0.002541
  76 H :    0.006151
  77 H :    0.047496
  78 H :    0.027875
  79 H :    0.038503
  80 H :    0.039751
  81 H :    0.011007
  82 H :    0.022741
  83 H :    0.025459
  84 H :    0.026087
  85 H :    0.049962
  86 H :    0.040240
  87 H :    0.023356
  88 H :    0.025340
  89 H :    0.022441
  90 H :   -0.015055
  91 H :    0.007206
  92 H :    0.035925
  93 H :    0.033767
  94 H :    0.031568
  95 H :    0.029918
  96 H :    0.032812
  97 H :    0.004800
  98 H :    0.041488
  99 H :    0.055036
 100 H :    0.073797
Sum of atomic charges:    0.0000000

LOEWDIN ATOMIC CHARGES
----------------------
   0 C :   -0.146486
   1 S :    0.555321
   2 C :   -0.154989
   3 C :   -0.095625
   4 C :   -0.101778
   5 C :    0.076292
   6 O :   -0.126452
   7 C :   -0.068928
   8 C :    0.090647
   9 O :   -0.149757
  10 C :   -0.021254
  11 C :   -0.033595
  12 N :    0.285950
  13 O :   -0.234522
  14 O :   -0.198976
  15 C :   -0.013266
  16 C :   -0.021426
  17 C :    0.027452
  18 C :    0.066145
  19 C :   -0.060521
  20 C :    0.033549
  21 C :   -0.060733
  22 N :    0.283930
  23 O :   -0.224173
  24 O :   -0.211707
  25 C :    0.014916
  26 C :    0.028014
  27 C :   -0.002239
  28 C :    0.064380
  29 N :    0.000424
  30 C :    0.037062
  31 C :   -0.062329
  32 C :    0.077313
  33 O :   -0.190053
  34 C :   -0.105110
  35 C :   -0.097833
  36 C :    0.085223
  37 O :   -0.167204
  38 N :   -0.002265
  39 C :    0.035609
  40 C :   -0.062490
  41 C :    0.083463
  42 C :    0.004470
  43 C :   -0.026706
  44 C :   -0.134769
  45 S :    0.467030
  46 C :   -0.078972
  47 C :    0.080999
  48 O :   -0.159657
  49 C :   -0.100411
  50 C :    0.034593
  51 N :    0.091405
  52 C :    0.044010
  53 C :   -0.056952
  54 C :    0.034487
  55 C :   -0.095933
  56 C :    0.085985
  57 O :   -0.164273
  58 C :   -0.062911
  59 C :   -0.164959
  60 C :   -0.162667
  61 S :    0.483156
  62 C :   -0.143310
  63 C :   -0.095793
  64 C :   -0.078770
  65 C :    0.084722
  66 O :   -0.135078
  67 C :   -0.071109
  68 C :    0.078462
  69 O :   -0.130055
  70 H :    0.036724
  71 H :    0.058674
  72 H :    0.067152
  73 H :    0.037501
  74 H :    0.035265
  75 H :    0.029980
  76 H :    0.040005
  77 H :    0.045545
  78 H :    0.034338
  79 H :    0.029097
  80 H :    0.036494
  81 H :    0.020773
  82 H :    0.031083
  83 H :    0.030583
  84 H :    0.019549
  85 H :    0.039146
  86 H :    0.027727
  87 H :    0.031299
  88 H :    0.031474
  89 H :    0.050018
  90 H :    0.027767
  91 H :    0.030012
  92 H :    0.034294
  93 H :    0.033738
  94 H :    0.031051
  95 H :    0.032848
  96 H :    0.031571
  97 H :    0.029188
  98 H :    0.035509
  99 H :    0.055352
 100 H :    0.067274

  Mayer bond orders larger than 0.100000
B(  0-C ,  1-S ) :   1.2062 B(  0-C ,  4-C ) :   1.4955 B(  0-C , 70-H ) :   0.9721
B(  1-S ,  2-C ) :   1.2081 B(  2-C ,  3-C ) :   1.4494 B(  2-C , 10-C ) :   1.0881
B(  3-C ,  4-C ) :   1.2165 B(  3-C ,  8-C ) :   0.9507 B(  4-C ,  5-C ) :   0.9218
B(  5-C ,  6-O ) :   2.2780 B(  5-C ,  7-C ) :   0.9775 B(  7-C ,  8-C ) :   0.9888
B(  7-C , 71-H ) :   0.9021 B(  7-C , 72-H ) :   0.8941 B(  8-C ,  9-O ) :   2.1355
B( 10-C , 11-C ) :   1.5322 B( 10-C , 17-C ) :   1.0854 B( 11-C , 12-N ) :   0.9555
B( 11-C , 15-C ) :   1.1443 B( 12-N , 13-O ) :   1.4477 B( 12-N , 14-O ) :   1.5445
B( 13-O , 14-O ) :   0.2609 B( 15-C , 16-C ) :   1.5566 B( 15-C , 73-H ) :   1.0158
B( 16-C , 17-C ) :   1.1467 B( 16-C , 74-H ) :   0.9966 B( 17-C , 18-C ) :   1.4434
B( 18-C , 19-C ) :   1.1842 B( 18-C , 25-C ) :   1.0019 B( 19-C , 20-C ) :   1.5132
B( 19-C , 75-H ) :   1.0064 B( 20-C , 21-C ) :   1.1540 B( 20-C , 76-H ) :   1.0139
B( 21-C , 22-N ) :   0.9565 B( 21-C , 25-C ) :   1.4538 B( 22-N , 23-O ) :   1.5160
B( 22-N , 24-O ) :   1.5010 B( 23-O , 24-O ) :   0.2576 B( 25-C , 26-C ) :   1.2349
B( 26-C , 27-C ) :   1.4661 B( 26-C , 77-H ) :   0.9410 B( 27-C , 28-C ) :   1.2135
B( 27-C , 78-H ) :   0.9351 B( 28-C , 29-N ) :   1.1681 B( 28-C , 35-C ) :   1.2891
B( 29-N , 30-C ) :   0.9377 B( 29-N , 32-C ) :   1.0405 B( 30-C , 31-C ) :   1.1219
B( 30-C , 79-H ) :   0.9469 B( 30-C , 80-H ) :   0.9289 B( 31-C , 81-H ) :   0.9678
B( 31-C , 82-H ) :   0.9651 B( 31-C , 83-H ) :   0.9610 B( 32-C , 33-O ) :   2.1410
B( 32-C , 34-C ) :   0.9686 B( 34-C , 35-C ) :   1.2898 B( 34-C , 41-C ) :   1.3052
B( 35-C , 36-C ) :   0.9726 B( 36-C , 37-O ) :   2.0906 B( 36-C , 38-N ) :   1.0341
B( 38-N , 39-C ) :   0.9388 B( 38-N , 41-C ) :   1.1835 B( 39-C , 40-C ) :   1.1161
B( 39-C , 84-H ) :   0.9504 B( 39-C , 85-H ) :   0.9243 B( 40-C , 86-H ) :   0.9664
B( 40-C , 87-H ) :   0.9667 B( 40-C , 88-H ) :   0.9617 B( 41-C , 42-C ) :   1.2261
B( 42-C , 43-C ) :   1.6144 B( 42-C , 89-H ) :   0.9291 B( 43-C , 44-C ) :   1.1084
B( 43-C , 90-H ) :   0.9520 B( 44-C , 45-S ) :   1.1377 B( 44-C , 46-C ) :   1.4860
B( 45-S , 59-C ) :   1.1482 B( 46-C , 47-C ) :   0.9321 B( 46-C , 58-C ) :   1.2318
B( 47-C , 48-O ) :   2.2193 B( 47-C , 49-C ) :   0.9920 B( 49-C , 50-C ) :   1.4242
B( 49-C , 55-C ) :   1.2883 B( 50-C , 51-N ) :   1.2351 B( 50-C , 91-H ) :   0.9917
B( 51-N , 52-C ) :   0.9513 B( 51-N , 54-C ) :   1.2347 B( 52-C , 53-C ) :   1.1116
B( 52-C , 92-H ) :   0.9512 B( 52-C , 93-H ) :   0.9510 B( 53-C , 94-H ) :   0.9670
B( 53-C , 95-H ) :   0.9683 B( 53-C , 96-H ) :   0.9673 B( 54-C , 55-C ) :   1.4282
B( 54-C , 97-H ) :   0.9916 B( 55-C , 56-C ) :   0.9810 B( 56-C , 57-O ) :   2.2234
B( 56-C , 58-C ) :   0.9171 B( 58-C , 59-C ) :   1.5575 B( 59-C , 60-C ) :   1.0731
B( 60-C , 61-S ) :   1.1763 B( 60-C , 64-C ) :   1.5326 B( 61-S , 62-C ) :   1.1856
B( 62-C , 63-C ) :   1.5265 B( 62-C , 98-H ) :   0.9721 B( 63-C , 64-C ) :   1.2139
B( 63-C , 68-C ) :   0.9175 B( 64-C , 65-C ) :   0.9335 B( 65-C , 66-O ) :   2.2070
B( 65-C , 67-C ) :   0.9822 B( 67-C , 68-C ) :   0.9815 B( 67-C , 99-H ) :   0.9049
B( 67-C ,100-H ) :   0.8955 B( 68-C , 69-O ) :   2.2744

-----------------------------------------------------------------------------
         ABSORPTION SPECTRUM VIA TRANSITION ELECTRIC DIPOLE MOMENTS
-----------------------------------------------------------------------------
State   Energy  Wavelength   fosc         T2         TX        TY        TZ
        (cm-1)    (nm)                  (au**2)     (au)      (au)      (au)
-----------------------------------------------------------------------------
   0    5704.9   1752.9   0.249532567  14.39975  -0.70224  -3.72116  -0.24401
   1   13462.6    742.8   0.030444706   0.74449   0.42569   0.68771  -0.30055
   2   15664.2    638.4   0.384065658   8.07187   0.99558   2.54697   0.77048
   3   17138.6    583.5   0.008887032   0.17071  -0.09865  -0.22377   0.33302
   4   20704.0    483.0   0.187523517   2.98179  -0.87467  -1.48191   0.14380
   5   21793.0    458.9   0.027280688   0.41211  -0.57637   0.26422  -0.10048
   6   21968.3    455.2   0.022423047   0.33603  -0.05228  -0.57593  -0.04001
   7   22836.7    437.9   0.094555282   1.36310  -0.15239   1.06551   0.45229
   8   24009.5    416.5   0.033277568   0.45629   0.02180  -0.65864   0.14838
   9   24062.7    415.6   0.049042824   0.67098   0.25525  -0.77456   0.07666
  10   24760.1    403.9   0.028244240   0.37554  -0.55687  -0.11137  -0.23029
  11   25108.4    398.3   0.012849621   0.16848  -0.38132   0.12892   0.08031
  12   25222.8    396.5   0.000800463   0.01045  -0.02464   0.04817   0.08672
  13   25351.3    394.5   0.008068289   0.10477  -0.30781  -0.09938  -0.01217
  14   25641.4    390.0   0.012741218   0.16359  -0.01728  -0.33588   0.22466
  15   25928.2    385.7   0.086011869   1.09210  -0.29831  -0.37692   0.92792
  16   26943.9    371.1   0.132447917   1.61831  -0.75660   1.02101  -0.05831
  17   27559.0    362.9   0.010845424   0.12956   0.26094   0.21098   0.13020
  18   27597.2    362.4   0.045460631   0.54231   0.14230   0.66449  -0.28375
  19   27819.8    359.5   0.011118997   0.13158  -0.31515   0.09387  -0.15312
  20   28173.9    354.9   0.028388322   0.33172  -0.09930  -0.38829  -0.41363
  21   28279.8    353.6   0.048572081   0.56544  -0.42201  -0.59341   0.18766
  22   29058.0    344.1   0.022658779   0.25671  -0.01396   0.50302  -0.05904
  23   29414.1    340.0   0.145051729   1.62347   0.64875   1.07525   0.21544
  24   29612.1    337.7   0.067865106   0.75449  -0.62923  -0.52444  -0.28899
  25   29780.5    335.8   0.023067787   0.25501   0.47450  -0.10183   0.13959
  26   29983.1    333.5   0.022697326   0.24921   0.35701   0.34732   0.03358
  27   30157.7    331.6   0.009534044   0.10408  -0.24304   0.15294   0.14702
  28   30277.2    330.3   0.008536720   0.09282   0.03040   0.10480   0.28445
  29   30439.8    328.5   0.007311567   0.07908  -0.08732   0.22650   0.14194
  30   30694.3    325.8   0.013765507   0.14764  -0.18250   0.05174   0.33415
  31   31092.4    321.6   0.392747214   4.15848   1.99813   0.40379  -0.05405
  32   31326.1    319.2   0.087946853   0.92425  -0.88319   0.37887   0.02610
  33   31630.4    316.2   0.023987874   0.24967   0.46564   0.14321  -0.11109
  34   31955.9    312.9   0.061543049   0.63402   0.75108   0.14062   0.22390
  35   32016.8    312.3   0.093149172   0.95780   0.93883  -0.18606   0.20442
  36   32159.5    311.0   0.001430708   0.01465   0.03478  -0.10589  -0.04715
  37   32294.6    309.6   0.125370921   1.27803  -0.27026   1.09710  -0.03691
  38   32581.5    306.9   0.040643158   0.41067  -0.41677   0.48679   0.00361
  39   32858.0    304.3   0.039931933   0.40009   0.61294   0.15616  -0.00229
  40   33267.4    300.6   0.218252139   2.15981   1.32328  -0.20877   0.60429
  41   33341.5    299.9   0.029751646   0.29377  -0.30315   0.44586  -0.05547
  42   33457.8    298.9   0.217157599   2.13675  -1.25644   0.12183  -0.73706
  43   33970.1    294.4   0.075785383   0.73445  -0.77435   0.29391  -0.22013
  44   34161.3    292.7   0.009275426   0.08939   0.13702   0.24485   0.10324
  45   34718.7    288.0   0.021713788   0.20590   0.41303  -0.05038   0.18101
  46   35082.0    285.0   0.017098410   0.16045  -0.37398  -0.11077   0.09124
  47   35221.5    283.9   0.013013978   0.12164   0.08136  -0.05975   0.33384
  48   35393.3    282.5   0.031832743   0.29609   0.07593   0.04741  -0.53673
  49   35676.8    280.3   0.003399085   0.03137  -0.15592   0.05869  -0.06009
  50   35983.0    277.9   0.002606912   0.02385   0.08651  -0.12783  -0.00515
  51   36156.3    276.6   0.034341641   0.31269   0.11995   0.53858  -0.09073
  52   36242.4    275.9   0.022813702   0.20723   0.32668   0.28545  -0.13795
  53   36316.6    275.4   0.000820314   0.00744  -0.02565   0.02777   0.07750
  54   36437.0    274.4   0.021073438   0.19040   0.11671  -0.34438  -0.24122
  55   36531.9    273.7   0.004289305   0.03865   0.00247   0.15990  -0.11437
  56   36552.3    273.6   0.002789763   0.02513   0.07248  -0.13234  -0.04856
  57   36658.3    272.8   0.001708145   0.01534  -0.05188   0.03775  -0.10594
  58   36823.8    271.6   0.009563290   0.08550   0.10310  -0.26626   0.06302
  59   37162.9    269.1   0.078267821   0.69334   0.75969  -0.34077   0.00912
  60   37193.3    268.9   0.044611036   0.39487   0.39448  -0.40829  -0.26936
  61   37555.5    266.3   0.070720876   0.61994   0.73713  -0.14939   0.23295
  62   37966.2    263.4   0.083137825   0.72090   0.63764  -0.54446   0.13370
  63   38376.5    260.6   0.005589189   0.04795   0.10032  -0.17828   0.07811
  64   38501.1    259.7   0.014864476   0.12710   0.10140  -0.32737   0.09825
  65   38726.9    258.2   0.025348849   0.21549   0.08493   0.39574  -0.22730
  66   38855.9    257.4   0.057424183   0.48653  -0.60957   0.31278  -0.13086
  67   39058.1    256.0   0.015394203   0.12975   0.20031  -0.29488   0.05172
  68   39601.1    252.5   0.005961545   0.04956   0.17642   0.00974  -0.13543
  69   39746.2    251.6   0.008003465   0.06629  -0.12929  -0.21946  -0.03756
  70   39814.8    251.2   0.060153048   0.49738   0.39126   0.58527  -0.04184
  71   40263.8    248.4   0.032421257   0.26509   0.32242  -0.39699   0.05943
  72   40297.1    248.2   0.034225053   0.27961   0.52483  -0.02625   0.05887

FINAL SINGLE POINT ENERGY     -4290.599766611674

DIPOLE MOMENT
-------------
                                X             Y             Z
Electronic contribution:     26.12520       5.45254      15.87704
Nuclear contribution   :    -28.15498      -5.85880     -16.62241
                        -----------------------------------------
Total Dipole Moment    :     -2.02978      -0.40627      -0.74537
                        -----------------------------------------
Magnitude (a.u.)       :      2.20014
Magnitude (Debye)      :      5.59232

Rotational constants in cm-1:     0.002054     0.000332     0.000306
Rotational constants in MHz :    61.583984     9.960357     9.183166

                             ****ORCA TERMINATED NORMALLY****
TOTAL RUN TIME: 0 days 0 hours 11 minutes 34 seconds 246 msec
