                         Program Version 4.2.0 -  RELEASE  -
|  1> # ORCA input file
|  2> # SCF done       -177.296470849568          0.000339504272
|  3> ! CAM-B3LYP def2-SVP def2/J RIJCOSX Grid4 TightSCF
|  4> %maxcore 5000
|  5> %tddft
|  6>     Mode sTDDFT
|  7>     Ethresh 5.0
|  8>     maxcore 5000
|  9> end
| 10>
| 11> %pal
| 12>   nprocs 6
| 13>   end
| 14> * xyz 0 1
| 15>    C      -10.95977         9.90119        -1.99854
| 16>    C      -12.29517         9.75302        -1.74181
| 17>    C      -12.85255         9.77257        -0.44435
| 18>    N      -13.36231         9.78454         0.58373
| 19>    C      -13.30228         9.50938        -2.70258
| 20>    N      -14.18705         9.27830        -3.39611
| 21>    C       -9.91642        10.03087        -0.99425
| 22>    C       -8.65765         9.95032        -1.63651
| 23>    C       -7.46927        10.02005        -0.94929
| 24>    C       -7.52478        10.18431         0.43786
| 25>    C       -8.78865        10.27477         1.07131
| 26>    C       -9.98909        10.19993         0.37795
| 27>    S       -8.62880        10.48346         2.78858
| 28>    C       -6.89210        10.44413         2.63591
| 29>    C       -6.45200        10.28401         1.36478
| 30>   Br       -5.82313        10.61686         4.16680
| 31>    C       -8.84260         9.78744        -3.09331
| 32>    O       -7.94961         9.64686        -3.89458
| 33>    C      -10.31872         9.86590        -3.31497
| 34>    C      -10.98592        10.04139        -4.47738
| 35>    C      -10.49714        10.03678        -5.84413
| 36>    N      -11.33680        10.60274        -6.72151
| 37>    C      -10.96491        10.60310        -7.98778
| 38>    C       -9.76306        10.05862        -8.40958
| 39>    C       -8.94232         9.49472        -7.42133
| 40>    N       -9.33975         9.48050        -6.14737
| 41>    C       -7.64416         8.93539        -7.72374
| 42>    C       -6.82882         8.51939        -6.73888
| 43>    C       -5.50002         8.02484        -6.94239
| 44>    C       -4.66593         7.65502        -5.95937
| 45>    C       -5.01682         7.66354        -4.50457
| 46>    C       -3.25188         7.18160        -6.22918
| 47>    N       -2.88706         7.04447        -7.61229
| 48>    C       -2.59936         8.09287        -8.40223
| 49>    C       -2.32937         8.00860        -9.73589
| 50>    C       -2.01456         9.13046       -10.51602
| 51>    C       -1.65630         9.09684       -11.84072
| 52>    C       -1.34872        10.20096       -12.66744
| 53>    C       -0.98388         9.86609       -13.93737
| 54>    C       -0.97364         8.47543       -14.18143
| 55>    S       -1.47215         7.60332       -12.75794
| 56>    C       -0.59754         7.82928       -15.34975
| 57>    C       -0.18754         8.41432       -16.56188
| 58>    C        0.16389         7.50528       -17.52008
| 59>    C        0.04976         6.16208       -17.10924
| 60>    S       -0.53222         6.08244       -15.46645
| 61>    C        0.38928         5.04486       -17.85517
| 62>    C        0.25667         3.74214       -17.40372
| 63>    C        0.65271         2.58131       -18.04446
| 64>    C        0.03913         1.29458       -17.66368
| 65>    O       -0.67254         1.07680       -16.70340
| 66>    C        0.43533         0.34078       -18.72233
| 67>    C        0.06653        -0.96061       -18.89243
| 68>    C        0.55182        -1.67493       -20.01249
| 69>    C        1.41089        -1.01678       -20.93828
| 70>    C        1.88516        -1.73004       -22.05580
| 71>    C        1.51486        -3.03491       -22.22608
| 72>    C        0.67297        -3.70057       -21.32661
| 73>    C        0.20244        -3.02144       -20.23661
| 74>    F        1.96887        -3.71946       -23.29543
| 75>    C        1.78344         0.33323       -20.73007
| 76>    C        1.30719         0.99963       -19.63548
| 77>    C        1.53941         2.36172       -19.14808
| 78>    C        2.57447         3.17295       -19.56310
| 79>    C        2.99488         4.33591       -18.89158
| 80>    N        3.42192         5.26226       -18.36167
| 81>    C        3.41916         2.87557       -20.64784
| 82>    N        4.12453         2.70341       -21.53906
| 83>    H       -6.52496         9.95218        -1.46660
| 84>    H      -10.92510        10.27877         0.90475
| 85>    H       -5.41363        10.23880         1.09162
| 86>    H      -12.04530        10.26322        -4.43851
| 87>    H      -11.65947        11.05909        -8.68220
| 88>    H       -9.46871        10.06716        -9.44666
| 89>    H       -7.35329         8.90126        -8.76537
| 90>    H       -7.20825         8.60140        -5.73264
| 91>    H       -5.16514         7.97874        -7.97187
| 92>    H       -5.75690         8.42396        -4.27588
| 93>    H       -4.12920         7.83731        -3.89917
| 94>    H       -5.43114         6.69604        -4.21872
| 95>    H       -3.10326         6.21599        -5.73541
| 96>    H       -2.56266         7.89633        -5.76076
| 97>    H       -3.04831         6.15344        -8.05723
| 98>    H       -2.55400         9.04970        -7.89892
| 99>    H       -2.34648         7.04309       -10.22341
|100>    H       -2.05053        10.10331       -10.04226
|101>    H       -1.40330        11.20973       -12.29725
|102>    H       -0.71121        10.57737       -14.69553
|103>    H       -0.15857         9.47977       -16.70300
|104>    H        0.51571         7.76177       -18.50320
|105>    H        0.76537         5.23392       -18.85026
|106>    H       -0.29161         3.58594       -16.47900
|107>    H       -0.58846        -1.44296       -18.18225
|108>    H        2.53836        -1.24995       -22.76776
|109>    H        0.41463        -4.73114       -21.51215
|110>    H       -0.44830        -3.51287       -19.52872
|111>    H        2.43250         0.80547       -21.45023
|112> *
|113>
|114>                          ****END OF INPUT****

CARTESIAN COORDINATES (ANGSTROEM)
---------------------------------
  C    -10.959770    9.901190   -1.998540
  C    -12.295170    9.753020   -1.741810
  C    -12.852550    9.772570   -0.444350
  N    -13.362310    9.784540    0.583730
  C    -13.302280    9.509380   -2.702580
  N    -14.187050    9.278300   -3.396110
  C     -9.916420   10.030870   -0.994250
  C     -8.657650    9.950320   -1.636510
  C     -7.469270   10.020050   -0.949290
  C     -7.524780   10.184310    0.437860
  C     -8.788650   10.274770    1.071310
  C     -9.989090   10.199930    0.377950
  S     -8.628800   10.483460    2.788580
  C     -6.892100   10.444130    2.635910
  C     -6.452000   10.284010    1.364780
  Br    -5.823130   10.616860    4.166800
  C     -8.842600    9.787440   -3.093310
  O     -7.949610    9.646860   -3.894580
  C    -10.318720    9.865900   -3.314970
  C    -10.985920   10.041390   -4.477380
  C    -10.497140   10.036780   -5.844130
  N    -11.336800   10.602740   -6.721510
  C    -10.964910   10.603100   -7.987780
  C     -9.763060   10.058620   -8.409580
  C     -8.942320    9.494720   -7.421330
  N     -9.339750    9.480500   -6.147370
  C     -7.644160    8.935390   -7.723740
  C     -6.828820    8.519390   -6.738880
  C     -5.500020    8.024840   -6.942390
  C     -4.665930    7.655020   -5.959370
  C     -5.016820    7.663540   -4.504570
  C     -3.251880    7.181600   -6.229180
  N     -2.887060    7.044470   -7.612290
  C     -2.599360    8.092870   -8.402230
  C     -2.329370    8.008600   -9.735890
  C     -2.014560    9.130460  -10.516020
  C     -1.656300    9.096840  -11.840720
  C     -1.348720   10.200960  -12.667440
  C     -0.983880    9.866090  -13.937370
  C     -0.973640    8.475430  -14.181430
  S     -1.472150    7.603320  -12.757940
  C     -0.597540    7.829280  -15.349750
  C     -0.187540    8.414320  -16.561880
  C      0.163890    7.505280  -17.520080
  C      0.049760    6.162080  -17.109240
  S     -0.532220    6.082440  -15.466450
  C      0.389280    5.044860  -17.855170
  C      0.256670    3.742140  -17.403720
  C      0.652710    2.581310  -18.044460
  C      0.039130    1.294580  -17.663680
  O     -0.672540    1.076800  -16.703400
  C      0.435330    0.340780  -18.722330
  C      0.066530   -0.960610  -18.892430
  C      0.551820   -1.674930  -20.012490
  C      1.410890   -1.016780  -20.938280
  C      1.885160   -1.730040  -22.055800
  C      1.514860   -3.034910  -22.226080
  C      0.672970   -3.700570  -21.326610
  C      0.202440   -3.021440  -20.236610
  F      1.968870   -3.719460  -23.295430
  C      1.783440    0.333230  -20.730070
  C      1.307190    0.999630  -19.635480
  C      1.539410    2.361720  -19.148080
  C      2.574470    3.172950  -19.563100
  C      2.994880    4.335910  -18.891580
  N      3.421920    5.262260  -18.361670
  C      3.419160    2.875570  -20.647840
  N      4.124530    2.703410  -21.539060
  H     -6.524960    9.952180   -1.466600
  H    -10.925100   10.278770    0.904750
  H     -5.413630   10.238800    1.091620
  H    -12.045300   10.263220   -4.438510
  H    -11.659470   11.059090   -8.682200
  H     -9.468710   10.067160   -9.446660
  H     -7.353290    8.901260   -8.765370
  H     -7.208250    8.601400   -5.732640
  H     -5.165140    7.978740   -7.971870
  H     -5.756900    8.423960   -4.275880
  H     -4.129200    7.837310   -3.899170
  H     -5.431140    6.696040   -4.218720
  H     -3.103260    6.215990   -5.735410
  H     -2.562660    7.896330   -5.760760
  H     -3.048310    6.153440   -8.057230
  H     -2.554000    9.049700   -7.898920
  H     -2.346480    7.043090  -10.223410
  H     -2.050530   10.103310  -10.042260
  H     -1.403300   11.209730  -12.297250
  H     -0.711210   10.577370  -14.695530
  H     -0.158570    9.479770  -16.703000
  H      0.515710    7.761770  -18.503200
  H      0.765370    5.233920  -18.850260
  H     -0.291610    3.585940  -16.479000
  H     -0.588460   -1.442960  -18.182250
  H      2.538360   -1.249950  -22.767760
  H      0.414630   -4.731140  -21.512150
  H     -0.448300   -3.512870  -19.528720
  H      2.432500    0.805470  -21.450230

 Total Charge           Charge          ....    0
 Multiplicity           Mult            ....    1
 Number of Electrons    NEL             ....  510
 Basis Dimension        Dim             .... 1127

ORBITAL ENERGIES
----------------

  NO   OCC          E(Eh)            E(eV)
   0   2.0000    -482.896620    -13140.2851
   1   2.0000     -88.987569     -2421.4748
   2   2.0000     -88.958861     -2420.6937
   3   2.0000     -88.949682     -2420.4439
   4   2.0000     -62.574325     -1702.7340
   5   2.0000     -56.408287     -1534.9475
   6   2.0000     -56.405549     -1534.8730
   7   2.0000     -56.405524     -1534.8723
   8   2.0000     -24.766358      -673.9269
   9   2.0000     -19.231482      -523.3152
  10   2.0000     -19.180169      -521.9189
  11   2.0000     -14.470861      -393.7722
  12   2.0000     -14.427829      -392.6012
  13   2.0000     -14.425144      -392.5281
  14   2.0000     -14.421010      -392.4156
  15   2.0000     -14.417309      -392.3149
  16   2.0000     -14.384691      -391.4274
  17   2.0000     -14.382557      -391.3693
  18   2.0000     -10.384824      -282.5854
  19   2.0000     -10.371414      -282.2205
  20   2.0000     -10.357768      -281.8492
  21   2.0000     -10.357752      -281.8488
  22   2.0000     -10.354127      -281.7501
  23   2.0000     -10.351998      -281.6922
  24   2.0000     -10.347973      -281.5827
  25   2.0000     -10.342134      -281.4238
  26   2.0000     -10.338821      -281.3336
  27   2.0000     -10.338061      -281.3129
  28   2.0000     -10.331828      -281.1433
  29   2.0000     -10.330946      -281.1193
  30   2.0000     -10.330944      -281.1193
  31   2.0000     -10.329774      -281.0874
  32   2.0000     -10.326812      -281.0068
  33   2.0000     -10.321905      -280.8733
  34   2.0000     -10.321648      -280.8663
  35   2.0000     -10.321196      -280.8540
  36   2.0000     -10.319166      -280.7988
  37   2.0000     -10.318574      -280.7827
  38   2.0000     -10.315266      -280.6926
  39   2.0000     -10.314864      -280.6817
  40   2.0000     -10.311335      -280.5857
  41   2.0000     -10.310767      -280.5702
  42   2.0000     -10.308900      -280.5194
  43   2.0000     -10.308108      -280.4979
  44   2.0000     -10.307211      -280.4735
  45   2.0000     -10.306147      -280.4445
  46   2.0000     -10.306009      -280.4408
  47   2.0000     -10.305181      -280.4182
  48   2.0000     -10.301974      -280.3310
  49   2.0000     -10.298707      -280.2421
  50   2.0000     -10.293375      -280.0970
  51   2.0000     -10.291782      -280.0536
  52   2.0000     -10.289424      -279.9894
  53   2.0000     -10.286857      -279.9196
  54   2.0000     -10.285113      -279.8722
  55   2.0000     -10.284879      -279.8658
  56   2.0000     -10.283344      -279.8240
  57   2.0000     -10.283322      -279.8234
  58   2.0000     -10.282395      -279.7982
  59   2.0000     -10.281913      -279.7851
  60   2.0000     -10.281210      -279.7660
  61   2.0000     -10.278257      -279.6856
  62   2.0000     -10.277143      -279.6553
  63   2.0000     -10.276876      -279.6480
  64   2.0000     -10.276684      -279.6428
  65   2.0000     -10.273664      -279.5606
  66   2.0000     -10.273494      -279.5560
  67   2.0000     -10.270940      -279.4865
  68   2.0000     -10.267864      -279.4028
  69   2.0000     -10.263481      -279.2835
  70   2.0000     -10.262236      -279.2496
  71   2.0000     -10.256983      -279.1067
  72   2.0000      -8.803753      -239.5623
  73   2.0000      -8.083568      -219.9651
  74   2.0000      -8.055027      -219.1884
  75   2.0000      -8.045855      -218.9389
  76   2.0000      -6.640102      -180.6864
  77   2.0000      -6.625484      -180.2886
  78   2.0000      -6.625232      -180.2817
  79   2.0000      -6.053267      -164.7178
  80   2.0000      -6.048968      -164.6008
  81   2.0000      -6.044779      -164.4868
  82   2.0000      -6.024650      -163.9391
  83   2.0000      -6.020661      -163.8305
  84   2.0000      -6.016144      -163.7076
  85   2.0000      -6.015381      -163.6868
  86   2.0000      -6.011441      -163.5796
  87   2.0000      -6.007118      -163.4620
  88   2.0000      -2.755958       -74.9934
  89   2.0000      -2.751860       -74.8819
  90   2.0000      -2.751703       -74.8776
  91   2.0000      -2.740064       -74.5609
  92   2.0000      -2.740054       -74.5607
  93   2.0000      -1.280353       -34.8402
  94   2.0000      -1.148054       -31.2401
  95   2.0000      -1.095175       -29.8012
  96   2.0000      -1.094053       -29.7707
  97   2.0000      -1.071332       -29.1524
  98   2.0000      -1.035718       -28.1833
  99   2.0000      -1.025094       -27.8942
 100   2.0000      -1.004566       -27.3356
 101   2.0000      -1.003457       -27.3055
 102   2.0000      -1.002030       -27.2666
 103   2.0000      -0.992730       -27.0136
 104   2.0000      -0.987783       -26.8789
 105   2.0000      -0.979347       -26.6494
 106   2.0000      -0.973126       -26.4801
 107   2.0000      -0.962791       -26.1989
 108   2.0000      -0.955974       -26.0134
 109   2.0000      -0.949017       -25.8241
 110   2.0000      -0.938512       -25.5382
 111   2.0000      -0.926680       -25.2162
 112   2.0000      -0.920720       -25.0541
 113   2.0000      -0.916635       -24.9429
 114   2.0000      -0.903492       -24.5853
 115   2.0000      -0.898991       -24.4628
 116   2.0000      -0.897215       -24.4145
 117   2.0000      -0.888785       -24.1851
 118   2.0000      -0.878027       -23.8923
 119   2.0000      -0.868609       -23.6361
 120   2.0000      -0.862323       -23.4650
 121   2.0000      -0.856440       -23.3049
 122   2.0000      -0.855082       -23.2680
 123   2.0000      -0.848718       -23.0948
 124   2.0000      -0.841728       -22.9046
 125   2.0000      -0.830837       -22.6082
 126   2.0000      -0.825529       -22.4638
 127   2.0000      -0.810699       -22.0602
 128   2.0000      -0.806643       -21.9499
 129   2.0000      -0.800723       -21.7888
 130   2.0000      -0.795192       -21.6383
 131   2.0000      -0.783277       -21.3140
 132   2.0000      -0.773319       -21.0431
 133   2.0000      -0.760034       -20.6816
 134   2.0000      -0.753312       -20.4987
 135   2.0000      -0.741432       -20.1754
 136   2.0000      -0.736487       -20.0408
 137   2.0000      -0.730021       -19.8649
 138   2.0000      -0.712010       -19.3748
 139   2.0000      -0.711156       -19.3515
 140   2.0000      -0.703371       -19.1397
 141   2.0000      -0.696381       -18.9495
 142   2.0000      -0.686499       -18.6806
 143   2.0000      -0.684923       -18.6377
 144   2.0000      -0.683679       -18.6038
 145   2.0000      -0.677065       -18.4239
 146   2.0000      -0.669754       -18.2249
 147   2.0000      -0.662573       -18.0295
 148   2.0000      -0.650788       -17.7088
 149   2.0000      -0.648565       -17.6484
 150   2.0000      -0.641600       -17.4588
 151   2.0000      -0.638300       -17.3690
 152   2.0000      -0.636719       -17.3260
 153   2.0000      -0.628402       -17.0997
 154   2.0000      -0.620305       -16.8794
 155   2.0000      -0.617482       -16.8025
 156   2.0000      -0.613404       -16.6916
 157   2.0000      -0.611036       -16.6271
 158   2.0000      -0.607806       -16.5392
 159   2.0000      -0.605362       -16.4727
 160   2.0000      -0.603657       -16.4264
 161   2.0000      -0.596468       -16.2307
 162   2.0000      -0.592634       -16.1264
 163   2.0000      -0.590204       -16.0603
 164   2.0000      -0.580607       -15.7991
 165   2.0000      -0.568544       -15.4709
 166   2.0000      -0.568100       -15.4588
 167   2.0000      -0.561320       -15.2743
 168   2.0000      -0.558550       -15.1989
 169   2.0000      -0.555569       -15.1178
 170   2.0000      -0.554566       -15.0905
 171   2.0000      -0.550550       -14.9812
 172   2.0000      -0.543274       -14.7832
 173   2.0000      -0.539725       -14.6867
 174   2.0000      -0.538865       -14.6633
 175   2.0000      -0.538455       -14.6521
 176   2.0000      -0.538280       -14.6474
 177   2.0000      -0.535318       -14.5668
 178   2.0000      -0.531144       -14.4532
 179   2.0000      -0.528306       -14.3759
 180   2.0000      -0.527409       -14.3515
 181   2.0000      -0.522163       -14.2088
 182   2.0000      -0.520452       -14.1622
 183   2.0000      -0.518741       -14.1156
 184   2.0000      -0.511539       -13.9197
 185   2.0000      -0.509332       -13.8596
 186   2.0000      -0.506455       -13.7813
 187   2.0000      -0.505426       -13.7533
 188   2.0000      -0.503714       -13.7068
 189   2.0000      -0.503068       -13.6892
 190   2.0000      -0.501057       -13.6345
 191   2.0000      -0.500746       -13.6260
 192   2.0000      -0.496766       -13.5177
 193   2.0000      -0.494263       -13.4496
 194   2.0000      -0.491508       -13.3746
 195   2.0000      -0.489754       -13.3269
 196   2.0000      -0.487953       -13.2779
 197   2.0000      -0.484746       -13.1906
 198   2.0000      -0.482588       -13.1319
 199   2.0000      -0.476900       -12.9771
 200   2.0000      -0.474756       -12.9188
 201   2.0000      -0.472437       -12.8557
 202   2.0000      -0.470968       -12.8157
 203   2.0000      -0.468857       -12.7582
 204   2.0000      -0.468065       -12.7367
 205   2.0000      -0.462957       -12.5977
 206   2.0000      -0.460207       -12.5229
 207   2.0000      -0.458725       -12.4825
 208   2.0000      -0.458111       -12.4658
 209   2.0000      -0.454198       -12.3594
 210   2.0000      -0.453634       -12.3440
 211   2.0000      -0.450475       -12.2580
 212   2.0000      -0.446774       -12.1574
 213   2.0000      -0.443642       -12.0721
 214   2.0000      -0.441345       -12.0096
 215   2.0000      -0.438712       -11.9380
 216   2.0000      -0.436495       -11.8776
 217   2.0000      -0.435684       -11.8556
 218   2.0000      -0.433048       -11.7838
 219   2.0000      -0.431511       -11.7420
 220   2.0000      -0.426956       -11.6181
 221   2.0000      -0.426572       -11.6076
 222   2.0000      -0.421561       -11.4713
 223   2.0000      -0.418347       -11.3838
 224   2.0000      -0.416367       -11.3299
 225   2.0000      -0.414218       -11.2714
 226   2.0000      -0.409534       -11.1440
 227   2.0000      -0.404092       -10.9959
 228   2.0000      -0.403256       -10.9731
 229   2.0000      -0.401262       -10.9189
 230   2.0000      -0.397067       -10.8047
 231   2.0000      -0.395690       -10.7673
 232   2.0000      -0.393924       -10.7192
 233   2.0000      -0.390776       -10.6335
 234   2.0000      -0.388816       -10.5802
 235   2.0000      -0.385747       -10.4967
 236   2.0000      -0.383861       -10.4454
 237   2.0000      -0.373774       -10.1709
 238   2.0000      -0.371061       -10.0971
 239   2.0000      -0.358583        -9.7575
 240   2.0000      -0.357288        -9.7223
 241   2.0000      -0.351245        -9.5579
 242   2.0000      -0.344045        -9.3620
 243   2.0000      -0.330532        -8.9942
 244   2.0000      -0.327925        -8.9233
 245   2.0000      -0.327339        -8.9073
 246   2.0000      -0.320952        -8.7336
 247   2.0000      -0.318675        -8.6716
 248   2.0000      -0.305543        -8.3143
 249   2.0000      -0.305253        -8.3063
 250   2.0000      -0.294179        -8.0050
 251   2.0000      -0.289074        -7.8661
 252   2.0000      -0.278072        -7.5667
 253   2.0000      -0.268418        -7.3040
 254   2.0000      -0.211853        -5.7648
 255   0.0000      -0.102466        -2.7883
 256   0.0000      -0.094331        -2.5669
 257   0.0000      -0.071667        -1.9502
 258   0.0000      -0.049574        -1.3490
 259   0.0000      -0.043408        -1.1812

MULLIKEN ATOMIC CHARGES
-----------------------
   0 C :    0.288959
   1 C :   -0.331479
   2 C :   -0.186105
   3 N :    0.155317
   4 C :   -0.199735
   5 N :    0.179198
   6 C :    0.018757
   7 C :   -0.016824
   8 C :   -0.073013
   9 C :    0.120605
  10 C :   -0.089409
  11 C :   -0.015031
  12 S :    0.193627
  13 C :   -0.123549
  14 C :    0.036365
  15 Br:    0.031071
  16 C :    0.157272
  17 O :   -0.110282
  18 C :   -0.025817
  19 C :    0.025182
  20 C :   -0.113890
  21 N :   -0.065684
  22 C :    0.081115
  23 C :   -0.034554
  24 C :    0.052368
  25 N :   -0.015326
  26 C :   -0.030486
  27 C :    0.049801
  28 C :    0.012502
  29 C :   -0.209904
  30 C :    0.071749
  31 C :    0.189338
  32 N :   -0.136618
  33 C :    0.076026
  34 C :   -0.030965
  35 C :    0.010704
  36 C :   -0.051234
  37 C :    0.054619
  38 C :    0.008296
  39 C :   -0.022034
  40 S :    0.094585
  41 C :   -0.071595
  42 C :    0.037490
  43 C :    0.032168
  44 C :   -0.012570
  45 S :    0.104229
  46 C :   -0.009178
  47 C :    0.022406
  48 C :   -0.139033
  49 C :    0.136600
  50 O :   -0.168576
  51 C :    0.006527
  52 C :   -0.094702
  53 C :    0.104148
  54 C :    0.104359
  55 C :   -0.104107
  56 C :    0.302078
  57 C :   -0.032809
  58 C :   -0.016445
  59 F :   -0.198505
  60 C :   -0.097437
  61 C :    0.045147
  62 C :    0.293097
  63 C :   -0.357504
  64 C :   -0.222837
  65 N :    0.149990
  66 C :   -0.178721
  67 N :    0.122450
  68 H :   -0.016081
  69 H :   -0.003279
  70 H :   -0.003382
  71 H :    0.029723
  72 H :    0.013044
  73 H :   -0.001002
  74 H :   -0.027369
  75 H :    0.026348
  76 H :   -0.019749
  77 H :    0.046838
  78 H :    0.007065
  79 H :    0.038562
  80 H :    0.033177
  81 H :    0.033922
  82 H :    0.134170
  83 H :    0.018165
  84 H :   -0.003631
  85 H :   -0.009334
  86 H :   -0.008862
  87 H :   -0.010410
  88 H :   -0.009004
  89 H :   -0.004287
  90 H :    0.005199
  91 H :    0.007166
  92 H :   -0.021769
  93 H :   -0.006251
  94 H :   -0.004880
  95 H :   -0.015874
  96 H :   -0.010401
Sum of atomic charges:   -0.0000000

LOEWDIN ATOMIC CHARGES
----------------------
   0 C :    0.072994
   1 C :   -0.124677
   2 C :   -0.016728
   3 N :   -0.043976
   4 C :   -0.027416
   5 N :   -0.033110
   6 C :   -0.022016
   7 C :   -0.052203
   8 C :    0.020123
   9 C :   -0.030710
  10 C :   -0.141877
  11 C :   -0.007369
  12 S :    0.437784
  13 C :   -0.268797
  14 C :   -0.072131
  15 Br:    0.142466
  16 C :    0.089720
  17 O :   -0.115240
  18 C :   -0.061779
  19 C :    0.068009
  20 C :    0.008909
  21 N :   -0.083175
  22 C :    0.048847
  23 C :   -0.050306
  24 C :    0.040021
  25 N :   -0.056980
  26 C :   -0.056716
  27 C :    0.028965
  28 C :   -0.060911
  29 C :   -0.023637
  30 C :   -0.051382
  31 C :    0.037826
  32 N :    0.021153
  33 C :    0.072504
  34 C :   -0.125347
  35 C :   -0.000209
  36 C :   -0.187884
  37 C :   -0.006565
  38 C :   -0.056689
  39 C :   -0.137098
  40 S :    0.387033
  41 C :   -0.210903
  42 C :   -0.006586
  43 C :   -0.049318
  44 C :   -0.097313
  45 S :    0.400893
  46 C :   -0.079702
  47 C :    0.050150
  48 C :   -0.120834
  49 C :    0.074651
  50 O :   -0.171244
  51 C :   -0.054152
  52 C :    0.022920
  53 C :   -0.021777
  54 C :    0.000906
  55 C :   -0.044415
  56 C :    0.088245
  57 C :   -0.045197
  58 C :    0.000349
  59 F :   -0.072534
  60 C :    0.002243
  61 C :   -0.012421
  62 C :    0.066852
  63 C :   -0.164873
  64 C :   -0.023901
  65 N :   -0.073245
  66 C :   -0.019565
  67 N :   -0.077739
  68 H :    0.038428
  69 H :    0.041911
  70 H :    0.038601
  71 H :    0.051560
  72 H :    0.029471
  73 H :    0.035434
  74 H :    0.024054
  75 H :    0.034584
  76 H :    0.023087
  77 H :    0.037891
  78 H :    0.027587
  79 H :    0.043674
  80 H :    0.038939
  81 H :    0.036824
  82 H :    0.088052
  83 H :    0.034788
  84 H :    0.022695
  85 H :    0.036098
  86 H :    0.035349
  87 H :    0.032824
  88 H :    0.033692
  89 H :    0.037670
  90 H :    0.036762
  91 H :    0.031994
  92 H :    0.035463
  93 H :    0.041410
  94 H :    0.038261
  95 H :    0.032716
  96 H :    0.037266

  Mayer bond orders larger than 0.100000
B(  0-C ,  1-C ) :   1.6675 B(  0-C ,  6-C ) :   1.0110 B(  0-C , 18-C ) :   1.0354
B(  1-C ,  2-C ) :   1.1376 B(  1-C ,  4-C ) :   1.1325 B(  2-C ,  3-N ) :   2.9745
B(  4-C ,  5-N ) :   2.9992 B(  6-C ,  7-C ) :   1.2725 B(  6-C , 11-C ) :   1.3978
B(  7-C ,  8-C ) :   1.4159 B(  7-C , 16-C ) :   0.9464 B(  8-C ,  9-C ) :   1.2562
B(  8-C , 68-H ) :   1.0182 B(  9-C , 10-C ) :   1.2960 B(  9-C , 14-C ) :   1.1613
B( 10-C , 11-C ) :   1.3403 B( 10-C , 12-S ) :   1.0876 B( 11-C , 69-H ) :   0.9814
B( 12-S , 13-C ) :   1.0875 B( 13-C , 14-C ) :   1.6179 B( 13-C , 15-Br) :   1.0233
B( 14-C , 70-H ) :   1.0009 B( 16-C , 17-O ) :   2.1938 B( 16-C , 18-C ) :   0.9151
B( 18-C , 19-C ) :   1.6685 B( 19-C , 20-C ) :   1.0227 B( 19-C , 71-H ) :   0.9398
B( 20-C , 21-N ) :   1.5307 B( 20-C , 25-N ) :   1.5784 B( 21-N , 22-C ) :   1.5469
B( 22-C , 23-C ) :   1.3739 B( 22-C , 72-H ) :   0.9802 B( 23-C , 24-C ) :   1.3195
B( 23-C , 73-H ) :   0.9767 B( 24-C , 25-N ) :   1.5038 B( 24-C , 26-C ) :   1.0579
B( 26-C , 27-C ) :   1.7219 B( 26-C , 74-H ) :   0.9858 B( 27-C , 28-C ) :   1.0792
B( 27-C , 75-H ) :   0.9606 B( 28-C , 29-C ) :   1.7867 B( 28-C , 76-H ) :   0.9643
B( 29-C , 30-C ) :   1.0791 B( 29-C , 31-C ) :   0.9948 B( 30-C , 77-H ) :   0.9405
B( 30-C , 78-H ) :   0.9523 B( 30-C , 79-H ) :   0.9445 B( 31-C , 32-N ) :   1.0322
B( 31-C , 80-H ) :   0.9396 B( 31-C , 81-H ) :   0.9252 B( 32-N , 33-C ) :   1.2608
B( 32-N , 82-H ) :   0.9368 B( 33-C , 34-C ) :   1.5435 B( 33-C , 83-H ) :   0.9710
B( 34-C , 35-C ) :   1.2138 B( 34-C , 84-H ) :   0.9634 B( 35-C , 36-C ) :   1.5379
B( 35-C , 85-H ) :   0.9801 B( 36-C , 37-C ) :   1.1728 B( 36-C , 40-S ) :   1.0108
B( 37-C , 38-C ) :   1.5527 B( 37-C , 86-H ) :   0.9990 B( 38-C , 39-C ) :   1.2204
B( 38-C , 87-H ) :   0.9944 B( 39-C , 40-S ) :   1.0979 B( 39-C , 41-C ) :   1.4306
B( 41-C , 42-C ) :   1.2485 B( 41-C , 45-S ) :   1.0369 B( 42-C , 43-C ) :   1.5095
B( 42-C , 88-H ) :   0.9945 B( 43-C , 44-C ) :   1.2151 B( 43-C , 89-H ) :   0.9999
B( 44-C , 45-S ) :   1.1004 B( 44-C , 46-C ) :   1.4424 B( 46-C , 47-C ) :   1.2817
B( 46-C , 90-H ) :   0.9615 B( 47-C , 48-C ) :   1.4591 B( 47-C , 91-H ) :   0.9415
B( 48-C , 49-C ) :   0.9792 B( 48-C , 62-C ) :   1.1238 B( 49-C , 50-O ) :   2.2404
B( 49-C , 51-C ) :   0.9143 B( 51-C , 52-C ) :   1.4837 B( 51-C , 61-C ) :   1.2179
B( 52-C , 53-C ) :   1.1764 B( 52-C , 92-H ) :   1.0156 B( 53-C , 54-C ) :   1.2642
B( 53-C , 58-C ) :   1.2401 B( 54-C , 55-C ) :   1.2046 B( 54-C , 60-C ) :   1.1900
B( 55-C , 56-C ) :   1.4379 B( 55-C , 93-H ) :   1.0072 B( 56-C , 57-C ) :   1.2605
B( 56-C , 59-F ) :   1.0799 B( 57-C , 58-C ) :   1.4526 B( 57-C , 94-H ) :   0.9925
B( 58-C , 95-H ) :   0.9966 B( 60-C , 61-C ) :   1.4739 B( 60-C , 96-H ) :   0.9926
B( 61-C , 62-C ) :   0.9839 B( 62-C , 63-C ) :   1.5685 B( 63-C , 64-C ) :   1.1700
B( 63-C , 66-C ) :   1.1428 B( 64-C , 65-N ) :   3.0118 B( 66-C , 67-N ) :   2.9648

-----------------------------------------------------------------------------
         ABSORPTION SPECTRUM VIA TRANSITION ELECTRIC DIPOLE MOMENTS
-----------------------------------------------------------------------------
State   Energy  Wavelength   fosc         T2         TX        TY        TZ
        (cm-1)    (nm)                  (au**2)     (au)      (au)      (au)
-----------------------------------------------------------------------------
   0   11971.8    835.3   1.511632034  41.56839   2.16653  -3.51702  -4.95026
   1   16812.6    594.8   0.000020063   0.00039  -0.01567  -0.00111  -0.01208
   2   21975.6    455.1   0.027218603   0.40776  -0.20913  -0.08200  -0.59774
   3   23209.6    430.9   0.001190793   0.01689   0.12400   0.03829  -0.00703
   4   23276.9    429.6   0.001450730   0.02052  -0.12906  -0.04568   0.04214
   5   23829.5    419.6   0.067356276   0.93055   0.25281  -0.19545   0.91018
   6   24812.6    403.0   0.019690712   0.26125   0.15583   0.22384  -0.43228
   7   25370.4    394.2   0.124035865   1.60952   0.16291   0.62595  -1.09140
   8   25602.6    390.6   0.069839307   0.89803  -0.03287  -0.11921   0.93954
   9   27035.8    369.9   0.202102762   2.46098  -0.36748  -1.34026   0.72777
  10   27359.3    365.5   0.175614876   2.11316  -0.73985  -1.17196   0.43852
  11   27381.0    365.2   0.238620084   2.86901  -1.35981   0.01646  -1.00979
  12   28735.5    348.0   0.064327342   0.73697   0.36236   0.77777   0.02737
  13   29162.4    342.9   0.040172760   0.45351   0.09971   0.08170   0.66098
  14   29356.2    340.6   0.004736132   0.05311   0.02548  -0.01273  -0.22869
  15   29778.8    335.8   0.012256919   0.13550   0.30862   0.00556  -0.20057
  16   30429.6    328.6   0.182978207   1.97960   0.45359  -0.02426  -1.33164
  17   30872.9    323.9   0.036874871   0.39321   0.16766   0.57323  -0.19109
  18   31506.2    317.4   0.024852073   0.25968   0.43011   0.22991  -0.14774
  19   31681.8    315.6   0.018368585   0.19087  -0.36969   0.13273   0.19126
  20   32026.5    312.2   0.062184588   0.63922   0.09162  -0.75771   0.23813
  21   32255.8    310.0   0.213481818   2.17886   0.49173   1.38655  -0.12059
  22   32659.5    306.2   0.199084288   2.00680   0.31511   0.44809   1.30641
  23   32959.8    303.4   0.006874243   0.06866  -0.00489  -0.00600   0.26192
  24   33039.1    302.7   0.357555315   3.56279  -1.11840  -0.23201  -1.50271
  25   33144.8    301.7   0.004704691   0.04673   0.16837   0.02188   0.13380
  26   33418.5    299.2   0.409780574   4.03683  -1.98363  -0.09981   0.30345
  27   33606.9    297.6   0.050545274   0.49514   0.08652   0.64278   0.27293
  28   33825.9    295.6   0.000318495   0.00310   0.04670  -0.00180  -0.03025
  29   34000.1    294.1   0.405012980   3.92161   0.32787   1.84910   0.62845
  30   35050.9    285.3   0.181246356   1.70234   0.83241   0.78305  -0.62949
  31   35606.5    280.8   0.002546402   0.02354  -0.03812   0.12639   0.07821
  32   35778.2    279.5   0.004702215   0.04327  -0.06234   0.15073   0.12908
  33   36268.0    275.7   0.185207562   1.68116   0.46718  -0.62025  -1.03836
  34   36578.4    273.4   0.010414768   0.09373  -0.11806   0.28054  -0.03308
  35   37093.7    269.6   0.041237828   0.36599  -0.31450   0.36541  -0.36546
  36   37668.6    265.5   0.126898168   1.10905   0.24498  -0.98528  -0.27976
  37   37935.5    263.6   0.282801181   2.45421   1.51222   0.40697   0.04210
  38   38282.6    261.2   0.186171664   1.60099   0.18731  -1.19121   0.38329
  39   38439.8    260.1   0.329241280   2.81974  -1.65143   0.20178   0.22762
  40   38788.1    257.8   0.682957182   5.79656  -1.11579   0.47540  -2.07980
  41   38852.0    257.4   0.002581202   0.02187   0.08400  -0.02522   0.11908
  42   39028.2    256.2   0.041490083   0.34998   0.55188  -0.18413   0.10727
  43   39442.5    253.5   0.004404736   0.03676   0.16594  -0.03788   0.08829
  44   39771.8    251.4   0.000116583   0.00097  -0.01003   0.02443  -0.01636
  45   39925.6    250.5   0.005564693   0.04588   0.01388  -0.01791   0.21301
  46   40137.9    249.1   0.158974882   1.30392  -0.45699  -0.65597   0.81533
  47   40307.6    248.1   0.000789943   0.00645   0.05732  -0.00060   0.05626

FINAL SINGLE POINT ENERGY     -6473.372171090785

DIPOLE MOMENT
-------------
                                X             Y             Z
Electronic contribution:    -26.30300      31.38406     149.15557
Nuclear contribution   :     24.87144     -27.98034    -143.33812
                        -----------------------------------------
Total Dipole Moment    :     -1.43156       3.40372       5.81745
                        -----------------------------------------
Magnitude (a.u.)       :      6.89038
Magnitude (Debye)      :     17.51396

Rotational constants in cm-1:     0.001532     0.000153     0.000151
Rotational constants in MHz :    45.926570     4.582652     4.519851

                             ****ORCA TERMINATED NORMALLY****
TOTAL RUN TIME: 0 days 0 hours 8 minutes 8 seconds 989 msec
