                         Program Version 4.2.0 -  RELEASE  -
|  1> # ORCA input file
|  2> # SCF done       -198.765213070450          0.000484509964
|  3> ! CAM-B3LYP def2-SVP def2/J RIJCOSX Grid4 TightSCF
|  4> %maxcore 5000
|  5> %tddft
|  6>     Mode sTDDFT
|  7>     Ethresh 5.0
|  8>     maxcore 5000
|  9> end
| 10>
| 11> %pal
| 12>   nprocs 6
| 13>   end
| 14> * xyz 0 1
| 15>    C       -2.45046        -1.28529         0.27043
| 16>    C       -2.71908        -2.24990         1.20641
| 17>    C       -1.87482        -3.34473         1.48186
| 18>    N       -1.22591        -4.25422         1.74463
| 19>    C       -3.87507        -2.26240         2.01320
| 20>    N       -4.80272        -2.30625         2.68790
| 21>    C       -1.26615        -1.22656        -0.58337
| 22>    C       -1.34587        -0.06987        -1.40244
| 23>    C       -0.37486         0.25953        -2.31739
| 24>    C        0.72695        -0.59379        -2.43551
| 25>    C        0.79741        -1.74633        -1.61669
| 26>    C       -0.18351        -2.07733        -0.68797
| 27>    S        2.23759        -2.66384        -1.92839
| 28>    C        2.72061        -1.50479        -3.13827
| 29>    C        1.84851        -0.48074        -3.30099
| 30>   Br        4.32601        -1.75619        -4.07370
| 31>    C       -2.59134         0.63885        -1.09714
| 32>    O       -3.00200         1.67976        -1.61036
| 33>    C       -3.26772        -0.14018        -0.05908
| 34>    C       -4.49305         0.23866         0.43989
| 35>    N       -5.07744         1.34633        -0.02725
| 36>    C       -6.28081         1.87105         0.30720
| 37>    S       -7.31715         1.13034         1.48453
| 38>    C       -8.48025         2.38647         1.20812
| 39>    N       -9.67340         2.34609         1.94648
| 40>    O      -10.48704         3.22735         1.74909
| 41>    O       -9.80070         1.42286         2.72932
| 42>    C       -8.09392         3.30759         0.27389
| 43>    C       -6.81935         3.03599        -0.26428
| 44>    C       -6.12357         3.80970        -1.25093
| 45>    C       -6.62452         4.89475        -1.88427
| 46>    C       -5.94334         5.68157        -2.85295
| 47>    S       -6.61042         7.24263        -3.22631
| 48>    C       -5.30321         7.61348        -4.32189
| 49>    C       -4.40294         6.54525        -4.38314
| 50>    C       -4.78143         5.45468        -3.58799
| 51>    C       -4.03843         4.15650        -3.62760
| 52>    C       -3.17583         4.06563        -4.88213
| 53>    C       -2.28339         5.30867        -4.97798
| 54>    N       -1.27620         5.26585        -6.02104
| 55>    C       -3.16089         6.54204        -5.21424
| 56>    C       -5.35846         8.86170        -4.97409
| 57>    C       -4.44342         9.41203        -5.83006
| 58>    C       -4.61381        10.66384        -6.43190
| 59>    C       -3.65703        11.25937        -7.22308
| 60>    C       -3.73710        12.50375        -7.88724
| 61>    C       -2.60683        12.84709        -8.57030
| 62>    C       -1.57004        11.89490        -8.47050
| 63>    S       -2.08200        10.53403        -7.51045
| 64>    C       -0.28810        11.96958        -8.99484
| 65>    C        0.26693        12.98809        -9.79373
| 66>    C        1.57929        12.78153       -10.11135
| 67>    C        2.12168        11.59396        -9.57534
| 68>    S        0.90619        10.73474        -8.66418
| 69>    C        3.43185        11.16321        -9.68548
| 70>    C        3.90354         9.98681        -9.11851
| 71>    C        5.20266         9.52194        -9.08009
| 72>    C        6.45865        10.16719        -9.33762
| 73>    C        6.74217        11.51121        -9.23347
| 74>    C        8.01080        12.06835        -9.48069
| 75>    N        9.01568        12.58283        -9.69454
| 76>    C        5.84087        12.48144        -8.75536
| 77>    N        5.17264        13.31077        -8.32409
| 78>    C        7.46354         9.11654        -9.50936
| 79>    C        6.87786         7.87232        -9.16787
| 80>    C        5.45277         8.08677        -8.83342
| 81>    O        4.64807         7.25452        -8.46981
| 82>    C        7.58351         6.69528        -9.18352
| 83>    C        8.92901         6.74524        -9.56650
| 84>    C        9.49923         7.98923        -9.92063
| 85>    C        8.78708         9.18351        -9.89560
| 86>    S       11.16921         7.82174       -10.37246
| 87>    C       11.07981         6.10540       -10.07818
| 88>    C        9.86384         5.67775        -9.66506
| 89>   Br       12.60110         5.03992       -10.34540
| 90>    H       -0.46082         1.14718        -2.92426
| 91>    H       -0.08306        -2.96616        -0.08799
| 92>    H        1.99084         0.32091        -4.00241
| 93>    H       -5.01812        -0.32655         1.19855
| 94>    H       -4.51181         1.82813        -0.75171
| 95>    H       -8.71471         4.14259         0.00693
| 96>    H       -5.11559         3.50256        -1.47183
| 97>    H       -7.61398         5.24920        -1.62964
| 98>    H       -4.74924         3.32714        -3.60892
| 99>    H       -3.39207         4.06246        -2.75003
|100>    H       -3.80981         4.00304        -5.77071
|101>    H       -2.56489         3.16154        -4.83488
|102>    H       -1.74980         5.42670        -4.02696
|103>    H       -1.70414         5.09963        -6.92599
|104>    H       -0.60821         4.52324        -5.85123
|105>    H       -3.43532         6.57759        -6.27395
|106>    H       -2.56330         7.42962        -5.00018
|107>    H       -6.24310         9.44774        -4.75244
|108>    H       -3.53005         8.89176        -6.06803
|109>    H       -5.53706        11.20421        -6.26898
|110>    H       -4.62499        13.10919        -7.83920
|111>    H       -2.49012        13.75910        -9.12711
|112>    H       -0.30481        13.84066       -10.11322
|113>    H        2.17724        13.45397       -10.69984
|114>    H        4.09793        11.79186       -10.25813
|115>    H        3.16614         9.29827        -8.71515
|116>    H        7.11491         5.76337        -8.90862
|117>    H        9.26552        10.10696       -10.17655
|118>    H        9.63288         4.65287        -9.43849
|119> *
|120>
|121>                          ****END OF INPUT****

CARTESIAN COORDINATES (ANGSTROEM)
---------------------------------
  C     -2.450460   -1.285290    0.270430
  C     -2.719080   -2.249900    1.206410
  C     -1.874820   -3.344730    1.481860
  N     -1.225910   -4.254220    1.744630
  C     -3.875070   -2.262400    2.013200
  N     -4.802720   -2.306250    2.687900
  C     -1.266150   -1.226560   -0.583370
  C     -1.345870   -0.069870   -1.402440
  C     -0.374860    0.259530   -2.317390
  C      0.726950   -0.593790   -2.435510
  C      0.797410   -1.746330   -1.616690
  C     -0.183510   -2.077330   -0.687970
  S      2.237590   -2.663840   -1.928390
  C      2.720610   -1.504790   -3.138270
  C      1.848510   -0.480740   -3.300990
  Br     4.326010   -1.756190   -4.073700
  C     -2.591340    0.638850   -1.097140
  O     -3.002000    1.679760   -1.610360
  C     -3.267720   -0.140180   -0.059080
  C     -4.493050    0.238660    0.439890
  N     -5.077440    1.346330   -0.027250
  C     -6.280810    1.871050    0.307200
  S     -7.317150    1.130340    1.484530
  C     -8.480250    2.386470    1.208120
  N     -9.673400    2.346090    1.946480
  O    -10.487040    3.227350    1.749090
  O     -9.800700    1.422860    2.729320
  C     -8.093920    3.307590    0.273890
  C     -6.819350    3.035990   -0.264280
  C     -6.123570    3.809700   -1.250930
  C     -6.624520    4.894750   -1.884270
  C     -5.943340    5.681570   -2.852950
  S     -6.610420    7.242630   -3.226310
  C     -5.303210    7.613480   -4.321890
  C     -4.402940    6.545250   -4.383140
  C     -4.781430    5.454680   -3.587990
  C     -4.038430    4.156500   -3.627600
  C     -3.175830    4.065630   -4.882130
  C     -2.283390    5.308670   -4.977980
  N     -1.276200    5.265850   -6.021040
  C     -3.160890    6.542040   -5.214240
  C     -5.358460    8.861700   -4.974090
  C     -4.443420    9.412030   -5.830060
  C     -4.613810   10.663840   -6.431900
  C     -3.657030   11.259370   -7.223080
  C     -3.737100   12.503750   -7.887240
  C     -2.606830   12.847090   -8.570300
  C     -1.570040   11.894900   -8.470500
  S     -2.082000   10.534030   -7.510450
  C     -0.288100   11.969580   -8.994840
  C      0.266930   12.988090   -9.793730
  C      1.579290   12.781530  -10.111350
  C      2.121680   11.593960   -9.575340
  S      0.906190   10.734740   -8.664180
  C      3.431850   11.163210   -9.685480
  C      3.903540    9.986810   -9.118510
  C      5.202660    9.521940   -9.080090
  C      6.458650   10.167190   -9.337620
  C      6.742170   11.511210   -9.233470
  C      8.010800   12.068350   -9.480690
  N      9.015680   12.582830   -9.694540
  C      5.840870   12.481440   -8.755360
  N      5.172640   13.310770   -8.324090
  C      7.463540    9.116540   -9.509360
  C      6.877860    7.872320   -9.167870
  C      5.452770    8.086770   -8.833420
  O      4.648070    7.254520   -8.469810
  C      7.583510    6.695280   -9.183520
  C      8.929010    6.745240   -9.566500
  C      9.499230    7.989230   -9.920630
  C      8.787080    9.183510   -9.895600
  S     11.169210    7.821740  -10.372460
  C     11.079810    6.105400  -10.078180
  C      9.863840    5.677750   -9.665060
  Br    12.601100    5.039920  -10.345400
  H     -0.460820    1.147180   -2.924260
  H     -0.083060   -2.966160   -0.087990
  H      1.990840    0.320910   -4.002410
  H     -5.018120   -0.326550    1.198550
  H     -4.511810    1.828130   -0.751710
  H     -8.714710    4.142590    0.006930
  H     -5.115590    3.502560   -1.471830
  H     -7.613980    5.249200   -1.629640
  H     -4.749240    3.327140   -3.608920
  H     -3.392070    4.062460   -2.750030
  H     -3.809810    4.003040   -5.770710
  H     -2.564890    3.161540   -4.834880
  H     -1.749800    5.426700   -4.026960
  H     -1.704140    5.099630   -6.925990
  H     -0.608210    4.523240   -5.851230
  H     -3.435320    6.577590   -6.273950
  H     -2.563300    7.429620   -5.000180
  H     -6.243100    9.447740   -4.752440
  H     -3.530050    8.891760   -6.068030
  H     -5.537060   11.204210   -6.268980
  H     -4.624990   13.109190   -7.839200
  H     -2.490120   13.759100   -9.127110
  H     -0.304810   13.840660  -10.113220
  H      2.177240   13.453970  -10.699840
  H      4.097930   11.791860  -10.258130
  H      3.166140    9.298270   -8.715150
  H      7.114910    5.763370   -8.908620
  H      9.265520   10.106960  -10.176550
  H      9.632880    4.652870   -9.438490

 Total Charge           Charge          ....    0
 Multiplicity           Mult            ....    1
 Number of Electrons    NEL             ....  612
 Basis Dimension        Dim             .... 1255

ORBITAL ENERGIES
----------------

  NO   OCC          E(Eh)            E(eV)
   0   2.0000    -482.894153    -13140.2179
   1   2.0000    -482.877000    -13139.7512
   2   2.0000     -88.998679     -2421.7772
   3   2.0000     -88.986825     -2421.4546
   4   2.0000     -88.965045     -2420.8619
   5   2.0000     -88.964281     -2420.8412
   6   2.0000     -88.964040     -2420.8346
   7   2.0000     -88.958572     -2420.6858
   8   2.0000     -62.571859     -1702.6669
   9   2.0000     -62.554717     -1702.2004
  10   2.0000     -56.405826     -1534.8806
  11   2.0000     -56.403079     -1534.8058
  12   2.0000     -56.403055     -1534.8052
  13   2.0000     -56.388652     -1534.4132
  14   2.0000     -56.385966     -1534.3401
  15   2.0000     -56.385927     -1534.3391
  16   2.0000     -19.247279      -523.7451
  17   2.0000     -19.246703      -523.7294
  18   2.0000     -19.246433      -523.7221
  19   2.0000     -19.195054      -522.3240
  20   2.0000     -14.658605      -398.8809
  21   2.0000     -14.506016      -394.7288
  22   2.0000     -14.428394      -392.6166
  23   2.0000     -14.423792      -392.4913
  24   2.0000     -14.397988      -391.7892
  25   2.0000     -14.395425      -391.7194
  26   2.0000     -14.389237      -391.5511
  27   2.0000     -10.392163      -282.7851
  28   2.0000     -10.380648      -282.4718
  29   2.0000     -10.380115      -282.4573
  30   2.0000     -10.369259      -282.1619
  31   2.0000     -10.356758      -281.8217
  32   2.0000     -10.356144      -281.8050
  33   2.0000     -10.352188      -281.6974
  34   2.0000     -10.347707      -281.5754
  35   2.0000     -10.345921      -281.5268
  36   2.0000     -10.337759      -281.3047
  37   2.0000     -10.335693      -281.2485
  38   2.0000     -10.330573      -281.1092
  39   2.0000     -10.326707      -281.0040
  40   2.0000     -10.325460      -280.9701
  41   2.0000     -10.322510      -280.8898
  42   2.0000     -10.321952      -280.8746
  43   2.0000     -10.321802      -280.8705
  44   2.0000     -10.321337      -280.8578
  45   2.0000     -10.320481      -280.8346
  46   2.0000     -10.320061      -280.8231
  47   2.0000     -10.319858      -280.8176
  48   2.0000     -10.318250      -280.7739
  49   2.0000     -10.317047      -280.7411
  50   2.0000     -10.316821      -280.7350
  51   2.0000     -10.315484      -280.6986
  52   2.0000     -10.313318      -280.6396
  53   2.0000     -10.312429      -280.6155
  54   2.0000     -10.310065      -280.5511
  55   2.0000     -10.308740      -280.5151
  56   2.0000     -10.307425      -280.4793
  57   2.0000     -10.307038      -280.4688
  58   2.0000     -10.306494      -280.4540
  59   2.0000     -10.305559      -280.4285
  60   2.0000     -10.305554      -280.4284
  61   2.0000     -10.303021      -280.3595
  62   2.0000     -10.302968      -280.3580
  63   2.0000     -10.302489      -280.3450
  64   2.0000     -10.301954      -280.3304
  65   2.0000     -10.301899      -280.3289
  66   2.0000     -10.299260      -280.2571
  67   2.0000     -10.296151      -280.1725
  68   2.0000     -10.294224      -280.1201
  69   2.0000     -10.293880      -280.1107
  70   2.0000     -10.293048      -280.0881
  71   2.0000     -10.292573      -280.0752
  72   2.0000     -10.291468      -280.0451
  73   2.0000     -10.290641      -280.0226
  74   2.0000     -10.289451      -279.9902
  75   2.0000     -10.287296      -279.9315
  76   2.0000     -10.286349      -279.9058
  77   2.0000     -10.280582      -279.7489
  78   2.0000     -10.280025      -279.7337
  79   2.0000     -10.277462      -279.6640
  80   2.0000     -10.276842      -279.6471
  81   2.0000     -10.272206      -279.5209
  82   2.0000     -10.270937      -279.4864
  83   2.0000      -8.801290      -239.4953
  84   2.0000      -8.784141      -239.0286
  85   2.0000      -8.093856      -220.2450
  86   2.0000      -8.082801      -219.9442
  87   2.0000      -8.060990      -219.3507
  88   2.0000      -8.060257      -219.3307
  89   2.0000      -8.060201      -219.3292
  90   2.0000      -8.054833      -219.1831
  91   2.0000      -6.637672      -180.6202
  92   2.0000      -6.623001      -180.2210
  93   2.0000      -6.622753      -180.2143
  94   2.0000      -6.620379      -180.1497
  95   2.0000      -6.605897      -179.7556
  96   2.0000      -6.605727      -179.7510
  97   2.0000      -6.063494      -164.9961
  98   2.0000      -6.059145      -164.8777
  99   2.0000      -6.055335      -164.7741
 100   2.0000      -6.052451      -164.6956
 101   2.0000      -6.048185      -164.5795
 102   2.0000      -6.044074      -164.4676
 103   2.0000      -6.030085      -164.0869
 104   2.0000      -6.029969      -164.0838
 105   2.0000      -6.029845      -164.0804
 106   2.0000      -6.026259      -163.9828
 107   2.0000      -6.025835      -163.9713
 108   2.0000      -6.025675      -163.9670
 109   2.0000      -6.024400      -163.9323
 110   2.0000      -6.023138      -163.8979
 111   2.0000      -6.021471      -163.8526
 112   2.0000      -6.021267      -163.8470
 113   2.0000      -6.020414      -163.8238
 114   2.0000      -6.016011      -163.7040
 115   2.0000      -2.753503       -74.9266
 116   2.0000      -2.749397       -74.8149
 117   2.0000      -2.749275       -74.8116
 118   2.0000      -2.737581       -74.4934
 119   2.0000      -2.737566       -74.4930
 120   2.0000      -2.736246       -74.4570
 121   2.0000      -2.732175       -74.3463
 122   2.0000      -2.732097       -74.3441
 123   2.0000      -2.720555       -74.0301
 124   2.0000      -2.720543       -74.0297
 125   2.0000      -1.328917       -36.1617
 126   2.0000      -1.160399       -31.5761
 127   2.0000      -1.148193       -31.2439
 128   2.0000      -1.113790       -30.3078
 129   2.0000      -1.109156       -30.1817
 130   2.0000      -1.035638       -28.1812
 131   2.0000      -1.024872       -27.8882
 132   2.0000      -1.019492       -27.7418
 133   2.0000      -1.012102       -27.5407
 134   2.0000      -1.008460       -27.4416
 135   2.0000      -1.005571       -27.3630
 136   2.0000      -1.004366       -27.3302
 137   2.0000      -1.001925       -27.2638
 138   2.0000      -0.996867       -27.1261
 139   2.0000      -0.988899       -26.9093
 140   2.0000      -0.980168       -26.6717
 141   2.0000      -0.975782       -26.5524
 142   2.0000      -0.972820       -26.4718
 143   2.0000      -0.954125       -25.9631
 144   2.0000      -0.937737       -25.5171
 145   2.0000      -0.930119       -25.3098
 146   2.0000      -0.927457       -25.2374
 147   2.0000      -0.920890       -25.0587
 148   2.0000      -0.913667       -24.8622
 149   2.0000      -0.907648       -24.6984
 150   2.0000      -0.902321       -24.5534
 151   2.0000      -0.898574       -24.4514
 152   2.0000      -0.894608       -24.3435
 153   2.0000      -0.893183       -24.3047
 154   2.0000      -0.884207       -24.0605
 155   2.0000      -0.873123       -23.7589
 156   2.0000      -0.871679       -23.7196
 157   2.0000      -0.861971       -23.4554
 158   2.0000      -0.861446       -23.4411
 159   2.0000      -0.855758       -23.2864
 160   2.0000      -0.844941       -22.9920
 161   2.0000      -0.842079       -22.9141
 162   2.0000      -0.836999       -22.7759
 163   2.0000      -0.831770       -22.6336
 164   2.0000      -0.818039       -22.2600
 165   2.0000      -0.815646       -22.1949
 166   2.0000      -0.810297       -22.0493
 167   2.0000      -0.802251       -21.8304
 168   2.0000      -0.785157       -21.3652
 169   2.0000      -0.775766       -21.1097
 170   2.0000      -0.767697       -20.8901
 171   2.0000      -0.755395       -20.5553
 172   2.0000      -0.745965       -20.2987
 173   2.0000      -0.742100       -20.1936
 174   2.0000      -0.732645       -19.9363
 175   2.0000      -0.725758       -19.7489
 176   2.0000      -0.719561       -19.5802
 177   2.0000      -0.707562       -19.2537
 178   2.0000      -0.705336       -19.1932
 179   2.0000      -0.703097       -19.1322
 180   2.0000      -0.691815       -18.8252
 181   2.0000      -0.686412       -18.6782
 182   2.0000      -0.684475       -18.6255
 183   2.0000      -0.673221       -18.3193
 184   2.0000      -0.670259       -18.2387
 185   2.0000      -0.665859       -18.1190
 186   2.0000      -0.659003       -17.9324
 187   2.0000      -0.657641       -17.8953
 188   2.0000      -0.651346       -17.7240
 189   2.0000      -0.647126       -17.6092
 190   2.0000      -0.643472       -17.5098
 191   2.0000      -0.640700       -17.4343
 192   2.0000      -0.640085       -17.4176
 193   2.0000      -0.638450       -17.3731
 194   2.0000      -0.632777       -17.2187
 195   2.0000      -0.630760       -17.1639
 196   2.0000      -0.622837       -16.9483
 197   2.0000      -0.617364       -16.7993
 198   2.0000      -0.616269       -16.7695
 199   2.0000      -0.608829       -16.5671
 200   2.0000      -0.608083       -16.5468
 201   2.0000      -0.605395       -16.4736
 202   2.0000      -0.592183       -16.1141
 203   2.0000      -0.587259       -15.9801
 204   2.0000      -0.583972       -15.8907
 205   2.0000      -0.580785       -15.8040
 206   2.0000      -0.580264       -15.7898
 207   2.0000      -0.578211       -15.7339
 208   2.0000      -0.572979       -15.5915
 209   2.0000      -0.569782       -15.5045
 210   2.0000      -0.567360       -15.4386
 211   2.0000      -0.560162       -15.2428
 212   2.0000      -0.556073       -15.1315
 213   2.0000      -0.554704       -15.0943
 214   2.0000      -0.551497       -15.0070
 215   2.0000      -0.548146       -14.9158
 216   2.0000      -0.545781       -14.8515
 217   2.0000      -0.540737       -14.7142
 218   2.0000      -0.536480       -14.5984
 219   2.0000      -0.533224       -14.5098
 220   2.0000      -0.532574       -14.4921
 221   2.0000      -0.528664       -14.3857
 222   2.0000      -0.525837       -14.3088
 223   2.0000      -0.522456       -14.2167
 224   2.0000      -0.520547       -14.1648
 225   2.0000      -0.520318       -14.1586
 226   2.0000      -0.517566       -14.0837
 227   2.0000      -0.515724       -14.0336
 228   2.0000      -0.512880       -13.9562
 229   2.0000      -0.510156       -13.8820
 230   2.0000      -0.509876       -13.8744
 231   2.0000      -0.508950       -13.8492
 232   2.0000      -0.506768       -13.7899
 233   2.0000      -0.502187       -13.6652
 234   2.0000      -0.499895       -13.6028
 235   2.0000      -0.494522       -13.4566
 236   2.0000      -0.493697       -13.4342
 237   2.0000      -0.489223       -13.3124
 238   2.0000      -0.488555       -13.2943
 239   2.0000      -0.485269       -13.2049
 240   2.0000      -0.483744       -13.1634
 241   2.0000      -0.481849       -13.1118
 242   2.0000      -0.480892       -13.0857
 243   2.0000      -0.480234       -13.0678
 244   2.0000      -0.478696       -13.0260
 245   2.0000      -0.475784       -12.9467
 246   2.0000      -0.474180       -12.9031
 247   2.0000      -0.471263       -12.8237
 248   2.0000      -0.469704       -12.7813
 249   2.0000      -0.468223       -12.7410
 250   2.0000      -0.461411       -12.5556
 251   2.0000      -0.460411       -12.5284
 252   2.0000      -0.458292       -12.4708
 253   2.0000      -0.455766       -12.4020
 254   2.0000      -0.453631       -12.3439
 255   2.0000      -0.450745       -12.2654
 256   2.0000      -0.450035       -12.2461
 257   2.0000      -0.447805       -12.1854
 258   2.0000      -0.446283       -12.1440
 259   2.0000      -0.439687       -11.9645
 260   2.0000      -0.438033       -11.9195
 261   2.0000      -0.437943       -11.9170
 262   2.0000      -0.435153       -11.8411
 263   2.0000      -0.433115       -11.7856
 264   2.0000      -0.432113       -11.7584
 265   2.0000      -0.429391       -11.6843
 266   2.0000      -0.427829       -11.6418
 267   2.0000      -0.425040       -11.5659
 268   2.0000      -0.423914       -11.5353
 269   2.0000      -0.423560       -11.5256
 270   2.0000      -0.421053       -11.4574
 271   2.0000      -0.420774       -11.4499
 272   2.0000      -0.415713       -11.3121
 273   2.0000      -0.412758       -11.2317
 274   2.0000      -0.409129       -11.1330
 275   2.0000      -0.406153       -11.0520
 276   2.0000      -0.402884       -10.9630
 277   2.0000      -0.402388       -10.9495
 278   2.0000      -0.400425       -10.8961
 279   2.0000      -0.393857       -10.7174
 280   2.0000      -0.392986       -10.6937
 281   2.0000      -0.387225       -10.5369
 282   2.0000      -0.384671       -10.4674
 283   2.0000      -0.383520       -10.4361
 284   2.0000      -0.382203       -10.4003
 285   2.0000      -0.376034       -10.2324
 286   2.0000      -0.375565       -10.2196
 287   2.0000      -0.369150       -10.0451
 288   2.0000      -0.366700        -9.9784
 289   2.0000      -0.366330        -9.9683
 290   2.0000      -0.354110        -9.6358
 291   2.0000      -0.351238        -9.5577
 292   2.0000      -0.347845        -9.4653
 293   2.0000      -0.337681        -9.1888
 294   2.0000      -0.332390        -9.0448
 295   2.0000      -0.329938        -8.9781
 296   2.0000      -0.322410        -8.7732
 297   2.0000      -0.319772        -8.7014
 298   2.0000      -0.311220        -8.4687
 299   2.0000      -0.309613        -8.4250
 300   2.0000      -0.304749        -8.2926
 301   2.0000      -0.302186        -8.2229
 302   2.0000      -0.290023        -7.8919
 303   2.0000      -0.280882        -7.6432
 304   2.0000      -0.262126        -7.1328
 305   2.0000      -0.220205        -5.9921
 306   0.0000      -0.111923        -3.0456
 307   0.0000      -0.097110        -2.6425
 308   0.0000      -0.080967        -2.2032
 309   0.0000      -0.064900        -1.7660
 310   0.0000      -0.051247        -1.3945

MULLIKEN ATOMIC CHARGES
-----------------------
   0 C :    0.324663
   1 C :   -0.340377
   2 C :   -0.186429
   3 N :    0.154740
   4 C :   -0.196182
   5 N :    0.149357
   6 C :    0.009611
   7 C :   -0.000336
   8 C :   -0.068702
   9 C :    0.119182
  10 C :   -0.093825
  11 C :   -0.018105
  12 S :    0.195935
  13 C :   -0.124190
  14 C :    0.037073
  15 Br:    0.032786
  16 C :    0.169926
  17 O :   -0.232387
  18 C :   -0.127404
  19 C :    0.028840
  20 N :   -0.007294
  21 C :   -0.122330
  22 S :    0.183851
  23 C :    0.003522
  24 N :    0.273482
  25 O :   -0.243911
  26 O :   -0.253029
  27 C :    0.005696
  28 C :    0.136484
  29 C :   -0.052070
  30 C :    0.056570
  31 C :   -0.130918
  32 S :    0.124685
  33 C :   -0.123464
  34 C :   -0.047334
  35 C :   -0.100586
  36 C :    0.104606
  37 C :    0.088778
  38 C :   -0.060636
  39 N :   -0.161691
  40 C :    0.128272
  41 C :    0.054166
  42 C :   -0.031258
  43 C :    0.020319
  44 C :   -0.041541
  45 C :    0.054378
  46 C :    0.019486
  47 C :   -0.021340
  48 S :    0.087729
  49 C :   -0.061971
  50 C :    0.039479
  51 C :    0.035390
  52 C :   -0.014979
  53 S :    0.109102
  54 C :   -0.003508
  55 C :    0.018642
  56 C :   -0.127802
  57 C :    0.287574
  58 C :   -0.352754
  59 C :   -0.175601
  60 N :    0.131530
  61 C :   -0.220850
  62 N :    0.155413
  63 C :    0.007060
  64 C :   -0.002677
  65 C :    0.133842
  66 O :   -0.162823
  67 C :   -0.080184
  68 C :    0.116734
  69 C :   -0.089348
  70 C :   -0.026473
  71 S :    0.177272
  72 C :   -0.125442
  73 C :    0.036718
  74 Br:    0.012041
  75 H :   -0.016231
  76 H :   -0.004029
  77 H :   -0.001224
  78 H :    0.047624
  79 H :    0.184644
  80 H :    0.015154
  81 H :   -0.020549
  82 H :   -0.020553
  83 H :    0.014314
  84 H :    0.040112
  85 H :   -0.008489
  86 H :   -0.012010
  87 H :   -0.004159
  88 H :    0.088545
  89 H :    0.088602
  90 H :    0.011844
  91 H :    0.044375
  92 H :   -0.015139
  93 H :    0.007381
  94 H :   -0.007231
  95 H :   -0.003651
  96 H :   -0.006564
  97 H :   -0.005871
  98 H :    0.001255
  99 H :    0.007814
 100 H :    0.013572
 101 H :   -0.018129
 102 H :   -0.008511
 103 H :   -0.008075
Sum of atomic charges:   -0.0000000

LOEWDIN ATOMIC CHARGES
----------------------
   0 C :    0.078153
   1 C :   -0.145622
   2 C :   -0.020151
   3 N :   -0.050078
   4 C :   -0.020537
   5 N :   -0.050445
   6 C :   -0.017803
   7 C :   -0.052464
   8 C :    0.022967
   9 C :   -0.033543
  10 C :   -0.143084
  11 C :   -0.005845
  12 S :    0.441551
  13 C :   -0.269830
  14 C :   -0.070743
  15 Br:    0.143575
  16 C :    0.099696
  17 O :   -0.182563
  18 C :   -0.146419
  19 C :    0.113132
  20 N :    0.081736
  21 C :   -0.117236
  22 S :    0.473928
  23 C :   -0.197056
  24 N :    0.272738
  25 O :   -0.210448
  26 O :   -0.219498
  27 C :    0.002470
  28 C :   -0.081358
  29 C :   -0.034005
  30 C :   -0.029542
  31 C :   -0.169405
  32 S :    0.437554
  33 C :   -0.176685
  34 C :   -0.038415
  35 C :   -0.049963
  36 C :   -0.029284
  37 C :   -0.040041
  38 C :    0.012377
  39 N :   -0.098695
  40 C :   -0.027689
  41 C :   -0.015791
  42 C :   -0.047835
  43 C :   -0.019342
  44 C :   -0.158936
  45 C :   -0.012676
  46 C :   -0.040242
  47 C :   -0.147180
  48 S :    0.394414
  49 C :   -0.196158
  50 C :   -0.007715
  51 C :   -0.039328
  52 C :   -0.100087
  53 S :    0.404785
  54 C :   -0.072149
  55 C :    0.050433
  56 C :   -0.112557
  57 C :    0.068178
  58 C :   -0.157568
  59 C :   -0.020114
  60 N :   -0.068786
  61 C :   -0.024005
  62 N :   -0.065736
  63 C :   -0.014907
  64 C :   -0.050535
  65 C :    0.077413
  66 O :   -0.162595
  67 C :    0.016081
  68 C :   -0.038025
  69 C :   -0.145397
  70 C :   -0.016977
  71 S :    0.426138
  72 C :   -0.276132
  73 C :   -0.071717
  74 Br:    0.127807
  75 H :    0.039296
  76 H :    0.042630
  77 H :    0.039352
  78 H :    0.037595
  79 H :    0.082991
  80 H :    0.045614
  81 H :    0.029389
  82 H :    0.027600
  83 H :    0.032034
  84 H :    0.032672
  85 H :    0.018741
  86 H :    0.018921
  87 H :    0.020708
  88 H :    0.051326
  89 H :    0.053290
  90 H :    0.032122
  91 H :    0.039343
  92 H :    0.030339
  93 H :    0.022784
  94 H :    0.036526
  95 H :    0.037508
  96 H :    0.034638
  97 H :    0.035257
  98 H :    0.039599
  99 H :    0.037547
 100 H :    0.033996
 101 H :    0.037796
 102 H :    0.039530
 103 H :    0.036663

  Mayer bond orders larger than 0.100000
B(  0-C ,  1-C ) :   1.6327 B(  0-C ,  6-C ) :   1.0032 B(  0-C , 18-C ) :   1.0947
B(  1-C ,  2-C ) :   1.1431 B(  1-C ,  4-C ) :   1.1474 B(  2-C ,  3-N ) :   2.9688
B(  4-C ,  5-N ) :   2.9556 B(  6-C ,  7-C ) :   1.2722 B(  6-C , 11-C ) :   1.4272
B(  7-C ,  8-C ) :   1.4192 B(  7-C , 16-C ) :   0.9864 B(  8-C ,  9-C ) :   1.2446
B(  8-C , 75-H ) :   1.0187 B(  9-C , 10-C ) :   1.3065 B(  9-C , 14-C ) :   1.1639
B( 10-C , 11-C ) :   1.3191 B( 10-C , 12-S ) :   1.0933 B( 11-C , 76-H ) :   0.9804
B( 12-S , 13-C ) :   1.0894 B( 13-C , 14-C ) :   1.6151 B( 13-C , 15-Br) :   1.0237
B( 14-C , 77-H ) :   1.0005 B( 16-C , 17-O ) :   1.9873 B( 16-C , 18-C ) :   1.0182
B( 17-O , 79-H ) :   0.1503 B( 18-C , 19-C ) :   1.4429 B( 19-C , 20-N ) :   1.3452
B( 19-C , 78-H ) :   0.9323 B( 20-N , 21-C ) :   1.1927 B( 20-N , 79-H ) :   0.8215
B( 21-C , 22-S ) :   1.1315 B( 21-C , 28-C ) :   1.3707 B( 22-S , 23-C ) :   1.0859
B( 23-C , 24-N ) :   0.9594 B( 23-C , 27-C ) :   1.5112 B( 24-N , 25-O ) :   1.5380
B( 24-N , 26-O ) :   1.5182 B( 25-O , 26-O ) :   0.2642 B( 27-C , 28-C ) :   1.2095
B( 27-C , 80-H ) :   0.9989 B( 28-C , 29-C ) :   1.0887 B( 29-C , 30-C ) :   1.7121
B( 29-C , 81-H ) :   0.9583 B( 30-C , 31-C ) :   1.1255 B( 30-C , 82-H ) :   0.9493
B( 31-C , 32-S ) :   1.1280 B( 31-C , 35-C ) :   1.4635 B( 32-S , 33-C ) :   1.1092
B( 33-C , 34-C ) :   1.4410 B( 33-C , 41-C ) :   1.1676 B( 34-C , 35-C ) :   1.3633
B( 34-C , 40-C ) :   1.0293 B( 35-C , 36-C ) :   1.0473 B( 36-C , 37-C ) :   1.0705
B( 36-C , 83-H ) :   0.9167 B( 36-C , 84-H ) :   0.8877 B( 37-C , 38-C ) :   1.0377
B( 37-C , 85-H ) :   0.9233 B( 37-C , 86-H ) :   0.9272 B( 38-C , 39-N ) :   1.1109
B( 38-C , 40-C ) :   1.0384 B( 38-C , 87-H ) :   0.9186 B( 39-N , 88-H ) :   0.9682
B( 39-N , 89-H ) :   0.9690 B( 40-C , 90-H ) :   0.9009 B( 40-C , 91-H ) :   0.9060
B( 41-C , 42-C ) :   1.5960 B( 41-C , 92-H ) :   0.9558 B( 42-C , 43-C ) :   1.1841
B( 42-C , 93-H ) :   0.9644 B( 43-C , 44-C ) :   1.5226 B( 43-C , 94-H ) :   0.9865
B( 44-C , 45-C ) :   1.1620 B( 44-C , 48-S ) :   1.0292 B( 45-C , 46-C ) :   1.5637
B( 45-C , 95-H ) :   0.9993 B( 46-C , 47-C ) :   1.2089 B( 46-C , 96-H ) :   0.9946
B( 47-C , 48-S ) :   1.0844 B( 47-C , 49-C ) :   1.4485 B( 49-C , 50-C ) :   1.2300
B( 49-C , 53-S ) :   1.0437 B( 50-C , 51-C ) :   1.5320 B( 50-C , 97-H ) :   0.9944
B( 51-C , 52-C ) :   1.1932 B( 51-C , 98-H ) :   1.0006 B( 52-C , 53-S ) :   1.0905
B( 52-C , 54-C ) :   1.4780 B( 54-C , 55-C ) :   1.2401 B( 54-C , 99-H ) :   0.9622
B( 55-C , 56-C ) :   1.5059 B( 55-C ,100-H ) :   0.9400 B( 56-C , 57-C ) :   1.1000
B( 56-C , 65-C ) :   0.9720 B( 57-C , 58-C ) :   1.5883 B( 57-C , 63-C ) :   1.0029
B( 58-C , 59-C ) :   1.1328 B( 58-C , 61-C ) :   1.1707 B( 59-C , 60-N ) :   2.9724
B( 61-C , 62-N ) :   3.0107 B( 63-C , 64-C ) :   1.2774 B( 63-C , 70-C ) :   1.4235
B( 64-C , 65-C ) :   0.9173 B( 64-C , 67-C ) :   1.4358 B( 65-C , 66-O ) :   2.2402
B( 67-C , 68-C ) :   1.2415 B( 67-C ,101-H ) :   1.0162 B( 68-C , 69-C ) :   1.3201
B( 68-C , 73-C ) :   1.1595 B( 69-C , 70-C ) :   1.3165 B( 69-C , 71-S ) :   1.0814
B( 70-C ,102-H ) :   0.9818 B( 71-S , 72-C ) :   1.0860 B( 72-C , 73-C ) :   1.6213
B( 72-C , 74-Br) :   1.0120 B( 73-C ,103-H ) :   1.0004

-----------------------------------------------------------------------------
         ABSORPTION SPECTRUM VIA TRANSITION ELECTRIC DIPOLE MOMENTS
-----------------------------------------------------------------------------
State   Energy  Wavelength   fosc         T2         TX        TY        TZ
        (cm-1)    (nm)                  (au**2)     (au)      (au)      (au)
-----------------------------------------------------------------------------
   0   10589.1    944.4   1.438348311  44.71765  -5.70179  -1.92592   2.91515
   1   17321.5    577.3   0.440292722   8.36819   1.98126  -2.01120   0.63079
   2   19650.6    508.9   0.270421100   4.53044  -1.42981   1.52933  -0.38371
   3   20425.2    489.6   0.479581508   7.72985   1.27114  -2.12790   1.25940
   4   20881.8    478.9   0.235035017   3.70544  -0.10922   1.35248  -1.36540
   5   23104.6    432.8   0.440780594   6.28057  -1.81490   1.72820   0.00728
   6   23447.4    426.5   0.278058908   3.90407   0.58989   1.29598  -1.36987
   7   24796.1    403.3   0.218222124   2.89728  -0.65841   1.56472  -0.12427
   8   25684.4    389.3   0.080573436   1.03276  -0.77627  -0.23510   0.61228
   9   26460.1    377.9   0.032043206   0.39868  -0.26838   0.52300  -0.23047
  10   27068.4    369.4   0.023360300   0.28411  -0.12960   0.44008  -0.27139
  11   27638.6    361.8   0.035929729   0.42797  -0.52584  -0.12121   0.36982
  12   28445.2    351.6   0.099774129   1.15474   0.94424  -0.51040  -0.05150
  13   28823.1    346.9   0.010877357   0.12424   0.09084  -0.32826   0.09074
  14   28911.6    345.9   0.001150754   0.01310   0.09095  -0.02305  -0.06557
  15   29248.7    341.9   0.403016385   4.53620   1.75561  -0.07551  -1.20347
  16   29647.7    337.3   0.215716497   2.39534   1.32129   0.14023  -0.79365
  17   30086.4    332.4   0.097805196   1.07021  -0.69275  -0.37811   0.66884
  18   30362.7    329.4   0.020948133   0.22713   0.42373  -0.21789  -0.01023
  19   30629.6    326.5   0.233260125   2.50712  -0.09724   1.33818  -0.84080
  20   31404.1    318.4   0.252910565   2.65129   1.32725   0.45787  -0.82465
  21   31689.6    315.6   0.050773723   0.52747   0.60217  -0.25411  -0.31669
  22   31891.0    313.6   0.031572904   0.32593  -0.35311  -0.35749   0.27100
  23   32357.2    309.1   0.547445663   5.56988   1.52393  -1.72868  -0.50909
  24   32834.9    304.6   0.050846296   0.50980   0.52158  -0.47942  -0.08896
  25   33143.0    301.7   0.006690415   0.06646   0.24224  -0.04351  -0.07669
  26   33493.4    298.6   0.096929789   0.95274  -0.69465   0.50402   0.46493
  27   33829.9    295.6   0.324880924   3.16154   1.19469   0.43290  -1.24372
  28   33940.9    294.6   0.224146473   2.17412   0.26700   1.20327  -0.80930
  29   34127.9    293.0   0.000533844   0.00515  -0.05259   0.03821   0.03039
  30   34166.1    292.7   0.030752711   0.29632  -0.28772   0.46196  -0.01166
  31   34440.6    290.4   0.011435968   0.10931   0.30964  -0.10275  -0.05368
  32   34480.6    290.0   0.003508591   0.03350  -0.15950   0.08910   0.01094
  33   34716.9    288.0   0.017876207   0.16952   0.04453  -0.28408   0.29467
  34   34756.2    287.7   0.000240015   0.00227   0.04240   0.00989   0.01944
  35   35200.7    284.1   0.014104920   0.13192   0.12904  -0.17303  -0.29210
  36   35298.9    283.3   0.071253413   0.66454   0.45040   0.38211  -0.56184
  37   35714.4    280.0   0.032803828   0.30238  -0.10248   0.47900   0.24988
  38   36252.0    275.8   0.011184007   0.10156  -0.03950   0.30373  -0.08803
  39   36327.9    275.3   0.001535715   0.01392   0.08261  -0.08381  -0.00828
  40   36482.9    274.1   0.036620085   0.33045   0.37070  -0.34096  -0.27709
  41   36873.0    271.2   0.006262961   0.05592   0.18528   0.13789  -0.05075
  42   36979.5    270.4   0.001573762   0.01401  -0.10637  -0.02058   0.04767
  43   37142.9    269.2   0.066501243   0.58943   0.30107   0.65813  -0.25622
  44   37317.9    268.0   0.026063638   0.22993  -0.01724  -0.43574   0.19940
  45   37641.3    265.7   0.165530118   1.44773   0.81917  -0.87727  -0.08414
  46   37882.5    264.0   0.071454234   0.62096   0.69848  -0.29207  -0.21858
  47   38206.7    261.7   0.029408378   0.25340  -0.00248   0.50168  -0.04134
  48   38386.2    260.5   0.022136130   0.18985   0.03553   0.43218  -0.04247
  49   38520.7    259.6   0.180004599   1.53838   0.03399  -0.99994   0.73304
  50   38824.5    257.6   0.106391167   0.90214   0.19312   0.92587   0.08724
  51   39463.6    253.4   0.089041048   0.74280  -0.42247  -0.65582   0.36634
  52   39471.1    253.3   0.045204386   0.37703  -0.33388  -0.51389  -0.03829
  53   39837.5    251.0   0.012218296   0.10097  -0.21651  -0.15899   0.16976
  54   39863.4    250.9   0.001550100   0.01280   0.02090   0.09856   0.05149
  55   39911.6    250.6   0.001977418   0.01631  -0.12023  -0.00209   0.04302
  56   39975.0    250.2   0.028930273   0.23825  -0.34234   0.04319   0.34525

FINAL SINGLE POINT ENERGY    -10368.154339412444

DIPOLE MOMENT
-------------
                                X             Y             Z
Electronic contribution:    199.83926     -97.19382     -32.00896
Nuclear contribution   :   -202.14104      97.07878      29.74057
                        -----------------------------------------
Total Dipole Moment    :     -2.30178      -0.11504      -2.26838
                        -----------------------------------------
Magnitude (a.u.)       :      3.23373
Magnitude (Debye)      :      8.21949

Rotational constants in cm-1:     0.000563     0.000238     0.000170
Rotational constants in MHz :    16.881127     7.122056     5.083954

                             ****ORCA TERMINATED NORMALLY****
TOTAL RUN TIME: 0 days 0 hours 11 minutes 15 seconds 729 msec
