                         Program Version 4.2.0 -  RELEASE  -
|  1> # ORCA input file
|  2> # SCF done       -216.666993069086          0.000765673734
|  3> ! CAM-B3LYP def2-SVP def2/J RIJCOSX Grid4 TightSCF
|  4> %maxcore 5000
|  5> %tddft
|  6>     Mode sTDDFT
|  7>     Ethresh 5.0
|  8>     maxcore 5000
|  9> end
| 10>
| 11> %pal
| 12>   nprocs 6
| 13>   end
| 14> * xyz 0 1
| 15>    C       -8.18045        -2.40909         3.57185
| 16>    C       -7.17969        -3.33329         3.41344
| 17>    C       -7.16052        -4.59302         4.04680
| 18>    N       -7.09709        -5.63283         4.52956
| 19>    C       -6.02212        -3.14127         2.62946
| 20>    N       -5.04039        -3.05405         2.04040
| 21>    C       -9.32701        -2.53583         4.46347
| 22>    C      -10.06463        -1.32688         4.42962
| 23>    C      -11.20255        -1.13395         5.17428
| 24>    C      -11.62921        -2.18026         5.99906
| 25>    C      -10.88736        -3.38536         6.02420
| 26>    C       -9.73980        -3.58310         5.26604
| 27>    S      -11.59443        -4.54882         7.10349
| 28>    C      -12.85705        -3.41511         7.50450
| 29>    C      -12.75766        -2.22668         6.86265
| 30>   Br      -14.18864        -3.90772         8.72948
| 31>    C       -9.43385        -0.38877         3.47993
| 32>    O       -9.88660         0.67575         3.11723
| 33>    C       -8.23392        -1.09637         2.96295
| 34>    C       -7.44779        -0.64124         1.94388
| 35>    C       -7.35842         0.70988         1.51787
| 36>    C       -7.08147         1.01796         0.16399
| 37>    C       -7.02541         2.36543        -0.32424
| 38>    N       -6.80704         2.57696        -1.62862
| 39>    C       -6.64766         1.56578        -2.42981
| 40>    C       -6.70718         0.24158        -1.94774
| 41>    N       -6.92407        -0.01069        -0.69589
| 42>    F       -6.55043        -0.78888        -2.77574
| 43>    F       -6.43258         1.82559        -3.72363
| 44>    C       -7.21171         3.48999         0.53318
| 45>    C       -7.39225         3.16783         1.91171
| 46>    C       -7.45429         1.81388         2.39555
| 47>    N       -7.55284         1.76694         3.72213
| 48>    S       -7.61997         3.26220         4.29553
| 49>    N       -7.49153         4.05258         2.89934
| 50>    C       -7.23108         4.84194         0.17788
| 51>    C       -7.07040         5.51390        -1.02285
| 52>    C       -7.15134         6.92666        -1.10053
| 53>    C       -6.96153         7.43871        -2.35243
| 54>    C       -6.71736         6.44353        -3.31538
| 55>    S       -6.74311         4.85266        -2.60008
| 56>    C       -6.46945         6.59865        -4.67852
| 57>    C       -6.41129         7.78980        -5.42587
| 58>    C       -6.13704         7.57291        -6.74532
| 59>    C       -5.96201         6.20972        -7.09327
| 60>    S       -6.17372         5.20502        -5.68339
| 61>    C       -5.65603         5.81564        -8.38338
| 62>    C       -5.40571         4.55930        -8.94374
| 63>    C       -5.07785         4.48733       -10.33749
| 64>    C       -4.74737         3.25892       -10.98315
| 65>    N       -4.44868         3.25407       -12.30036
| 66>    C       -4.46093         4.37289       -12.95063
| 67>    C       -4.77611         5.59403       -12.30607
| 68>    N       -5.07741         5.63163       -11.04527
| 69>    F       -4.78683         6.74517       -12.97493
| 70>    F       -4.17843         4.34030       -14.24860
| 71>    C       -4.66865         2.02919       -10.27930
| 72>    C       -5.05546         2.07801        -8.92086
| 73>    C       -5.42271         3.31159        -8.27062
| 74>    N       -5.76330         3.10930        -7.00366
| 75>    S       -5.65236         1.54506        -6.64947
| 76>    N       -5.16230         1.03825        -8.09206
| 77>    C       -4.28692         0.84515       -10.96143
| 78>    C       -3.78104        -0.31384       -10.45459
| 79>    C       -3.20031        -0.64675        -9.17487
| 80>    C       -2.53284         0.20921        -8.33660
| 81>    C       -1.93436        -0.18123        -7.12234
| 82>    N       -1.45095        -0.43424        -6.11207
| 83>    C       -2.32489         1.57451        -8.61086
| 84>    N       -2.11631         2.69007        -8.78759
| 85>    C       -3.24386        -2.09763        -9.04171
| 86>    C       -3.62113        -2.65846       -10.28856
| 87>    C       -3.88147        -1.56969       -11.25292
| 88>    O       -4.16613        -1.66682       -12.42286
| 89>    C       -3.72619        -4.01390       -10.48442
| 90>    C       -3.45822        -4.85335        -9.39726
| 91>    C       -3.09562        -4.28215        -8.15343
| 92>    C       -2.97982        -2.91117        -7.95703
| 93>    S       -2.82483        -5.49989        -6.94512
| 94>    C       -3.19110        -6.74363        -8.11110
| 95>    C       -3.50328        -6.27320        -9.34220
| 96>   Br       -3.13213        -8.54436        -7.59257
| 97>    H      -11.74528        -0.20295         5.12566
| 98>    H       -9.21339        -4.52174         5.31354
| 99>    H      -13.45135        -1.41587         6.99081
|100>    H       -6.86250        -1.34281         1.36318
|101>    H       -7.40711         5.49142         1.02922
|102>    H       -7.34824         7.52303        -0.22705
|103>    H       -6.99036         8.48712        -2.58913
|104>    H       -6.56764         8.76011        -4.99012
|105>    H       -6.04845         8.35188        -7.48189
|106>    H       -5.57720         6.62446        -9.10085
|107>    H       -4.46763         0.85117       -12.03155
|108>    H       -4.00773        -4.41638       -11.44480
|109>    H       -2.70885        -2.51872        -6.99085
|110>    H       -3.75633        -6.90015       -10.17754
|111> *
|112>
|113>                          ****END OF INPUT****

CARTESIAN COORDINATES (ANGSTROEM)
---------------------------------
  C     -8.180450   -2.409090    3.571850
  C     -7.179690   -3.333290    3.413440
  C     -7.160520   -4.593020    4.046800
  N     -7.097090   -5.632830    4.529560
  C     -6.022120   -3.141270    2.629460
  N     -5.040390   -3.054050    2.040400
  C     -9.327010   -2.535830    4.463470
  C    -10.064630   -1.326880    4.429620
  C    -11.202550   -1.133950    5.174280
  C    -11.629210   -2.180260    5.999060
  C    -10.887360   -3.385360    6.024200
  C     -9.739800   -3.583100    5.266040
  S    -11.594430   -4.548820    7.103490
  C    -12.857050   -3.415110    7.504500
  C    -12.757660   -2.226680    6.862650
  Br   -14.188640   -3.907720    8.729480
  C     -9.433850   -0.388770    3.479930
  O     -9.886600    0.675750    3.117230
  C     -8.233920   -1.096370    2.962950
  C     -7.447790   -0.641240    1.943880
  C     -7.358420    0.709880    1.517870
  C     -7.081470    1.017960    0.163990
  C     -7.025410    2.365430   -0.324240
  N     -6.807040    2.576960   -1.628620
  C     -6.647660    1.565780   -2.429810
  C     -6.707180    0.241580   -1.947740
  N     -6.924070   -0.010690   -0.695890
  F     -6.550430   -0.788880   -2.775740
  F     -6.432580    1.825590   -3.723630
  C     -7.211710    3.489990    0.533180
  C     -7.392250    3.167830    1.911710
  C     -7.454290    1.813880    2.395550
  N     -7.552840    1.766940    3.722130
  S     -7.619970    3.262200    4.295530
  N     -7.491530    4.052580    2.899340
  C     -7.231080    4.841940    0.177880
  C     -7.070400    5.513900   -1.022850
  C     -7.151340    6.926660   -1.100530
  C     -6.961530    7.438710   -2.352430
  C     -6.717360    6.443530   -3.315380
  S     -6.743110    4.852660   -2.600080
  C     -6.469450    6.598650   -4.678520
  C     -6.411290    7.789800   -5.425870
  C     -6.137040    7.572910   -6.745320
  C     -5.962010    6.209720   -7.093270
  S     -6.173720    5.205020   -5.683390
  C     -5.656030    5.815640   -8.383380
  C     -5.405710    4.559300   -8.943740
  C     -5.077850    4.487330  -10.337490
  C     -4.747370    3.258920  -10.983150
  N     -4.448680    3.254070  -12.300360
  C     -4.460930    4.372890  -12.950630
  C     -4.776110    5.594030  -12.306070
  N     -5.077410    5.631630  -11.045270
  F     -4.786830    6.745170  -12.974930
  F     -4.178430    4.340300  -14.248600
  C     -4.668650    2.029190  -10.279300
  C     -5.055460    2.078010   -8.920860
  C     -5.422710    3.311590   -8.270620
  N     -5.763300    3.109300   -7.003660
  S     -5.652360    1.545060   -6.649470
  N     -5.162300    1.038250   -8.092060
  C     -4.286920    0.845150  -10.961430
  C     -3.781040   -0.313840  -10.454590
  C     -3.200310   -0.646750   -9.174870
  C     -2.532840    0.209210   -8.336600
  C     -1.934360   -0.181230   -7.122340
  N     -1.450950   -0.434240   -6.112070
  C     -2.324890    1.574510   -8.610860
  N     -2.116310    2.690070   -8.787590
  C     -3.243860   -2.097630   -9.041710
  C     -3.621130   -2.658460  -10.288560
  C     -3.881470   -1.569690  -11.252920
  O     -4.166130   -1.666820  -12.422860
  C     -3.726190   -4.013900  -10.484420
  C     -3.458220   -4.853350   -9.397260
  C     -3.095620   -4.282150   -8.153430
  C     -2.979820   -2.911170   -7.957030
  S     -2.824830   -5.499890   -6.945120
  C     -3.191100   -6.743630   -8.111100
  C     -3.503280   -6.273200   -9.342200
  Br    -3.132130   -8.544360   -7.592570
  H    -11.745280   -0.202950    5.125660
  H     -9.213390   -4.521740    5.313540
  H    -13.451350   -1.415870    6.990810
  H     -6.862500   -1.342810    1.363180
  H     -7.407110    5.491420    1.029220
  H     -7.348240    7.523030   -0.227050
  H     -6.990360    8.487120   -2.589130
  H     -6.567640    8.760110   -4.990120
  H     -6.048450    8.351880   -7.481890
  H     -5.577200    6.624460   -9.100850
  H     -4.467630    0.851170  -12.031550
  H     -4.007730   -4.416380  -11.444800
  H     -2.708850   -2.518720   -6.990850
  H     -3.756330   -6.900150  -10.177540

 Total Charge           Charge          ....    0
 Multiplicity           Mult            ....    1
 Number of Electrons    NEL             ....  652
 Basis Dimension        Dim             .... 1278

ORBITAL ENERGIES
----------------

  NO   OCC          E(Eh)            E(eV)
   0   2.0000    -482.883184    -13139.9195
   1   2.0000    -482.879657    -13139.8235
   2   2.0000     -89.039792     -2422.8959
   3   2.0000     -89.033395     -2422.7219
   4   2.0000     -88.971921     -2421.0491
   5   2.0000     -88.971239     -2421.0305
   6   2.0000     -88.970098     -2420.9994
   7   2.0000     -88.969213     -2420.9754
   8   2.0000     -62.560923     -1702.3693
   9   2.0000     -62.557416     -1702.2738
  10   2.0000     -56.394868     -1534.5824
  11   2.0000     -56.392159     -1534.5087
  12   2.0000     -56.392127     -1534.5078
  13   2.0000     -56.391362     -1534.4870
  14   2.0000     -56.388653     -1534.4133
  15   2.0000     -56.388613     -1534.4122
  16   2.0000     -24.825492      -675.5360
  17   2.0000     -24.816755      -675.2982
  18   2.0000     -24.813558      -675.2112
  19   2.0000     -24.812854      -675.1921
  20   2.0000     -19.207631      -522.6662
  21   2.0000     -19.207394      -522.6598
  22   2.0000     -14.466231      -393.6461
  23   2.0000     -14.456275      -393.3752
  24   2.0000     -14.455466      -393.3532
  25   2.0000     -14.454702      -393.3324
  26   2.0000     -14.451636      -393.2490
  27   2.0000     -14.447742      -393.1431
  28   2.0000     -14.445167      -393.0730
  29   2.0000     -14.440011      -392.9327
  30   2.0000     -14.410274      -392.1235
  31   2.0000     -14.409184      -392.0938
  32   2.0000     -14.408835      -392.0843
  33   2.0000     -14.406921      -392.0323
  34   2.0000     -10.434048      -283.9249
  35   2.0000     -10.432774      -283.8902
  36   2.0000     -10.430270      -283.8221
  37   2.0000     -10.427285      -283.7408
  38   2.0000     -10.358878      -281.8794
  39   2.0000     -10.357905      -281.8529
  40   2.0000     -10.355705      -281.7931
  41   2.0000     -10.352809      -281.7143
  42   2.0000     -10.352261      -281.6994
  43   2.0000     -10.352028      -281.6930
  44   2.0000     -10.348913      -281.6083
  45   2.0000     -10.347091      -281.5587
  46   2.0000     -10.343750      -281.4677
  47   2.0000     -10.338652      -281.3290
  48   2.0000     -10.338174      -281.3160
  49   2.0000     -10.337923      -281.3092
  50   2.0000     -10.336134      -281.2605
  51   2.0000     -10.335203      -281.2352
  52   2.0000     -10.333478      -281.1882
  53   2.0000     -10.333078      -281.1774
  54   2.0000     -10.331794      -281.1424
  55   2.0000     -10.330834      -281.1163
  56   2.0000     -10.330119      -281.0968
  57   2.0000     -10.327943      -281.0376
  58   2.0000     -10.325420      -280.9690
  59   2.0000     -10.324782      -280.9516
  60   2.0000     -10.321258      -280.8557
  61   2.0000     -10.319274      -280.8017
  62   2.0000     -10.313115      -280.6341
  63   2.0000     -10.312155      -280.6080
  64   2.0000     -10.312078      -280.6059
  65   2.0000     -10.310204      -280.5549
  66   2.0000     -10.309763      -280.5429
  67   2.0000     -10.309699      -280.5412
  68   2.0000     -10.308434      -280.5067
  69   2.0000     -10.307556      -280.4829
  70   2.0000     -10.307452      -280.4800
  71   2.0000     -10.306994      -280.4676
  72   2.0000     -10.306960      -280.4666
  73   2.0000     -10.304432      -280.3978
  74   2.0000     -10.304038      -280.3871
  75   2.0000     -10.303512      -280.3728
  76   2.0000     -10.302682      -280.3502
  77   2.0000     -10.301572      -280.3200
  78   2.0000     -10.301035      -280.3054
  79   2.0000     -10.300614      -280.2940
  80   2.0000     -10.300554      -280.2923
  81   2.0000     -10.298489      -280.2361
  82   2.0000     -10.296126      -280.1718
  83   2.0000     -10.294625      -280.1310
  84   2.0000     -10.293717      -280.1063
  85   2.0000     -10.290814      -280.0273
  86   2.0000     -10.290495      -280.0186
  87   2.0000     -10.288908      -279.9754
  88   2.0000     -10.286707      -279.9155
  89   2.0000     -10.285427      -279.8807
  90   2.0000      -8.790369      -239.1981
  91   2.0000      -8.786875      -239.1030
  92   2.0000      -8.130646      -221.2461
  93   2.0000      -8.124973      -221.0917
  94   2.0000      -8.067934      -219.5397
  95   2.0000      -8.065242      -219.4664
  96   2.0000      -8.065236      -219.4662
  97   2.0000      -8.064395      -219.4434
  98   2.0000      -6.626664      -180.3207
  99   2.0000      -6.623174      -180.2257
 100   2.0000      -6.612114      -179.9248
 101   2.0000      -6.611908      -179.9192
 102   2.0000      -6.608599      -179.8291
 103   2.0000      -6.608421      -179.8243
 104   2.0000      -6.101852      -166.0398
 105   2.0000      -6.096107      -165.8835
 106   2.0000      -6.094141      -165.8300
 107   2.0000      -6.093110      -165.8020
 108   2.0000      -6.088345      -165.6723
 109   2.0000      -6.087557      -165.6509
 110   2.0000      -6.037633      -164.2923
 111   2.0000      -6.035027      -164.2214
 112   2.0000      -6.034934      -164.2189
 113   2.0000      -6.034072      -164.1954
 114   2.0000      -6.033350      -164.1758
 115   2.0000      -6.030648      -164.1023
 116   2.0000      -6.030398      -164.0955
 117   2.0000      -6.029656      -164.0753
 118   2.0000      -6.029146      -164.0614
 119   2.0000      -6.026661      -163.9938
 120   2.0000      -6.026450      -163.9880
 121   2.0000      -6.025750      -163.9690
 122   2.0000      -2.742490       -74.6269
 123   2.0000      -2.739026       -74.5327
 124   2.0000      -2.738451       -74.5170
 125   2.0000      -2.738344       -74.5141
 126   2.0000      -2.734982       -74.4226
 127   2.0000      -2.734809       -74.4179
 128   2.0000      -2.726755       -74.1988
 129   2.0000      -2.726722       -74.1979
 130   2.0000      -2.723244       -74.1032
 131   2.0000      -2.723229       -74.1028
 132   2.0000      -1.348342       -36.6903
 133   2.0000      -1.341646       -36.5081
 134   2.0000      -1.332981       -36.2723
 135   2.0000      -1.327477       -36.1225
 136   2.0000      -1.139703       -31.0129
 137   2.0000      -1.134014       -30.8581
 138   2.0000      -1.122835       -30.5539
 139   2.0000      -1.121811       -30.5260
 140   2.0000      -1.119390       -30.4601
 141   2.0000      -1.113225       -30.2924
 142   2.0000      -1.044227       -28.4149
 143   2.0000      -1.037849       -28.2413
 144   2.0000      -1.019163       -27.7328
 145   2.0000      -1.017622       -27.6909
 146   2.0000      -1.016483       -27.6599
 147   2.0000      -1.008182       -27.4340
 148   2.0000      -1.007168       -27.4064
 149   2.0000      -1.000576       -27.2270
 150   2.0000      -0.992487       -27.0070
 151   2.0000      -0.989057       -26.9136
 152   2.0000      -0.988113       -26.8879
 153   2.0000      -0.986647       -26.8480
 154   2.0000      -0.983420       -26.7602
 155   2.0000      -0.982075       -26.7236
 156   2.0000      -0.973786       -26.4981
 157   2.0000      -0.972625       -26.4665
 158   2.0000      -0.937641       -25.5145
 159   2.0000      -0.934947       -25.4412
 160   2.0000      -0.920443       -25.0465
 161   2.0000      -0.911692       -24.8084
 162   2.0000      -0.903407       -24.5830
 163   2.0000      -0.901329       -24.5264
 164   2.0000      -0.895982       -24.3809
 165   2.0000      -0.886058       -24.1109
 166   2.0000      -0.884288       -24.0627
 167   2.0000      -0.882446       -24.0126
 168   2.0000      -0.881070       -23.9751
 169   2.0000      -0.879146       -23.9228
 170   2.0000      -0.874473       -23.7956
 171   2.0000      -0.866087       -23.5674
 172   2.0000      -0.861514       -23.4430
 173   2.0000      -0.845941       -23.0192
 174   2.0000      -0.841731       -22.9047
 175   2.0000      -0.828733       -22.5510
 176   2.0000      -0.824421       -22.4336
 177   2.0000      -0.822267       -22.3750
 178   2.0000      -0.814645       -22.1676
 179   2.0000      -0.811815       -22.0906
 180   2.0000      -0.802128       -21.8270
 181   2.0000      -0.782075       -21.2813
 182   2.0000      -0.774593       -21.0777
 183   2.0000      -0.769422       -20.9370
 184   2.0000      -0.760686       -20.6993
 185   2.0000      -0.753819       -20.5125
 186   2.0000      -0.752852       -20.4861
 187   2.0000      -0.746105       -20.3026
 188   2.0000      -0.744220       -20.2513
 189   2.0000      -0.738251       -20.0888
 190   2.0000      -0.720813       -19.6143
 191   2.0000      -0.706766       -19.2321
 192   2.0000      -0.701618       -19.0920
 193   2.0000      -0.692517       -18.8443
 194   2.0000      -0.687162       -18.6986
 195   2.0000      -0.686728       -18.6868
 196   2.0000      -0.685918       -18.6648
 197   2.0000      -0.684227       -18.6188
 198   2.0000      -0.681333       -18.5400
 199   2.0000      -0.674984       -18.3673
 200   2.0000      -0.671853       -18.2820
 201   2.0000      -0.669057       -18.2060
 202   2.0000      -0.665935       -18.1210
 203   2.0000      -0.660669       -17.9777
 204   2.0000      -0.658296       -17.9132
 205   2.0000      -0.651771       -17.7356
 206   2.0000      -0.648966       -17.6593
 207   2.0000      -0.642172       -17.4744
 208   2.0000      -0.635147       -17.2832
 209   2.0000      -0.632456       -17.2100
 210   2.0000      -0.630526       -17.1575
 211   2.0000      -0.624924       -17.0050
 212   2.0000      -0.624254       -16.9868
 213   2.0000      -0.623097       -16.9553
 214   2.0000      -0.617644       -16.8070
 215   2.0000      -0.616739       -16.7823
 216   2.0000      -0.616541       -16.7769
 217   2.0000      -0.605667       -16.4810
 218   2.0000      -0.603926       -16.4337
 219   2.0000      -0.591782       -16.1032
 220   2.0000      -0.591179       -16.0868
 221   2.0000      -0.586462       -15.9585
 222   2.0000      -0.583217       -15.8702
 223   2.0000      -0.575713       -15.6660
 224   2.0000      -0.575016       -15.6470
 225   2.0000      -0.572696       -15.5839
 226   2.0000      -0.570654       -15.5283
 227   2.0000      -0.568596       -15.4723
 228   2.0000      -0.567637       -15.4462
 229   2.0000      -0.560638       -15.2557
 230   2.0000      -0.556838       -15.1523
 231   2.0000      -0.553493       -15.0613
 232   2.0000      -0.547209       -14.8903
 233   2.0000      -0.542908       -14.7733
 234   2.0000      -0.541548       -14.7363
 235   2.0000      -0.536083       -14.5876
 236   2.0000      -0.532680       -14.4950
 237   2.0000      -0.531887       -14.4734
 238   2.0000      -0.531292       -14.4572
 239   2.0000      -0.529780       -14.4160
 240   2.0000      -0.525855       -14.3092
 241   2.0000      -0.524826       -14.2812
 242   2.0000      -0.522832       -14.2270
 243   2.0000      -0.520261       -14.1570
 244   2.0000      -0.519274       -14.1302
 245   2.0000      -0.517711       -14.0876
 246   2.0000      -0.516998       -14.0682
 247   2.0000      -0.515887       -14.0380
 248   2.0000      -0.511452       -13.9173
 249   2.0000      -0.511050       -13.9064
 250   2.0000      -0.509832       -13.8732
 251   2.0000      -0.506312       -13.7774
 252   2.0000      -0.504733       -13.7345
 253   2.0000      -0.502654       -13.6779
 254   2.0000      -0.500523       -13.6199
 255   2.0000      -0.499976       -13.6050
 256   2.0000      -0.498687       -13.5700
 257   2.0000      -0.495520       -13.4838
 258   2.0000      -0.491906       -13.3854
 259   2.0000      -0.489162       -13.3108
 260   2.0000      -0.488303       -13.2874
 261   2.0000      -0.486426       -13.2363
 262   2.0000      -0.484822       -13.1927
 263   2.0000      -0.482108       -13.1188
 264   2.0000      -0.478876       -13.0309
 265   2.0000      -0.475161       -12.9298
 266   2.0000      -0.472089       -12.8462
 267   2.0000      -0.470681       -12.8079
 268   2.0000      -0.465940       -12.6789
 269   2.0000      -0.460967       -12.5435
 270   2.0000      -0.457468       -12.4483
 271   2.0000      -0.455650       -12.3989
 272   2.0000      -0.454140       -12.3578
 273   2.0000      -0.451847       -12.2954
 274   2.0000      -0.445661       -12.1271
 275   2.0000      -0.444635       -12.0991
 276   2.0000      -0.444429       -12.0935
 277   2.0000      -0.442915       -12.0523
 278   2.0000      -0.441988       -12.0271
 279   2.0000      -0.439966       -11.9721
 280   2.0000      -0.437368       -11.9014
 281   2.0000      -0.436948       -11.8900
 282   2.0000      -0.434752       -11.8302
 283   2.0000      -0.433657       -11.8004
 284   2.0000      -0.431530       -11.7425
 285   2.0000      -0.424454       -11.5500
 286   2.0000      -0.422478       -11.4962
 287   2.0000      -0.420669       -11.4470
 288   2.0000      -0.418915       -11.3993
 289   2.0000      -0.417024       -11.3478
 290   2.0000      -0.416714       -11.3394
 291   2.0000      -0.412402       -11.2220
 292   2.0000      -0.412273       -11.2185
 293   2.0000      -0.409913       -11.1543
 294   2.0000      -0.404653       -11.0112
 295   2.0000      -0.402729       -10.9588
 296   2.0000      -0.401794       -10.9334
 297   2.0000      -0.399170       -10.8620
 298   2.0000      -0.396105       -10.7786
 299   2.0000      -0.392563       -10.6822
 300   2.0000      -0.385363       -10.4863
 301   2.0000      -0.381626       -10.3846
 302   2.0000      -0.375021       -10.2048
 303   2.0000      -0.373205       -10.1554
 304   2.0000      -0.372616       -10.1394
 305   2.0000      -0.371037       -10.0964
 306   2.0000      -0.369154       -10.0452
 307   2.0000      -0.369084       -10.0433
 308   2.0000      -0.365525        -9.9464
 309   2.0000      -0.357973        -9.7409
 310   2.0000      -0.355897        -9.6844
 311   2.0000      -0.353244        -9.6122
 312   2.0000      -0.345238        -9.3944
 313   2.0000      -0.343781        -9.3547
 314   2.0000      -0.341911        -9.3039
 315   2.0000      -0.337745        -9.1905
 316   2.0000      -0.332176        -9.0390
 317   2.0000      -0.327184        -8.9031
 318   2.0000      -0.320681        -8.7262
 319   2.0000      -0.310175        -8.4403
 320   2.0000      -0.307980        -8.3806
 321   2.0000      -0.304136        -8.2760
 322   2.0000      -0.289214        -7.8699
 323   2.0000      -0.285613        -7.7719
 324   2.0000      -0.271671        -7.3925
 325   2.0000      -0.225915        -6.1475
 326   0.0000      -0.147452        -4.0124
 327   0.0000      -0.104309        -2.8384
 328   0.0000      -0.073567        -2.0019
 329   0.0000      -0.067734        -1.8431
 330   0.0000      -0.061580        -1.6757

MULLIKEN ATOMIC CHARGES
-----------------------
   0 C :    0.302368
   1 C :   -0.346230
   2 C :   -0.185601
   3 N :    0.146051
   4 C :   -0.198781
   5 N :    0.162152
   6 C :    0.018675
   7 C :   -0.016864
   8 C :   -0.075117
   9 C :    0.120428
  10 C :   -0.090725
  11 C :   -0.023822
  12 S :    0.184503
  13 C :   -0.124236
  14 C :    0.036060
  15 Br:    0.020204
  16 C :    0.152687
  17 O :   -0.155704
  18 C :   -0.063139
  19 C :   -0.082337
  20 C :    0.053063
  21 C :   -0.032723
  22 C :   -0.010012
  23 N :   -0.060511
  24 C :    0.165311
  25 C :    0.156524
  26 N :    0.012378
  27 F :   -0.138675
  28 F :   -0.160176
  29 C :    0.112976
  30 C :    0.004052
  31 C :    0.028129
  32 N :   -0.273681
  33 S :    0.530099
  34 N :   -0.283343
  35 C :   -0.132172
  36 C :    0.022519
  37 C :    0.028153
  38 C :    0.038765
  39 C :   -0.028806
  40 S :    0.144349
  41 C :   -0.026369
  42 C :    0.040741
  43 C :    0.030452
  44 C :    0.021772
  45 S :    0.158829
  46 C :   -0.126043
  47 C :    0.116137
  48 C :   -0.052071
  49 C :   -0.035846
  50 N :    0.021596
  51 C :    0.142518
  52 C :    0.128192
  53 N :    0.005668
  54 F :   -0.142311
  55 F :   -0.135170
  56 C :    0.084873
  57 C :   -0.029371
  58 C :    0.083169
  59 N :   -0.331562
  60 S :    0.550001
  61 N :   -0.287602
  62 C :   -0.046351
  63 C :   -0.110607
  64 C :    0.336802
  65 C :   -0.349267
  66 C :   -0.199046
  67 N :    0.154735
  68 C :   -0.196330
  69 N :    0.152080
  70 C :   -0.000457
  71 C :    0.006370
  72 C :    0.130257
  73 O :   -0.139354
  74 C :   -0.073512
  75 C :    0.112237
  76 C :   -0.088544
  77 C :   -0.027178
  78 S :    0.185941
  79 C :   -0.125975
  80 C :    0.040119
  81 Br:    0.021465
  82 H :   -0.015248
  83 H :   -0.008046
  84 H :   -0.004693
  85 H :    0.044306
  86 H :    0.009311
  87 H :    0.001486
  88 H :   -0.005840
  89 H :   -0.006989
  90 H :    0.004297
  91 H :    0.011553
  92 H :    0.032706
  93 H :   -0.010707
  94 H :   -0.005491
  95 H :   -0.004427
Sum of atomic charges:   -0.0000000

LOEWDIN ATOMIC CHARGES
----------------------
   0 C :    0.073725
   1 C :   -0.138271
   2 C :   -0.017763
   3 N :   -0.056576
   4 C :   -0.023615
   5 N :   -0.049750
   6 C :   -0.019504
   7 C :   -0.047045
   8 C :    0.018150
   9 C :   -0.033616
  10 C :   -0.144809
  11 C :   -0.011171
  12 S :    0.430856
  13 C :   -0.272921
  14 C :   -0.071391
  15 Br:    0.134272
  16 C :    0.082478
  17 O :   -0.149628
  18 C :   -0.081935
  19 C :    0.076458
  20 C :   -0.058963
  21 C :    0.016412
  22 C :   -0.013738
  23 N :   -0.054468
  24 C :    0.051828
  25 C :    0.065674
  26 N :   -0.039372
  27 F :   -0.027556
  28 F :   -0.045205
  29 C :   -0.013235
  30 C :   -0.044745
  31 C :   -0.029920
  32 N :   -0.274463
  33 S :    0.664917
  34 N :   -0.285102
  35 C :   -0.032474
  36 C :   -0.127331
  37 C :   -0.021571
  38 C :   -0.022977
  39 C :   -0.178905
  40 S :    0.465028
  41 C :   -0.172456
  42 C :   -0.025373
  43 C :   -0.016678
  44 C :   -0.128672
  45 S :    0.469929
  46 C :   -0.023927
  47 C :   -0.010672
  48 C :   -0.006926
  49 C :    0.017530
  50 N :   -0.038300
  51 C :    0.063326
  52 C :    0.050819
  53 N :   -0.036722
  54 F :   -0.032217
  55 F :   -0.024645
  56 C :   -0.058723
  57 C :   -0.036664
  58 C :   -0.033968
  59 N :   -0.289704
  60 S :    0.670937
  61 N :   -0.282143
  62 C :    0.068262
  63 C :   -0.080085
  64 C :    0.077984
  65 C :   -0.146617
  66 C :   -0.022610
  67 N :   -0.060312
  68 C :   -0.014591
  69 N :   -0.067114
  70 C :   -0.013529
  71 C :   -0.052198
  72 C :    0.083957
  73 O :   -0.139582
  74 C :    0.021378
  75 C :   -0.034962
  76 C :   -0.143421
  77 C :   -0.014575
  78 S :    0.432245
  79 C :   -0.273520
  80 C :   -0.070462
  81 Br:    0.135160
  82 H :    0.038918
  83 H :    0.040566
  84 H :    0.038039
  85 H :    0.047088
  86 H :    0.045944
  87 H :    0.038182
  88 H :    0.034169
  89 H :    0.033979
  90 H :    0.039180
  91 H :    0.043885
  92 H :    0.049000
  93 H :    0.040627
  94 H :    0.040109
  95 H :    0.038379

  Mayer bond orders larger than 0.100000
B(  0-C ,  1-C ) :   1.6341 B(  0-C ,  6-C ) :   1.0015 B(  0-C , 18-C ) :   1.0745
B(  1-C ,  2-C ) :   1.1418 B(  1-C ,  4-C ) :   1.1449 B(  2-C ,  3-N ) :   2.9691
B(  4-C ,  5-N ) :   2.9871 B(  6-C ,  7-C ) :   1.2750 B(  6-C , 11-C ) :   1.4114
B(  7-C ,  8-C ) :   1.4242 B(  7-C , 16-C ) :   0.9434 B(  8-C ,  9-C ) :   1.2454
B(  8-C , 82-H ) :   1.0167 B(  9-C , 10-C ) :   1.3074 B(  9-C , 14-C ) :   1.1606
B( 10-C , 11-C ) :   1.3288 B( 10-C , 12-S ) :   1.0843 B( 11-C , 83-H ) :   0.9802
B( 12-S , 13-C ) :   1.0861 B( 13-C , 14-C ) :   1.6200 B( 13-C , 15-Br) :   1.0165
B( 14-C , 84-H ) :   0.9999 B( 16-C , 17-O ) :   2.2197 B( 16-C , 18-C ) :   0.9496
B( 18-C , 19-C ) :   1.5646 B( 19-C , 20-C ) :   1.2034 B( 19-C , 85-H ) :   0.9287
B( 20-C , 21-C ) :   1.2643 B( 20-C , 29-C ) :   0.1111 B( 20-C , 31-C ) :   1.1793
B( 21-C , 22-C ) :   1.1398 B( 21-C , 26-N ) :   1.4557 B( 22-C , 23-N ) :   1.4398
B( 22-C , 29-C ) :   1.1846 B( 23-N , 24-C ) :   1.5709 B( 24-C , 25-C ) :   1.1495
B( 24-C , 28-F ) :   1.1327 B( 25-C , 26-N ) :   1.6562 B( 25-C , 27-F ) :   1.1836
B( 29-C , 30-C ) :   1.1435 B( 29-C , 35-C ) :   1.3212 B( 30-C , 31-C ) :   1.1253
B( 30-C , 34-N ) :   1.5516 B( 31-C , 32-N ) :   1.5187 B( 32-N , 33-S ) :   1.2712
B( 32-N , 34-N ) :   0.1455 B( 33-S , 34-N ) :   1.2700 B( 35-C , 36-C ) :   1.4054
B( 35-C , 86-H ) :   0.9521 B( 36-C , 37-C ) :   1.1873 B( 36-C , 40-S ) :   1.0846
B( 37-C , 38-C ) :   1.5256 B( 37-C , 87-H ) :   1.0032 B( 38-C , 39-C ) :   1.2254
B( 38-C , 88-H ) :   0.9955 B( 39-C , 40-S ) :   1.0377 B( 39-C , 41-C ) :   1.4139
B( 41-C , 42-C ) :   1.2188 B( 41-C , 45-S ) :   1.0457 B( 42-C , 43-C ) :   1.5321
B( 42-C , 89-H ) :   0.9954 B( 43-C , 44-C ) :   1.1790 B( 43-C , 90-H ) :   1.0037
B( 44-C , 45-S ) :   1.0834 B( 44-C , 46-C ) :   1.4108 B( 46-C , 47-C ) :   1.3099
B( 46-C , 91-H ) :   0.9464 B( 47-C , 48-C ) :   1.1986 B( 47-C , 56-C ) :   0.1156
B( 47-C , 58-C ) :   1.1371 B( 48-C , 49-C ) :   1.1588 B( 48-C , 53-N ) :   1.4589
B( 49-C , 50-N ) :   1.4697 B( 49-C , 56-C ) :   1.2544 B( 50-N , 51-C ) :   1.6668
B( 51-C , 52-C ) :   1.1178 B( 51-C , 55-F ) :   1.1844 B( 52-C , 53-N ) :   1.6597
B( 52-C , 54-F ) :   1.1758 B( 56-C , 57-C ) :   1.1840 B( 56-C , 62-C ) :   1.1561
B( 57-C , 58-C ) :   1.1225 B( 57-C , 61-N ) :   1.5262 B( 58-C , 59-N ) :   1.4842
B( 59-N , 60-S ) :   1.2554 B( 59-N , 61-N ) :   0.1332 B( 60-S , 61-N ) :   1.2521
B( 62-C , 63-C ) :   1.5936 B( 62-C , 92-H ) :   0.9415 B( 63-C , 64-C ) :   1.0584
B( 63-C , 72-C ) :   0.9421 B( 64-C , 65-C ) :   1.6168 B( 64-C , 70-C ) :   1.0181
B( 65-C , 66-C ) :   1.1440 B( 65-C , 68-C ) :   1.1773 B( 66-C , 67-N ) :   2.9890
B( 68-C , 69-N ) :   2.9915 B( 70-C , 71-C ) :   1.2711 B( 70-C , 77-C ) :   1.4162
B( 71-C , 72-C ) :   0.9166 B( 71-C , 74-C ) :   1.4266 B( 72-C , 73-O ) :   2.2721
B( 74-C , 75-C ) :   1.2504 B( 74-C , 93-H ) :   1.0155 B( 75-C , 76-C ) :   1.3080
B( 75-C , 80-C ) :   1.1641 B( 76-C , 77-C ) :   1.3247 B( 76-C , 78-S ) :   1.0853
B( 77-C , 94-H ) :   0.9836 B( 78-S , 79-C ) :   1.0862 B( 79-C , 80-C ) :   1.6191
B( 79-C , 81-Br) :   1.0177 B( 80-C , 95-H ) :   0.9996

-----------------------------------------------------------------------------
         ABSORPTION SPECTRUM VIA TRANSITION ELECTRIC DIPOLE MOMENTS
-----------------------------------------------------------------------------
State   Energy  Wavelength   fosc         T2         TX        TY        TZ
        (cm-1)    (nm)                  (au**2)     (au)      (au)      (au)
-----------------------------------------------------------------------------
   0    4103.4   2437.0   0.354992989  28.48110  -1.52818  -0.45007   5.09345
   1   12329.2    811.1   0.101051811   2.69827  -0.10226   1.60001  -0.35746
   2   14327.9    697.9   0.811208169  18.63914   0.41289  -4.25868   0.57647
   3   17294.3    578.2   0.060735026   1.15615  -0.01411  -1.03984  -0.27328
   4   19532.1    512.0   0.221487206   3.73314   0.33221   1.44424  -1.23973
   5   19818.5    504.6   0.066204912   1.09976   0.50432   0.36284  -0.84485
   6   20383.9    490.6   0.129448627   2.09067   0.64834  -1.14487   0.59967
   7   20917.4    478.1   0.048269933   0.75970   0.37215  -0.61351  -0.49479
   8   21449.9    466.2   0.133060879   2.04222   0.35858  -0.01753   1.38323
   9   22637.5    441.7   0.004399383   0.06398   0.09713   0.12935   0.19446
  10   22951.1    435.7   0.011656124   0.16720   0.08077  -0.06664   0.39526
  11   23115.4    432.6   0.004048002   0.05765   0.15898  -0.15933   0.08361
  12   24207.2    413.1   0.030306045   0.41216  -0.00212   0.40956  -0.49438
  13   24515.3    407.9   0.036604012   0.49155   0.44699   0.44897  -0.30028
  14   24835.6    402.6   0.049537631   0.65665  -0.21626  -0.68994   0.36588
  15   25058.9    399.1   0.039253089   0.51569  -0.23749  -0.41658   0.53455
  16   25657.4    389.8   0.012929744   0.16590   0.11700  -0.37852   0.09453
  17   26029.9    384.2   0.089173379   1.12782  -0.59340   0.87088   0.13137
  18   26789.6    373.3   0.157359285   1.93375   0.38382  -0.21195  -1.31966
  19   26948.9    371.1   0.012660511   0.15466  -0.08440   0.37487  -0.08373
  20   27295.7    366.4   0.090345650   1.08965  -0.23589  -0.49644   0.88745
  21   27607.6    362.2   0.085579540   1.02051  -0.18037  -0.36458   0.92469
  22   28012.3    357.0   0.222578564   2.61584   0.04257   1.60942   0.15422
  23   28211.3    354.5   0.086686100   1.01158  -0.17005   0.05521   0.98976
  24   28413.8    351.9   0.080423218   0.93181  -0.03848  -0.32804   0.90704
  25   28688.0    348.6   0.012778638   0.14664  -0.16966  -0.31176   0.14374
  26   28817.5    347.0   0.041299353   0.47181  -0.38332  -0.26672   0.50372
  27   29429.7    339.8   0.073808245   0.82565  -0.50269  -0.72878  -0.20454
  28   29654.8    337.2   0.068281175   0.75802  -0.71196   0.48261   0.13497
  29   30155.2    331.6   0.295133118   3.22204   1.28748   0.04599  -1.24993
  30   30394.5    329.0   0.177230250   1.91963  -0.69362   0.75662   0.93062
  31   30695.9    325.8   0.057656147   0.61836   0.36428  -0.58234   0.38280
  32   30910.2    323.5   0.141567823   1.50778  -0.37048  -0.73927   0.90774
  33   31028.4    322.3   0.311893860   3.30920  -0.51532  -1.74441  -0.02567
  34   31225.4    320.3   0.009624186   0.10147  -0.08464   0.20513  -0.22853
  35   31388.2    318.6   0.031128165   0.32648   0.47905   0.00363  -0.31143
  36   31490.5    317.6   0.084725668   0.88575  -0.28777  -0.54843   0.70863
  37   32127.1    311.3   0.118160551   1.21081  -0.53392  -0.75860  -0.59183
  38   32359.5    309.0   0.092077730   0.93676  -0.87813   0.19139   0.35919
  39   32472.0    308.0   0.018375942   0.18630   0.37927   0.20289   0.03594
  40   32759.3    305.3   0.087442365   0.87875   0.47583  -0.52713  -0.61194
  41   33107.0    302.1   0.092535873   0.92017   0.32359   0.85958   0.27671
  42   33372.8    299.6   0.023840743   0.23518  -0.17443   0.43894  -0.10995
  43   33668.5    297.0   0.074970992   0.73307  -0.05265   0.85338   0.04509
  44   34289.7    291.6   0.042686656   0.40983  -0.35382  -0.44726   0.29086
  45   34518.0    289.7   0.078876683   0.75228  -0.63346   0.36650   0.46549
  46   34637.1    288.7   0.064678039   0.61474   0.55897  -0.53878  -0.10957
  47   34946.3    286.2   0.076804153   0.72353   0.67396  -0.45555  -0.24857
  48   35042.8    285.4   0.032693761   0.30714   0.12369   0.23546   0.48621
  49   35403.1    282.5   0.017318013   0.16104   0.23219   0.13816   0.29672
  50   35469.6    281.9   0.029867219   0.27721  -0.07079  -0.08306   0.51507
  51   35520.3    281.5   0.021551157   0.19974   0.13197   0.28087   0.32161
  52   35938.1    278.3   0.010405291   0.09532   0.01664  -0.28304  -0.12219
  53   36030.2    277.5   0.170291498   1.55597   0.42057   0.87740   0.78056
  54   36127.5    276.8   0.050813309   0.46304   0.49848  -0.37890   0.26643
  55   36237.9    276.0   0.048167166   0.43759  -0.53887   0.01079   0.38352
  56   36389.3    274.8   0.203686615   1.84274  -0.34812   1.25246   0.39101
  57   36502.3    274.0   0.175758849   1.58516  -0.49834  -0.45671   1.06218
  58   36652.9    272.8   0.014140751   0.12701  -0.32775  -0.05226   0.12986
  59   36932.5    270.8   0.194421217   1.73305   0.08674   0.21261  -1.29627
  60   37160.9    269.1   0.031692758   0.28077  -0.13247   0.39959   0.32180
  61   37439.0    267.1   0.067369848   0.59240   0.14115  -0.52600   0.54388
  62   37608.6    265.9   0.109728291   0.96052  -0.09585  -0.89959   0.37692
  63   37714.4    265.2   0.045049780   0.39324  -0.13573  -0.56441  -0.23720
  64   37835.0    264.3   0.016756462   0.14580  -0.06846   0.33903   0.16180
  65   37953.5    263.5   0.006744225   0.05850  -0.04692  -0.20762  -0.11486
  66   37972.1    263.4   0.047844582   0.41480  -0.31712   0.53414   0.17008
  67   38285.2    261.2   0.063494011   0.54598   0.47699  -0.07121   0.55981
  68   38365.8    260.6   0.017668340   0.15161  -0.09793  -0.19475   0.32263
  69   38440.4    260.1   0.121764208   1.04281   0.48850   0.19425  -0.87547
  70   38598.3    259.1   0.029579271   0.25229  -0.15946   0.22825   0.41804
  71   38652.5    258.7   0.047585605   0.40530  -0.42806   0.11961   0.45580
  72   38760.9    258.0   0.020886943   0.17740   0.33273  -0.18997  -0.17493
  73   39142.2    255.5   0.023562478   0.19818   0.07698  -0.32778   0.29122
  74   39344.5    254.2   0.009837526   0.08231   0.09782  -0.25747  -0.08036
  75   39752.4    251.6   0.015011275   0.12432  -0.02993   0.12685   0.32761
  76   39759.3    251.5   0.012282030   0.10170  -0.01097  -0.04527  -0.31548
  77   40067.7    249.6   0.058238816   0.47851  -0.22680   0.62344   0.19596
  78   40150.6    249.1   0.008243645   0.06759   0.10731  -0.00218   0.23680
  79   40297.7    248.2   0.010482250   0.08563   0.00369  -0.26519   0.12367

FINAL SINGLE POINT ENERGY    -10881.323865567896

DIPOLE MOMENT
-------------
                                X             Y             Z
Electronic contribution:    -34.49736    -124.24928      50.33507
Nuclear contribution   :     31.43434     128.17187     -49.71193
                        -----------------------------------------
Total Dipole Moment    :     -3.06302       3.92259       0.62314
                        -----------------------------------------
Magnitude (a.u.)       :      5.01568
Magnitude (Debye)      :     12.74885

Rotational constants in cm-1:     0.000653     0.000237     0.000183
Rotational constants in MHz :    19.581960     7.090869     5.478401

                             ****ORCA TERMINATED NORMALLY****
TOTAL RUN TIME: 0 days 0 hours 14 minutes 4 seconds 865 msec
