                         Program Version 4.2.0 -  RELEASE  -
|  1> # ORCA input file
|  2> # SCF done       -167.902597156879          0.000664841580
|  3> ! CAM-B3LYP def2-SVP def2/J RIJCOSX Grid4 TightSCF
|  4> %maxcore 5000
|  5> %tddft
|  6>     Mode sTDDFT
|  7>     Ethresh 5.0
|  8>     maxcore 5000
|  9> end
| 10>
| 11> %pal
| 12>   nprocs 6
| 13>   end
| 14> * xyz 0 1
| 15>    C       -1.75746         2.34280        -2.06532
| 16>    C       -1.26965         1.25224        -1.38956
| 17>    C       -0.00202         0.68400        -1.62427
| 18>    N        1.02550         0.19128        -1.76770
| 19>    C       -1.97941         0.53387        -0.40542
| 20>    N       -2.50698        -0.11906         0.37853
| 21>    C       -1.09345         3.02080        -3.17497
| 22>    C       -1.98062         3.99098        -3.69758
| 23>    C       -1.66455         4.78835        -4.76870
| 24>    C       -0.40097         4.63029        -5.34705
| 25>    C        0.49048         3.67809        -4.80209
| 26>    C        0.16379         2.86111        -3.72512
| 27>    S        2.01385         3.68034        -5.64018
| 28>    C        1.43456         4.93894        -6.69838
| 29>    C        0.16710         5.33784        -6.44124
| 30>   Br        2.55830         5.61403        -8.03837
| 31>    C       -3.21220         4.01243        -2.88572
| 32>    O       -4.11049         4.83063        -2.99244
| 33>    C       -3.04595         2.97047        -1.86657
| 34>    C       -3.84731         2.81163        -0.75775
| 35>    C       -5.12792         3.34145        -0.54482
| 36>    S       -5.52092         3.82421         1.08745
| 37>    C       -7.00593         4.55260         0.57354
| 38>    C       -7.24109         4.30605        -0.78139
| 39>    C       -6.19832         3.61227        -1.40278
| 40>    C       -6.31676         3.11570        -2.80206
| 41>    C       -7.78276         3.03397        -3.20825
| 42>    C       -8.41515         4.41062        -3.01927
| 43>    N       -9.78855         4.40243        -3.50894
| 44>    C       -8.45321         4.76285        -1.52725
| 45>    C       -7.67859         5.37404         1.51935
| 46>    C       -8.83924         6.05215         1.36040
| 47>    C       -9.25021         7.06338         2.28104
| 48>    C      -10.26541         7.93343         2.10942
| 49>    C      -11.21993         7.93121         0.96030
| 50>    C      -10.32511         9.16196         2.98352
| 51>    N       -9.40355        10.13566         2.41216
| 52>    C       -9.74467        10.89644         1.34198
| 53>    C       -8.86799        11.22989         0.35740
| 54>    C       -9.14482        12.07965        -0.72791
| 55>    C       -8.29601        12.22430        -1.79675
| 56>    C       -8.45487        13.03835        -2.94355
| 57>    C       -7.45623        12.91469        -3.86372
| 58>    C       -6.45804        11.98303        -3.50236
| 59>    S       -6.80317        11.29834        -1.93416
| 60>    C       -5.34976        11.56341        -4.21593
| 61>    C       -4.88759        11.97035        -5.48417
| 62>    C       -3.76654        11.31305        -5.89599
| 63>    C       -3.28373        10.34391        -4.97790
| 64>    S       -4.31347        10.31160        -3.56298
| 65>    C       -2.15330         9.57994        -5.13913
| 66>    C       -1.65789         8.60873        -4.24687
| 67>    S       -0.00234         8.02556        -4.40085
| 68>    C       -0.08998         7.00177        -3.01716
| 69>    C       -1.33658         7.08251        -2.44768
| 70>    C       -2.21345         7.97025        -3.15057
| 71>    O       -3.44115         7.96228        -2.59139
| 72>    C       -3.35759         7.12113        -1.53444
| 73>    N       -4.50973         6.93215        -0.75359
| 74>    O       -4.37247         6.26800         0.26419
| 75>    O       -5.55498         7.43929        -1.10592
| 76>    C       -2.11552         6.55973        -1.37985
| 77>    H       -2.36649         5.51488        -5.14810
| 78>    H        0.87843         2.14918        -3.34703
| 79>    H       -0.34503         6.10460        -6.99277
| 80>    H       -3.40963         2.31853         0.10314
| 81>    H       -5.81659         2.14929        -2.89903
| 82>    H       -5.80733         3.81895        -3.46922
| 83>    H       -8.31659         2.30516        -2.59642
| 84>    H       -7.86154         2.72489        -4.25211
| 85>    H       -7.78250         5.15035        -3.54242
| 86>    H      -10.19191         5.33053        -3.43438
| 87>    H       -9.81246         4.13532        -4.48722
| 88>    H       -9.34447         4.29142        -1.10132
| 89>    H       -8.54641         5.84694        -1.41875
| 90>    H       -7.12906         5.52012         2.44200
| 91>    H       -9.44432         5.90352         0.48479
| 92>    H       -8.61853         7.18587         3.15375
| 93>    H      -11.23606         6.97760         0.44361
| 94>    H      -10.94000         8.70848         0.24489
| 95>    H      -12.22776         8.15115         1.31090
| 96>    H      -10.00207         8.94750         4.00496
| 97>    H      -11.32410         9.60026         3.00561
| 98>    H       -8.44893         9.79479         2.38257
| 99>    H      -10.76490        11.25702         1.33344
|100>    H       -7.88158        10.78287         0.38202
|101>    H      -10.07900        12.62524        -0.74112
|102>    H       -9.30454        13.68963        -3.05386
|103>    H       -7.41671        13.45489        -4.79291
|104>    H       -5.38788        12.73115        -6.05685
|105>    H       -3.26814        11.48888        -6.83314
|106>    H       -1.54890         9.77225        -6.01513
|107>    H        0.75873         6.41959        -2.72651
|108>    H       -1.82735         5.86480        -0.61867
|109> *
|110>
|111>                          ****END OF INPUT****

CARTESIAN COORDINATES (ANGSTROEM)
---------------------------------
  C     -1.757460    2.342800   -2.065320
  C     -1.269650    1.252240   -1.389560
  C     -0.002020    0.684000   -1.624270
  N      1.025500    0.191280   -1.767700
  C     -1.979410    0.533870   -0.405420
  N     -2.506980   -0.119060    0.378530
  C     -1.093450    3.020800   -3.174970
  C     -1.980620    3.990980   -3.697580
  C     -1.664550    4.788350   -4.768700
  C     -0.400970    4.630290   -5.347050
  C      0.490480    3.678090   -4.802090
  C      0.163790    2.861110   -3.725120
  S      2.013850    3.680340   -5.640180
  C      1.434560    4.938940   -6.698380
  C      0.167100    5.337840   -6.441240
  Br     2.558300    5.614030   -8.038370
  C     -3.212200    4.012430   -2.885720
  O     -4.110490    4.830630   -2.992440
  C     -3.045950    2.970470   -1.866570
  C     -3.847310    2.811630   -0.757750
  C     -5.127920    3.341450   -0.544820
  S     -5.520920    3.824210    1.087450
  C     -7.005930    4.552600    0.573540
  C     -7.241090    4.306050   -0.781390
  C     -6.198320    3.612270   -1.402780
  C     -6.316760    3.115700   -2.802060
  C     -7.782760    3.033970   -3.208250
  C     -8.415150    4.410620   -3.019270
  N     -9.788550    4.402430   -3.508940
  C     -8.453210    4.762850   -1.527250
  C     -7.678590    5.374040    1.519350
  C     -8.839240    6.052150    1.360400
  C     -9.250210    7.063380    2.281040
  C    -10.265410    7.933430    2.109420
  C    -11.219930    7.931210    0.960300
  C    -10.325110    9.161960    2.983520
  N     -9.403550   10.135660    2.412160
  C     -9.744670   10.896440    1.341980
  C     -8.867990   11.229890    0.357400
  C     -9.144820   12.079650   -0.727910
  C     -8.296010   12.224300   -1.796750
  C     -8.454870   13.038350   -2.943550
  C     -7.456230   12.914690   -3.863720
  C     -6.458040   11.983030   -3.502360
  S     -6.803170   11.298340   -1.934160
  C     -5.349760   11.563410   -4.215930
  C     -4.887590   11.970350   -5.484170
  C     -3.766540   11.313050   -5.895990
  C     -3.283730   10.343910   -4.977900
  S     -4.313470   10.311600   -3.562980
  C     -2.153300    9.579940   -5.139130
  C     -1.657890    8.608730   -4.246870
  S     -0.002340    8.025560   -4.400850
  C     -0.089980    7.001770   -3.017160
  C     -1.336580    7.082510   -2.447680
  C     -2.213450    7.970250   -3.150570
  O     -3.441150    7.962280   -2.591390
  C     -3.357590    7.121130   -1.534440
  N     -4.509730    6.932150   -0.753590
  O     -4.372470    6.268000    0.264190
  O     -5.554980    7.439290   -1.105920
  C     -2.115520    6.559730   -1.379850
  H     -2.366490    5.514880   -5.148100
  H      0.878430    2.149180   -3.347030
  H     -0.345030    6.104600   -6.992770
  H     -3.409630    2.318530    0.103140
  H     -5.816590    2.149290   -2.899030
  H     -5.807330    3.818950   -3.469220
  H     -8.316590    2.305160   -2.596420
  H     -7.861540    2.724890   -4.252110
  H     -7.782500    5.150350   -3.542420
  H    -10.191910    5.330530   -3.434380
  H     -9.812460    4.135320   -4.487220
  H     -9.344470    4.291420   -1.101320
  H     -8.546410    5.846940   -1.418750
  H     -7.129060    5.520120    2.442000
  H     -9.444320    5.903520    0.484790
  H     -8.618530    7.185870    3.153750
  H    -11.236060    6.977600    0.443610
  H    -10.940000    8.708480    0.244890
  H    -12.227760    8.151150    1.310900
  H    -10.002070    8.947500    4.004960
  H    -11.324100    9.600260    3.005610
  H     -8.448930    9.794790    2.382570
  H    -10.764900   11.257020    1.333440
  H     -7.881580   10.782870    0.382020
  H    -10.079000   12.625240   -0.741120
  H     -9.304540   13.689630   -3.053860
  H     -7.416710   13.454890   -4.792910
  H     -5.387880   12.731150   -6.056850
  H     -3.268140   11.488880   -6.833140
  H     -1.548900    9.772250   -6.015130
  H      0.758730    6.419590   -2.726510
  H     -1.827350    5.864800   -0.618670

 Total Charge           Charge          ....    0
 Multiplicity           Mult            ....    1
 Number of Electrons    NEL             ....  496
 Basis Dimension        Dim             .... 1066

ORBITAL ENERGIES
----------------

  NO   OCC          E(Eh)            E(eV)
   0   2.0000    -482.881170    -13139.8647
   1   2.0000     -88.969512     -2420.9835
   2   2.0000     -88.963851     -2420.8295
   3   2.0000     -88.948530     -2420.4125
   4   2.0000     -88.929922     -2419.9062
   5   2.0000     -88.925853     -2419.7955
   6   2.0000     -62.558886     -1702.3138
   7   2.0000     -56.392816     -1534.5265
   8   2.0000     -56.390142     -1534.4538
   9   2.0000     -56.390088     -1534.4523
  10   2.0000     -19.295196      -525.0490
  11   2.0000     -19.238626      -523.5096
  12   2.0000     -19.235450      -523.4232
  13   2.0000     -19.207970      -522.6754
  14   2.0000     -14.646933      -398.5633
  15   2.0000     -14.436385      -392.8340
  16   2.0000     -14.407148      -392.0384
  17   2.0000     -14.405665      -391.9981
  18   2.0000     -14.377483      -391.2312
  19   2.0000     -10.376868      -282.3689
  20   2.0000     -10.357567      -281.8437
  21   2.0000     -10.352331      -281.7012
  22   2.0000     -10.333518      -281.1893
  23   2.0000     -10.332518      -281.1621
  24   2.0000     -10.331938      -281.1463
  25   2.0000     -10.319028      -280.7950
  26   2.0000     -10.317876      -280.7637
  27   2.0000     -10.316670      -280.7309
  28   2.0000     -10.313376      -280.6412
  29   2.0000     -10.310516      -280.5634
  30   2.0000     -10.308898      -280.5194
  31   2.0000     -10.308557      -280.5101
  32   2.0000     -10.305907      -280.4380
  33   2.0000     -10.300687      -280.2960
  34   2.0000     -10.300610      -280.2939
  35   2.0000     -10.299899      -280.2745
  36   2.0000     -10.299278      -280.2576
  37   2.0000     -10.299033      -280.2509
  38   2.0000     -10.298618      -280.2396
  39   2.0000     -10.298440      -280.2348
  40   2.0000     -10.296853      -280.1916
  41   2.0000     -10.292663      -280.0776
  42   2.0000     -10.290682      -280.0237
  43   2.0000     -10.288787      -279.9721
  44   2.0000     -10.287931      -279.9488
  45   2.0000     -10.287928      -279.9488
  46   2.0000     -10.287519      -279.9376
  47   2.0000     -10.286336      -279.9054
  48   2.0000     -10.284866      -279.8654
  49   2.0000     -10.284353      -279.8515
  50   2.0000     -10.283469      -279.8274
  51   2.0000     -10.282291      -279.7954
  52   2.0000     -10.280411      -279.7442
  53   2.0000     -10.278937      -279.7041
  54   2.0000     -10.277613      -279.6681
  55   2.0000     -10.275961      -279.6231
  56   2.0000     -10.274315      -279.5783
  57   2.0000     -10.274301      -279.5779
  58   2.0000     -10.273767      -279.5634
  59   2.0000     -10.273721      -279.5622
  60   2.0000     -10.272411      -279.5265
  61   2.0000     -10.268737      -279.4265
  62   2.0000     -10.262158      -279.2475
  63   2.0000     -10.259985      -279.1884
  64   2.0000     -10.256861      -279.1034
  65   2.0000     -10.253368      -279.0083
  66   2.0000      -8.788325      -239.1425
  67   2.0000      -8.065572      -219.4754
  68   2.0000      -8.058198      -219.2747
  69   2.0000      -8.043957      -218.8872
  70   2.0000      -8.026290      -218.4065
  71   2.0000      -8.022159      -218.2940
  72   2.0000      -6.624586      -180.2642
  73   2.0000      -6.610066      -179.8690
  74   2.0000      -6.609903      -179.8646
  75   2.0000      -6.035265      -164.2279
  76   2.0000      -6.031002      -164.1119
  77   2.0000      -6.027628      -164.0201
  78   2.0000      -6.026763      -163.9966
  79   2.0000      -6.023309      -163.9026
  80   2.0000      -6.020449      -163.8248
  81   2.0000      -6.013246      -163.6287
  82   2.0000      -6.009223      -163.5193
  83   2.0000      -6.005924      -163.4295
  84   2.0000      -5.996028      -163.1602
  85   2.0000      -5.991994      -163.0504
  86   2.0000      -5.991931      -163.0487
  87   2.0000      -5.987744      -162.9348
  88   2.0000      -5.987170      -162.9192
  89   2.0000      -5.982940      -162.8041
  90   2.0000      -2.740435       -74.5710
  91   2.0000      -2.736405       -74.4614
  92   2.0000      -2.736269       -74.4577
  93   2.0000      -2.724736       -74.1438
  94   2.0000      -2.724715       -74.1433
  95   2.0000      -1.317834       -35.8601
  96   2.0000      -1.218826       -33.1659
  97   2.0000      -1.132590       -30.8194
  98   2.0000      -1.121952       -30.5299
  99   2.0000      -1.040649       -28.3175
 100   2.0000      -1.015835       -27.6423
 101   2.0000      -1.005533       -27.3619
 102   2.0000      -0.990486       -26.9525
 103   2.0000      -0.985149       -26.8073
 104   2.0000      -0.984984       -26.8028
 105   2.0000      -0.981507       -26.7082
 106   2.0000      -0.979790       -26.6614
 107   2.0000      -0.964936       -26.2572
 108   2.0000      -0.959024       -26.0964
 109   2.0000      -0.936208       -25.4755
 110   2.0000      -0.925740       -25.1907
 111   2.0000      -0.924314       -25.1519
 112   2.0000      -0.902588       -24.5607
 113   2.0000      -0.901190       -24.5226
 114   2.0000      -0.894578       -24.3427
 115   2.0000      -0.891661       -24.2633
 116   2.0000      -0.884407       -24.0659
 117   2.0000      -0.879048       -23.9201
 118   2.0000      -0.874999       -23.8099
 119   2.0000      -0.865292       -23.5458
 120   2.0000      -0.854867       -23.2621
 121   2.0000      -0.840493       -22.8710
 122   2.0000      -0.830261       -22.5926
 123   2.0000      -0.826530       -22.4910
 124   2.0000      -0.822152       -22.3719
 125   2.0000      -0.811698       -22.0874
 126   2.0000      -0.809992       -22.0410
 127   2.0000      -0.804190       -21.8831
 128   2.0000      -0.795197       -21.6384
 129   2.0000      -0.787101       -21.4181
 130   2.0000      -0.778315       -21.1790
 131   2.0000      -0.772926       -21.0324
 132   2.0000      -0.752430       -20.4747
 133   2.0000      -0.749072       -20.3833
 134   2.0000      -0.738549       -20.0969
 135   2.0000      -0.717913       -19.5354
 136   2.0000      -0.710153       -19.3242
 137   2.0000      -0.703494       -19.1431
 138   2.0000      -0.697790       -18.9878
 139   2.0000      -0.692168       -18.8348
 140   2.0000      -0.687604       -18.7106
 141   2.0000      -0.681481       -18.5440
 142   2.0000      -0.675350       -18.3772
 143   2.0000      -0.666877       -18.1466
 144   2.0000      -0.655525       -17.8378
 145   2.0000      -0.652080       -17.7440
 146   2.0000      -0.643781       -17.5182
 147   2.0000      -0.642879       -17.4936
 148   2.0000      -0.634378       -17.2623
 149   2.0000      -0.632825       -17.2200
 150   2.0000      -0.624700       -16.9989
 151   2.0000      -0.617967       -16.8157
 152   2.0000      -0.616535       -16.7768
 153   2.0000      -0.616164       -16.7667
 154   2.0000      -0.611771       -16.6471
 155   2.0000      -0.608976       -16.5711
 156   2.0000      -0.606539       -16.5048
 157   2.0000      -0.600746       -16.3471
 158   2.0000      -0.590977       -16.0813
 159   2.0000      -0.589357       -16.0372
 160   2.0000      -0.582239       -15.8435
 161   2.0000      -0.577122       -15.7043
 162   2.0000      -0.576244       -15.6804
 163   2.0000      -0.570273       -15.5179
 164   2.0000      -0.562749       -15.3132
 165   2.0000      -0.559811       -15.2332
 166   2.0000      -0.557360       -15.1665
 167   2.0000      -0.554649       -15.0928
 168   2.0000      -0.548551       -14.9268
 169   2.0000      -0.543341       -14.7851
 170   2.0000      -0.541603       -14.7378
 171   2.0000      -0.537729       -14.6324
 172   2.0000      -0.534736       -14.5509
 173   2.0000      -0.529292       -14.4028
 174   2.0000      -0.525489       -14.2993
 175   2.0000      -0.522914       -14.2292
 176   2.0000      -0.516854       -14.0643
 177   2.0000      -0.516030       -14.0419
 178   2.0000      -0.513582       -13.9753
 179   2.0000      -0.508648       -13.8410
 180   2.0000      -0.504754       -13.7351
 181   2.0000      -0.502456       -13.6725
 182   2.0000      -0.500859       -13.6291
 183   2.0000      -0.498582       -13.5671
 184   2.0000      -0.495346       -13.4790
 185   2.0000      -0.491395       -13.3715
 186   2.0000      -0.488326       -13.2880
 187   2.0000      -0.486335       -13.2339
 188   2.0000      -0.485613       -13.2142
 189   2.0000      -0.484040       -13.1714
 190   2.0000      -0.483457       -13.1555
 191   2.0000      -0.478685       -13.0257
 192   2.0000      -0.475707       -12.9446
 193   2.0000      -0.469999       -12.7893
 194   2.0000      -0.468658       -12.7528
 195   2.0000      -0.466063       -12.6822
 196   2.0000      -0.464249       -12.6329
 197   2.0000      -0.462606       -12.5882
 198   2.0000      -0.457441       -12.4476
 199   2.0000      -0.454839       -12.3768
 200   2.0000      -0.453339       -12.3360
 201   2.0000      -0.452329       -12.3085
 202   2.0000      -0.451384       -12.2828
 203   2.0000      -0.447806       -12.1854
 204   2.0000      -0.443683       -12.0732
 205   2.0000      -0.440633       -11.9902
 206   2.0000      -0.437221       -11.8974
 207   2.0000      -0.436596       -11.8804
 208   2.0000      -0.435492       -11.8503
 209   2.0000      -0.432002       -11.7554
 210   2.0000      -0.431054       -11.7296
 211   2.0000      -0.425630       -11.5820
 212   2.0000      -0.423733       -11.5304
 213   2.0000      -0.418582       -11.3902
 214   2.0000      -0.418424       -11.3859
 215   2.0000      -0.416269       -11.3272
 216   2.0000      -0.413996       -11.2654
 217   2.0000      -0.408560       -11.1175
 218   2.0000      -0.407087       -11.0774
 219   2.0000      -0.404442       -11.0054
 220   2.0000      -0.402594       -10.9551
 221   2.0000      -0.399830       -10.8799
 222   2.0000      -0.397879       -10.8268
 223   2.0000      -0.392830       -10.6895
 224   2.0000      -0.386370       -10.5137
 225   2.0000      -0.381190       -10.3727
 226   2.0000      -0.379635       -10.3304
 227   2.0000      -0.377397       -10.2695
 228   2.0000      -0.374658       -10.1950
 229   2.0000      -0.370818       -10.0905
 230   2.0000      -0.370228       -10.0744
 231   2.0000      -0.366562        -9.9747
 232   2.0000      -0.363772        -9.8987
 233   2.0000      -0.345730        -9.4078
 234   2.0000      -0.338370        -9.2075
 235   2.0000      -0.333463        -9.0740
 236   2.0000      -0.325642        -8.8612
 237   2.0000      -0.317965        -8.6523
 238   2.0000      -0.308926        -8.4063
 239   2.0000      -0.306475        -8.3396
 240   2.0000      -0.303852        -8.2682
 241   2.0000      -0.301468        -8.2034
 242   2.0000      -0.297109        -8.0847
 243   2.0000      -0.294663        -8.0182
 244   2.0000      -0.284985        -7.7548
 245   2.0000      -0.257516        -7.0074
 246   2.0000      -0.246160        -6.6983
 247   2.0000      -0.192889        -5.2488
 248   0.0000      -0.084331        -2.2948
 249   0.0000      -0.068856        -1.8737
 250   0.0000      -0.060066        -1.6345
 251   0.0000      -0.046444        -1.2638
 252   0.0000      -0.020497        -0.5578

MULLIKEN ATOMIC CHARGES
-----------------------
   0 C :    0.295530
   1 C :   -0.346402
   2 C :   -0.186989
   3 N :    0.145114
   4 C :   -0.211005
   5 N :    0.161938
   6 C :    0.018914
   7 C :   -0.009835
   8 C :   -0.061281
   9 C :    0.105699
  10 C :   -0.087739
  11 C :   -0.039893
  12 S :    0.175657
  13 C :   -0.130950
  14 C :    0.051564
  15 Br:    0.017590
  16 C :    0.152508
  17 O :   -0.194723
  18 C :   -0.101755
  19 C :    0.021145
  20 C :   -0.174167
  21 S :    0.165430
  22 C :   -0.092316
  23 C :   -0.085968
  24 C :   -0.027660
  25 C :    0.131104
  26 C :    0.062339
  27 C :   -0.058123
  28 N :   -0.173422
  29 C :    0.145963
  30 C :    0.040016
  31 C :    0.016815
  32 C :    0.010675
  33 C :   -0.190469
  34 C :    0.086369
  35 C :    0.180453
  36 N :   -0.140529
  37 C :    0.041320
  38 C :   -0.024018
  39 C :    0.000444
  40 C :   -0.042550
  41 C :    0.041112
  42 C :    0.014193
  43 C :   -0.039367
  44 S :    0.065850
  45 C :   -0.053304
  46 C :    0.034174
  47 C :    0.020021
  48 C :   -0.022462
  49 S :    0.083506
  50 C :    0.018502
  51 C :   -0.231125
  52 S :    0.129156
  53 C :   -0.153866
  54 C :    0.145363
  55 C :    0.185027
  56 O :   -0.187855
  57 C :    0.260718
  58 N :    0.288176
  59 O :   -0.265155
  60 O :   -0.232144
  61 C :   -0.086758
  62 H :   -0.009261
  63 H :   -0.009307
  64 H :   -0.007305
  65 H :    0.028474
  66 H :    0.007781
  67 H :    0.040771
  68 H :    0.003854
  69 H :   -0.009644
  70 H :   -0.000140
  71 H :    0.087881
  72 H :    0.087344
  73 H :    0.022649
  74 H :    0.028494
  75 H :   -0.016799
  76 H :   -0.016782
  77 H :   -0.025940
  78 H :    0.023667
  79 H :    0.043719
  80 H :    0.016224
  81 H :    0.022964
  82 H :    0.009989
  83 H :    0.119700
  84 H :   -0.000597
  85 H :   -0.001474
  86 H :   -0.021539
  87 H :   -0.018154
  88 H :   -0.021394
  89 H :   -0.018814
  90 H :   -0.023309
  91 H :   -0.031832
  92 H :    0.026621
  93 H :    0.001604
Sum of atomic charges:   -0.0000000

LOEWDIN ATOMIC CHARGES
----------------------
   0 C :    0.075056
   1 C :   -0.148210
   2 C :   -0.018628
   3 N :   -0.060369
   4 C :   -0.027116
   5 N :   -0.054437
   6 C :   -0.022300
   7 C :   -0.049213
   8 C :    0.024057
   9 C :   -0.036621
  10 C :   -0.147905
  11 C :   -0.015091
  12 S :    0.423871
  13 C :   -0.277840
  14 C :   -0.072858
  15 Br:    0.131863
  16 C :    0.082911
  17 O :   -0.157911
  18 C :   -0.117014
  19 C :    0.053754
  20 C :   -0.188986
  21 S :    0.474410
  22 C :   -0.135628
  23 C :   -0.051195
  24 C :    0.000342
  25 C :   -0.032002
  26 C :   -0.026535
  27 C :    0.018410
  28 N :   -0.113134
  29 C :   -0.031230
  30 C :   -0.040662
  31 C :   -0.007661
  32 C :   -0.048950
  33 C :   -0.032361
  34 C :   -0.050303
  35 C :    0.047079
  36 N :   -0.002211
  37 C :    0.041084
  38 C :   -0.118716
  39 C :   -0.032903
  40 C :   -0.173461
  41 C :   -0.026317
  42 C :   -0.051815
  43 C :   -0.164251
  44 S :    0.370484
  45 C :   -0.203853
  46 C :   -0.028176
  47 C :   -0.053153
  48 C :   -0.136391
  49 S :    0.392370
  50 C :   -0.114741
  51 C :   -0.198232
  52 S :    0.468342
  53 C :   -0.197649
  54 C :   -0.078402
  55 C :   -0.000337
  56 O :    0.006601
  57 C :    0.031102
  58 N :    0.281730
  59 O :   -0.224461
  60 O :   -0.193343
  61 C :   -0.017995
  62 H :    0.040062
  63 H :    0.039942
  64 H :    0.034574
  65 H :    0.043953
  66 H :    0.032490
  67 H :    0.037100
  68 H :    0.022940
  69 H :    0.020266
  70 H :    0.008460
  71 H :    0.052641
  72 H :    0.052581
  73 H :    0.031867
  74 H :    0.034897
  75 H :    0.028167
  76 H :    0.026415
  77 H :    0.023465
  78 H :    0.031770
  79 H :    0.041532
  80 H :    0.033402
  81 H :    0.029562
  82 H :    0.026293
  83 H :    0.077839
  84 H :    0.024426
  85 H :    0.020383
  86 H :    0.029993
  87 H :    0.030841
  88 H :    0.028597
  89 H :    0.029509
  90 H :    0.028242
  91 H :    0.028296
  92 H :    0.025375
  93 H :    0.041222

  Mayer bond orders larger than 0.100000
B(  0-C ,  1-C ) :   1.6300 B(  0-C ,  6-C ) :   1.0001 B(  0-C , 18-C ) :   1.0769
B(  1-C ,  2-C ) :   1.1395 B(  1-C ,  4-C ) :   1.1425 B(  2-C ,  3-N ) :   2.9718
B(  4-C ,  5-N ) :   3.0004 B(  6-C ,  7-C ) :   1.2782 B(  6-C , 11-C ) :   1.4068
B(  7-C ,  8-C ) :   1.4220 B(  7-C , 16-C ) :   0.9476 B(  8-C ,  9-C ) :   1.2358
B(  8-C , 62-H ) :   1.0220 B(  9-C , 10-C ) :   1.3188 B(  9-C , 14-C ) :   1.1651
B( 10-C , 11-C ) :   1.3157 B( 10-C , 12-S ) :   1.0806 B( 11-C , 63-H ) :   0.9825
B( 12-S , 13-C ) :   1.0803 B( 13-C , 14-C ) :   1.6156 B( 13-C , 15-Br) :   1.0155
B( 14-C , 64-H ) :   0.9996 B( 16-C , 17-O ) :   2.0709 B( 16-C , 18-C ) :   1.0024
B( 18-C , 19-C ) :   1.5095 B( 19-C , 20-C ) :   1.2425 B( 19-C , 65-H ) :   0.9311
B( 20-C , 21-S ) :   1.0932 B( 20-C , 24-C ) :   1.3915 B( 21-S , 22-C ) :   1.1689
B( 22-C , 23-C ) :   1.4321 B( 22-C , 30-C ) :   1.1178 B( 23-C , 24-C ) :   1.3839
B( 23-C , 29-C ) :   1.0560 B( 24-C , 25-C ) :   1.0658 B( 25-C , 26-C ) :   1.0886
B( 25-C , 66-H ) :   0.9165 B( 25-C , 67-H ) :   0.8633 B( 26-C , 27-C ) :   1.0509
B( 26-C , 68-H ) :   0.9308 B( 26-C , 69-H ) :   0.9316 B( 27-C , 28-N ) :   1.0818
B( 27-C , 29-C ) :   1.0334 B( 27-C , 70-H ) :   0.9263 B( 28-N , 71-H ) :   0.9622
B( 28-N , 72-H ) :   0.9621 B( 29-C , 73-H ) :   0.8935 B( 29-C , 74-H ) :   0.8936
B( 30-C , 31-C ) :   1.6917 B( 30-C , 75-H ) :   0.9565 B( 31-C , 32-C ) :   1.1187
B( 31-C , 76-H ) :   0.9597 B( 32-C , 33-C ) :   1.7408 B( 32-C , 77-H ) :   0.9758
B( 33-C , 34-C ) :   1.0835 B( 33-C , 35-C ) :   1.0261 B( 34-C , 78-H ) :   0.9509
B( 34-C , 79-H ) :   0.9397 B( 34-C , 80-H ) :   0.9467 B( 35-C , 36-N ) :   1.0222
B( 35-C , 81-H ) :   0.9465 B( 35-C , 82-H ) :   0.9373 B( 36-N , 37-C ) :   1.2200
B( 36-N , 83-H ) :   0.9387 B( 37-C , 38-C ) :   1.5945 B( 37-C , 84-H ) :   0.9709
B( 38-C , 39-C ) :   1.1725 B( 38-C , 85-H ) :   0.9567 B( 39-C , 40-C ) :   1.5807
B( 39-C , 86-H ) :   0.9805 B( 40-C , 41-C ) :   1.1510 B( 40-C , 44-S ) :   1.0145
B( 41-C , 42-C ) :   1.5833 B( 41-C , 87-H ) :   0.9971 B( 42-C , 43-C ) :   1.1932
B( 42-C , 88-H ) :   0.9940 B( 43-C , 44-S ) :   1.0648 B( 43-C , 45-C ) :   1.4932
B( 45-C , 46-C ) :   1.1973 B( 45-C , 49-S ) :   1.0299 B( 46-C , 47-C ) :   1.5816
B( 46-C , 89-H ) :   0.9934 B( 47-C , 48-C ) :   1.1492 B( 47-C , 90-H ) :   0.9984
B( 48-C , 49-S ) :   1.0633 B( 48-C , 50-C ) :   1.5818 B( 50-C , 51-C ) :   1.1472
B( 50-C , 91-H ) :   0.9472 B( 51-C , 52-S ) :   1.1259 B( 51-C , 53-C ) :   0.1061
B( 51-C , 55-C ) :   1.4232 B( 52-S , 53-C ) :   1.1607 B( 53-C , 54-C ) :   1.4257
B( 53-C , 92-H ) :   0.9785 B( 54-C , 55-C ) :   1.2289 B( 54-C , 61-C ) :   1.0642
B( 55-C , 56-O ) :   1.0859 B( 56-O , 57-C ) :   1.1293 B( 57-C , 58-N ) :   0.9234
B( 57-C , 61-C ) :   1.5609 B( 58-N , 59-O ) :   1.4997 B( 58-N , 60-O ) :   1.5143
B( 59-O , 60-O ) :   0.2675 B( 61-C , 93-H ) :   1.0301

-----------------------------------------------------------------------------
         ABSORPTION SPECTRUM VIA TRANSITION ELECTRIC DIPOLE MOMENTS
-----------------------------------------------------------------------------
State   Energy  Wavelength   fosc         T2         TX        TY        TZ
        (cm-1)    (nm)                  (au**2)     (au)      (au)      (au)
-----------------------------------------------------------------------------
   0   10872.4    919.8   0.060147863   1.82125  -0.87957   1.02319   0.02591
   1   11757.4    850.5   0.083020425   2.32461  -1.37495   0.38738   0.53297
   2   15289.8    654.0   0.338505287   7.28854  -2.19958   0.54346   1.46801
   3   17189.9    581.7   0.095278595   1.82472   1.00241  -0.45655  -0.78196
   4   19822.2    504.5   1.457877921  24.21278   4.01801  -2.11715  -1.89369
   5   21418.6    466.9   0.046287355   0.71145  -0.36925   0.71255  -0.25957
   6   22780.7    439.0   0.058256656   0.84189   0.68680   0.36264  -0.48855
   7   24424.5    409.4   0.046738616   0.62998  -0.32611   0.61869  -0.37531
   8   25016.8    399.7   0.121116442   1.59385  -1.05458   0.64654   0.25238
   9   25301.4    395.2   0.072546291   0.94395  -0.64943   0.33579   0.63986
  10   26187.2    381.9   0.004466578   0.05615   0.06158  -0.09655   0.20745
  11   27704.9    360.9   0.081332664   0.96646  -0.05687  -0.97126   0.14101
  12   27785.0    359.9   0.207211558   2.45516   0.51728  -1.15601   0.92261
  13   28148.8    355.3   0.199295147   2.33084  -0.79912  -0.53759   1.18459
  14   28785.6    347.4   0.274521771   3.13962   0.32305   0.97388  -1.44458
  15   29419.6    339.9   0.102302164   1.14479   0.67631   0.06759  -0.82633
  16   29644.8    337.3   0.007774794   0.08634   0.01792   0.14355   0.25576
  17   29792.6    335.7   0.058480708   0.64622   0.56764  -0.51947  -0.23270
  18   30256.2    330.5   0.638239531   6.94455  -0.33503  -1.47506   2.15789
  19   30616.2    326.6   0.015001421   0.16131  -0.10226   0.35897  -0.14831
  20   31005.6    322.5   0.074277751   0.78867  -0.56879  -0.26440   0.62868
  21   31655.9    315.9   0.103880026   1.08032  -0.97677   0.12805   0.33143
  22   31964.5    312.8   0.000784991   0.00808   0.03219  -0.05889   0.05983
  23   32232.0    310.3   0.025642584   0.26191   0.12116   0.28050  -0.41055
  24   32385.2    308.8   0.005437312   0.05527   0.11082  -0.11663   0.17143
  25   32828.9    304.6   0.021971329   0.22033  -0.31214  -0.06136   0.34516
  26   33122.0    301.9   0.086443949   0.85920  -0.73190   0.56846  -0.01932
  27   33268.1    300.6   0.227754178   2.25379  -0.77343  -0.61537   1.13001
  28   33520.4    298.3   0.073790420   0.72471   0.47444  -0.66601   0.23674
  29   33831.0    295.6   0.119631350   1.16414  -0.60159   0.21510   0.86946
  30   34095.9    293.3   0.034922837   0.33720  -0.05992   0.21729  -0.53515
  31   34283.2    291.7   0.051303486   0.49265  -0.02095   0.33240  -0.61784
  32   34852.5    286.9   0.268547477   2.53667  -0.12223  -1.31145   0.89545
  33   35169.6    284.3   0.030030615   0.28111  -0.32244   0.08703   0.41178
  34   35229.2    283.9   0.045207252   0.42246  -0.10592  -0.63339  -0.10029
  35   35619.4    280.7   0.014030957   0.12968   0.11859  -0.29137   0.17527
  36   35819.1    279.2   0.251051231   2.30740   1.18546  -0.77585  -0.54784
  37   35948.8    278.2   0.059114299   0.54136   0.35109  -0.52149   0.38228
  38   36035.7    277.5   0.003510680   0.03207  -0.07500  -0.14763   0.06821
  39   36214.6    276.1   0.009346706   0.08497   0.19632   0.16113  -0.14305
  40   36472.7    274.2   0.043917656   0.39641  -0.19521  -0.48446   0.35157
  41   36772.9    271.9   0.075311007   0.67423  -0.52121  -0.45633   0.44083
  42   37132.5    269.3   0.023887591   0.21178   0.38823   0.01901  -0.24637
  43   37154.6    269.1   0.002691965   0.02385   0.14131  -0.06170  -0.00886
  44   37497.6    266.7   0.106245998   0.93279  -0.90150   0.13813   0.31781
  45   37917.8    263.7   0.016167004   0.14037   0.15469   0.23796  -0.24457
  46   38149.8    262.1   0.268449957   2.31658  -1.36834   0.12376   0.65490
  47   38534.9    259.5   0.046266923   0.39527   0.15508  -0.60197   0.09408
  48   38792.9    257.8   0.003154157   0.02677  -0.09608  -0.11821   0.05968
  49   39020.6    256.3   0.002084423   0.01759  -0.05858  -0.00954  -0.11859
  50   39323.1    254.3   0.028647330   0.23983   0.44344  -0.13396  -0.15891
  51   39414.8    253.7   0.043904917   0.36672   0.40938  -0.07601  -0.43971
  52   39598.9    252.5   0.001877170   0.01561  -0.10975   0.03334   0.04949
  53   39656.2    252.2   0.007388291   0.06134   0.15034   0.11213  -0.16174
  54   39751.5    251.6   0.073936200   0.61232   0.74891  -0.22342   0.03917
  55   39847.2    251.0   0.008286460   0.06846   0.24827  -0.06291   0.05353
  56   40161.7    249.0   0.031703064   0.25988  -0.20656  -0.07484   0.46001

FINAL SINGLE POINT ENERGY     -6945.977427453966

DIPOLE MOMENT
-------------
                                X             Y             Z
Electronic contribution:    151.67869     -27.05820     -79.18487
Nuclear contribution   :   -154.25064      30.17582      78.46710
                        -----------------------------------------
Total Dipole Moment    :     -2.57195       3.11762      -0.71777
                        -----------------------------------------
Magnitude (a.u.)       :      4.10483
Magnitude (Debye)      :     10.43366

Rotational constants in cm-1:     0.001433     0.000725     0.000533
Rotational constants in MHz :    42.951616    21.729379    15.968638

                             ****ORCA TERMINATED NORMALLY****
TOTAL RUN TIME: 0 days 0 hours 9 minutes 44 seconds 54 msec
