                         Program Version 4.2.0 -  RELEASE  -
|  1> # ORCA input file
|  2> # SCF done       -176.403984670948          0.000964250841
|  3> ! CAM-B3LYP def2-SVP def2/J RIJCOSX Grid4 TightSCF
|  4> %maxcore 5000
|  5> %tddft
|  6>     Mode sTDDFT
|  7>     Ethresh 5.0
|  8>     maxcore 5000
|  9> end
| 10>
| 11> %pal
| 12>   nprocs 6
| 13>   end
| 14> * xyz 0 1
| 15>    C        9.06101       -22.09136         2.72111
| 16>    C        8.11974       -21.40024         2.06501
| 17>    C        7.23325       -21.88206         1.04500
| 18>    C        6.43691       -20.93791         0.49984
| 19>    C        6.59850       -19.63967         1.06025
| 20>    S        7.81692       -19.67413         2.32424
| 21>    C        5.93820       -18.49655         0.68819
| 22>    C        5.07800       -18.33566        -0.43037
| 23>    C        4.62299       -17.07097        -0.59329
| 24>    C        5.07803       -16.14356         0.38755
| 25>    S        6.09425       -16.97713         1.55604
| 26>    C        4.80572       -14.80791         0.38058
| 27>    C        5.26058       -13.81066         1.27163
| 28>    S        6.07961       -14.17040         2.76860
| 29>    C        6.33250       -12.50248         3.07445
| 30>    C        5.80569       -11.70418         2.10059
| 31>    C        5.17573       -12.43895         1.07778
| 32>    C        4.51952       -11.79012        -0.09891
| 33>    C        4.85067       -10.29359        -0.26674
| 34>    C        6.08854        -9.84396         0.53325
| 35>    O        6.19219        -8.44527         0.33809
| 36>    C        7.48291        -7.92181         0.51958
| 37>    C        5.91342       -10.21902         2.01138
| 38>    N        4.99684        -9.96370        -1.67234
| 39>    C        5.94247       -10.47961        -2.49322
| 40>    N        6.04428        -9.97204        -3.68785
| 41>    N        6.67958       -11.50329        -1.97612
| 42>    C        7.08337       -12.49003        -2.73513
| 43>    C        6.88003       -12.42641        -4.15733
| 44>    C        6.30953       -13.33275        -4.99305
| 45>    S        5.62895       -12.74108        -6.43550
| 46>    C        6.38980       -11.19780        -6.34232
| 47>    S        7.04111       -10.76535        -4.78879
| 48>    C        7.60392       -13.67485        -2.10382
| 49>    C        7.92306       -13.68958        -0.79719
| 50>    C        8.33750       -14.85983        -0.06054
| 51>    N        8.62320       -14.64044         1.20624
| 52>    N        8.26506       -16.04526        -0.67410
| 53>    C        8.95192       -17.09730        -0.25941
| 54>    C        9.85315       -16.92360         0.85907
| 55>    C       11.19282       -17.08522         0.93134
| 56>    S       12.04675       -16.15103         2.08107
| 57>    C       10.66666       -15.56146         2.89103
| 58>    S        9.12259       -15.90503         2.13957
| 59>    C        8.81527       -18.32762        -0.93965
| 60>    C        9.45165       -19.47051        -0.53852
| 61>    C        9.22261       -20.72268        -1.12063
| 62>    C        9.87610       -21.87322        -0.73849
| 63>    C        9.59027       -23.21342        -1.18192
| 64>    C        8.51303       -23.61935        -1.93717
| 65>    C        8.27781       -24.95277        -2.32307
| 66>    N        8.03182       -26.02035        -2.66831
| 67>    C        7.46991       -22.78330        -2.37823
| 68>    N        6.56230       -22.18025        -2.74518
| 69>    C       10.59897       -24.09950        -0.60797
| 70>    C       11.44550       -23.33480         0.23111
| 71>    C       11.02648       -21.91799         0.18684
| 72>    O       11.56798       -20.99545         0.76597
| 73>    C       12.49134       -23.88601         0.92805
| 74>    C       12.71935       -25.25974         0.78594
| 75>    C       11.87252       -26.01424        -0.05815
| 76>    C       10.80929       -25.45643        -0.75948
| 77>    S       12.33891       -27.68804        -0.10034
| 78>    C       13.64829       -27.35430         1.00148
| 79>    C       13.73254       -26.05824         1.38376
| 80>   Br       14.78248       -28.74806         1.54097
| 81>    H        9.20942       -23.13902         2.52370
| 82>    H        9.69371       -21.63127         3.45699
| 83>    H        7.23490       -22.92091         0.76512
| 84>    H        5.72826       -21.12837        -0.28594
| 85>    H        4.85422       -19.15318        -1.09162
| 86>    H        3.97886       -16.75275        -1.39421
| 87>    H        4.19690       -14.45408        -0.44151
| 88>    H        6.85675       -12.20282         3.95994
| 89>    H        3.43430       -11.90837        -0.01990
| 90>    H        4.83959       -12.31103        -1.00119
| 91>    H        4.01497        -9.68672         0.09482
| 92>    H        6.97590       -10.34840         0.12636
| 93>    H        7.42395        -6.86789         0.25451
| 94>    H        8.20765        -8.42191        -0.13406
| 95>    H        7.82107        -8.01201         1.55784
| 96>    H        5.00769        -9.73752         2.39099
| 97>    H        6.75803        -9.86164         2.60182
| 98>    H        4.62305        -9.07941        -1.97778
| 99>    H        6.11168       -14.35522        -4.72642
|100>    H        5.98183       -10.42474        -6.96662
|101>    H        7.72431       -14.55856        -2.71172
|102>    H        7.84029       -12.78285        -0.21747
|103>    H       11.77691       -17.64228         0.22091
|104>    H       10.77465       -14.70578         3.52769
|105>    H        8.12631       -18.34192        -1.77268
|106>    H       10.13777       -19.42724         0.29323
|107>    H        8.47537       -20.77768        -1.90107
|108>    H       13.11755       -23.27699         1.56088
|109>    H       10.19520       -26.07392        -1.39335
|110>    H       14.47904       -25.67834         2.05704
|111> *
|112>
|113>                          ****END OF INPUT****

CARTESIAN COORDINATES (ANGSTROEM)
---------------------------------
  C      9.061010  -22.091360    2.721110
  C      8.119740  -21.400240    2.065010
  C      7.233250  -21.882060    1.045000
  C      6.436910  -20.937910    0.499840
  C      6.598500  -19.639670    1.060250
  S      7.816920  -19.674130    2.324240
  C      5.938200  -18.496550    0.688190
  C      5.078000  -18.335660   -0.430370
  C      4.622990  -17.070970   -0.593290
  C      5.078030  -16.143560    0.387550
  S      6.094250  -16.977130    1.556040
  C      4.805720  -14.807910    0.380580
  C      5.260580  -13.810660    1.271630
  S      6.079610  -14.170400    2.768600
  C      6.332500  -12.502480    3.074450
  C      5.805690  -11.704180    2.100590
  C      5.175730  -12.438950    1.077780
  C      4.519520  -11.790120   -0.098910
  C      4.850670  -10.293590   -0.266740
  C      6.088540   -9.843960    0.533250
  O      6.192190   -8.445270    0.338090
  C      7.482910   -7.921810    0.519580
  C      5.913420  -10.219020    2.011380
  N      4.996840   -9.963700   -1.672340
  C      5.942470  -10.479610   -2.493220
  N      6.044280   -9.972040   -3.687850
  N      6.679580  -11.503290   -1.976120
  C      7.083370  -12.490030   -2.735130
  C      6.880030  -12.426410   -4.157330
  C      6.309530  -13.332750   -4.993050
  S      5.628950  -12.741080   -6.435500
  C      6.389800  -11.197800   -6.342320
  S      7.041110  -10.765350   -4.788790
  C      7.603920  -13.674850   -2.103820
  C      7.923060  -13.689580   -0.797190
  C      8.337500  -14.859830   -0.060540
  N      8.623200  -14.640440    1.206240
  N      8.265060  -16.045260   -0.674100
  C      8.951920  -17.097300   -0.259410
  C      9.853150  -16.923600    0.859070
  C     11.192820  -17.085220    0.931340
  S     12.046750  -16.151030    2.081070
  C     10.666660  -15.561460    2.891030
  S      9.122590  -15.905030    2.139570
  C      8.815270  -18.327620   -0.939650
  C      9.451650  -19.470510   -0.538520
  C      9.222610  -20.722680   -1.120630
  C      9.876100  -21.873220   -0.738490
  C      9.590270  -23.213420   -1.181920
  C      8.513030  -23.619350   -1.937170
  C      8.277810  -24.952770   -2.323070
  N      8.031820  -26.020350   -2.668310
  C      7.469910  -22.783300   -2.378230
  N      6.562300  -22.180250   -2.745180
  C     10.598970  -24.099500   -0.607970
  C     11.445500  -23.334800    0.231110
  C     11.026480  -21.917990    0.186840
  O     11.567980  -20.995450    0.765970
  C     12.491340  -23.886010    0.928050
  C     12.719350  -25.259740    0.785940
  C     11.872520  -26.014240   -0.058150
  C     10.809290  -25.456430   -0.759480
  S     12.338910  -27.688040   -0.100340
  C     13.648290  -27.354300    1.001480
  C     13.732540  -26.058240    1.383760
  Br    14.782480  -28.748060    1.540970
  H      9.209420  -23.139020    2.523700
  H      9.693710  -21.631270    3.456990
  H      7.234900  -22.920910    0.765120
  H      5.728260  -21.128370   -0.285940
  H      4.854220  -19.153180   -1.091620
  H      3.978860  -16.752750   -1.394210
  H      4.196900  -14.454080   -0.441510
  H      6.856750  -12.202820    3.959940
  H      3.434300  -11.908370   -0.019900
  H      4.839590  -12.311030   -1.001190
  H      4.014970   -9.686720    0.094820
  H      6.975900  -10.348400    0.126360
  H      7.423950   -6.867890    0.254510
  H      8.207650   -8.421910   -0.134060
  H      7.821070   -8.012010    1.557840
  H      5.007690   -9.737520    2.390990
  H      6.758030   -9.861640    2.601820
  H      4.623050   -9.079410   -1.977780
  H      6.111680  -14.355220   -4.726420
  H      5.981830  -10.424740   -6.966620
  H      7.724310  -14.558560   -2.711720
  H      7.840290  -12.782850   -0.217470
  H     11.776910  -17.642280    0.220910
  H     10.774650  -14.705780    3.527690
  H      8.126310  -18.341920   -1.772680
  H     10.137770  -19.427240    0.293230
  H      8.475370  -20.777680   -1.901070
  H     13.117550  -23.276990    1.560880
  H     10.195200  -26.073920   -1.393350
  H     14.479040  -25.678340    2.057040

 Total Charge           Charge          ....    0
 Multiplicity           Mult            ....    1
 Number of Electrons    NEL             ....  546
 Basis Dimension        Dim             .... 1124

ORBITAL ENERGIES
----------------

  NO   OCC          E(Eh)            E(eV)
   0   2.0000    -482.888651    -13140.0682
   1   2.0000     -89.036470     -2422.8055
   2   2.0000     -89.016344     -2422.2579
   3   2.0000     -88.979116     -2421.2448
   4   2.0000     -88.968621     -2420.9593
   5   2.0000     -88.950884     -2420.4766
   6   2.0000     -88.946623     -2420.3607
   7   2.0000     -88.945704     -2420.3357
   8   2.0000     -88.942662     -2420.2529
   9   2.0000     -62.566375     -1702.5176
  10   2.0000     -56.400334     -1534.7311
  11   2.0000     -56.397604     -1534.6568
  12   2.0000     -56.397572     -1534.6559
  13   2.0000     -19.218377      -522.9586
  14   2.0000     -19.206309      -522.6302
  15   2.0000     -14.423554      -392.4848
  16   2.0000     -14.419396      -392.3717
  17   2.0000     -14.413604      -392.2141
  18   2.0000     -14.409822      -392.1112
  19   2.0000     -14.404649      -391.9704
  20   2.0000     -14.398241      -391.7961
  21   2.0000     -14.364037      -390.8653
  22   2.0000     -10.370549      -282.1970
  23   2.0000     -10.364347      -282.0282
  24   2.0000     -10.362591      -281.9804
  25   2.0000     -10.349126      -281.6140
  26   2.0000     -10.346623      -281.5459
  27   2.0000     -10.345721      -281.5214
  28   2.0000     -10.344984      -281.5013
  29   2.0000     -10.341597      -281.4092
  30   2.0000     -10.329292      -281.0743
  31   2.0000     -10.327431      -281.0237
  32   2.0000     -10.322428      -280.8876
  33   2.0000     -10.320614      -280.8382
  34   2.0000     -10.318130      -280.7706
  35   2.0000     -10.313837      -280.6538
  36   2.0000     -10.312087      -280.6061
  37   2.0000     -10.311573      -280.5922
  38   2.0000     -10.310991      -280.5763
  39   2.0000     -10.309981      -280.5488
  40   2.0000     -10.309912      -280.5470
  41   2.0000     -10.308977      -280.5215
  42   2.0000     -10.308472      -280.5078
  43   2.0000     -10.306027      -280.4412
  44   2.0000     -10.304534      -280.4006
  45   2.0000     -10.303791      -280.3804
  46   2.0000     -10.303138      -280.3626
  47   2.0000     -10.302720      -280.3513
  48   2.0000     -10.302143      -280.3356
  49   2.0000     -10.300914      -280.3021
  50   2.0000     -10.300208      -280.2829
  51   2.0000     -10.296006      -280.1686
  52   2.0000     -10.295844      -280.1641
  53   2.0000     -10.291520      -280.0465
  54   2.0000     -10.289199      -279.9833
  55   2.0000     -10.287767      -279.9444
  56   2.0000     -10.284732      -279.8618
  57   2.0000     -10.284373      -279.8520
  58   2.0000     -10.284353      -279.8515
  59   2.0000     -10.282894      -279.8118
  60   2.0000     -10.282318      -279.7961
  61   2.0000     -10.281721      -279.7798
  62   2.0000     -10.280007      -279.7332
  63   2.0000     -10.274125      -279.5732
  64   2.0000     -10.271979      -279.5148
  65   2.0000     -10.269034      -279.4346
  66   2.0000     -10.266894      -279.3764
  67   2.0000     -10.265921      -279.3499
  68   2.0000     -10.264212      -279.3034
  69   2.0000     -10.255013      -279.0531
  70   2.0000      -8.795811      -239.3462
  71   2.0000      -8.121432      -220.9954
  72   2.0000      -8.100523      -220.4264
  73   2.0000      -8.075139      -219.7357
  74   2.0000      -8.063157      -219.4096
  75   2.0000      -8.045923      -218.9407
  76   2.0000      -8.041433      -218.8185
  77   2.0000      -8.040575      -218.7952
  78   2.0000      -8.038340      -218.7344
  79   2.0000      -6.632157      -180.4702
  80   2.0000      -6.617523      -180.0720
  81   2.0000      -6.617319      -180.0664
  82   2.0000      -6.091415      -165.7558
  83   2.0000      -6.089135      -165.6938
  84   2.0000      -6.082040      -165.5007
  85   2.0000      -6.070699      -165.1921
  86   2.0000      -6.068234      -165.1250
  87   2.0000      -6.061350      -164.9377
  88   2.0000      -6.044833      -164.4883
  89   2.0000      -6.040547      -164.3717
  90   2.0000      -6.036346      -164.2573
  91   2.0000      -6.032423      -164.1506
  92   2.0000      -6.028029      -164.0310
  93   2.0000      -6.025847      -163.9716
  94   2.0000      -6.015326      -163.6853
  95   2.0000      -6.011341      -163.5769
  96   2.0000      -6.010862      -163.5639
  97   2.0000      -6.009901      -163.5377
  98   2.0000      -6.008324      -163.4948
  99   2.0000      -6.008182      -163.4909
 100   2.0000      -6.007264      -163.4660
 101   2.0000      -6.005623      -163.4213
 102   2.0000      -6.004215      -163.3830
 103   2.0000      -6.002891      -163.3470
 104   2.0000      -6.002245      -163.3294
 105   2.0000      -5.999070      -163.2430
 106   2.0000      -2.747972       -74.7761
 107   2.0000      -2.743940       -74.6664
 108   2.0000      -2.743772       -74.6618
 109   2.0000      -2.732141       -74.3453
 110   2.0000      -2.732130       -74.3450
 111   2.0000      -1.131727       -30.7959
 112   2.0000      -1.109374       -30.1876
 113   2.0000      -1.086971       -29.5780
 114   2.0000      -1.083939       -29.4955
 115   2.0000      -1.027484       -27.9593
 116   2.0000      -1.018637       -27.7185
 117   2.0000      -1.009193       -27.4615
 118   2.0000      -1.002626       -27.2828
 119   2.0000      -1.000024       -27.2120
 120   2.0000      -0.994431       -27.0598
 121   2.0000      -0.992711       -27.0130
 122   2.0000      -0.984481       -26.7891
 123   2.0000      -0.979808       -26.6619
 124   2.0000      -0.972902       -26.4740
 125   2.0000      -0.967261       -26.3205
 126   2.0000      -0.948106       -25.7993
 127   2.0000      -0.947041       -25.7703
 128   2.0000      -0.924824       -25.1658
 129   2.0000      -0.912443       -24.8288
 130   2.0000      -0.904461       -24.6116
 131   2.0000      -0.899859       -24.4864
 132   2.0000      -0.889861       -24.2143
 133   2.0000      -0.887263       -24.1436
 134   2.0000      -0.884294       -24.0629
 135   2.0000      -0.869728       -23.6665
 136   2.0000      -0.863924       -23.5086
 137   2.0000      -0.851970       -23.1833
 138   2.0000      -0.846890       -23.0450
 139   2.0000      -0.844316       -22.9750
 140   2.0000      -0.839069       -22.8322
 141   2.0000      -0.835038       -22.7225
 142   2.0000      -0.832064       -22.6416
 143   2.0000      -0.830512       -22.5994
 144   2.0000      -0.820553       -22.3284
 145   2.0000      -0.809640       -22.0314
 146   2.0000      -0.796771       -21.6813
 147   2.0000      -0.792177       -21.5562
 148   2.0000      -0.770999       -20.9799
 149   2.0000      -0.765501       -20.8303
 150   2.0000      -0.763549       -20.7772
 151   2.0000      -0.750675       -20.4269
 152   2.0000      -0.743093       -20.2206
 153   2.0000      -0.725771       -19.7492
 154   2.0000      -0.715815       -19.4783
 155   2.0000      -0.712365       -19.3845
 156   2.0000      -0.709523       -19.3071
 157   2.0000      -0.697273       -18.9738
 158   2.0000      -0.692317       -18.8389
 159   2.0000      -0.688184       -18.7264
 160   2.0000      -0.680810       -18.5258
 161   2.0000      -0.675099       -18.3704
 162   2.0000      -0.667136       -18.1537
 163   2.0000      -0.662737       -18.0340
 164   2.0000      -0.660951       -17.9854
 165   2.0000      -0.657680       -17.8964
 166   2.0000      -0.653722       -17.7887
 167   2.0000      -0.651828       -17.7371
 168   2.0000      -0.635069       -17.2811
 169   2.0000      -0.629738       -17.1361
 170   2.0000      -0.627686       -17.0802
 171   2.0000      -0.623201       -16.9582
 172   2.0000      -0.622137       -16.9292
 173   2.0000      -0.610518       -16.6131
 174   2.0000      -0.605959       -16.4890
 175   2.0000      -0.600472       -16.3397
 176   2.0000      -0.598980       -16.2991
 177   2.0000      -0.596154       -16.2222
 178   2.0000      -0.590730       -16.0746
 179   2.0000      -0.582332       -15.8461
 180   2.0000      -0.581875       -15.8336
 181   2.0000      -0.577476       -15.7139
 182   2.0000      -0.573454       -15.6045
 183   2.0000      -0.570803       -15.5323
 184   2.0000      -0.556563       -15.1449
 185   2.0000      -0.553348       -15.0574
 186   2.0000      -0.551064       -14.9952
 187   2.0000      -0.548083       -14.9141
 188   2.0000      -0.544717       -14.8225
 189   2.0000      -0.543268       -14.7831
 190   2.0000      -0.541656       -14.7392
 191   2.0000      -0.537672       -14.6308
 192   2.0000      -0.533946       -14.5294
 193   2.0000      -0.530910       -14.4468
 194   2.0000      -0.528834       -14.3903
 195   2.0000      -0.523864       -14.2551
 196   2.0000      -0.516711       -14.0604
 197   2.0000      -0.516059       -14.0427
 198   2.0000      -0.514513       -14.0006
 199   2.0000      -0.513993       -13.9865
 200   2.0000      -0.510822       -13.9002
 201   2.0000      -0.507517       -13.8102
 202   2.0000      -0.502305       -13.6684
 203   2.0000      -0.498292       -13.5592
 204   2.0000      -0.496605       -13.5133
 205   2.0000      -0.496394       -13.5076
 206   2.0000      -0.493355       -13.4249
 207   2.0000      -0.489065       -13.3081
 208   2.0000      -0.487703       -13.2711
 209   2.0000      -0.485558       -13.2127
 210   2.0000      -0.484985       -13.1971
 211   2.0000      -0.483035       -13.1441
 212   2.0000      -0.476434       -12.9644
 213   2.0000      -0.473616       -12.8878
 214   2.0000      -0.472950       -12.8696
 215   2.0000      -0.472164       -12.8482
 216   2.0000      -0.466608       -12.6971
 217   2.0000      -0.465118       -12.6565
 218   2.0000      -0.463113       -12.6020
 219   2.0000      -0.460853       -12.5405
 220   2.0000      -0.459764       -12.5108
 221   2.0000      -0.456852       -12.4316
 222   2.0000      -0.455153       -12.3853
 223   2.0000      -0.453512       -12.3407
 224   2.0000      -0.450649       -12.2628
 225   2.0000      -0.450197       -12.2505
 226   2.0000      -0.448891       -12.2150
 227   2.0000      -0.445773       -12.1301
 228   2.0000      -0.443465       -12.0673
 229   2.0000      -0.442330       -12.0364
 230   2.0000      -0.439518       -11.9599
 231   2.0000      -0.436086       -11.8665
 232   2.0000      -0.433754       -11.8030
 233   2.0000      -0.431249       -11.7349
 234   2.0000      -0.430967       -11.7272
 235   2.0000      -0.428515       -11.6605
 236   2.0000      -0.426930       -11.6174
 237   2.0000      -0.422499       -11.4968
 238   2.0000      -0.421920       -11.4810
 239   2.0000      -0.418468       -11.3871
 240   2.0000      -0.414470       -11.2783
 241   2.0000      -0.413243       -11.2449
 242   2.0000      -0.408847       -11.1253
 243   2.0000      -0.401515       -10.9258
 244   2.0000      -0.395601       -10.7648
 245   2.0000      -0.391123       -10.6430
 246   2.0000      -0.389614       -10.6019
 247   2.0000      -0.388090       -10.5605
 248   2.0000      -0.383980       -10.4486
 249   2.0000      -0.381708       -10.3868
 250   2.0000      -0.378036       -10.2869
 251   2.0000      -0.373804       -10.1717
 252   2.0000      -0.360793        -9.8177
 253   2.0000      -0.358078        -9.7438
 254   2.0000      -0.343042        -9.3346
 255   2.0000      -0.339651        -9.2424
 256   2.0000      -0.336547        -9.1579
 257   2.0000      -0.332338        -9.0434
 258   2.0000      -0.330676        -8.9981
 259   2.0000      -0.327130        -8.9017
 260   2.0000      -0.320986        -8.7345
 261   2.0000      -0.319391        -8.6911
 262   2.0000      -0.317618        -8.6428
 263   2.0000      -0.315901        -8.5961
 264   2.0000      -0.302272        -8.2252
 265   2.0000      -0.299659        -8.1541
 266   2.0000      -0.295695        -8.0463
 267   2.0000      -0.287337        -7.8188
 268   2.0000      -0.283286        -7.7086
 269   2.0000      -0.276571        -7.5259
 270   2.0000      -0.223262        -6.0753
 271   2.0000      -0.218302        -5.9403
 272   2.0000      -0.217273        -5.9123
 273   0.0000      -0.114316        -3.1107
 274   0.0000      -0.072931        -1.9846
 275   0.0000      -0.063985        -1.7411
 276   0.0000      -0.060615        -1.6494
 277   0.0000      -0.031594        -0.8597

MULLIKEN ATOMIC CHARGES
-----------------------
   0 C :   -0.006164
   1 C :   -0.097622
   2 C :    0.055418
   3 C :    0.027051
   4 C :   -0.085497
   5 S :    0.076839
   6 C :   -0.036886
   7 C :    0.022169
   8 C :    0.039527
   9 C :   -0.022513
  10 S :    0.049381
  11 C :   -0.027437
  12 C :   -0.130883
  13 S :    0.113381
  14 C :   -0.118555
  15 C :   -0.079126
  16 C :   -0.083973
  17 C :    0.237111
  18 C :    0.032296
  19 C :    0.104347
  20 O :   -0.390860
  21 C :    0.196690
  22 C :    0.241132
  23 N :   -0.086425
  24 C :    0.026309
  25 N :   -0.333517
  26 N :   -0.161646
  27 C :    0.096020
  28 C :   -0.221741
  29 C :   -0.020340
  30 S :    0.140219
  31 C :   -0.299337
  32 S :    0.447474
  33 C :   -0.003923
  34 C :    0.131384
  35 C :   -0.042880
  36 N :   -0.281802
  37 N :   -0.063030
  38 C :    0.042529
  39 C :   -0.225142
  40 C :   -0.001635
  41 S :    0.176014
  42 C :   -0.292845
  43 S :    0.467602
  44 C :    0.078804
  45 C :    0.018956
  46 C :   -0.019575
  47 C :   -0.074149
  48 C :    0.317283
  49 C :   -0.364374
  50 C :   -0.185800
  51 N :    0.155309
  52 C :   -0.195084
  53 N :    0.145590
  54 C :    0.013787
  55 C :   -0.013355
  56 C :    0.156934
  57 O :   -0.160160
  58 C :   -0.076802
  59 C :    0.115956
  60 C :   -0.088868
  61 C :   -0.027194
  62 S :    0.187717
  63 C :   -0.122780
  64 C :    0.038122
  65 Br:    0.025972
  66 H :    0.017641
  67 H :    0.025100
  68 H :   -0.004739
  69 H :    0.002918
  70 H :   -0.004298
  71 H :   -0.014610
  72 H :   -0.009347
  73 H :    0.006702
  74 H :    0.012941
  75 H :    0.012918
  76 H :   -0.005388
  77 H :    0.008293
  78 H :    0.026120
  79 H :    0.007310
  80 H :   -0.003218
  81 H :    0.004019
  82 H :   -0.012279
  83 H :    0.129750
  84 H :    0.037605
  85 H :    0.054632
  86 H :   -0.003720
  87 H :    0.017298
  88 H :    0.052418
  89 H :    0.064376
  90 H :   -0.003520
  91 H :    0.050590
  92 H :    0.014517
  93 H :   -0.010851
  94 H :   -0.006279
  95 H :   -0.002308
Sum of atomic charges:   -0.0000000

LOEWDIN ATOMIC CHARGES
----------------------
   0 C :   -0.074207
   1 C :   -0.141369
   2 C :   -0.035286
   3 C :   -0.021303
   4 C :   -0.186339
   5 S :    0.361894
   6 C :   -0.172316
   7 C :   -0.041429
   8 C :   -0.021236
   9 C :   -0.155554
  10 S :    0.361668
  11 C :   -0.057866
  12 C :   -0.189013
  13 S :    0.444696
  14 C :   -0.186170
  15 C :   -0.068174
  16 C :   -0.046511
  17 C :   -0.027400
  18 C :    0.032941
  19 C :    0.057789
  20 O :   -0.173854
  21 C :    0.068725
  22 C :   -0.028687
  23 N :    0.005487
  24 C :    0.028164
  25 N :   -0.420925
  26 N :   -0.138904
  27 C :    0.038908
  28 C :   -0.258066
  29 C :   -0.170337
  30 S :    0.443739
  31 C :   -0.580643
  32 S :    0.816510
  33 C :   -0.025141
  34 C :    0.031522
  35 C :   -0.009207
  36 N :   -0.336520
  37 N :   -0.107425
  38 C :    0.013475
  39 C :   -0.240613
  40 C :   -0.171056
  41 S :    0.478614
  42 C :   -0.561751
  43 S :    0.841994
  44 C :    0.022874
  45 C :   -0.012721
  46 C :    0.071957
  47 C :   -0.086852
  48 C :    0.074940
  49 C :   -0.147341
  50 C :   -0.020281
  51 N :   -0.053504
  52 C :   -0.015080
  53 N :   -0.063818
  54 C :   -0.023055
  55 C :   -0.049125
  56 C :    0.085340
  57 O :   -0.151047
  58 C :    0.020059
  59 C :   -0.032206
  60 C :   -0.144694
  61 C :   -0.010379
  62 S :    0.433608
  63 C :   -0.270486
  64 C :   -0.070538
  65 Br:    0.138427
  66 H :    0.027321
  67 H :    0.028806
  68 H :    0.031780
  69 H :    0.035228
  70 H :    0.035174
  71 H :    0.033490
  72 H :    0.038486
  73 H :    0.020090
  74 H :    0.033654
  75 H :    0.031639
  76 H :    0.027895
  77 H :    0.010603
  78 H :    0.022864
  79 H :    0.009065
  80 H :    0.002479
  81 H :    0.031326
  82 H :    0.028002
  83 H :    0.084122
  84 H :    0.032281
  85 H :    0.006688
  86 H :    0.031042
  87 H :    0.040054
  88 H :    0.038947
  89 H :    0.010537
  90 H :    0.038849
  91 H :    0.032714
  92 H :    0.040790
  93 H :    0.040870
  94 H :    0.041032
  95 H :    0.039264

  Mayer bond orders larger than 0.100000
B(  0-C ,  1-C ) :   1.8678 B(  0-C , 66-H ) :   0.9446 B(  0-C , 67-H ) :   0.9350
B(  1-C ,  2-C ) :   1.0689 B(  1-C ,  5-S ) :   1.0127 B(  2-C ,  3-C ) :   1.6388
B(  2-C , 68-H ) :   0.9913 B(  3-C ,  4-C ) :   1.1525 B(  3-C , 69-H ) :   0.9934
B(  4-C ,  5-S ) :   1.0343 B(  4-C ,  6-C ) :   1.5525 B(  6-C ,  7-C ) :   1.1562
B(  6-C , 10-S ) :   1.0305 B(  7-C ,  8-C ) :   1.6143 B(  7-C , 70-H ) :   0.9935
B(  8-C ,  9-C ) :   1.1179 B(  8-C , 71-H ) :   0.9995 B(  9-C , 10-S ) :   1.0062
B(  9-C , 11-C ) :   1.6186 B( 11-C , 12-C ) :   1.1556 B( 11-C , 72-H ) :   0.9597
B( 12-C , 13-S ) :   1.1201 B( 12-C , 16-C ) :   1.4827 B( 13-S , 14-C ) :   1.1608
B( 14-C , 15-C ) :   1.5480 B( 14-C , 73-H ) :   0.9694 B( 15-C , 16-C ) :   1.3130
B( 15-C , 22-C ) :   1.0228 B( 16-C , 17-C ) :   1.0526 B( 17-C , 18-C ) :   1.0061
B( 17-C , 74-H ) :   0.8926 B( 17-C , 75-H ) :   0.8851 B( 18-C , 19-C ) :   1.0178
B( 18-C , 23-N ) :   1.0070 B( 18-C , 76-H ) :   0.9050 B( 19-C , 20-O ) :   1.0173
B( 19-C , 22-C ) :   1.0544 B( 19-C , 77-H ) :   0.9129 B( 20-O , 21-C ) :   0.9922
B( 21-C , 78-H ) :   0.9824 B( 21-C , 79-H ) :   0.9668 B( 21-C , 80-H ) :   0.9655
B( 22-C , 81-H ) :   0.8884 B( 22-C , 82-H ) :   0.9112 B( 23-N , 24-C ) :   1.2185
B( 23-N , 83-H ) :   0.9201 B( 24-C , 25-N ) :   1.7166 B( 24-C , 26-N ) :   1.1952
B( 25-N , 32-S ) :   0.8794 B( 26-N , 27-C ) :   1.7272 B( 27-C , 28-C ) :   1.0555
B( 27-C , 33-C ) :   1.0808 B( 28-C , 29-C ) :   1.5320 B( 28-C , 30-S ) :   0.1071
B( 28-C , 32-S ) :   1.0215 B( 29-C , 30-S ) :   1.2764 B( 29-C , 84-H ) :   0.9580
B( 30-S , 31-C ) :   1.0638 B( 31-C , 32-S ) :   1.1452 B( 31-C , 85-H ) :   0.9658
B( 33-C , 34-C ) :   1.7151 B( 33-C , 86-H ) :   0.9708 B( 34-C , 35-C ) :   1.0324
B( 34-C , 87-H ) :   0.9673 B( 35-C , 36-N ) :   1.6961 B( 35-C , 37-N ) :   1.3431
B( 36-N , 43-S ) :   0.9236 B( 37-N , 38-C ) :   1.6231 B( 38-C , 39-C ) :   1.0794
B( 38-C , 44-C ) :   1.1412 B( 39-C , 40-C ) :   1.5387 B( 39-C , 43-S ) :   0.9987
B( 40-C , 41-S ) :   1.2620 B( 40-C , 88-H ) :   0.9555 B( 41-S , 42-C ) :   1.1037
B( 42-C , 43-S ) :   1.0743 B( 42-C , 89-H ) :   0.9666 B( 44-C , 45-C ) :   1.5109
B( 44-C , 90-H ) :   0.9901 B( 45-C , 46-C ) :   1.1849 B( 45-C , 91-H ) :   0.9545
B( 46-C , 47-C ) :   1.5084 B( 46-C , 92-H ) :   0.9597 B( 47-C , 48-C ) :   1.0773
B( 47-C , 56-C ) :   0.9547 B( 48-C , 49-C ) :   1.6077 B( 48-C , 54-C ) :   1.0016
B( 49-C , 50-C ) :   1.1410 B( 49-C , 52-C ) :   1.1681 B( 50-C , 51-N ) :   2.9711
B( 52-C , 53-N ) :   2.9326 B( 54-C , 55-C ) :   1.2715 B( 54-C , 61-C ) :   1.4067
B( 55-C , 56-C ) :   0.9432 B( 55-C , 58-C ) :   1.4261 B( 56-C , 57-O ) :   2.1792
B( 58-C , 59-C ) :   1.2367 B( 58-C , 93-H ) :   1.0197 B( 59-C , 60-C ) :   1.3094
B( 59-C , 64-C ) :   1.1633 B( 60-C , 61-C ) :   1.3249 B( 60-C , 62-S ) :   1.0855
B( 61-C , 94-H ) :   0.9822 B( 62-S , 63-C ) :   1.0882 B( 63-C , 64-C ) :   1.6159
B( 63-C , 65-Br) :   1.0195 B( 64-C , 95-H ) :   1.0010

-----------------------------------------------------------------------------
         ABSORPTION SPECTRUM VIA TRANSITION ELECTRIC DIPOLE MOMENTS
-----------------------------------------------------------------------------
State   Energy  Wavelength   fosc         T2         TX        TY        TZ
        (cm-1)    (nm)                  (au**2)     (au)      (au)      (au)
-----------------------------------------------------------------------------
   0    5268.4   1898.1   0.013970186   0.87296   0.80378  -0.37809  -0.28975
   1    7291.6   1371.4   0.100774626   4.54991   0.49614   1.60780   1.31100
   2   11583.0    863.3   0.025816636   0.73376  -0.23047   0.44424  -0.69519
   3   14980.7    667.5   0.173945160   3.82258   0.49885  -1.14512   1.50414
   4   15556.1    642.8   0.002753016   0.05826   0.18633  -0.03121  -0.15023
   5   16403.2    609.6   0.037630386   0.75524   0.17713  -0.84961  -0.04510
   6   17957.4    556.9   0.012307478   0.22563   0.39826   0.16248  -0.20154
   7   18185.4    549.9   0.003534392   0.06398   0.17023   0.17604   0.06336
   8   19519.4    512.3   0.400819690   6.76016   1.09326  -2.34451   0.26123
   9   19938.3    501.5   0.024123777   0.39832  -0.40431   0.31128  -0.37144
  10   20668.0    483.8   0.025674563   0.40896   0.35174  -0.18429  -0.50127
  11   21441.8    466.4   0.839721692  12.89290   0.93352  -3.46378  -0.15388
  12   21673.7    461.4   0.216508349   3.28865   0.52603  -1.73549   0.00224
  13   22742.0    439.7   0.456733607   6.61166  -0.27731   2.55574  -0.05452
  14   23543.0    424.8   0.004667995   0.06527  -0.11316   0.22817  -0.02016
  15   23984.2    416.9   0.025453024   0.34937  -0.07116   0.01230  -0.58665
  16   24273.7    412.0   0.011922943   0.16170  -0.00489  -0.38599   0.11266
  17   24761.1    403.9   0.015486854   0.20591  -0.28034  -0.33582  -0.12057
  18   24959.2    400.7   0.148483062   1.95849  -1.14248   0.62523  -0.51218
  19   25765.4    388.1   0.027833915   0.35564  -0.06604   0.58663   0.08452
  20   25963.1    385.2   0.054918179   0.69636  -0.09581   0.82793   0.04144
  21   26414.6    378.6   0.035408924   0.44131  -0.08189  -0.57721   0.31848
  22   27155.8    368.2   0.008511744   0.10319  -0.23237  -0.21333   0.06071
  23   27580.6    362.6   0.009573975   0.11428   0.19290  -0.00379   0.27758
  24   27813.6    359.5   0.032700078   0.38705   0.07897  -0.47049  -0.39932
  25   28021.1    356.9   0.040113477   0.47128  -0.23504  -0.42765  -0.48286
  26   28325.9    353.0   0.036521561   0.42446   0.07587  -0.61681  -0.19557
  27   28658.6    348.9   0.052723495   0.60565   0.12962  -0.36622   0.67434
  28   28870.8    346.4   0.007944263   0.09059  -0.14287   0.24359  -0.10412
  29   29525.7    338.7   0.133754098   1.49136   0.09170  -1.21640  -0.05755
  30   29588.2    338.0   0.020429663   0.22731   0.44513   0.14368   0.09233
  31   29755.5    336.1   0.101510012   1.12310   0.26305  -1.01553   0.15033
  32   30184.0    331.3   0.022510627   0.24552  -0.11996   0.03749  -0.47930
  33   30400.3    328.9   0.048024325   0.52007  -0.38175   0.31328  -0.52554
  34   30438.2    328.5   0.161024790   1.74160   0.75512  -1.07136   0.15358
  35   30857.6    324.1   0.035688416   0.38075   0.15435  -0.59670  -0.02958
  36   31066.4    321.9   0.013594085   0.14406  -0.25177   0.28066   0.04359
  37   31469.6    317.8   0.084426886   0.88321  -0.37350   0.71070  -0.48848
  38   31941.9    313.1   0.019444414   0.20041   0.33292  -0.21126   0.21198
  39   32014.9    312.4   0.123999490   1.27510  -0.72320   0.57967  -0.64503
  40   32200.4    310.6   0.063553617   0.64976   0.69592  -0.35780   0.19348
  41   32355.7    309.1   0.024489778   0.24918  -0.32971  -0.27739  -0.25204
  42   32543.4    307.3   0.322185129   3.25925  -1.31569   0.91157  -0.83501
  43   32758.9    305.3   0.033867613   0.34035   0.01017   0.50517   0.29165
  44   32969.9    303.3   0.096613990   0.96471   0.74434  -0.57198   0.28898
  45   33288.3    300.4   0.011779354   0.11649  -0.16345  -0.03624  -0.29743
  46   33466.7    298.8   0.019654357   0.19334  -0.09309  -0.02452   0.42904
  47   33709.8    296.6   0.033809525   0.33019  -0.05553   0.51933  -0.23958
  48   33970.9    294.4   0.070574293   0.68394   0.50279  -0.22227   0.61785
  49   34033.6    293.8   0.079597120   0.76995   0.59041  -0.36682   0.53555
  50   34241.2    292.0   0.020310423   0.19527   0.16522  -0.31262   0.26504
  51   34300.2    291.5   0.062916914   0.60387  -0.49546  -0.14997  -0.57957
  52   34786.5    287.5   0.030743173   0.29095  -0.14436   0.48410   0.18910
  53   35108.2    284.8   0.077696821   0.72857  -0.50351  -0.21619  -0.65445
  54   35356.5    282.8   0.000458638   0.00427  -0.05384   0.01341   0.03452
  55   35400.7    282.5   0.001207137   0.01123   0.05357   0.04004   0.08217
  56   35799.7    279.3   0.042099119   0.38714  -0.41854  -0.09739  -0.44998
  57   35841.7    279.0   0.020746268   0.19056   0.36132   0.06887   0.23509
  58   36351.1    275.1   0.006408955   0.05804  -0.02170   0.19022  -0.14625
  59   36583.5    273.3   0.036733990   0.33057  -0.25663   0.04692  -0.51235
  60   36933.8    270.8   0.151077829   1.34664   0.37369   1.06241   0.27978
  61   37374.3    267.6   0.012253379   0.10793  -0.03838   0.30794   0.10786
  62   37743.0    264.9   0.024110158   0.21030   0.21212   0.10817   0.39192
  63   37806.4    264.5   0.064065315   0.55787   0.37721  -0.48653   0.42293
  64   37883.8    264.0   0.091265988   0.79311   0.19558  -0.66775   0.55584
  65   38286.8    261.2   0.027894974   0.23986  -0.11337   0.47531  -0.03297
  66   38466.6    260.0   0.009155451   0.07836  -0.01118  -0.27337  -0.05917
  67   38513.0    259.7   0.012335803   0.10545   0.25203   0.01113   0.20446
  68   38565.5    259.3   0.009995237   0.08532  -0.22126  -0.12420  -0.14471
  69   38758.7    258.0   0.119690149   1.01664   0.27172   0.83069   0.50274
  70   38842.1    257.5   0.178777162   1.51525   0.75479  -0.34353   0.90969
  71   38939.1    256.8   0.037653019   0.31834  -0.43841   0.31545  -0.16319
  72   39119.4    255.6   0.004572521   0.03848  -0.01944  -0.07928  -0.17837
  73   39364.4    254.0   0.005802478   0.04853  -0.07451  -0.14002  -0.15287
  74   39449.4    253.5   0.002788773   0.02327  -0.09744   0.08418   0.08181
  75   39628.3    252.3   0.018685100   0.15523   0.02984  -0.25096  -0.30225
  76   39703.1    251.9   0.017550077   0.14552  -0.23681   0.22053  -0.20201
  77   39747.4    251.6   0.135793100   1.12472   0.56328  -0.71552   0.54357
  78   40084.7    249.5   0.119403033   0.98065   0.56850  -0.79560   0.15644
  79   40183.0    248.9   0.010128021   0.08298  -0.21256  -0.01244  -0.19401
  80   40285.1    248.2   0.084098356   0.68726  -0.61519  -0.04160  -0.55414

FINAL SINGLE POINT ENERGY     -8135.988963171219

DIPOLE MOMENT
-------------
                                X             Y             Z
Electronic contribution:     88.64850    -171.00942      13.65867
Nuclear contribution   :    -87.27601     170.73821     -12.21362
                        -----------------------------------------
Total Dipole Moment    :      1.37249      -0.27121       1.44505
                        -----------------------------------------
Magnitude (a.u.)       :      2.01133
Magnitude (Debye)      :      5.11239

Rotational constants in cm-1:     0.001978     0.000351     0.000334
Rotational constants in MHz :    59.309062    10.521335    10.024447

                             ****ORCA TERMINATED NORMALLY****
TOTAL RUN TIME: 0 days 0 hours 13 minutes 54 seconds 515 msec
