                         Program Version 4.2.0 -  RELEASE  -
|  1> # ORCA input file
|  2> # SCF done       -178.040094059801          0.000384493388
|  3> ! CAM-B3LYP def2-SVP def2/J RIJCOSX Grid4 TightSCF
|  4> %maxcore 5000
|  5> %tddft
|  6>     Mode sTDDFT
|  7>     Ethresh 5.0
|  8>     maxcore 5000
|  9> end
| 10>
| 11> %pal
| 12>   nprocs 6
| 13>   end
| 14> * xyz 0 1
| 15>    C       -2.12932         0.59623        -9.06488
| 16>    S       -3.29360         1.66273        -8.35804
| 17>    C       -2.61821        -0.64518        -9.33734
| 18>    C       -3.97348        -0.77272        -8.96822
| 19>    C       -5.05468        -1.76344        -9.00058
| 20>    C       -5.03577        -3.00919        -9.51810
| 21>    C       -6.28705        -3.84349        -9.60116
| 22>    N       -6.58134        -4.47055        -8.31468
| 23>    C       -3.74622        -3.67437        -9.93423
| 24>    N       -2.88547        -4.00288        -8.80423
| 25>    C       -4.46890         0.41710        -8.42533
| 26>    C       -5.82513         0.23286        -8.06683
| 27>    S       -7.07612         1.11839        -7.30811
| 28>    C       -6.19685        -1.08010        -8.38435
| 29>    C       -7.49193        -1.37584        -7.96030
| 30>    C       -8.11895        -0.29618        -7.36466
| 31>    C       -9.42330        -0.28456        -6.81294
| 32>    C      -10.02980         0.80214        -6.27962
| 33>    C      -11.31010         0.79369        -5.66862
| 34>    S      -12.15468        -0.71108        -5.44536
| 35>    C      -13.45749         0.09966        -4.67350
| 36>    C      -13.29148         1.44491        -4.59506
| 37>    C      -14.30116         2.31243        -3.91671
| 38>    C      -12.05323         1.87294        -5.17651
| 39>    C      -11.56315         3.21437        -5.29509
| 40>    C      -12.24284         4.37594        -5.18060
| 41>    C      -11.66833         5.67340        -5.39732
| 42>    C      -10.35104         5.95401        -5.47497
| 43>    C       -9.74538         7.21807        -5.79673
| 44>    C      -10.22002         8.19915        -6.58062
| 45>    C      -11.52141         8.16807        -7.31874
| 46>    C       -9.32758         9.37599        -6.89477
| 47>    N       -8.51346         9.02110        -8.04436
| 48>    C       -7.19915         9.22379        -8.17830
| 49>    C       -6.43577        10.09643        -7.44844
| 50>    C       -5.04598        10.24603        -7.56970
| 51>    C       -4.12918         9.43249        -8.19915
| 52>    C       -2.74245         9.68773        -8.29325
| 53>    C       -2.02243         8.70624        -8.91162
| 54>    C       -2.80116         7.61019        -9.33214
| 55>    S       -4.47633         7.87220        -8.93952
| 56>    C       -2.38433         6.44917        -9.97003
| 57>    C       -1.09401         6.11793       -10.41411
| 58>    C       -1.01807         4.88513       -11.00447
| 59>    C       -2.24138         4.18949       -11.04442
| 60>    S       -3.50520         5.14826       -10.31855
| 61>    C       -2.44721         2.91236       -11.54687
| 62>    C       -3.66592         2.26041       -11.49816
| 63>    C       -3.87738         0.95080       -11.91081
| 64>    C       -5.09775         0.20666       -11.81263
| 65>    C       -6.30058         0.62044       -11.27673
| 66>    C       -7.42261        -0.21261       -11.13309
| 67>    N       -8.37016        -0.84517       -10.97194
| 68>    C       -6.57658         1.90391       -10.77227
| 69>    N       -6.90024         2.92506       -10.35292
| 70>    C       -4.85258        -1.12761       -12.36078
| 71>    C       -3.49681        -1.20992       -12.75318
| 72>    C       -2.83451         0.08509       -12.47207
| 73>    O       -1.65923         0.33637       -12.67522
| 74>    C       -2.94987        -2.33983       -13.30678
| 75>    C       -3.78427        -3.45087       -13.47893
| 76>    C       -5.13862        -3.35519       -13.09310
| 77>    C       -5.69363        -2.20696       -12.53988
| 78>    S       -5.99072        -4.84401       -13.38353
| 79>    C       -4.52999        -5.56204       -14.01150
| 80>    C       -3.46144        -4.73253       -14.00589
| 81>   Br       -4.55711        -7.34146       -14.61070
| 82>    H       -1.13879         0.96237        -9.24603
| 83>    H       -2.00721        -1.41115        -9.77896
| 84>    H       -6.16324        -4.58132       -10.41308
| 85>    H       -7.13235        -3.20099        -9.85947
| 86>    H       -5.85757        -5.14180        -8.07771
| 87>    H       -7.45876        -4.97675        -8.37037
| 88>    H       -3.17917        -3.03094       -10.61082
| 89>    H       -3.95823        -4.60887       -10.46225
| 90>    H       -2.60094        -3.15454        -8.32579
| 91>    H       -3.39533        -4.56758        -8.13206
| 92>    H       -7.96818        -2.33345        -8.03812
| 93>    H       -9.94533        -1.23294        -6.83087
| 94>    H       -9.49882         1.74384        -6.31090
| 95>    H      -14.28573        -0.47672        -4.30985
| 96>    H      -14.99405         1.69394        -3.34994
| 97>    H      -14.87776         2.88073        -4.64639
| 98>    H      -13.81358         3.00733        -3.23573
| 99>    H      -10.51838         3.28359        -5.56206
|100>    H      -13.30298         4.37245        -4.98711
|101>    H      -12.38016         6.48350        -5.46856
|102>    H       -9.63627         5.16912        -5.26508
|103>    H       -8.74311         7.34505        -5.40172
|104>    H      -11.82059         7.14394        -7.53164
|105>    H      -11.44181         8.71745        -8.25614
|106>    H      -12.31052         8.63774        -6.73037
|107>    H       -8.66982         9.60117        -6.05383
|108>    H       -9.92500        10.26636        -7.12452
|109>    H       -8.94745         8.36419        -8.67583
|110>    H       -6.74392         8.67285        -8.98835
|111>    H       -6.92415        10.75595        -6.74565
|112>    H       -4.61751        11.10653        -7.06983
|113>    H       -2.31304        10.59209        -7.89844
|114>    H       -0.95773         8.73685        -9.05601
|115>    H       -0.25828         6.78463       -10.29734
|116>    H       -0.11719         4.45743       -11.40720
|117>    H       -1.59403         2.39796       -11.96422
|118>    H       -4.50467         2.80960       -11.08755
|119>    H       -1.91085        -2.36988       -13.59572
|120>    H       -6.73664        -2.18290       -12.27523
|121>    H       -2.48394        -5.01029       -14.35572
|122> *
|123>
|124>                          ****END OF INPUT****

CARTESIAN COORDINATES (ANGSTROEM)
---------------------------------
  C     -2.129320    0.596230   -9.064880
  S     -3.293600    1.662730   -8.358040
  C     -2.618210   -0.645180   -9.337340
  C     -3.973480   -0.772720   -8.968220
  C     -5.054680   -1.763440   -9.000580
  C     -5.035770   -3.009190   -9.518100
  C     -6.287050   -3.843490   -9.601160
  N     -6.581340   -4.470550   -8.314680
  C     -3.746220   -3.674370   -9.934230
  N     -2.885470   -4.002880   -8.804230
  C     -4.468900    0.417100   -8.425330
  C     -5.825130    0.232860   -8.066830
  S     -7.076120    1.118390   -7.308110
  C     -6.196850   -1.080100   -8.384350
  C     -7.491930   -1.375840   -7.960300
  C     -8.118950   -0.296180   -7.364660
  C     -9.423300   -0.284560   -6.812940
  C    -10.029800    0.802140   -6.279620
  C    -11.310100    0.793690   -5.668620
  S    -12.154680   -0.711080   -5.445360
  C    -13.457490    0.099660   -4.673500
  C    -13.291480    1.444910   -4.595060
  C    -14.301160    2.312430   -3.916710
  C    -12.053230    1.872940   -5.176510
  C    -11.563150    3.214370   -5.295090
  C    -12.242840    4.375940   -5.180600
  C    -11.668330    5.673400   -5.397320
  C    -10.351040    5.954010   -5.474970
  C     -9.745380    7.218070   -5.796730
  C    -10.220020    8.199150   -6.580620
  C    -11.521410    8.168070   -7.318740
  C     -9.327580    9.375990   -6.894770
  N     -8.513460    9.021100   -8.044360
  C     -7.199150    9.223790   -8.178300
  C     -6.435770   10.096430   -7.448440
  C     -5.045980   10.246030   -7.569700
  C     -4.129180    9.432490   -8.199150
  C     -2.742450    9.687730   -8.293250
  C     -2.022430    8.706240   -8.911620
  C     -2.801160    7.610190   -9.332140
  S     -4.476330    7.872200   -8.939520
  C     -2.384330    6.449170   -9.970030
  C     -1.094010    6.117930  -10.414110
  C     -1.018070    4.885130  -11.004470
  C     -2.241380    4.189490  -11.044420
  S     -3.505200    5.148260  -10.318550
  C     -2.447210    2.912360  -11.546870
  C     -3.665920    2.260410  -11.498160
  C     -3.877380    0.950800  -11.910810
  C     -5.097750    0.206660  -11.812630
  C     -6.300580    0.620440  -11.276730
  C     -7.422610   -0.212610  -11.133090
  N     -8.370160   -0.845170  -10.971940
  C     -6.576580    1.903910  -10.772270
  N     -6.900240    2.925060  -10.352920
  C     -4.852580   -1.127610  -12.360780
  C     -3.496810   -1.209920  -12.753180
  C     -2.834510    0.085090  -12.472070
  O     -1.659230    0.336370  -12.675220
  C     -2.949870   -2.339830  -13.306780
  C     -3.784270   -3.450870  -13.478930
  C     -5.138620   -3.355190  -13.093100
  C     -5.693630   -2.206960  -12.539880
  S     -5.990720   -4.844010  -13.383530
  C     -4.529990   -5.562040  -14.011500
  C     -3.461440   -4.732530  -14.005890
  Br    -4.557110   -7.341460  -14.610700
  H     -1.138790    0.962370   -9.246030
  H     -2.007210   -1.411150   -9.778960
  H     -6.163240   -4.581320  -10.413080
  H     -7.132350   -3.200990   -9.859470
  H     -5.857570   -5.141800   -8.077710
  H     -7.458760   -4.976750   -8.370370
  H     -3.179170   -3.030940  -10.610820
  H     -3.958230   -4.608870  -10.462250
  H     -2.600940   -3.154540   -8.325790
  H     -3.395330   -4.567580   -8.132060
  H     -7.968180   -2.333450   -8.038120
  H     -9.945330   -1.232940   -6.830870
  H     -9.498820    1.743840   -6.310900
  H    -14.285730   -0.476720   -4.309850
  H    -14.994050    1.693940   -3.349940
  H    -14.877760    2.880730   -4.646390
  H    -13.813580    3.007330   -3.235730
  H    -10.518380    3.283590   -5.562060
  H    -13.302980    4.372450   -4.987110
  H    -12.380160    6.483500   -5.468560
  H     -9.636270    5.169120   -5.265080
  H     -8.743110    7.345050   -5.401720
  H    -11.820590    7.143940   -7.531640
  H    -11.441810    8.717450   -8.256140
  H    -12.310520    8.637740   -6.730370
  H     -8.669820    9.601170   -6.053830
  H     -9.925000   10.266360   -7.124520
  H     -8.947450    8.364190   -8.675830
  H     -6.743920    8.672850   -8.988350
  H     -6.924150   10.755950   -6.745650
  H     -4.617510   11.106530   -7.069830
  H     -2.313040   10.592090   -7.898440
  H     -0.957730    8.736850   -9.056010
  H     -0.258280    6.784630  -10.297340
  H     -0.117190    4.457430  -11.407200
  H     -1.594030    2.397960  -11.964220
  H     -4.504670    2.809600  -11.087550
  H     -1.910850   -2.369880  -13.595720
  H     -6.736640   -2.182900  -12.275230
  H     -2.483940   -5.010290  -14.355720

 Total Charge           Charge          ....    0
 Multiplicity           Mult            ....    1
 Number of Electrons    NEL             ....  538
 Basis Dimension        Dim             .... 1180

ORBITAL ENERGIES
----------------

  NO   OCC          E(Eh)            E(eV)
   0   2.0000    -482.872361    -13139.6249
   1   2.0000     -88.959902     -2420.7220
   2   2.0000     -88.956944     -2420.6415
   3   2.0000     -88.944442     -2420.3013
   4   2.0000     -88.942716     -2420.2543
   5   2.0000     -88.935661     -2420.0624
   6   2.0000     -88.933821     -2420.0123
   7   2.0000     -62.550071     -1702.0740
   8   2.0000     -56.384001     -1534.2867
   9   2.0000     -56.381319     -1534.2137
  10   2.0000     -56.381297     -1534.2131
  11   2.0000     -19.181997      -521.9687
  12   2.0000     -14.464074      -393.5875
  13   2.0000     -14.383748      -391.4017
  14   2.0000     -14.382483      -391.3673
  15   2.0000     -14.380081      -391.3019
  16   2.0000     -14.371831      -391.0774
  17   2.0000     -10.342275      -281.4276
  18   2.0000     -10.341823      -281.4153
  19   2.0000     -10.332412      -281.1592
  20   2.0000     -10.326220      -280.9907
  21   2.0000     -10.322099      -280.8786
  22   2.0000     -10.308373      -280.5051
  23   2.0000     -10.306491      -280.4539
  24   2.0000     -10.305289      -280.4212
  25   2.0000     -10.304610      -280.4027
  26   2.0000     -10.304398      -280.3969
  27   2.0000     -10.301089      -280.3069
  28   2.0000     -10.300473      -280.2901
  29   2.0000     -10.297614      -280.2123
  30   2.0000     -10.289139      -279.9817
  31   2.0000     -10.288984      -279.9775
  32   2.0000     -10.288790      -279.9722
  33   2.0000     -10.286194      -279.9016
  34   2.0000     -10.285812      -279.8912
  35   2.0000     -10.284935      -279.8673
  36   2.0000     -10.283078      -279.8168
  37   2.0000     -10.281290      -279.7681
  38   2.0000     -10.280867      -279.7566
  39   2.0000     -10.280507      -279.7468
  40   2.0000     -10.278907      -279.7033
  41   2.0000     -10.277786      -279.6728
  42   2.0000     -10.277032      -279.6523
  43   2.0000     -10.276795      -279.6458
  44   2.0000     -10.276772      -279.6452
  45   2.0000     -10.276432      -279.6359
  46   2.0000     -10.273960      -279.5687
  47   2.0000     -10.273737      -279.5626
  48   2.0000     -10.272677      -279.5338
  49   2.0000     -10.272481      -279.5284
  50   2.0000     -10.272289      -279.5232
  51   2.0000     -10.272166      -279.5199
  52   2.0000     -10.270632      -279.4781
  53   2.0000     -10.268775      -279.4276
  54   2.0000     -10.267985      -279.4061
  55   2.0000     -10.266831      -279.3747
  56   2.0000     -10.265531      -279.3393
  57   2.0000     -10.264741      -279.3178
  58   2.0000     -10.263745      -279.2907
  59   2.0000     -10.263320      -279.2791
  60   2.0000     -10.262576      -279.2589
  61   2.0000     -10.261811      -279.2381
  62   2.0000     -10.259063      -279.1633
  63   2.0000     -10.258382      -279.1448
  64   2.0000     -10.258148      -279.1384
  65   2.0000     -10.257572      -279.1227
  66   2.0000     -10.254181      -279.0304
  67   2.0000     -10.252484      -278.9843
  68   2.0000     -10.250730      -278.9365
  69   2.0000     -10.249626      -278.9065
  70   2.0000     -10.248054      -278.8637
  71   2.0000      -8.779472      -238.9016
  72   2.0000      -8.055299      -219.1958
  73   2.0000      -8.052793      -219.1276
  74   2.0000      -8.040238      -218.7860
  75   2.0000      -8.036982      -218.6974
  76   2.0000      -8.030112      -218.5105
  77   2.0000      -8.029957      -218.5062
  78   2.0000      -6.615693      -180.0222
  79   2.0000      -6.601226      -179.6285
  80   2.0000      -6.601080      -179.6245
  81   2.0000      -6.025010      -163.9489
  82   2.0000      -6.022373      -163.8771
  83   2.0000      -6.020781      -163.8338
  84   2.0000      -6.018311      -163.7666
  85   2.0000      -6.016578      -163.7194
  86   2.0000      -6.014117      -163.6524
  87   2.0000      -6.009745      -163.5335
  88   2.0000      -6.006373      -163.4417
  89   2.0000      -6.005755      -163.4249
  90   2.0000      -6.002031      -163.3236
  91   2.0000      -6.001636      -163.3128
  92   2.0000      -5.999427      -163.2527
  93   2.0000      -5.999417      -163.2524
  94   2.0000      -5.999175      -163.2459
  95   2.0000      -5.995499      -163.1458
  96   2.0000      -5.995051      -163.1336
  97   2.0000      -5.992195      -163.0559
  98   2.0000      -5.992150      -163.0547
  99   2.0000      -2.731542       -74.3290
 100   2.0000      -2.727499       -74.2190
 101   2.0000      -2.727442       -74.2175
 102   2.0000      -2.715918       -73.9039
 103   2.0000      -2.715897       -73.9033
 104   2.0000      -1.094683       -29.7878
 105   2.0000      -1.059761       -28.8375
 106   2.0000      -1.000659       -27.2293
 107   2.0000      -0.998875       -27.1808
 108   2.0000      -0.990120       -26.9425
 109   2.0000      -0.982458       -26.7340
 110   2.0000      -0.974045       -26.5051
 111   2.0000      -0.967531       -26.3279
 112   2.0000      -0.965534       -26.2735
 113   2.0000      -0.962983       -26.2041
 114   2.0000      -0.961016       -26.1506
 115   2.0000      -0.949093       -25.8261
 116   2.0000      -0.945514       -25.7287
 117   2.0000      -0.925515       -25.1845
 118   2.0000      -0.918886       -25.0042
 119   2.0000      -0.908286       -24.7157
 120   2.0000      -0.897377       -24.4189
 121   2.0000      -0.892085       -24.2749
 122   2.0000      -0.887216       -24.1424
 123   2.0000      -0.881236       -23.9797
 124   2.0000      -0.872330       -23.7373
 125   2.0000      -0.864631       -23.5278
 126   2.0000      -0.860919       -23.4268
 127   2.0000      -0.852139       -23.1879
 128   2.0000      -0.849189       -23.1076
 129   2.0000      -0.843676       -22.9576
 130   2.0000      -0.835245       -22.7282
 131   2.0000      -0.825289       -22.4572
 132   2.0000      -0.822935       -22.3932
 133   2.0000      -0.815602       -22.1937
 134   2.0000      -0.812526       -22.1100
 135   2.0000      -0.807357       -21.9693
 136   2.0000      -0.803625       -21.8678
 137   2.0000      -0.803070       -21.8527
 138   2.0000      -0.797393       -21.6982
 139   2.0000      -0.774816       -21.0838
 140   2.0000      -0.768021       -20.8989
 141   2.0000      -0.753856       -20.5135
 142   2.0000      -0.745845       -20.2955
 143   2.0000      -0.735667       -20.0185
 144   2.0000      -0.730189       -19.8694
 145   2.0000      -0.727730       -19.8026
 146   2.0000      -0.722833       -19.6693
 147   2.0000      -0.715655       -19.4740
 148   2.0000      -0.702009       -19.1026
 149   2.0000      -0.691914       -18.8279
 150   2.0000      -0.690901       -18.8004
 151   2.0000      -0.674449       -18.3527
 152   2.0000      -0.669176       -18.2092
 153   2.0000      -0.661605       -18.0032
 154   2.0000      -0.657484       -17.8910
 155   2.0000      -0.650010       -17.6877
 156   2.0000      -0.645127       -17.5548
 157   2.0000      -0.642795       -17.4913
 158   2.0000      -0.633514       -17.2388
 159   2.0000      -0.632588       -17.2136
 160   2.0000      -0.629834       -17.1386
 161   2.0000      -0.619024       -16.8445
 162   2.0000      -0.612405       -16.6644
 163   2.0000      -0.609194       -16.5770
 164   2.0000      -0.606446       -16.5022
 165   2.0000      -0.602691       -16.4001
 166   2.0000      -0.601184       -16.3591
 167   2.0000      -0.597341       -16.2545
 168   2.0000      -0.596671       -16.2363
 169   2.0000      -0.589278       -16.0351
 170   2.0000      -0.574649       -15.6370
 171   2.0000      -0.573384       -15.6026
 172   2.0000      -0.571064       -15.5394
 173   2.0000      -0.569361       -15.4931
 174   2.0000      -0.567780       -15.4501
 175   2.0000      -0.565923       -15.3995
 176   2.0000      -0.555771       -15.1233
 177   2.0000      -0.552947       -15.0464
 178   2.0000      -0.548473       -14.9247
 179   2.0000      -0.543025       -14.7765
 180   2.0000      -0.535845       -14.5811
 181   2.0000      -0.533427       -14.5153
 182   2.0000      -0.528265       -14.3748
 183   2.0000      -0.525895       -14.3103
 184   2.0000      -0.522888       -14.2285
 185   2.0000      -0.520675       -14.1683
 186   2.0000      -0.517238       -14.0748
 187   2.0000      -0.514880       -14.0106
 188   2.0000      -0.509814       -13.8728
 189   2.0000      -0.509441       -13.8626
 190   2.0000      -0.506198       -13.7744
 191   2.0000      -0.502991       -13.6871
 192   2.0000      -0.500568       -13.6211
 193   2.0000      -0.500132       -13.6093
 194   2.0000      -0.498635       -13.5686
 195   2.0000      -0.498018       -13.5518
 196   2.0000      -0.496980       -13.5235
 197   2.0000      -0.494725       -13.4621
 198   2.0000      -0.491871       -13.3845
 199   2.0000      -0.484711       -13.1896
 200   2.0000      -0.484236       -13.1767
 201   2.0000      -0.480511       -13.0754
 202   2.0000      -0.479191       -13.0394
 203   2.0000      -0.479065       -13.0360
 204   2.0000      -0.474286       -12.9060
 205   2.0000      -0.472260       -12.8508
 206   2.0000      -0.470274       -12.7968
 207   2.0000      -0.468531       -12.7494
 208   2.0000      -0.467102       -12.7105
 209   2.0000      -0.465859       -12.6767
 210   2.0000      -0.462867       -12.5952
 211   2.0000      -0.461319       -12.5531
 212   2.0000      -0.457350       -12.4451
 213   2.0000      -0.455271       -12.3886
 214   2.0000      -0.451740       -12.2925
 215   2.0000      -0.450002       -12.2452
 216   2.0000      -0.446748       -12.1566
 217   2.0000      -0.445663       -12.1271
 218   2.0000      -0.440176       -11.9778
 219   2.0000      -0.436962       -11.8903
 220   2.0000      -0.436033       -11.8650
 221   2.0000      -0.434596       -11.8260
 222   2.0000      -0.434118       -11.8130
 223   2.0000      -0.433592       -11.7986
 224   2.0000      -0.429268       -11.6810
 225   2.0000      -0.426288       -11.5999
 226   2.0000      -0.425274       -11.5723
 227   2.0000      -0.422366       -11.4932
 228   2.0000      -0.420594       -11.4450
 229   2.0000      -0.419510       -11.4155
 230   2.0000      -0.418522       -11.3886
 231   2.0000      -0.415423       -11.3042
 232   2.0000      -0.414936       -11.2910
 233   2.0000      -0.409156       -11.1337
 234   2.0000      -0.406680       -11.0663
 235   2.0000      -0.402796       -10.9606
 236   2.0000      -0.400483       -10.8977
 237   2.0000      -0.399713       -10.8767
 238   2.0000      -0.398284       -10.8379
 239   2.0000      -0.397774       -10.8240
 240   2.0000      -0.393743       -10.7143
 241   2.0000      -0.392516       -10.6809
 242   2.0000      -0.385996       -10.5035
 243   2.0000      -0.384418       -10.4605
 244   2.0000      -0.380611       -10.3569
 245   2.0000      -0.377643       -10.2762
 246   2.0000      -0.369695       -10.0599
 247   2.0000      -0.364648        -9.9226
 248   2.0000      -0.362216        -9.8564
 249   2.0000      -0.358862        -9.7651
 250   2.0000      -0.351318        -9.5599
 251   2.0000      -0.342893        -9.3306
 252   2.0000      -0.339371        -9.2348
 253   2.0000      -0.324935        -8.8419
 254   2.0000      -0.322753        -8.7825
 255   2.0000      -0.311949        -8.4886
 256   2.0000      -0.308248        -8.3878
 257   2.0000      -0.303447        -8.2572
 258   2.0000      -0.302669        -8.2361
 259   2.0000      -0.300085        -8.1657
 260   2.0000      -0.294922        -8.0252
 261   2.0000      -0.293675        -7.9913
 262   2.0000      -0.277051        -7.5389
 263   2.0000      -0.274405        -7.4669
 264   2.0000      -0.264127        -7.1873
 265   2.0000      -0.256406        -6.9772
 266   2.0000      -0.249677        -6.7941
 267   2.0000      -0.212582        -5.7846
 268   2.0000      -0.202212        -5.5025
 269   0.0000      -0.089486        -2.4350
 270   0.0000      -0.048009        -1.3064
 271   0.0000      -0.038784        -1.0554
 272   0.0000      -0.022141        -0.6025
 273   0.0000      -0.019082        -0.5192

MULLIKEN ATOMIC CHARGES
-----------------------
   0 C :   -0.078735
   1 S :    0.135093
   2 C :   -0.007165
   3 C :    0.043628
   4 C :    0.189473
   5 C :   -0.360418
   6 C :    0.159421
   7 N :   -0.216150
   8 C :    0.173586
   9 N :   -0.204276
  10 C :   -0.145916
  11 C :   -0.111790
  12 S :    0.130079
  13 C :    0.064571
  14 C :   -0.022284
  15 C :   -0.047833
  16 C :    0.017229
  17 C :   -0.018809
  18 C :   -0.106906
  19 S :    0.095738
  20 C :   -0.119199
  21 C :   -0.092593
  22 C :    0.115782
  23 C :    0.127005
  24 C :    0.000113
  25 C :   -0.018145
  26 C :    0.004594
  27 C :   -0.003968
  28 C :    0.048201
  29 C :   -0.263083
  30 C :    0.085815
  31 C :    0.211626
  32 N :   -0.127019
  33 C :    0.076179
  34 C :   -0.088405
  35 C :    0.048144
  36 C :   -0.070416
  37 C :    0.057193
  38 C :    0.004073
  39 C :   -0.015758
  40 S :    0.076918
  41 C :   -0.063714
  42 C :    0.040395
  43 C :    0.011749
  44 C :    0.007327
  45 S :    0.101728
  46 C :   -0.043582
  47 C :   -0.026351
  48 C :   -0.106744
  49 C :    0.372118
  50 C :   -0.404328
  51 C :   -0.162095
  52 N :    0.110943
  53 C :   -0.197792
  54 N :    0.131552
  55 C :    0.010215
  56 C :   -0.013712
  57 C :    0.134296
  58 O :   -0.176290
  59 C :   -0.091471
  60 C :    0.122532
  61 C :   -0.107452
  62 C :   -0.018391
  63 S :    0.165302
  64 C :   -0.125063
  65 C :    0.035002
  66 Br:    0.006427
  67 H :    0.019837
  68 H :   -0.005658
  69 H :   -0.014437
  70 H :    0.017857
  71 H :    0.080980
  72 H :    0.098639
  73 H :    0.024304
  74 H :   -0.005937
  75 H :    0.095512
  76 H :    0.082369
  77 H :   -0.035993
  78 H :   -0.007300
  79 H :   -0.009822
  80 H :    0.006070
  81 H :    0.002789
  82 H :    0.034221
  83 H :    0.026744
  84 H :   -0.024761
  85 H :   -0.038892
  86 H :   -0.018374
  87 H :   -0.001395
  88 H :   -0.014895
  89 H :    0.040480
  90 H :    0.001767
  91 H :    0.039569
  92 H :    0.032062
  93 H :    0.017186
  94 H :    0.143099
  95 H :    0.038527
  96 H :   -0.006447
  97 H :   -0.001521
  98 H :   -0.008402
  99 H :   -0.012987
 100 H :   -0.012298
 101 H :   -0.010816
 102 H :    0.006233
 103 H :    0.007864
 104 H :   -0.020487
 105 H :   -0.015005
 106 H :   -0.008878
Sum of atomic charges:   -0.0000000

LOEWDIN ATOMIC CHARGES
----------------------
   0 C :   -0.176315
   1 S :    0.454206
   2 C :   -0.067054
   3 C :   -0.064588
   4 C :   -0.027494
   5 C :   -0.003821
   6 C :    0.016729
   7 N :   -0.113108
   8 C :    0.015742
   9 N :   -0.102179
  10 C :   -0.199164
  11 C :   -0.192671
  12 S :    0.438089
  13 C :   -0.051317
  14 C :   -0.022643
  15 C :   -0.170402
  16 C :   -0.024311
  17 C :   -0.069252
  18 C :   -0.148547
  19 S :    0.425075
  20 C :   -0.198187
  21 C :   -0.054646
  22 C :   -0.045922
  23 C :   -0.072870
  24 C :    0.006472
  25 C :   -0.055890
  26 C :   -0.017798
  27 C :   -0.043184
  28 C :   -0.030170
  29 C :   -0.056181
  30 C :   -0.053949
  31 C :    0.049782
  32 N :    0.038405
  33 C :    0.072837
  34 C :   -0.146678
  35 C :    0.011235
  36 C :   -0.195132
  37 C :   -0.001338
  38 C :   -0.068034
  39 C :   -0.136218
  40 S :    0.399183
  41 C :   -0.216123
  42 C :   -0.009932
  43 C :   -0.062235
  44 C :   -0.106986
  45 S :    0.408279
  46 C :   -0.093411
  47 C :    0.042618
  48 C :   -0.121965
  49 C :    0.075820
  50 C :   -0.168721
  51 C :   -0.009607
  52 N :   -0.091688
  53 C :   -0.020275
  54 N :   -0.086697
  55 C :   -0.009697
  56 C :   -0.046911
  57 C :    0.080084
  58 O :   -0.172200
  59 C :    0.008984
  60 C :   -0.040846
  61 C :   -0.150776
  62 C :   -0.017019
  63 S :    0.419741
  64 C :   -0.279984
  65 C :   -0.068426
  66 Br:    0.122979
  67 H :    0.020916
  68 H :    0.030751
  69 H :   -0.002794
  70 H :    0.026443
  71 H :    0.049036
  72 H :    0.056101
  73 H :    0.027714
  74 H :    0.020645
  75 H :    0.051840
  76 H :    0.049091
  77 H :    0.028157
  78 H :    0.028044
  79 H :    0.022004
  80 H :    0.018321
  81 H :    0.030903
  82 H :    0.032439
  83 H :    0.033360
  84 H :    0.026381
  85 H :    0.023394
  86 H :    0.025998
  87 H :    0.027728
  88 H :    0.028199
  89 H :    0.038819
  90 H :    0.022975
  91 H :    0.039073
  92 H :    0.032693
  93 H :    0.024786
  94 H :    0.090020
  95 H :    0.020590
  96 H :    0.027424
  97 H :    0.040820
  98 H :    0.035352
  99 H :    0.031611
 100 H :    0.032458
 101 H :    0.034217
 102 H :    0.033417
 103 H :    0.026314
 104 H :    0.036789
 105 H :    0.037075
 106 H :    0.037196

  Mayer bond orders larger than 0.100000
B(  0-C ,  1-S ) :   1.1488 B(  0-C ,  2-C ) :   1.5447 B(  0-C , 67-H ) :   0.9640
B(  1-S , 10-C ) :   1.0986 B(  2-C ,  3-C ) :   1.2482 B(  2-C , 68-H ) :   0.9930
B(  3-C ,  4-C ) :   1.0256 B(  3-C , 10-C ) :   1.4701 B(  4-C ,  5-C ) :   1.7349
B(  4-C , 13-C ) :   1.0216 B(  5-C ,  6-C ) :   1.0687 B(  5-C ,  8-C ) :   1.0263
B(  6-C ,  7-N ) :   1.0742 B(  6-C , 69-H ) :   0.9187 B(  6-C , 70-H ) :   0.9140
B(  7-N , 71-H ) :   0.9653 B(  7-N , 72-H ) :   0.9634 B(  8-C ,  9-N ) :   1.1288
B(  8-C , 73-H ) :   0.9209 B(  8-C , 74-H ) :   0.9233 B(  9-N , 75-H ) :   0.9741
B(  9-N , 76-H ) :   0.9720 B( 10-C , 11-C ) :   1.2153 B( 11-C , 12-S ) :   1.0951
B( 11-C , 13-C ) :   1.4542 B( 12-S , 15-C ) :   1.0851 B( 13-C , 14-C ) :   1.2674
B( 14-C , 15-C ) :   1.4277 B( 14-C , 77-H ) :   1.0003 B( 15-C , 16-C ) :   1.1799
B( 16-C , 17-C ) :   1.6357 B( 16-C , 78-H ) :   0.9738 B( 17-C , 18-C ) :   1.1768
B( 17-C , 79-H ) :   0.9620 B( 18-C , 19-S ) :   1.1379 B( 18-C , 23-C ) :   1.4034
B( 19-S , 20-C ) :   1.1202 B( 20-C , 21-C ) :   1.6248 B( 20-C , 80-H ) :   0.9652
B( 21-C , 22-C ) :   1.0957 B( 21-C , 23-C ) :   1.2012 B( 22-C , 81-H ) :   0.9462
B( 22-C , 82-H ) :   0.9388 B( 22-C , 83-H ) :   0.9454 B( 23-C , 24-C ) :   1.1436
B( 24-C , 25-C ) :   1.7006 B( 24-C , 84-H ) :   0.9494 B( 25-C , 26-C ) :   1.1160
B( 25-C , 85-H ) :   0.9747 B( 26-C , 27-C ) :   1.7314 B( 26-C , 86-H ) :   0.9711
B( 27-C , 28-C ) :   1.1099 B( 27-C , 87-H ) :   0.9496 B( 28-C , 29-C ) :   1.8303
B( 28-C , 88-H ) :   0.9494 B( 29-C , 30-C ) :   1.0776 B( 29-C , 31-C ) :   1.0361
B( 30-C , 89-H ) :   0.9473 B( 30-C , 90-H ) :   0.9491 B( 30-C , 91-H ) :   0.9426
B( 31-C , 32-N ) :   0.9741 B( 31-C , 92-H ) :   0.9369 B( 31-C , 93-H ) :   0.9341
B( 32-N , 33-C ) :   1.3506 B( 32-N , 94-H ) :   0.9282 B( 33-C , 34-C ) :   1.4851
B( 33-C , 95-H ) :   0.9465 B( 34-C , 35-C ) :   1.2869 B( 34-C , 96-H ) :   0.9588
B( 35-C , 36-C ) :   1.5120 B( 35-C , 97-H ) :   0.9604 B( 36-C , 37-C ) :   1.2008
B( 36-C , 40-S ) :   1.0095 B( 37-C , 38-C ) :   1.5276 B( 37-C , 98-H ) :   0.9970
B( 38-C , 39-C ) :   1.2361 B( 38-C , 99-H ) :   0.9946 B( 39-C , 40-S ) :   1.1016
B( 39-C , 41-C ) :   1.4043 B( 41-C , 42-C ) :   1.2642 B( 41-C , 45-S ) :   1.0383
B( 42-C , 43-C ) :   1.4859 B( 42-C ,100-H ) :   0.9948 B( 43-C , 44-C ) :   1.2232
B( 43-C ,101-H ) :   1.0028 B( 44-C , 45-S ) :   1.1030 B( 44-C , 46-C ) :   1.3491
B( 46-C , 47-C ) :   1.3155 B( 46-C ,102-H ) :   0.9779 B( 47-C , 48-C ) :   1.4103
B( 47-C ,103-H ) :   0.9418 B( 48-C , 49-C ) :   1.1467 B( 48-C , 57-C ) :   0.9824
B( 49-C , 50-C ) :   1.5587 B( 49-C , 55-C ) :   0.9741 B( 50-C , 51-C ) :   1.1754
B( 50-C , 53-C ) :   1.1683 B( 51-C , 52-N ) :   2.8670 B( 53-C , 54-N ) :   2.9362
B( 55-C , 56-C ) :   1.2940 B( 55-C , 62-C ) :   1.4235 B( 56-C , 57-C ) :   0.9311
B( 56-C , 59-C ) :   1.4167 B( 57-C , 58-O ) :   2.1686 B( 59-C , 60-C ) :   1.2214
B( 59-C ,104-H ) :   1.0215 B( 60-C , 61-C ) :   1.3257 B( 60-C , 65-C ) :   1.1561
B( 61-C , 62-C ) :   1.3166 B( 61-C , 63-S ) :   1.0765 B( 62-C ,105-H ) :   0.9787
B( 63-S , 64-C ) :   1.0799 B( 64-C , 65-C ) :   1.6223 B( 64-C , 66-Br) :   1.0079
B( 65-C ,106-H ) :   1.0011

-----------------------------------------------------------------------------
         ABSORPTION SPECTRUM VIA TRANSITION ELECTRIC DIPOLE MOMENTS
-----------------------------------------------------------------------------
State   Energy  Wavelength   fosc         T2         TX        TY        TZ
        (cm-1)    (nm)                  (au**2)     (au)      (au)      (au)
-----------------------------------------------------------------------------
   0   10580.9    945.1   0.505772172  15.73644  -0.09434  -3.79273  -1.15876
   1   13373.8    747.7   0.389076636   9.57756  -0.61981   2.60035   1.55935
   2   18516.7    540.1   0.467025454   8.30335   2.15324  -1.22261  -1.47381
   3   20228.1    494.4   0.111053322   1.80739   0.57115  -1.12007  -0.47605
   4   20844.9    479.7   0.238010944   3.75900  -1.06200   1.56253   0.43547
   5   21897.5    456.7   0.014008915   0.21061  -0.05275   0.42678  -0.16027
   6   22436.0    445.7   0.053680693   0.78768  -0.53546  -0.70005   0.10435
   7   23112.1    432.7   0.003890285   0.05541  -0.16738  -0.09942   0.13233
   8   23426.2    426.9   0.346386138   4.86781  -1.80810   1.15670   0.51052
   9   24380.8    410.2   0.245806510   3.31910  -1.45051  -1.10122  -0.04923
  10   25176.5    397.2   0.588761752   7.69874  -2.69781  -0.04633   0.64687
  11   27138.0    368.5   0.014659279   0.17783   0.02394   0.42044  -0.02211
  12   27245.2    367.0   0.024494335   0.29597   0.51924   0.16030   0.02587
  13   27726.4    360.7   0.175805073   2.08744   0.92587   1.10556   0.08902
  14   28163.3    355.1   0.109329158   1.27799  -0.14032  -0.95094  -0.59500
  15   28317.6    353.1   0.000305387   0.00355  -0.02381   0.04826   0.02558
  16   28457.0    351.4   0.023514181   0.27203   0.13212  -0.38080  -0.33101
  17   29696.6    336.7   0.285454367   3.16450   0.62786  -1.63958  -0.28645
  18   30227.9    330.8   0.089588074   0.97570  -0.74657  -0.41404   0.49690
  19   30438.2    328.5   0.240841894   2.60489   1.25354   0.95929  -0.33657
  20   31035.2    322.2   0.105061165   1.11446  -0.90254  -0.03208   0.54666
  21   31104.7    321.5   0.038627105   0.40883  -0.39275  -0.46716   0.19063
  22   31238.5    320.1   0.002797031   0.02948   0.14759  -0.00185  -0.08769
  23   31506.6    317.4   0.201094598   2.10123  -1.07496  -0.96121   0.14755
  24   31796.7    314.5   0.050895767   0.52696   0.63842   0.29668  -0.17707
  25   32213.9    310.4   0.254674901   2.60267   1.03837   1.14253  -0.46806
  26   32493.4    307.8   0.428533107   4.34175  -0.78909   1.60473   1.06954
  27   33063.1    302.5   0.087604419   0.87228  -0.09659   0.89324   0.25508
  28   33253.6    300.7   0.058022311   0.57442   0.18665   0.70393   0.20994
  29   33497.8    298.5   0.018132302   0.17820   0.26870   0.27317  -0.17715
  30   33680.0    296.9   0.211924577   2.07150  -0.57226  -1.30843   0.17896
  31   33841.7    295.5   0.037121555   0.36112   0.31413   0.48192  -0.17376
  32   34143.5    292.9   0.053911363   0.51981   0.32534   0.60586  -0.21657
  33   34354.4    291.1   0.049226452   0.47173   0.12751   0.67424  -0.02954
  34   34714.8    288.1   0.043859593   0.41594   0.00387  -0.52958  -0.36806
  35   35038.2    285.4   0.118855416   1.11674  -0.89290   0.40671   0.39251
  36   35322.4    283.1   0.034816255   0.32449   0.49999   0.27005   0.03974
  37   35618.4    280.8   0.042756812   0.39519   0.18049  -0.52807   0.28940
  38   35849.6    278.9   0.044822141   0.41161   0.37282  -0.51890  -0.05795
  39   36154.6    276.6   0.014313447   0.13033   0.27734   0.23088  -0.01049
  40   36338.8    275.2   0.048973880   0.44368   0.23028  -0.58643  -0.21622
  41   36595.7    273.3   0.095158215   0.85604   0.83283   0.37227  -0.15444
  42   36776.6    271.9   0.031016762   0.27765   0.23381  -0.41540  -0.22456
  43   36954.0    270.6   0.099828719   0.88934  -0.40322   0.82965   0.19605
  44   37054.3    269.9   0.038590421   0.34286   0.22040  -0.14827  -0.52182
  45   37435.4    267.1   0.063871233   0.56169  -0.50856  -0.47500  -0.27828
  46   37741.4    265.0   0.235360586   2.05301  -0.67784   1.00503   0.76384
  47   37804.8    264.5   0.069821653   0.60802   0.73826   0.24850  -0.03514
  48   38022.7    263.0   0.045888754   0.39732  -0.15052  -0.43915  -0.42639
  49   38442.4    260.1   0.047373933   0.40570   0.03055   0.62590   0.11410
  50   38693.0    258.4   0.004923352   0.04189   0.13704  -0.01849  -0.15089
  51   39309.5    254.4   0.004569099   0.03827  -0.00192   0.18987  -0.04702
  52   39472.4    253.3   0.021713643   0.18110   0.19799  -0.27631  -0.25603
  53   39747.1    251.6   0.017633727   0.14605   0.32267   0.17409   0.10785
  54   39897.3    250.6   0.011979964   0.09885   0.20015  -0.24234  -0.00787
  55   40169.7    248.9   0.023127189   0.18954   0.30806  -0.18366  -0.24679

FINAL SINGLE POINT ENERGY     -7389.887227899538

DIPOLE MOMENT
-------------
                                X             Y             Z
Electronic contribution:     52.10823    -131.09394     -96.68956
Nuclear contribution   :    -52.38418     134.61253      98.12404
                        -----------------------------------------
Total Dipole Moment    :     -0.27596       3.51859       1.43447
                        -----------------------------------------
Magnitude (a.u.)       :      3.80977
Magnitude (Debye)      :      9.68367

Rotational constants in cm-1:     0.001057     0.000537     0.000386
Rotational constants in MHz :    31.689146    16.087925    11.577846

                             ****ORCA TERMINATED NORMALLY****
TOTAL RUN TIME: 0 days 0 hours 12 minutes 17 seconds 208 msec
