                         Program Version 4.2.0 -  RELEASE  -
|  1> # ORCA input file
|  2> # SCF done       -189.324698562921          0.000738083805
|  3> ! CAM-B3LYP def2-SVP def2/J RIJCOSX Grid4 TightSCF
|  4> %maxcore 5000
|  5> %tddft
|  6>     Mode sTDDFT
|  7>     Ethresh 5.0
|  8>     maxcore 5000
|  9> end
| 10>
| 11> %pal
| 12>   nprocs 6
| 13>   end
| 14> * xyz 0 1
| 15>    C       10.54383        -1.23263         2.25112
| 16>    S        9.71810        -0.02514         1.35536
| 17>    C        9.33317         0.85081         2.81073
| 18>    C        9.82126         0.19594         3.92121
| 19>    C       10.52895        -0.98416         3.58974
| 20>    C       11.17185        -1.86195         4.62948
| 21>    C       10.31689        -3.01021         4.84423
| 22>    N        9.62432        -3.90359         5.01303
| 23>    C       11.34812        -1.08237         5.93935
| 24>    C       10.02666        -0.42713         6.32507
| 25>    C        9.67742         0.69169         5.33406
| 26>    O       10.52989         1.82337         5.46045
| 27>    C       10.25981         2.65441         6.55800
| 28>    C        8.62638         2.08960         2.77662
| 29>    C        8.18871         2.68827         1.65460
| 30>    N        7.53873         3.89246         1.66876
| 31>    C        7.07234         4.57265         0.59606
| 32>    S        7.20624         3.91995        -1.00316
| 33>    C        6.41365         5.33563        -1.62883
| 34>    N        6.21575         5.41006        -3.00305
| 35>    O        5.66010         6.40198        -3.44751
| 36>    O        6.61717         4.46738        -3.67113
| 37>    C        6.07410         6.24089        -0.65739
| 38>    C        6.44238         5.82844         0.63412
| 39>    C        6.23704         6.57259         1.84994
| 40>    C        5.59059         7.74745         1.94818
| 41>    C        5.39302         8.51324         3.15897
| 42>    C        4.60962         9.67770         3.09086
| 43>    C        4.39484        10.43306         4.21838
| 44>    C        4.99916        10.06728         5.43470
| 45>    C        5.77529         8.92045         5.51874
| 46>    C        5.95713         8.15171         4.38907
| 47>    C        4.70059        11.07360         6.42513
| 48>    C        3.90585        12.06711         5.82905
| 49>    C        3.59268        11.70465         4.39087
| 50>    C        2.07088        11.43989         4.31307
| 51>    C        1.55621        10.89398         2.98772
| 52>    C        4.02885        12.80300         3.41031
| 53>    C        5.50011        13.17007         3.56799
| 54>    C        3.49787        13.15833         6.55405
| 55>    C        3.89579        13.29956         7.89658
| 56>    C        4.68541        12.29046         8.47366
| 57>    C        5.08450        11.18596         7.75470
| 58>    C        3.47753        14.46113         8.63084
| 59>    C        3.93924        14.83307         9.85327
| 60>    C        3.50962        15.96466        10.56946
| 61>    C        4.03485        16.32140        11.78627
| 62>    C        3.67130        17.41361        12.61040
| 63>    C        4.38470        17.50807        13.76836
| 64>    C        5.36065        16.50116        13.92495
| 65>    S        5.33280        15.41463        12.55254
| 66>    C        6.26150        16.31989        14.95662
| 67>    C        6.42143        17.07847        16.13627
| 68>    C        7.42228        16.63341        16.94536
| 69>    C        8.12272        15.49944        16.45817
| 70>    S        7.42860        15.01828        14.91544
| 71>    C        9.17440        14.88730        17.08887
| 72>    C        9.94321        13.77894        16.67170
| 73>    C       11.00634        13.23785        17.39945
| 74>    C       11.55207        12.14751        16.67571
| 75>    C       12.59727        11.29334        16.94304
| 76>    C       12.89021        10.29872        15.99301
| 77>    C       13.85954         9.30863        15.96645
| 78>    C       13.72371         8.55354        14.75675
| 79>    C       12.66820         9.08195        14.03893
| 80>    C       12.11337        10.17798        14.77148
| 81>    C       11.07411        11.02506        14.50044
| 82>    C       10.77875        12.02555        15.45228
| 83>    C        9.81366        13.01175        15.46163
| 84>    C       14.53317         7.43444        14.33976
| 85>    C       15.54355         6.90862        15.02688
| 86>    H       10.99570        -2.05779         1.73708
| 87>    H       12.13847        -2.23092         4.26577
| 88>    H       12.10149        -0.30581         5.79155
| 89>    H       11.68620        -1.75618         6.72883
| 90>    H       10.09261        -0.01258         7.33184
| 91>    H        9.22526        -1.16918         6.31779
| 92>    H        8.63445         1.01014         5.51092
| 93>    H       10.89043         3.53308         6.43441
| 94>    H       10.49980         2.17630         7.51403
| 95>    H        9.20564         2.96116         6.57665
| 96>    H        8.47133         2.56950         3.73292
| 97>    H        8.33406         2.24588         0.68012
| 98>    H        7.40864         4.32553         2.57481
| 99>    H        5.58364         7.16635        -0.89486
|100>    H        6.65141         6.13096         2.74578
|101>    H        5.16045         8.18432         1.05751
|102>    H        4.19465         9.97088         2.13765
|103>    H        6.23838         8.63871         6.45292
|104>    H        6.56833         7.26492         4.46006
|105>    H        1.56073        12.38045         4.53312
|106>    H        1.81361        10.73315         5.10679
|107>    H        1.80209        11.55688         2.16218
|108>    H        0.47291        10.80171         3.03322
|109>    H        1.96943         9.90922         2.78740
|110>    H        3.41317        13.68933         3.57765
|111>    H        3.85583        12.46180         2.38881
|112>    H        5.69860        13.54429         4.56988
|113>    H        5.77354        13.94126         2.85139
|114>    H        6.13157        12.30087         3.39646
|115>    H        2.88675        13.92770         6.10310
|116>    H        4.97750        12.37255         9.50873
|117>    H        5.68776        10.41994         8.21937
|118>    H        2.74520        15.09389         8.14390
|119>    H        4.70471        14.24133        10.33772
|120>    H        2.72741        16.58528        10.15309
|121>    H        2.89079        18.09525        12.32059
|122>    H        4.23903        18.27531        14.50804
|123>    H        5.79670        17.92605        16.35515
|124>    H        7.68834        17.08765        17.88405
|125>    H        9.46217        15.32021        18.04018
|126>    H       11.35626        13.58979        18.35258
|127>    H       13.18056        11.37669        17.84937
|128>    H       14.59751         9.13323        16.72760
|129>    H       12.31259         8.73535        13.08559
|130>    H       10.49030        10.94550        13.59407
|131>    H        9.08663        13.18118        14.69000
|132>    H       14.26378         7.01165        13.37955
|133>    H       15.84808         7.29301        15.98495
|134>    H       16.10523         6.07107        14.65087
|135> *
|136>
|137>                          ****END OF INPUT****

CARTESIAN COORDINATES (ANGSTROEM)
---------------------------------
  C     10.543830   -1.232630    2.251120
  S      9.718100   -0.025140    1.355360
  C      9.333170    0.850810    2.810730
  C      9.821260    0.195940    3.921210
  C     10.528950   -0.984160    3.589740
  C     11.171850   -1.861950    4.629480
  C     10.316890   -3.010210    4.844230
  N      9.624320   -3.903590    5.013030
  C     11.348120   -1.082370    5.939350
  C     10.026660   -0.427130    6.325070
  C      9.677420    0.691690    5.334060
  O     10.529890    1.823370    5.460450
  C     10.259810    2.654410    6.558000
  C      8.626380    2.089600    2.776620
  C      8.188710    2.688270    1.654600
  N      7.538730    3.892460    1.668760
  C      7.072340    4.572650    0.596060
  S      7.206240    3.919950   -1.003160
  C      6.413650    5.335630   -1.628830
  N      6.215750    5.410060   -3.003050
  O      5.660100    6.401980   -3.447510
  O      6.617170    4.467380   -3.671130
  C      6.074100    6.240890   -0.657390
  C      6.442380    5.828440    0.634120
  C      6.237040    6.572590    1.849940
  C      5.590590    7.747450    1.948180
  C      5.393020    8.513240    3.158970
  C      4.609620    9.677700    3.090860
  C      4.394840   10.433060    4.218380
  C      4.999160   10.067280    5.434700
  C      5.775290    8.920450    5.518740
  C      5.957130    8.151710    4.389070
  C      4.700590   11.073600    6.425130
  C      3.905850   12.067110    5.829050
  C      3.592680   11.704650    4.390870
  C      2.070880   11.439890    4.313070
  C      1.556210   10.893980    2.987720
  C      4.028850   12.803000    3.410310
  C      5.500110   13.170070    3.567990
  C      3.497870   13.158330    6.554050
  C      3.895790   13.299560    7.896580
  C      4.685410   12.290460    8.473660
  C      5.084500   11.185960    7.754700
  C      3.477530   14.461130    8.630840
  C      3.939240   14.833070    9.853270
  C      3.509620   15.964660   10.569460
  C      4.034850   16.321400   11.786270
  C      3.671300   17.413610   12.610400
  C      4.384700   17.508070   13.768360
  C      5.360650   16.501160   13.924950
  S      5.332800   15.414630   12.552540
  C      6.261500   16.319890   14.956620
  C      6.421430   17.078470   16.136270
  C      7.422280   16.633410   16.945360
  C      8.122720   15.499440   16.458170
  S      7.428600   15.018280   14.915440
  C      9.174400   14.887300   17.088870
  C      9.943210   13.778940   16.671700
  C     11.006340   13.237850   17.399450
  C     11.552070   12.147510   16.675710
  C     12.597270   11.293340   16.943040
  C     12.890210   10.298720   15.993010
  C     13.859540    9.308630   15.966450
  C     13.723710    8.553540   14.756750
  C     12.668200    9.081950   14.038930
  C     12.113370   10.177980   14.771480
  C     11.074110   11.025060   14.500440
  C     10.778750   12.025550   15.452280
  C      9.813660   13.011750   15.461630
  C     14.533170    7.434440   14.339760
  C     15.543550    6.908620   15.026880
  H     10.995700   -2.057790    1.737080
  H     12.138470   -2.230920    4.265770
  H     12.101490   -0.305810    5.791550
  H     11.686200   -1.756180    6.728830
  H     10.092610   -0.012580    7.331840
  H      9.225260   -1.169180    6.317790
  H      8.634450    1.010140    5.510920
  H     10.890430    3.533080    6.434410
  H     10.499800    2.176300    7.514030
  H      9.205640    2.961160    6.576650
  H      8.471330    2.569500    3.732920
  H      8.334060    2.245880    0.680120
  H      7.408640    4.325530    2.574810
  H      5.583640    7.166350   -0.894860
  H      6.651410    6.130960    2.745780
  H      5.160450    8.184320    1.057510
  H      4.194650    9.970880    2.137650
  H      6.238380    8.638710    6.452920
  H      6.568330    7.264920    4.460060
  H      1.560730   12.380450    4.533120
  H      1.813610   10.733150    5.106790
  H      1.802090   11.556880    2.162180
  H      0.472910   10.801710    3.033220
  H      1.969430    9.909220    2.787400
  H      3.413170   13.689330    3.577650
  H      3.855830   12.461800    2.388810
  H      5.698600   13.544290    4.569880
  H      5.773540   13.941260    2.851390
  H      6.131570   12.300870    3.396460
  H      2.886750   13.927700    6.103100
  H      4.977500   12.372550    9.508730
  H      5.687760   10.419940    8.219370
  H      2.745200   15.093890    8.143900
  H      4.704710   14.241330   10.337720
  H      2.727410   16.585280   10.153090
  H      2.890790   18.095250   12.320590
  H      4.239030   18.275310   14.508040
  H      5.796700   17.926050   16.355150
  H      7.688340   17.087650   17.884050
  H      9.462170   15.320210   18.040180
  H     11.356260   13.589790   18.352580
  H     13.180560   11.376690   17.849370
  H     14.597510    9.133230   16.727600
  H     12.312590    8.735350   13.085590
  H     10.490300   10.945500   13.594070
  H      9.086630   13.181180   14.690000
  H     14.263780    7.011650   13.379550
  H     15.848080    7.293010   15.984950
  H     16.105230    6.071070   14.650870

 Total Charge           Charge          ....    0
 Multiplicity           Mult            ....    1
 Number of Electrons    NEL             ....  524
 Basis Dimension        Dim             .... 1255

ORBITAL ENERGIES
----------------

  NO   OCC          E(Eh)            E(eV)
   0   2.0000     -88.977136     -2421.1909
   1   2.0000     -88.956516     -2420.6299
   2   2.0000     -88.938368     -2420.1360
   3   2.0000     -88.935091     -2420.0469
   4   2.0000     -19.224196      -523.1170
   5   2.0000     -19.223380      -523.0948
   6   2.0000     -19.222117      -523.0604
   7   2.0000     -14.636022      -398.2664
   8   2.0000     -14.481523      -394.0623
   9   2.0000     -14.395823      -391.7302
  10   2.0000     -10.364436      -282.0306
  11   2.0000     -10.332984      -281.1748
  12   2.0000     -10.330834      -281.1163
  13   2.0000     -10.330772      -281.1146
  14   2.0000     -10.318559      -280.7823
  15   2.0000     -10.318404      -280.7781
  16   2.0000     -10.304699      -280.4051
  17   2.0000     -10.303299      -280.3670
  18   2.0000     -10.300954      -280.3032
  19   2.0000     -10.300884      -280.3013
  20   2.0000     -10.298853      -280.2460
  21   2.0000     -10.298589      -280.2388
  22   2.0000     -10.298536      -280.2374
  23   2.0000     -10.297605      -280.2121
  24   2.0000     -10.296234      -280.1748
  25   2.0000     -10.293319      -280.0954
  26   2.0000     -10.291170      -280.0370
  27   2.0000     -10.287235      -279.9299
  28   2.0000     -10.286245      -279.9029
  29   2.0000     -10.285814      -279.8912
  30   2.0000     -10.284001      -279.8419
  31   2.0000     -10.282466      -279.8001
  32   2.0000     -10.281710      -279.7796
  33   2.0000     -10.280867      -279.7566
  34   2.0000     -10.279653      -279.7236
  35   2.0000     -10.278874      -279.7024
  36   2.0000     -10.278440      -279.6906
  37   2.0000     -10.278184      -279.6836
  38   2.0000     -10.276994      -279.6512
  39   2.0000     -10.276572      -279.6397
  40   2.0000     -10.275767      -279.6178
  41   2.0000     -10.275425      -279.6085
  42   2.0000     -10.273681      -279.5611
  43   2.0000     -10.272734      -279.5353
  44   2.0000     -10.272553      -279.5304
  45   2.0000     -10.271494      -279.5016
  46   2.0000     -10.271475      -279.5011
  47   2.0000     -10.271012      -279.4884
  48   2.0000     -10.270134      -279.4646
  49   2.0000     -10.269353      -279.4433
  50   2.0000     -10.269298      -279.4418
  51   2.0000     -10.269234      -279.4401
  52   2.0000     -10.268758      -279.4271
  53   2.0000     -10.267442      -279.3913
  54   2.0000     -10.267268      -279.3866
  55   2.0000     -10.267229      -279.3855
  56   2.0000     -10.267172      -279.3840
  57   2.0000     -10.266502      -279.3657
  58   2.0000     -10.265046      -279.3261
  59   2.0000     -10.264694      -279.3165
  60   2.0000     -10.264255      -279.3046
  61   2.0000     -10.264163      -279.3021
  62   2.0000     -10.263896      -279.2948
  63   2.0000     -10.263565      -279.2858
  64   2.0000     -10.263426      -279.2820
  65   2.0000     -10.263314      -279.2790
  66   2.0000     -10.261740      -279.2362
  67   2.0000     -10.260838      -279.2116
  68   2.0000     -10.257900      -279.1316
  69   2.0000     -10.250348      -278.9262
  70   2.0000     -10.244215      -278.7593
  71   2.0000      -8.072624      -219.6673
  72   2.0000      -8.052492      -219.1194
  73   2.0000      -8.034276      -218.6238
  74   2.0000      -8.031372      -218.5447
  75   2.0000      -6.042370      -164.4212
  76   2.0000      -6.037982      -164.3018
  77   2.0000      -6.033896      -164.1907
  78   2.0000      -6.021672      -163.8580
  79   2.0000      -6.017611      -163.7475
  80   2.0000      -6.014719      -163.6688
  81   2.0000      -6.004052      -163.3786
  82   2.0000      -6.001097      -163.2982
  83   2.0000      -6.000029      -163.2691
  84   2.0000      -5.997195      -163.1920
  85   2.0000      -5.995191      -163.1374
  86   2.0000      -5.992201      -163.0561
  87   2.0000      -1.303423       -35.4680
  88   2.0000      -1.123656       -30.5762
  89   2.0000      -1.122052       -30.5326
  90   2.0000      -1.088202       -29.6115
  91   2.0000      -0.998402       -27.1679
  92   2.0000      -0.995233       -27.0817
  93   2.0000      -0.988276       -26.8923
  94   2.0000      -0.984807       -26.7980
  95   2.0000      -0.984236       -26.7824
  96   2.0000      -0.980412       -26.6784
  97   2.0000      -0.966364       -26.2961
  98   2.0000      -0.957877       -26.0651
  99   2.0000      -0.944629       -25.7046
 100   2.0000      -0.930094       -25.3092
 101   2.0000      -0.921798       -25.0834
 102   2.0000      -0.908747       -24.7283
 103   2.0000      -0.900181       -24.4952
 104   2.0000      -0.894623       -24.3439
 105   2.0000      -0.893447       -24.3119
 106   2.0000      -0.879426       -23.9304
 107   2.0000      -0.873100       -23.7583
 108   2.0000      -0.865927       -23.5631
 109   2.0000      -0.862262       -23.4633
 110   2.0000      -0.860135       -23.4055
 111   2.0000      -0.851216       -23.1628
 112   2.0000      -0.842876       -22.9358
 113   2.0000      -0.836446       -22.7609
 114   2.0000      -0.834775       -22.7154
 115   2.0000      -0.832291       -22.6478
 116   2.0000      -0.831928       -22.6379
 117   2.0000      -0.829276       -22.5657
 118   2.0000      -0.821936       -22.3660
 119   2.0000      -0.813667       -22.1410
 120   2.0000      -0.807170       -21.9642
 121   2.0000      -0.798752       -21.7351
 122   2.0000      -0.795757       -21.6537
 123   2.0000      -0.780779       -21.2461
 124   2.0000      -0.778653       -21.1882
 125   2.0000      -0.763153       -20.7665
 126   2.0000      -0.761334       -20.7169
 127   2.0000      -0.753477       -20.5032
 128   2.0000      -0.743170       -20.2227
 129   2.0000      -0.733623       -19.9629
 130   2.0000      -0.730117       -19.8675
 131   2.0000      -0.723860       -19.6972
 132   2.0000      -0.717808       -19.5325
 133   2.0000      -0.713358       -19.4115
 134   2.0000      -0.702726       -19.1222
 135   2.0000      -0.690712       -18.7952
 136   2.0000      -0.687784       -18.7156
 137   2.0000      -0.681978       -18.5576
 138   2.0000      -0.679708       -18.4958
 139   2.0000      -0.671898       -18.2833
 140   2.0000      -0.667898       -18.1744
 141   2.0000      -0.661578       -18.0024
 142   2.0000      -0.658613       -17.9218
 143   2.0000      -0.653992       -17.7960
 144   2.0000      -0.642740       -17.4898
 145   2.0000      -0.640138       -17.4190
 146   2.0000      -0.634881       -17.2760
 147   2.0000      -0.634072       -17.2540
 148   2.0000      -0.623662       -16.9707
 149   2.0000      -0.622945       -16.9512
 150   2.0000      -0.620662       -16.8891
 151   2.0000      -0.617186       -16.7945
 152   2.0000      -0.616722       -16.7819
 153   2.0000      -0.614476       -16.7208
 154   2.0000      -0.606304       -16.4984
 155   2.0000      -0.601831       -16.3766
 156   2.0000      -0.600880       -16.3508
 157   2.0000      -0.598599       -16.2887
 158   2.0000      -0.589964       -16.0537
 159   2.0000      -0.589177       -16.0323
 160   2.0000      -0.582527       -15.8514
 161   2.0000      -0.578941       -15.7538
 162   2.0000      -0.578265       -15.7354
 163   2.0000      -0.574257       -15.6263
 164   2.0000      -0.571353       -15.5473
 165   2.0000      -0.570159       -15.5148
 166   2.0000      -0.565025       -15.3751
 167   2.0000      -0.551945       -15.0192
 168   2.0000      -0.550012       -14.9666
 169   2.0000      -0.546885       -14.8815
 170   2.0000      -0.540957       -14.7202
 171   2.0000      -0.539492       -14.6803
 172   2.0000      -0.536655       -14.6031
 173   2.0000      -0.534235       -14.5373
 174   2.0000      -0.532988       -14.5033
 175   2.0000      -0.532457       -14.4889
 176   2.0000      -0.529054       -14.3963
 177   2.0000      -0.527766       -14.3612
 178   2.0000      -0.523240       -14.2381
 179   2.0000      -0.521879       -14.2010
 180   2.0000      -0.518378       -14.1058
 181   2.0000      -0.516541       -14.0558
 182   2.0000      -0.514873       -14.0104
 183   2.0000      -0.514038       -13.9877
 184   2.0000      -0.508942       -13.8490
 185   2.0000      -0.504798       -13.7362
 186   2.0000      -0.501721       -13.6525
 187   2.0000      -0.498104       -13.5541
 188   2.0000      -0.496618       -13.5137
 189   2.0000      -0.494480       -13.4555
 190   2.0000      -0.492286       -13.3958
 191   2.0000      -0.490458       -13.3460
 192   2.0000      -0.488633       -13.2964
 193   2.0000      -0.487747       -13.2723
 194   2.0000      -0.484964       -13.1965
 195   2.0000      -0.477924       -13.0050
 196   2.0000      -0.476288       -12.9605
 197   2.0000      -0.474191       -12.9034
 198   2.0000      -0.474031       -12.8990
 199   2.0000      -0.473192       -12.8762
 200   2.0000      -0.471814       -12.8387
 201   2.0000      -0.467540       -12.7224
 202   2.0000      -0.466718       -12.7000
 203   2.0000      -0.463230       -12.6051
 204   2.0000      -0.461538       -12.5591
 205   2.0000      -0.458661       -12.4808
 206   2.0000      -0.455479       -12.3942
 207   2.0000      -0.452080       -12.3017
 208   2.0000      -0.450112       -12.2482
 209   2.0000      -0.449268       -12.2252
 210   2.0000      -0.448779       -12.2119
 211   2.0000      -0.447712       -12.1829
 212   2.0000      -0.446709       -12.1556
 213   2.0000      -0.445752       -12.1295
 214   2.0000      -0.440687       -11.9917
 215   2.0000      -0.438254       -11.9255
 216   2.0000      -0.436287       -11.8720
 217   2.0000      -0.434125       -11.8131
 218   2.0000      -0.433717       -11.8020
 219   2.0000      -0.429346       -11.6831
 220   2.0000      -0.428055       -11.6480
 221   2.0000      -0.424634       -11.5549
 222   2.0000      -0.422642       -11.5007
 223   2.0000      -0.420243       -11.4354
 224   2.0000      -0.419050       -11.4029
 225   2.0000      -0.417889       -11.3714
 226   2.0000      -0.414792       -11.2871
 227   2.0000      -0.413354       -11.2479
 228   2.0000      -0.411634       -11.2011
 229   2.0000      -0.407411       -11.0862
 230   2.0000      -0.402459       -10.9515
 231   2.0000      -0.400433       -10.8963
 232   2.0000      -0.396555       -10.7908
 233   2.0000      -0.393339       -10.7033
 234   2.0000      -0.389942       -10.6109
 235   2.0000      -0.387241       -10.5374
 236   2.0000      -0.386576       -10.5193
 237   2.0000      -0.385078       -10.4785
 238   2.0000      -0.383019       -10.4225
 239   2.0000      -0.376703       -10.2506
 240   2.0000      -0.374053       -10.1785
 241   2.0000      -0.373161       -10.1542
 242   2.0000      -0.369371       -10.0511
 243   2.0000      -0.365389        -9.9427
 244   2.0000      -0.364227        -9.9111
 245   2.0000      -0.352894        -9.6027
 246   2.0000      -0.351556        -9.5663
 247   2.0000      -0.339702        -9.2437
 248   2.0000      -0.334055        -9.0901
 249   2.0000      -0.329915        -8.9774
 250   2.0000      -0.319774        -8.7015
 251   2.0000      -0.319455        -8.6928
 252   2.0000      -0.317727        -8.6458
 253   2.0000      -0.316271        -8.6062
 254   2.0000      -0.311545        -8.4776
 255   2.0000      -0.303273        -8.2525
 256   2.0000      -0.284996        -7.7551
 257   2.0000      -0.267454        -7.2778
 258   2.0000      -0.265446        -7.2231
 259   2.0000      -0.246472        -6.7069
 260   2.0000      -0.235665        -6.4128
 261   2.0000      -0.196267        -5.3407
 262   0.0000      -0.095153        -2.5892
 263   0.0000      -0.069935        -1.9030
 264   0.0000      -0.050435        -1.3724
 265   0.0000      -0.034724        -0.9449
 266   0.0000      -0.014416        -0.3923

MULLIKEN ATOMIC CHARGES
-----------------------
   0 C :   -0.125517
   1 S :    0.107022
   2 C :   -0.120626
   3 C :    0.007768
   4 C :   -0.005355
   5 C :    0.030891
   6 C :   -0.276859
   7 N :    0.105160
   8 C :    0.067957
   9 C :    0.047932
  10 C :    0.174311
  11 O :   -0.382835
  12 C :    0.191930
  13 C :   -0.003819
  14 C :    0.056296
  15 N :   -0.027341
  16 C :   -0.114604
  17 S :    0.148021
  18 C :   -0.017732
  19 N :    0.281446
  20 O :   -0.262284
  21 O :   -0.275844
  22 C :    0.009141
  23 C :    0.131887
  24 C :   -0.009625
  25 C :   -0.005149
  26 C :    0.133879
  27 C :   -0.117584
  28 C :    0.029475
  29 C :    0.101965
  30 C :   -0.049016
  31 C :   -0.016095
  32 C :    0.096408
  33 C :    0.027052
  34 C :   -0.128954
  35 C :    0.076262
  36 C :    0.029125
  37 C :    0.051496
  38 C :    0.024603
  39 C :   -0.112428
  40 C :    0.132125
  41 C :   -0.012367
  42 C :   -0.046139
  43 C :   -0.017710
  44 C :    0.014603
  45 C :   -0.012145
  46 C :   -0.016904
  47 C :    0.031881
  48 C :    0.026424
  49 C :   -0.044741
  50 S :    0.047152
  51 C :   -0.030733
  52 C :    0.025894
  53 C :    0.035382
  54 C :   -0.025981
  55 S :    0.037558
  56 C :   -0.009769
  57 C :    0.060219
  58 C :   -0.040399
  59 C :    0.072300
  60 C :   -0.002398
  61 C :    0.044905
  62 C :   -0.023492
  63 C :    0.064112
  64 C :   -0.029315
  65 C :    0.062178
  66 C :    0.000593
  67 C :    0.036035
  68 C :   -0.028208
  69 C :    0.010407
  70 C :   -0.025293
  71 H :    0.018763
  72 H :    0.039481
  73 H :    0.028087
  74 H :    0.020312
  75 H :   -0.000705
  76 H :    0.029855
  77 H :   -0.009549
  78 H :    0.030662
  79 H :    0.004878
  80 H :   -0.007453
  81 H :   -0.018818
  82 H :    0.033949
  83 H :    0.134460
  84 H :    0.006477
  85 H :   -0.057251
  86 H :   -0.030396
  87 H :   -0.038683
  88 H :   -0.041131
  89 H :   -0.045758
  90 H :   -0.004178
  91 H :    0.004980
  92 H :    0.003864
  93 H :    0.013754
  94 H :    0.018811
  95 H :   -0.002923
  96 H :    0.005691
  97 H :    0.022475
  98 H :    0.008688
  99 H :    0.018977
 100 H :   -0.043887
 101 H :   -0.032424
 102 H :   -0.041477
 103 H :   -0.028983
 104 H :    0.003114
 105 H :   -0.022050
 106 H :   -0.016460
 107 H :   -0.015883
 108 H :   -0.017873
 109 H :   -0.016564
 110 H :   -0.027009
 111 H :   -0.031736
 112 H :   -0.026609
 113 H :   -0.024304
 114 H :   -0.031732
 115 H :   -0.025726
 116 H :   -0.005763
 117 H :   -0.022317
 118 H :    0.006529
 119 H :    0.019299
Sum of atomic charges:   -0.0000000

LOEWDIN ATOMIC CHARGES
----------------------
   0 C :   -0.183878
   1 S :    0.438157
   2 C :   -0.155295
   3 C :   -0.072424
   4 C :   -0.053618
   5 C :   -0.042112
   6 C :   -0.033979
   7 N :   -0.071914
   8 C :   -0.008803
   9 C :   -0.037586
  10 C :    0.072412
  11 O :   -0.171684
  12 C :    0.064409
  13 C :   -0.083751
  14 C :    0.019606
  15 N :    0.040659
  16 C :   -0.097296
  17 S :    0.450031
  18 C :   -0.216874
  19 N :    0.274552
  20 O :   -0.228666
  21 O :   -0.242095
  22 C :    0.007880
  23 C :   -0.108945
  24 C :   -0.034984
  25 C :   -0.014578
  26 C :   -0.028248
  27 C :   -0.021302
  28 C :    0.003285
  29 C :   -0.014151
  30 C :   -0.020122
  31 C :   -0.019563
  32 C :   -0.023434
  33 C :    0.005124
  34 C :   -0.033785
  35 C :   -0.009604
  36 C :   -0.059907
  37 C :   -0.015383
  38 C :   -0.056633
  39 C :   -0.023365
  40 C :   -0.022024
  41 C :   -0.015845
  42 C :   -0.018905
  43 C :   -0.022505
  44 C :   -0.030563
  45 C :   -0.060663
  46 C :   -0.142135
  47 C :   -0.040155
  48 C :   -0.031570
  49 C :   -0.185022
  50 S :    0.358470
  51 C :   -0.177058
  52 C :   -0.041938
  53 C :   -0.029975
  54 C :   -0.155717
  55 S :    0.369691
  56 C :   -0.045974
  57 C :   -0.062233
  58 C :    0.008953
  59 C :   -0.057797
  60 C :    0.068965
  61 C :   -0.062010
  62 C :    0.044139
  63 C :   -0.059520
  64 C :    0.011699
  65 C :   -0.058842
  66 C :    0.069352
  67 C :   -0.061902
  68 C :    0.030442
  69 C :   -0.020959
  70 C :   -0.056100
  71 H :    0.025015
  72 H :    0.058520
  73 H :    0.031846
  74 H :    0.031641
  75 H :    0.026475
  76 H :    0.034609
  77 H :    0.010524
  78 H :    0.024885
  79 H :    0.004576
  80 H :    0.002304
  81 H :    0.030162
  82 H :    0.021043
  83 H :    0.093849
  84 H :    0.043038
  85 H :    0.014885
  86 H :    0.026441
  87 H :    0.023276
  88 H :    0.025142
  89 H :    0.019075
  90 H :    0.019797
  91 H :    0.026720
  92 H :    0.019944
  93 H :    0.027905
  94 H :    0.023609
  95 H :    0.020034
  96 H :    0.019170
  97 H :    0.025806
  98 H :    0.023607
  99 H :    0.025043
 100 H :    0.022286
 101 H :    0.025416
 102 H :    0.024812
 103 H :    0.024963
 104 H :    0.018088
 105 H :    0.030248
 106 H :    0.031872
 107 H :    0.030873
 108 H :    0.030454
 109 H :    0.031740
 110 H :    0.034032
 111 H :    0.022429
 112 H :    0.034039
 113 H :    0.024617
 114 H :    0.022708
 115 H :    0.034708
 116 H :    0.013826
 117 H :    0.028238
 118 H :    0.017388
 119 H :    0.023885

  Mayer bond orders larger than 0.100000
B(  0-C ,  1-S ) :   1.1508 B(  0-C ,  4-C ) :   1.5746 B(  0-C , 71-H ) :   0.9702
B(  1-S ,  2-C ) :   1.1344 B(  2-C ,  3-C ) :   1.5370 B(  2-C , 13-C ) :   1.1672
B(  3-C ,  4-C ) :   1.3258 B(  3-C , 10-C ) :   0.9776 B(  4-C ,  5-C ) :   0.9777
B(  5-C ,  6-C ) :   1.0339 B(  5-C ,  8-C ) :   1.0960 B(  5-C , 72-H ) :   0.8686
B(  6-C ,  7-N ) :   3.1124 B(  8-C ,  9-C ) :   1.0439 B(  8-C , 73-H ) :   0.9361
B(  8-C , 74-H ) :   0.9384 B(  9-C , 10-C ) :   1.0570 B(  9-C , 75-H ) :   0.9219
B(  9-C , 76-H ) :   0.9375 B( 10-C , 11-O ) :   1.0242 B( 10-C , 77-H ) :   0.9069
B( 11-O , 12-C ) :   0.9972 B( 12-C , 78-H ) :   0.9812 B( 12-C , 79-H ) :   0.9673
B( 12-C , 80-H ) :   0.9615 B( 13-C , 14-C ) :   1.6812 B( 13-C , 81-H ) :   0.9559
B( 14-C , 15-N ) :   1.1093 B( 14-C , 82-H ) :   0.9611 B( 15-N , 16-C ) :   1.2404
B( 15-N , 83-H ) :   0.9157 B( 16-C , 17-S ) :   1.1337 B( 16-C , 23-C ) :   1.3377
B( 17-S , 18-C ) :   1.0595 B( 18-C , 19-N ) :   0.9919 B( 18-C , 22-C ) :   1.4819
B( 19-N , 20-O ) :   1.5189 B( 19-N , 21-O ) :   1.4975 B( 20-O , 21-O ) :   0.2495
B( 22-C , 23-C ) :   1.2397 B( 22-C , 84-H ) :   1.0000 B( 23-C , 24-C ) :   1.0650
B( 24-C , 25-C ) :   1.7371 B( 24-C , 85-H ) :   0.9583 B( 25-C , 26-C ) :   1.0628
B( 25-C , 86-H ) :   0.9859 B( 26-C , 27-C ) :   1.2815 B( 26-C , 31-C ) :   1.3441
B( 27-C , 28-C ) :   1.3792 B( 27-C , 87-H ) :   1.0078 B( 28-C , 29-C ) :   1.3824
B( 28-C , 34-C ) :   0.9178 B( 29-C , 30-C ) :   1.3272 B( 29-C , 32-C ) :   1.0060
B( 30-C , 31-C ) :   1.4021 B( 30-C , 88-H ) :   0.9876 B( 31-C , 89-H ) :   0.9827
B( 32-C , 33-C ) :   1.3762 B( 32-C , 42-C ) :   1.3211 B( 33-C , 34-C ) :   0.9240
B( 33-C , 39-C ) :   1.3796 B( 34-C , 35-C ) :   1.0130 B( 34-C , 37-C ) :   1.0323
B( 35-C , 36-C ) :   1.1156 B( 35-C , 90-H ) :   0.9370 B( 35-C , 91-H ) :   0.9392
B( 36-C , 92-H ) :   0.9630 B( 36-C , 93-H ) :   0.9595 B( 36-C , 94-H ) :   0.9606
B( 37-C , 38-C ) :   1.1034 B( 37-C , 95-H ) :   0.9391 B( 37-C , 96-H ) :   0.9386
B( 38-C , 97-H ) :   0.9633 B( 38-C , 98-H ) :   0.9647 B( 38-C , 99-H ) :   0.9652
B( 39-C , 40-C ) :   1.2806 B( 39-C ,100-H ) :   1.0110 B( 40-C , 41-C ) :   1.3334
B( 40-C , 43-C ) :   1.0715 B( 41-C , 42-C ) :   1.4086 B( 41-C ,101-H ) :   0.9833
B( 42-C ,102-H ) :   0.9886 B( 43-C , 44-C ) :   1.6466 B( 43-C ,103-H ) :   0.9901
B( 44-C , 45-C ) :   1.1502 B( 44-C ,104-H ) :   0.9604 B( 45-C , 46-C ) :   1.5617
B( 45-C ,105-H ) :   0.9868 B( 46-C , 47-C ) :   1.1425 B( 46-C , 50-S ) :   1.0304
B( 47-C , 48-C ) :   1.5840 B( 47-C ,106-H ) :   0.9993 B( 48-C , 49-C ) :   1.1952
B( 48-C ,107-H ) :   0.9937 B( 49-C , 50-S ) :   1.0387 B( 49-C , 51-C ) :   1.5045
B( 51-C , 52-C ) :   1.1883 B( 51-C , 55-S ) :   1.0419 B( 52-C , 53-C ) :   1.5904
B( 52-C ,108-H ) :   0.9936 B( 53-C , 54-C ) :   1.1403 B( 53-C ,109-H ) :   0.9989
B( 54-C , 55-S ) :   1.0181 B( 54-C , 56-C ) :   1.5799 B( 56-C , 57-C ) :   1.1329
B( 56-C ,110-H ) :   0.9685 B( 57-C , 58-C ) :   1.4408 B( 57-C , 68-C ) :   1.1284
B( 58-C , 59-C ) :   1.1122 B( 58-C ,111-H ) :   1.0192 B( 59-C , 60-C ) :   1.4313
B( 59-C , 67-C ) :   1.1273 B( 60-C , 61-C ) :   1.1401 B( 60-C ,112-H ) :   1.0044
B( 61-C , 62-C ) :   1.4352 B( 61-C , 65-C ) :   1.1261 B( 62-C , 63-C ) :   1.1459
B( 62-C ,113-H ) :   1.0078 B( 63-C , 64-C ) :   1.5069 B( 63-C , 69-C ) :   1.0831
B( 64-C , 65-C ) :   1.0867 B( 64-C ,114-H ) :   1.0164 B( 65-C , 66-C ) :   1.4613
B( 66-C , 67-C ) :   1.1292 B( 66-C ,115-H ) :   1.0041 B( 67-C , 68-C ) :   1.4622
B( 68-C ,116-H ) :   0.9899 B( 69-C , 70-C ) :   1.9334 B( 69-C ,117-H ) :   0.9665
B( 70-C ,118-H ) :   0.9526 B( 70-C ,119-H ) :   0.9498

-----------------------------------------------------------------------------
         ABSORPTION SPECTRUM VIA TRANSITION ELECTRIC DIPOLE MOMENTS
-----------------------------------------------------------------------------
State   Energy  Wavelength   fosc         T2         TX        TY        TZ
        (cm-1)    (nm)                  (au**2)     (au)      (au)      (au)
-----------------------------------------------------------------------------
   0    6053.1   1652.0   0.017944355   0.97594  -0.72602   0.28792  -0.60493
   1   14191.3    704.7   1.386972706  32.17527   3.55123  -0.28211   4.41412
   2   14601.5    684.9   0.002660394   0.05998  -0.18761   0.09105  -0.12843
   3   22318.5    448.1   0.047394902   0.69911  -0.59356   0.58361   0.07870
   4   22692.3    440.7   0.000055136   0.00080   0.01724  -0.02063   0.00878
   5   23479.7    425.9   0.110779923   1.55326  -0.87567   0.87829  -0.12273
   6   24044.1    415.9   0.518267538   7.09611  -1.14888   1.73630  -1.66176
   7   24551.7    407.3   2.747197379  36.83694  -2.43746   4.72865   2.92157
   8   26080.9    383.4   0.280679902   3.54295  -0.69846   1.08087  -1.37362
   9   26257.7    380.8   0.189558822   2.37663  -0.97549   1.19008  -0.09360
  10   27377.0    365.3   0.079315527   0.95378   0.42822  -0.82633  -0.29596
  11   28053.0    356.5   0.137725050   1.61625  -0.52606   0.90185   0.72539
  12   28683.7    348.6   0.017865202   0.20504  -0.25959   0.33774   0.15360
  13   29989.7    333.4   0.102299775   1.12299  -0.70337   0.78927  -0.07294
  14   30314.0    329.9   0.087036828   0.94523  -0.13526   0.83470   0.47980
  15   31298.8    319.5   0.353568943   3.71897  -0.85265   1.57256   0.72042
  16   32309.2    309.5   0.132860496   1.35377   0.55311  -0.85116  -0.56865
  17   32490.0    307.8   0.136676067   1.38490  -0.46242   0.40604  -1.00309
  18   32865.5    304.3   0.000865409   0.00867   0.06928  -0.06208   0.00384
  19   33193.8    301.3   0.053242661   0.52805   0.57298  -0.41868   0.15637
  20   33293.5    300.4   0.000077691   0.00077   0.01955  -0.00087   0.01963
  21   33742.2    296.4   0.043832861   0.42766  -0.03091   0.42125   0.49926
  22   33973.8    294.3   0.007731531   0.07492  -0.18793   0.11854  -0.15984
  23   34244.8    292.0   0.016567861   0.15927  -0.24758   0.31298   0.00490
  24   34559.6    289.4   0.119194804   1.13544  -0.66455   0.72470  -0.41064
  25   35289.4    283.4   0.007700281   0.07184  -0.10052   0.19145   0.15836
  26   36108.6    276.9   0.045808648   0.41765   0.29536  -0.54845  -0.17209
  27   36450.3    274.3   0.013454551   0.12152  -0.21153   0.27689   0.01041
  28   36656.0    272.8   0.001747416   0.01569  -0.08489   0.03135   0.08663
  29   36729.4    272.3   0.104615154   0.93768  -0.71926   0.64793  -0.02324
  30   37199.6    268.8   0.042378458   0.37504  -0.23530   0.35998   0.43600
  31   37478.4    266.8   0.054998376   0.48311  -0.19431  -0.04736  -0.66566
  32   37782.4    264.7   0.254696352   2.21926  -0.52103   0.90050   1.06625
  33   37954.5    263.5   0.142973415   1.24013   0.40557  -0.72618  -0.74048
  34   38105.9    262.4   0.005247352   0.04533   0.05308  -0.12094   0.16700
  35   39023.1    256.3   0.031824829   0.26848   0.12564  -0.27631  -0.41994
  36   39179.9    255.2   0.021134681   0.17759   0.17062   0.07655   0.37764
  37   39578.5    252.7   0.026871000   0.22351  -0.22757   0.40842  -0.07013
  38   40019.6    249.9   0.079026791   0.65010   0.40327  -0.15893   0.67986

FINAL SINGLE POINT ENERGY     -4332.449519596619

DIPOLE MOMENT
-------------
                                X             Y             Z
Electronic contribution:      7.49614     -10.69270      -9.81398
Nuclear contribution   :     -6.65235      12.53282      13.36931
                        -----------------------------------------
Total Dipole Moment    :      0.84379       1.84013       3.55533
                        -----------------------------------------
Magnitude (a.u.)       :      4.09126
Magnitude (Debye)      :     10.39916

Rotational constants in cm-1:     0.000710     0.000278     0.000206
Rotational constants in MHz :    21.274079     8.348855     6.174056

                             ****ORCA TERMINATED NORMALLY****
TOTAL RUN TIME: 0 days 0 hours 15 minutes 19 seconds 557 msec
