                         Program Version 4.2.0 -  RELEASE  -
|  1> # ORCA input file
|  2> # SCF done       -182.749648613065          0.000278315874
|  3> ! CAM-B3LYP def2-SVP def2/J RIJCOSX Grid4 TightSCF
|  4> %maxcore 5000
|  5> %tddft
|  6>     Mode sTDDFT
|  7>     Ethresh 5.0
|  8>     maxcore 5000
|  9> end
| 10>
| 11> %pal
| 12>   nprocs 6
| 13>   end
| 14> * xyz 0 1
| 15>    C       -2.07224        -0.98576         3.81829
| 16>    C       -2.02436        -0.53978         5.13222
| 17>    C       -1.38969         0.64439         5.46606
| 18>    C       -0.79125         1.43126         4.48824
| 19>    C       -0.84622         1.00740         3.18011
| 20>    C       -1.47478        -0.19898         2.85285
| 21>    N       -1.37697        -0.42107         1.48668
| 22>    C       -1.90593        -1.56766         0.79972
| 23>    C       -0.71462         0.59555         0.85688
| 24>    O       -0.49485         0.64956        -0.33027
| 25>    C       -0.35757         1.64088         1.91365
| 26>    C       -1.10025         2.95847         1.59695
| 27>    C       -0.73839         4.00804         2.64657
| 28>    O        0.35142         4.47782         2.87096
| 29>    N       -1.87943         4.31202         3.33909
| 30>    C       -1.91423         5.23585         4.43954
| 31>    C       -2.97514         3.61602         2.85102
| 32>    C       -4.27776         3.64352         3.29569
| 33>    C       -5.22466         2.84873         2.63204
| 34>    C       -4.82493         2.07806         1.53351
| 35>    C       -3.50952         2.05523         1.09770
| 36>    C       -2.57954         2.81809         1.76900
| 37>    C       -6.60922         2.78278         3.03641
| 38>    C       -7.16757         3.38428         4.10618
| 39>    C       -8.54556         3.22570         4.42966
| 40>    O       -9.04393         3.84522         5.53502
| 41>    C       -9.56865         2.51663         3.83254
| 42>    C       -9.91715         1.63299         2.72098
| 43>    O       -9.25016         1.18992         1.81836
| 44>    N      -11.27005         1.37177         2.91562
| 45>    C      -11.84217         1.98211         4.03312
| 46>    O      -12.99354         1.87066         4.36744
| 47>    C      -10.72960         2.72472         4.62327
| 48>    C      -10.36759         3.54902         5.66800
| 49>    C      -11.13911         4.05081         6.75168
| 50>    C      -10.65438         4.84860         7.72754
| 51>    C      -11.46307         5.30536         8.81470
| 52>    C      -11.07391         6.09665         9.82878
| 53>    C       -9.69362         6.64440        10.00753
| 54>    C      -12.04242         6.43410        10.93898
| 55>    N      -11.54893         6.01349        12.23037
| 56>    C      -11.38149         4.71004        12.54641
| 57>    C      -10.68058         4.28252        13.62896
| 58>    C      -10.53417         2.93224        13.99267
| 59>    C       -9.82749         2.52056        15.09333
| 60>    C       -9.59814         1.19927        15.54585
| 61>    C       -8.85641         1.11773        16.68650
| 62>    C       -8.46095         2.37265        17.20073
| 63>    S       -9.05136         3.66374        16.18657
| 64>    C       -7.72500         2.66058        18.33552
| 65>    C       -7.15520         1.78656        19.28242
| 66>    C       -6.50098         2.42547        20.29326
| 67>    C       -6.52030         3.84166        20.20112
| 68>    S       -7.39852         4.32721        18.76728
| 69>    C       -5.95034         4.70117        21.10745
| 70>    C       -5.94653         6.10869        21.08400
| 71>    S       -5.20007         6.98091        22.41959
| 72>    C       -5.55159         8.54141        21.78093
| 73>    C       -6.21580         8.41996        20.58559
| 74>    C       -6.43313         7.05764        20.19928
| 75>    O       -7.07978         7.00282        19.01321
| 76>    C       -7.28076         8.29330        18.64397
| 77>    N       -7.94413         8.53677        17.42655
| 78>    O       -8.10948         9.70790        17.12054
| 79>    O       -8.30803         7.58854        16.75868
| 80>    C       -6.78586         9.20139        19.54517
| 81>    H       -2.55998        -1.91411         3.56649
| 82>    H       -2.48614        -1.13346         5.90684
| 83>    H       -1.35654         0.95996         6.49774
| 84>    H       -0.28603         2.34787         4.75169
| 85>    H       -2.98990        -1.62017         0.92210
| 86>    H       -1.45517        -2.48610         1.18079
| 87>    H       -1.66290        -1.45684        -0.25658
| 88>    H        0.71669         1.84461         1.91555
| 89>    H       -0.80570         3.28460         0.59570
| 90>    H       -0.90358         5.61949         4.57562
| 91>    H       -2.23920         4.73161         5.35224
| 92>    H       -2.59037         6.06569         4.22441
| 93>    H       -4.56216         4.26152         4.13094
| 94>    H       -5.56686         1.48490         1.02093
| 95>    H       -3.22279         1.45832         0.24575
| 96>    H       -7.24517         2.16961         2.41130
| 97>    H       -6.60440         4.00820         4.78404
| 98>    H      -11.80074         0.77925         2.29320
| 99>    H      -12.17279         3.73532         6.74983
|100>    H       -9.61415         5.13682         7.69393
|101>    H      -12.49071         4.96316         8.79443
|102>    H       -9.17900         6.75398         9.05813
|103>    H       -9.10336         5.97732        10.63814
|104>    H       -9.73144         7.61676        10.49523
|105>    H      -13.00492         5.94690        10.75524
|106>    H      -12.20768         7.51472        10.97707
|107>    H      -11.00319         6.67541        12.76230
|108>    H      -11.87790         4.00746        11.89057
|109>    H      -10.19947         5.01722        14.26196
|110>    H      -10.99525         2.17519        13.37190
|111>    H       -9.98958         0.34964        15.01352
|112>    H       -8.58716         0.19644        17.17183
|113>    H       -7.24069         0.71767        19.19667
|114>    H       -6.00516         1.92779        21.10814
|115>    H       -5.45048         4.25156        21.95499
|116>    H       -5.25390         9.42014        22.31203
|117>    H       -6.83260        10.26670        19.45668
|118> *
|119>
|120>                          ****END OF INPUT****

CARTESIAN COORDINATES (ANGSTROEM)
---------------------------------
  C     -2.072240   -0.985760    3.818290
  C     -2.024360   -0.539780    5.132220
  C     -1.389690    0.644390    5.466060
  C     -0.791250    1.431260    4.488240
  C     -0.846220    1.007400    3.180110
  C     -1.474780   -0.198980    2.852850
  N     -1.376970   -0.421070    1.486680
  C     -1.905930   -1.567660    0.799720
  C     -0.714620    0.595550    0.856880
  O     -0.494850    0.649560   -0.330270
  C     -0.357570    1.640880    1.913650
  C     -1.100250    2.958470    1.596950
  C     -0.738390    4.008040    2.646570
  O      0.351420    4.477820    2.870960
  N     -1.879430    4.312020    3.339090
  C     -1.914230    5.235850    4.439540
  C     -2.975140    3.616020    2.851020
  C     -4.277760    3.643520    3.295690
  C     -5.224660    2.848730    2.632040
  C     -4.824930    2.078060    1.533510
  C     -3.509520    2.055230    1.097700
  C     -2.579540    2.818090    1.769000
  C     -6.609220    2.782780    3.036410
  C     -7.167570    3.384280    4.106180
  C     -8.545560    3.225700    4.429660
  O     -9.043930    3.845220    5.535020
  C     -9.568650    2.516630    3.832540
  C     -9.917150    1.632990    2.720980
  O     -9.250160    1.189920    1.818360
  N    -11.270050    1.371770    2.915620
  C    -11.842170    1.982110    4.033120
  O    -12.993540    1.870660    4.367440
  C    -10.729600    2.724720    4.623270
  C    -10.367590    3.549020    5.668000
  C    -11.139110    4.050810    6.751680
  C    -10.654380    4.848600    7.727540
  C    -11.463070    5.305360    8.814700
  C    -11.073910    6.096650    9.828780
  C     -9.693620    6.644400   10.007530
  C    -12.042420    6.434100   10.938980
  N    -11.548930    6.013490   12.230370
  C    -11.381490    4.710040   12.546410
  C    -10.680580    4.282520   13.628960
  C    -10.534170    2.932240   13.992670
  C     -9.827490    2.520560   15.093330
  C     -9.598140    1.199270   15.545850
  C     -8.856410    1.117730   16.686500
  C     -8.460950    2.372650   17.200730
  S     -9.051360    3.663740   16.186570
  C     -7.725000    2.660580   18.335520
  C     -7.155200    1.786560   19.282420
  C     -6.500980    2.425470   20.293260
  C     -6.520300    3.841660   20.201120
  S     -7.398520    4.327210   18.767280
  C     -5.950340    4.701170   21.107450
  C     -5.946530    6.108690   21.084000
  S     -5.200070    6.980910   22.419590
  C     -5.551590    8.541410   21.780930
  C     -6.215800    8.419960   20.585590
  C     -6.433130    7.057640   20.199280
  O     -7.079780    7.002820   19.013210
  C     -7.280760    8.293300   18.643970
  N     -7.944130    8.536770   17.426550
  O     -8.109480    9.707900   17.120540
  O     -8.308030    7.588540   16.758680
  C     -6.785860    9.201390   19.545170
  H     -2.559980   -1.914110    3.566490
  H     -2.486140   -1.133460    5.906840
  H     -1.356540    0.959960    6.497740
  H     -0.286030    2.347870    4.751690
  H     -2.989900   -1.620170    0.922100
  H     -1.455170   -2.486100    1.180790
  H     -1.662900   -1.456840   -0.256580
  H      0.716690    1.844610    1.915550
  H     -0.805700    3.284600    0.595700
  H     -0.903580    5.619490    4.575620
  H     -2.239200    4.731610    5.352240
  H     -2.590370    6.065690    4.224410
  H     -4.562160    4.261520    4.130940
  H     -5.566860    1.484900    1.020930
  H     -3.222790    1.458320    0.245750
  H     -7.245170    2.169610    2.411300
  H     -6.604400    4.008200    4.784040
  H    -11.800740    0.779250    2.293200
  H    -12.172790    3.735320    6.749830
  H     -9.614150    5.136820    7.693930
  H    -12.490710    4.963160    8.794430
  H     -9.179000    6.753980    9.058130
  H     -9.103360    5.977320   10.638140
  H     -9.731440    7.616760   10.495230
  H    -13.004920    5.946900   10.755240
  H    -12.207680    7.514720   10.977070
  H    -11.003190    6.675410   12.762300
  H    -11.877900    4.007460   11.890570
  H    -10.199470    5.017220   14.261960
  H    -10.995250    2.175190   13.371900
  H     -9.989580    0.349640   15.013520
  H     -8.587160    0.196440   17.171830
  H     -7.240690    0.717670   19.196670
  H     -6.005160    1.927790   21.108140
  H     -5.450480    4.251560   21.954990
  H     -5.253900    9.420140   22.312030
  H     -6.832600   10.266700   19.456680

 Total Charge           Charge          ....    0
 Multiplicity           Mult            ....    1
 Number of Electrons    NEL             ....  484
 Basis Dimension        Dim             .... 1121

ORBITAL ENERGIES
----------------

  NO   OCC          E(Eh)            E(eV)
   0   2.0000     -88.959926     -2420.7227
   1   2.0000     -88.924940     -2419.7706
   2   2.0000     -88.921571     -2419.6790
   3   2.0000     -19.307286      -525.3780
   4   2.0000     -19.295231      -525.0499
   5   2.0000     -19.237267      -523.4726
   6   2.0000     -19.234153      -523.3879
   7   2.0000     -19.209063      -522.7052
   8   2.0000     -19.206104      -522.6247
   9   2.0000     -19.191632      -522.2308
  10   2.0000     -19.189017      -522.1597
  11   2.0000     -14.647889      -398.5893
  12   2.0000     -14.453886      -393.3102
  13   2.0000     -14.451079      -393.2338
  14   2.0000     -14.450961      -393.2306
  15   2.0000     -14.438331      -392.8870
  16   2.0000     -10.397075      -282.9188
  17   2.0000     -10.395384      -282.8728
  18   2.0000     -10.377488      -282.3858
  19   2.0000     -10.374295      -282.2989
  20   2.0000     -10.371731      -282.2292
  21   2.0000     -10.358954      -281.8815
  22   2.0000     -10.355355      -281.7835
  23   2.0000     -10.332068      -281.1499
  24   2.0000     -10.318301      -280.7753
  25   2.0000     -10.316776      -280.7337
  26   2.0000     -10.316241      -280.7192
  27   2.0000     -10.310732      -280.5693
  28   2.0000     -10.308850      -280.5181
  29   2.0000     -10.306073      -280.4425
  30   2.0000     -10.305842      -280.4362
  31   2.0000     -10.302121      -280.3350
  32   2.0000     -10.296021      -280.1690
  33   2.0000     -10.295918      -280.1662
  34   2.0000     -10.294111      -280.1170
  35   2.0000     -10.294089      -280.1164
  36   2.0000     -10.292561      -280.0748
  37   2.0000     -10.290678      -280.0236
  38   2.0000     -10.289282      -279.9856
  39   2.0000     -10.288595      -279.9669
  40   2.0000     -10.287103      -279.9263
  41   2.0000     -10.286281      -279.9039
  42   2.0000     -10.286207      -279.9019
  43   2.0000     -10.285238      -279.8756
  44   2.0000     -10.284422      -279.8534
  45   2.0000     -10.282933      -279.8128
  46   2.0000     -10.282523      -279.8017
  47   2.0000     -10.282377      -279.7977
  48   2.0000     -10.279775      -279.7269
  49   2.0000     -10.277695      -279.6703
  50   2.0000     -10.277249      -279.6582
  51   2.0000     -10.277175      -279.6561
  52   2.0000     -10.275849      -279.6201
  53   2.0000     -10.275461      -279.6095
  54   2.0000     -10.273386      -279.5531
  55   2.0000     -10.273271      -279.5499
  56   2.0000     -10.272819      -279.5376
  57   2.0000     -10.271851      -279.5113
  58   2.0000     -10.271566      -279.5035
  59   2.0000     -10.271413      -279.4994
  60   2.0000     -10.271044      -279.4893
  61   2.0000     -10.268523      -279.4207
  62   2.0000     -10.267391      -279.3899
  63   2.0000     -10.264329      -279.3066
  64   2.0000     -10.263641      -279.2879
  65   2.0000     -10.255131      -279.0563
  66   2.0000      -8.054902      -219.1850
  67   2.0000      -8.021339      -218.2717
  68   2.0000      -8.017786      -218.1751
  69   2.0000      -6.024287      -163.9292
  70   2.0000      -6.019995      -163.8124
  71   2.0000      -6.017129      -163.7344
  72   2.0000      -5.991070      -163.0253
  73   2.0000      -5.987561      -162.9298
  74   2.0000      -5.987021      -162.9151
  75   2.0000      -5.983411      -162.8169
  76   2.0000      -5.982221      -162.7845
  77   2.0000      -5.978553      -162.6847
  78   2.0000      -1.317411       -35.8486
  79   2.0000      -1.221885       -33.2492
  80   2.0000      -1.217212       -33.1220
  81   2.0000      -1.151605       -31.3368
  82   2.0000      -1.135820       -30.9072
  83   2.0000      -1.132376       -30.8135
  84   2.0000      -1.131976       -30.8026
  85   2.0000      -1.130939       -30.7744
  86   2.0000      -1.059834       -28.8395
  87   2.0000      -1.055781       -28.7293
  88   2.0000      -1.040668       -28.3180
  89   2.0000      -1.038593       -28.2616
  90   2.0000      -0.981929       -26.7197
  91   2.0000      -0.975643       -26.5486
  92   2.0000      -0.958417       -26.0798
  93   2.0000      -0.954489       -25.9730
  94   2.0000      -0.947124       -25.7726
  95   2.0000      -0.933931       -25.4136
  96   2.0000      -0.925703       -25.1897
  97   2.0000      -0.925458       -25.1830
  98   2.0000      -0.917679       -24.9713
  99   2.0000      -0.912477       -24.8298
 100   2.0000      -0.893333       -24.3088
 101   2.0000      -0.887115       -24.1396
 102   2.0000      -0.881770       -23.9942
 103   2.0000      -0.871775       -23.7222
 104   2.0000      -0.861809       -23.4510
 105   2.0000      -0.845814       -23.0158
 106   2.0000      -0.841897       -22.9092
 107   2.0000      -0.837559       -22.7911
 108   2.0000      -0.835385       -22.7320
 109   2.0000      -0.823791       -22.4165
 110   2.0000      -0.810733       -22.0612
 111   2.0000      -0.807990       -21.9865
 112   2.0000      -0.805566       -21.9206
 113   2.0000      -0.800636       -21.7864
 114   2.0000      -0.797554       -21.7026
 115   2.0000      -0.787610       -21.4319
 116   2.0000      -0.779970       -21.2241
 117   2.0000      -0.771602       -20.9964
 118   2.0000      -0.763751       -20.7827
 119   2.0000      -0.760507       -20.6945
 120   2.0000      -0.751661       -20.4537
 121   2.0000      -0.745279       -20.2801
 122   2.0000      -0.722648       -19.6642
 123   2.0000      -0.713147       -19.4057
 124   2.0000      -0.707449       -19.2507
 125   2.0000      -0.699871       -19.0445
 126   2.0000      -0.696384       -18.9496
 127   2.0000      -0.693779       -18.8787
 128   2.0000      -0.690827       -18.7984
 129   2.0000      -0.686396       -18.6778
 130   2.0000      -0.675289       -18.3755
 131   2.0000      -0.667229       -18.1562
 132   2.0000      -0.665812       -18.1177
 133   2.0000      -0.652710       -17.7611
 134   2.0000      -0.647328       -17.6147
 135   2.0000      -0.640751       -17.4357
 136   2.0000      -0.632023       -17.1982
 137   2.0000      -0.630085       -17.1455
 138   2.0000      -0.624388       -16.9905
 139   2.0000      -0.620154       -16.8752
 140   2.0000      -0.616596       -16.7784
 141   2.0000      -0.614775       -16.7289
 142   2.0000      -0.609441       -16.5837
 143   2.0000      -0.607611       -16.5339
 144   2.0000      -0.604338       -16.4449
 145   2.0000      -0.599917       -16.3246
 146   2.0000      -0.596056       -16.2195
 147   2.0000      -0.591678       -16.1004
 148   2.0000      -0.590404       -16.0657
 149   2.0000      -0.588542       -16.0150
 150   2.0000      -0.580361       -15.7924
 151   2.0000      -0.580049       -15.7839
 152   2.0000      -0.578946       -15.7539
 153   2.0000      -0.578166       -15.7327
 154   2.0000      -0.570905       -15.5351
 155   2.0000      -0.568252       -15.4629
 156   2.0000      -0.563398       -15.3308
 157   2.0000      -0.560171       -15.2430
 158   2.0000      -0.558806       -15.2059
 159   2.0000      -0.555195       -15.1076
 160   2.0000      -0.553814       -15.0700
 161   2.0000      -0.544524       -14.8172
 162   2.0000      -0.541565       -14.7367
 163   2.0000      -0.539535       -14.6815
 164   2.0000      -0.537907       -14.6372
 165   2.0000      -0.537662       -14.6305
 166   2.0000      -0.531148       -14.4533
 167   2.0000      -0.527302       -14.3486
 168   2.0000      -0.523489       -14.2449
 169   2.0000      -0.522707       -14.2236
 170   2.0000      -0.520764       -14.1707
 171   2.0000      -0.518380       -14.1058
 172   2.0000      -0.515179       -14.0187
 173   2.0000      -0.513649       -13.9771
 174   2.0000      -0.512391       -13.9429
 175   2.0000      -0.508135       -13.8271
 176   2.0000      -0.502247       -13.6668
 177   2.0000      -0.501674       -13.6512
 178   2.0000      -0.498367       -13.5613
 179   2.0000      -0.498132       -13.5549
 180   2.0000      -0.495286       -13.4774
 181   2.0000      -0.488652       -13.2969
 182   2.0000      -0.485202       -13.2030
 183   2.0000      -0.481772       -13.1097
 184   2.0000      -0.479834       -13.0569
 185   2.0000      -0.479605       -13.0507
 186   2.0000      -0.476923       -12.9777
 187   2.0000      -0.472789       -12.8652
 188   2.0000      -0.472558       -12.8590
 189   2.0000      -0.470461       -12.8019
 190   2.0000      -0.468690       -12.7537
 191   2.0000      -0.468029       -12.7357
 192   2.0000      -0.465837       -12.6761
 193   2.0000      -0.464466       -12.6388
 194   2.0000      -0.460716       -12.5367
 195   2.0000      -0.459320       -12.4987
 196   2.0000      -0.458175       -12.4676
 197   2.0000      -0.455926       -12.4064
 198   2.0000      -0.454526       -12.3683
 199   2.0000      -0.453709       -12.3460
 200   2.0000      -0.450190       -12.2503
 201   2.0000      -0.449688       -12.2366
 202   2.0000      -0.446790       -12.1578
 203   2.0000      -0.440370       -11.9831
 204   2.0000      -0.438686       -11.9373
 205   2.0000      -0.438273       -11.9260
 206   2.0000      -0.433791       -11.8040
 207   2.0000      -0.427414       -11.6305
 208   2.0000      -0.420990       -11.4557
 209   2.0000      -0.418352       -11.3839
 210   2.0000      -0.415807       -11.3147
 211   2.0000      -0.414078       -11.2676
 212   2.0000      -0.408877       -11.1261
 213   2.0000      -0.405981       -11.0473
 214   2.0000      -0.401870       -10.9354
 215   2.0000      -0.395716       -10.7680
 216   2.0000      -0.384556       -10.4643
 217   2.0000      -0.380190       -10.3455
 218   2.0000      -0.374520       -10.1912
 219   2.0000      -0.374153       -10.1812
 220   2.0000      -0.372198       -10.1280
 221   2.0000      -0.370617       -10.0850
 222   2.0000      -0.369428       -10.0527
 223   2.0000      -0.365277        -9.9397
 224   2.0000      -0.363110        -9.8807
 225   2.0000      -0.358646        -9.7592
 226   2.0000      -0.343864        -9.3570
 227   2.0000      -0.342674        -9.3246
 228   2.0000      -0.341686        -9.2978
 229   2.0000      -0.339143        -9.2286
 230   2.0000      -0.329670        -8.9708
 231   2.0000      -0.321137        -8.7386
 232   2.0000      -0.320823        -8.7300
 233   2.0000      -0.309377        -8.4186
 234   2.0000      -0.308498        -8.3947
 235   2.0000      -0.304493        -8.2857
 236   2.0000      -0.293499        -7.9865
 237   2.0000      -0.284002        -7.7281
 238   2.0000      -0.277098        -7.5402
 239   2.0000      -0.253195        -6.8898
 240   2.0000      -0.249821        -6.7980
 241   2.0000      -0.187586        -5.1045
 242   0.0000      -0.063638        -1.7317
 243   0.0000      -0.055189        -1.5018
 244   0.0000      -0.048632        -1.3234
 245   0.0000      -0.045429        -1.2362
 246   0.0000       0.006620         0.1801

MULLIKEN ATOMIC CHARGES
-----------------------
   0 C :   -0.094401
   1 C :    0.039994
   2 C :    0.024090
   3 C :   -0.034844
   4 C :   -0.053309
   5 C :    0.196542
   6 N :   -0.232004
   7 C :    0.118854
   8 C :    0.104447
   9 O :   -0.198674
  10 C :    0.047325
  11 C :    0.045267
  12 C :    0.110077
  13 O :   -0.194929
  14 N :   -0.233244
  15 C :    0.122748
  16 C :    0.229994
  17 C :   -0.143889
  18 C :    0.132713
  19 C :   -0.026742
  20 C :   -0.021333
  21 C :   -0.056627
  22 C :   -0.019047
  23 C :    0.015803
  24 C :    0.133431
  25 O :   -0.211687
  26 C :   -0.088079
  27 C :    0.186950
  28 O :   -0.163459
  29 N :   -0.162450
  30 C :    0.158259
  31 O :   -0.146719
  32 C :   -0.023977
  33 C :    0.083751
  34 C :   -0.038444
  35 C :    0.029274
  36 C :    0.007107
  37 C :   -0.184927
  38 C :    0.088573
  39 C :    0.195349
  40 N :   -0.157341
  41 C :    0.065948
  42 C :   -0.033658
  43 C :    0.001376
  44 C :   -0.045118
  45 C :    0.047243
  46 C :    0.009104
  47 C :   -0.037210
  48 S :    0.069009
  49 C :   -0.054438
  50 C :    0.037403
  51 C :    0.014392
  52 C :   -0.021589
  53 S :    0.079019
  54 C :    0.027041
  55 C :   -0.221529
  56 S :    0.132043
  57 C :   -0.152928
  58 C :    0.135497
  59 C :    0.187422
  60 O :   -0.193702
  61 C :    0.247417
  62 N :    0.274248
  63 O :   -0.261703
  64 O :   -0.237683
  65 C :   -0.088721
  66 H :   -0.038807
  67 H :   -0.013753
  68 H :   -0.021370
  69 H :   -0.014812
  70 H :    0.033903
  71 H :    0.033992
  72 H :    0.057107
  73 H :    0.053643
  74 H :    0.053153
  75 H :    0.056583
  76 H :    0.031350
  77 H :    0.034146
  78 H :   -0.049939
  79 H :   -0.012369
  80 H :   -0.011274
  81 H :    0.002996
  82 H :   -0.020568
  83 H :    0.135852
  84 H :    0.008324
  85 H :   -0.002304
  86 H :   -0.023214
  87 H :    0.027049
  88 H :    0.046806
  89 H :    0.010846
  90 H :    0.010894
  91 H :    0.027495
  92 H :    0.127606
  93 H :    0.001351
  94 H :    0.001991
  95 H :   -0.022584
  96 H :   -0.020825
  97 H :   -0.022684
  98 H :   -0.019651
  99 H :   -0.022995
 100 H :   -0.032568
 101 H :    0.023181
 102 H :    0.008139
Sum of atomic charges:   -0.0000000

LOEWDIN ATOMIC CHARGES
----------------------
   0 C :   -0.059238
   1 C :   -0.010667
   2 C :   -0.042369
   3 C :   -0.017525
   4 C :   -0.042332
   5 C :    0.035070
   6 N :   -0.010864
   7 C :    0.031996
   8 C :    0.075346
   9 O :   -0.197499
  10 C :   -0.019150
  11 C :   -0.020259
  12 C :    0.077343
  13 O :   -0.193975
  14 N :   -0.011282
  15 C :    0.031680
  16 C :    0.038285
  17 C :   -0.047746
  18 C :   -0.020331
  19 C :   -0.021236
  20 C :   -0.014757
  21 C :   -0.030445
  22 C :    0.027153
  23 C :   -0.055992
  24 C :    0.075961
  25 O :    0.010576
  26 C :   -0.110892
  27 C :    0.087675
  28 O :   -0.169536
  29 N :   -0.004857
  30 C :    0.084285
  31 O :   -0.164262
  32 C :   -0.099308
  33 C :    0.064786
  34 C :   -0.042141
  35 C :   -0.001620
  36 C :   -0.053593
  37 C :   -0.028143
  38 C :   -0.051720
  39 C :    0.042861
  40 N :   -0.001549
  41 C :    0.051818
  42 C :   -0.119755
  43 C :   -0.027958
  44 C :   -0.178408
  45 C :   -0.024281
  46 C :   -0.054850
  47 C :   -0.163114
  48 S :    0.373038
  49 C :   -0.207013
  50 C :   -0.027244
  51 C :   -0.055593
  52 C :   -0.135700
  53 S :    0.389298
  54 C :   -0.116047
  55 C :   -0.189324
  56 S :    0.460038
  57 C :   -0.205572
  58 C :   -0.081094
  59 C :    0.001267
  60 O :   -0.002716
  61 C :    0.022275
  62 N :    0.274909
  63 O :   -0.222152
  64 O :   -0.199959
  65 C :   -0.010898
  66 H :    0.027278
  67 H :    0.029159
  68 H :    0.025868
  69 H :    0.030869
  70 H :    0.026647
  71 H :    0.027934
  72 H :    0.040315
  73 H :    0.055597
  74 H :    0.055990
  75 H :    0.040799
  76 H :    0.025834
  77 H :    0.027812
  78 H :    0.024193
  79 H :    0.032078
  80 H :    0.034013
  81 H :    0.035559
  82 H :    0.031116
  83 H :    0.093485
  84 H :    0.044200
  85 H :    0.028605
  86 H :    0.026315
  87 H :    0.033315
  88 H :    0.044479
  89 H :    0.030526
  90 H :    0.027364
  91 H :    0.034439
  92 H :    0.081690
  93 H :    0.028506
  94 H :    0.021686
  95 H :    0.029994
  96 H :    0.030214
  97 H :    0.027959
  98 H :    0.029244
  99 H :    0.028066
 100 H :    0.028885
 101 H :    0.024681
 102 H :    0.044593

  Mayer bond orders larger than 0.100000
B(  0-C ,  1-C ) :   1.3320 B(  0-C ,  5-C ) :   1.3838 B(  0-C , 66-H ) :   1.0065
B(  1-C ,  2-C ) :   1.4173 B(  1-C , 67-H ) :   0.9863 B(  2-C ,  3-C ) :   1.3233
B(  2-C , 68-H ) :   0.9912 B(  3-C ,  4-C ) :   1.4684 B(  3-C , 69-H ) :   0.9934
B(  4-C ,  5-C ) :   1.3604 B(  4-C , 10-C ) :   0.9401 B(  5-C ,  6-N ) :   1.0328
B(  6-N ,  7-C ) :   0.9671 B(  6-N ,  8-C ) :   1.1433 B(  7-C , 70-H ) :   0.9708
B(  7-C , 71-H ) :   0.9725 B(  7-C , 72-H ) :   0.9585 B(  8-C ,  9-O ) :   2.1589
B(  8-C , 10-C ) :   0.9254 B( 10-C , 11-C ) :   1.0328 B( 10-C , 73-H ) :   0.8806
B( 11-C , 12-C ) :   0.9262 B( 11-C , 21-C ) :   0.9386 B( 11-C , 74-H ) :   0.8803
B( 12-C , 13-O ) :   2.1658 B( 12-C , 14-N ) :   1.1320 B( 14-N , 15-C ) :   0.9692
B( 14-N , 16-C ) :   1.0386 B( 15-C , 75-H ) :   0.9571 B( 15-C , 76-H ) :   0.9700
B( 15-C , 77-H ) :   0.9719 B( 16-C , 17-C ) :   1.3828 B( 16-C , 21-C ) :   1.3454
B( 17-C , 18-C ) :   1.2630 B( 17-C , 78-H ) :   1.0028 B( 18-C , 19-C ) :   1.3646
B( 18-C , 22-C ) :   1.0753 B( 19-C , 20-C ) :   1.3102 B( 19-C , 79-H ) :   1.0018
B( 20-C , 21-C ) :   1.4588 B( 20-C , 80-H ) :   0.9943 B( 22-C , 23-C ) :   1.6413
B( 22-C , 81-H ) :   0.9725 B( 23-C , 24-C ) :   1.1391 B( 23-C , 82-H ) :   0.9603
B( 24-C , 25-O ) :   1.1478 B( 24-C , 26-C ) :   1.4379 B( 25-O , 33-C ) :   1.1405
B( 26-C , 27-C ) :   0.8908 B( 26-C , 32-C ) :   1.2588 B( 27-C , 28-O ) :   2.1624
B( 27-C , 29-N ) :   1.1011 B( 29-N , 30-C ) :   1.0731 B( 29-N , 83-H ) :   0.9155
B( 30-C , 31-O ) :   2.2645 B( 30-C , 32-C ) :   0.8832 B( 32-C , 33-C ) :   1.4181
B( 33-C , 34-C ) :   1.1408 B( 34-C , 35-C ) :   1.6645 B( 34-C , 84-H ) :   0.9691
B( 35-C , 36-C ) :   1.0927 B( 35-C , 85-H ) :   0.9801 B( 36-C , 37-C ) :   1.7639
B( 36-C , 86-H ) :   0.9749 B( 37-C , 38-C ) :   1.0666 B( 37-C , 39-C ) :   1.0329
B( 38-C , 87-H ) :   0.9488 B( 38-C , 88-H ) :   0.9457 B( 38-C , 89-H ) :   0.9503
B( 39-C , 40-N ) :   1.0262 B( 39-C , 90-H ) :   0.9432 B( 39-C , 91-H ) :   0.9346
B( 40-N , 41-C ) :   1.2228 B( 40-N , 92-H ) :   0.9354 B( 41-C , 42-C ) :   1.5962
B( 41-C , 93-H ) :   0.9706 B( 42-C , 43-C ) :   1.1772 B( 42-C , 94-H ) :   0.9622
B( 43-C , 44-C ) :   1.5760 B( 43-C , 95-H ) :   0.9808 B( 44-C , 45-C ) :   1.1515
B( 44-C , 48-S ) :   1.0114 B( 45-C , 46-C ) :   1.5801 B( 45-C , 96-H ) :   0.9977
B( 46-C , 47-C ) :   1.1937 B( 46-C , 97-H ) :   0.9946 B( 47-C , 48-S ) :   1.0667
B( 47-C , 49-C ) :   1.4894 B( 49-C , 50-C ) :   1.2013 B( 49-C , 53-S ) :   1.0198
B( 50-C , 51-C ) :   1.5762 B( 50-C , 98-H ) :   0.9930 B( 51-C , 52-C ) :   1.1508
B( 51-C , 99-H ) :   0.9994 B( 52-C , 53-S ) :   1.0584 B( 52-C , 54-C ) :   1.5812
B( 54-C , 55-C ) :   1.1581 B( 54-C ,100-H ) :   0.9422 B( 55-C , 56-S ) :   1.1355
B( 55-C , 57-C ) :   0.1083 B( 55-C , 59-C ) :   1.4253 B( 56-S , 57-C ) :   1.1625
B( 57-C , 58-C ) :   1.4326 B( 57-C ,101-H ) :   0.9781 B( 58-C , 59-C ) :   1.2294
B( 58-C , 65-C ) :   1.0652 B( 59-C , 60-O ) :   1.0780 B( 60-O , 61-C ) :   1.1279
B( 61-C , 62-N ) :   0.9243 B( 61-C , 65-C ) :   1.5612 B( 62-N , 63-O ) :   1.5230
B( 62-N , 64-O ) :   1.5093 B( 63-O , 64-O ) :   0.2754 B( 65-C ,102-H ) :   1.0271

-----------------------------------------------------------------------------
         ABSORPTION SPECTRUM VIA TRANSITION ELECTRIC DIPOLE MOMENTS
-----------------------------------------------------------------------------
State   Energy  Wavelength   fosc         T2         TX        TY        TZ
        (cm-1)    (nm)                  (au**2)     (au)      (au)      (au)
-----------------------------------------------------------------------------
   0   11435.3    874.5   0.183219363   5.27471  -0.98640  -1.18515  -1.70210
   1   15831.2    631.7   0.982830373  20.43810   2.12612   1.06630   3.84457
   2   18655.5    536.0   0.009797901   0.17290  -0.35567  -0.20548   0.06468
   3   22572.8    443.0   0.000614498   0.00896  -0.06231   0.03202  -0.06367
   4   24510.2    408.0   0.018743271   0.25175  -0.17842  -0.42871  -0.19007
   5   26283.2    380.5   0.032885709   0.41191  -0.29816  -0.48012   0.30413
   6   26964.1    370.9   1.148474511  14.02202  -2.82077   0.24108   2.45095
   7   28745.9    347.9   0.522476300   5.98365   1.28950  -0.49070   2.01992
   8   29679.5    336.9   0.878636078   9.74604   0.77367  -3.02308  -0.09186
   9   31696.3    315.5   0.004918462   0.05109   0.05968   0.21354  -0.04384
  10   32056.3    312.0   0.001002372   0.01029   0.08329   0.05588   0.01532
  11   32437.6    308.3   0.003762875   0.03819   0.06699  -0.10377   0.15144
  12   32557.9    307.1   0.031003811   0.31350  -0.24449   0.25203  -0.43612
  13   32766.1    305.2   0.001809875   0.01818  -0.02234  -0.02239   0.13109
  14   33328.1    300.0   0.004211443   0.04160   0.07943   0.13583  -0.12977
  15   33924.1    294.8   0.091500263   0.88795   0.00266  -0.93547  -0.11335
  16   35179.9    284.3   0.053287942   0.49867  -0.33622   0.09758  -0.61327
  17   35460.2    282.0   0.000872880   0.00810   0.01730   0.02386   0.08506
  18   35714.0    280.0   0.027918586   0.25735   0.22439   0.21897   0.39881
  19   35891.8    278.6   0.010065810   0.09233  -0.29150   0.07863  -0.03426
  20   36011.2    277.7   0.151586911   1.38580   0.45942  -0.48256   0.97050
  21   36157.0    276.6   0.005806972   0.05287   0.07313  -0.18584   0.11396
  22   36642.4    272.9   0.297397395   2.67195  -0.80718   0.03751  -1.42092
  23   37177.6    269.0   0.173715816   1.53827  -0.59010   0.28098  -1.05409
  24   37964.3    263.4   0.199643872   1.73124  -0.00622   0.88057   0.97765
  25   38245.0    261.5   0.000186983   0.00161  -0.02761   0.01255   0.02627
  26   38501.7    259.7   0.182491770   1.56041  -1.19258  -0.36478  -0.07144
  27   39054.0    256.1   0.059030234   0.49761   0.37313   0.26444   0.53708
  28   39775.5    251.4   0.032127633   0.26591   0.24601   0.12891   0.43448
  29   40023.7    249.9   0.003834528   0.03154   0.05620  -0.11459   0.12350
  30   40049.1    249.7   0.003326843   0.02735  -0.01845   0.04672   0.15756

FINAL SINGLE POINT ENERGY     -3993.774036987135

DIPOLE MOMENT
-------------
                                X             Y             Z
Electronic contribution:     -5.79038      14.24157      50.71075
Nuclear contribution   :      5.05131     -14.47836     -49.82650
                        -----------------------------------------
Total Dipole Moment    :     -0.73907      -0.23679       0.88425
                        -----------------------------------------
Magnitude (a.u.)       :      1.17652
Magnitude (Debye)      :      2.99047

Rotational constants in cm-1:     0.001154     0.000280     0.000250
Rotational constants in MHz :    34.607584     8.386974     7.486160

                             ****ORCA TERMINATED NORMALLY****
TOTAL RUN TIME: 0 days 0 hours 8 minutes 56 seconds 885 msec
