                         Program Version 4.2.0 -  RELEASE  -
|  1> # ORCA input file
|  2> # SCF done       -173.305964291481          0.000653276007
|  3> ! CAM-B3LYP def2-SVP def2/J RIJCOSX Grid4 TightSCF
|  4> %maxcore 5000
|  5> %tddft
|  6>     Mode sTDDFT
|  7>     Ethresh 5.0
|  8>     maxcore 5000
|  9> end
| 10>
| 11> %pal
| 12>   nprocs 6
| 13>   end
| 14> * xyz 0 1
| 15>    C        0.85384        13.94396         6.12711
| 16>    S        2.56431        13.43708         6.55671
| 17>    C        2.27682        13.54395         8.35419
| 18>    C        0.76246        13.53087         8.56682
| 19>    C        0.18463        14.38017         7.42129
| 20>    C        0.38346        14.21805         9.89235
| 21>    O        1.11427        14.97742        10.48394
| 22>    N       -0.87722        13.94091        10.27822
| 23>    N        0.18599        12.19339         8.53204
| 24>    C        0.62201        11.29477         9.51912
| 25>    C        0.90693        10.01565         9.27925
| 26>    N        1.25284         9.10294        10.27465
| 27>    C        1.38871         7.74654        10.01960
| 28>    C        0.84546         6.76895        10.80160
| 29>    S        1.17512         5.18505        10.21927
| 30>    C        2.06347         5.82694         8.89805
| 31>    C        2.12696         7.19164         8.91574
| 32>    N        2.82899         7.92716         7.97621
| 33>    C        3.51059         9.08273         8.23085
| 34>    C        4.16581         9.78799         7.27945
| 35>    C        4.84193        10.99745         7.54354
| 36>    C        5.43852        11.77383         6.59151
| 37>    C        6.08358        13.02243         6.78111
| 38>    C        6.55893        13.58836         5.64166
| 39>    C        6.32905        12.81971         4.47435
| 40>    S        5.47755        11.34647         4.88314
| 41>    C        6.70130        13.11697         3.18350
| 42>    C        7.36449        14.27751         2.71752
| 43>    C        7.62440        14.28358         1.38483
| 44>    C        7.18571        13.11908         0.69202
| 45>    S        6.38312        12.03634         1.83860
| 46>    C        7.25394        12.78240        -0.62576
| 47>    C        7.96952        13.45924        -1.67306
| 48>    C        9.12390        14.22333        -1.43089
| 49>    C        9.76814        14.83856        -2.47541
| 50>    C        9.26384        14.73866        -3.78481
| 51>    C        8.14695        13.95630        -4.04519
| 52>    C        7.52518        13.31207        -2.99727
| 53>    C       10.07463        15.55900        -4.65742
| 54>    C       11.07830        16.17005        -3.88882
| 55>    C       11.01232        15.69867        -2.45104
| 56>    C       12.28884        14.86315        -2.19624
| 57>    C       12.34990        14.12550        -0.86513
| 58>    C       10.89043        16.86502        -1.46016
| 59>    C        9.70333        17.76845        -1.77494
| 60>    C       11.97327        17.03389        -4.47065
| 61>    C       11.89087        17.30731        -5.84314
| 62>    C       10.88722        16.68843        -6.59564
| 63>    C        9.98193        15.82138        -6.01682
| 64>    C       12.85487        18.22672        -6.41981
| 65>    C       13.03610        18.49547        -7.71341
| 66>    C       14.06290        19.43829        -8.21714
| 67>    S       15.40461        18.49050        -9.10021
| 68>    C       15.17021        19.39843       -10.66222
| 69>    C       14.61269        20.76310       -10.25741
| 70>    C       13.51626        20.44085        -9.23169
| 71>    C       14.01910        21.41680       -11.52102
| 72>    O       12.88080        21.22623       -11.88183
| 73>    N       14.91035        22.15185       -12.21092
| 74>    N       15.68966        21.57195        -9.72134
| 75>    C       15.40370        22.81490        -9.17984
| 76>    C       16.12357        23.41011        -8.23852
| 77>    H        0.35443        13.08777         5.67248
| 78>    H        0.90733        14.74776         5.39607
| 79>    H        2.70825        14.46958         8.73643
| 80>    H        2.75838        12.69033         8.82841
| 81>    H        0.41648        15.42720         7.62472
| 82>    H       -0.89817        14.26568         7.36096
| 83>    H       -1.40465        13.23327         9.79603
| 84>    H       -1.22845        14.33238        11.13613
| 85>    H        0.28791        11.78123         7.61032
| 86>    H        0.66195        11.70514        10.51806
| 87>    H        0.87910         9.61822         8.27607
| 88>    H        0.92945         9.33290        11.20353
| 89>    H        0.26335         6.89519        11.69239
| 90>    H        2.51208         5.16401         8.18602
| 91>    H        3.01599         7.47260         7.09316
| 92>    H        3.48426         9.42295         9.25449
| 93>    H        4.16776         9.43537         6.25622
| 94>    H        4.87653        11.34741         8.56721
| 95>    H        6.16281        13.46289         7.75969
| 96>    H        7.06893        14.53434         5.60252
| 97>    H        7.62043        15.08328         3.38305
| 98>    H        8.06864        15.11513         0.86897
| 99>    H        6.69544        11.90675        -0.93154
|100>    H        9.51153        14.29060        -0.42778
|101>    H        7.76816        13.85636        -5.05181
|102>    H        6.65278        12.70232        -3.18526
|103>    H       13.14570        15.53719        -2.27059
|104>    H       12.37524        14.13213        -3.00462
|105>    H       12.24967        14.80914        -0.02603
|106>    H       13.31122        13.62331        -0.77633
|107>    H       11.56968        13.37206        -0.80301
|108>    H       11.81158        17.45143        -1.48840
|109>    H       10.77746        16.46750        -0.45034
|110>    H        9.80216        18.19958        -2.76876
|111>    H        9.64325        18.57880        -1.05144
|112>    H        8.77378        17.20415        -1.73995
|113>    H       12.74609        17.50878        -3.88209
|114>    H       10.80879        16.89951        -7.65083
|115>    H        9.21128        15.35784        -6.61500
|116>    H       13.48880        18.73068        -5.69880
|117>    H       12.45674        18.00080        -8.47935
|118>    H       14.56405        19.94400        -7.38801
|119>    H       14.46083        18.85867       -11.28981
|120>    H       16.13064        19.47089       -11.16890
|121>    H       12.66516        20.01788        -9.76865
|122>    H       13.18325        21.34586        -8.72187
|123>    H       15.82346        22.32830       -11.82716
|124>    H       14.61637        22.62452       -13.04904
|125>    H       16.34439        21.03321        -9.16505
|126>    H       14.55861        23.31079        -9.64020
|127>    H       16.96503        22.92246        -7.77623
|128>    H       15.90100        24.40907        -7.91549
|129> *
|130>
|131>                          ****END OF INPUT****

CARTESIAN COORDINATES (ANGSTROEM)
---------------------------------
  C      0.853840   13.943960    6.127110
  S      2.564310   13.437080    6.556710
  C      2.276820   13.543950    8.354190
  C      0.762460   13.530870    8.566820
  C      0.184630   14.380170    7.421290
  C      0.383460   14.218050    9.892350
  O      1.114270   14.977420   10.483940
  N     -0.877220   13.940910   10.278220
  N      0.185990   12.193390    8.532040
  C      0.622010   11.294770    9.519120
  C      0.906930   10.015650    9.279250
  N      1.252840    9.102940   10.274650
  C      1.388710    7.746540   10.019600
  C      0.845460    6.768950   10.801600
  S      1.175120    5.185050   10.219270
  C      2.063470    5.826940    8.898050
  C      2.126960    7.191640    8.915740
  N      2.828990    7.927160    7.976210
  C      3.510590    9.082730    8.230850
  C      4.165810    9.787990    7.279450
  C      4.841930   10.997450    7.543540
  C      5.438520   11.773830    6.591510
  C      6.083580   13.022430    6.781110
  C      6.558930   13.588360    5.641660
  C      6.329050   12.819710    4.474350
  S      5.477550   11.346470    4.883140
  C      6.701300   13.116970    3.183500
  C      7.364490   14.277510    2.717520
  C      7.624400   14.283580    1.384830
  C      7.185710   13.119080    0.692020
  S      6.383120   12.036340    1.838600
  C      7.253940   12.782400   -0.625760
  C      7.969520   13.459240   -1.673060
  C      9.123900   14.223330   -1.430890
  C      9.768140   14.838560   -2.475410
  C      9.263840   14.738660   -3.784810
  C      8.146950   13.956300   -4.045190
  C      7.525180   13.312070   -2.997270
  C     10.074630   15.559000   -4.657420
  C     11.078300   16.170050   -3.888820
  C     11.012320   15.698670   -2.451040
  C     12.288840   14.863150   -2.196240
  C     12.349900   14.125500   -0.865130
  C     10.890430   16.865020   -1.460160
  C      9.703330   17.768450   -1.774940
  C     11.973270   17.033890   -4.470650
  C     11.890870   17.307310   -5.843140
  C     10.887220   16.688430   -6.595640
  C      9.981930   15.821380   -6.016820
  C     12.854870   18.226720   -6.419810
  C     13.036100   18.495470   -7.713410
  C     14.062900   19.438290   -8.217140
  S     15.404610   18.490500   -9.100210
  C     15.170210   19.398430  -10.662220
  C     14.612690   20.763100  -10.257410
  C     13.516260   20.440850   -9.231690
  C     14.019100   21.416800  -11.521020
  O     12.880800   21.226230  -11.881830
  N     14.910350   22.151850  -12.210920
  N     15.689660   21.571950   -9.721340
  C     15.403700   22.814900   -9.179840
  C     16.123570   23.410110   -8.238520
  H      0.354430   13.087770    5.672480
  H      0.907330   14.747760    5.396070
  H      2.708250   14.469580    8.736430
  H      2.758380   12.690330    8.828410
  H      0.416480   15.427200    7.624720
  H     -0.898170   14.265680    7.360960
  H     -1.404650   13.233270    9.796030
  H     -1.228450   14.332380   11.136130
  H      0.287910   11.781230    7.610320
  H      0.661950   11.705140   10.518060
  H      0.879100    9.618220    8.276070
  H      0.929450    9.332900   11.203530
  H      0.263350    6.895190   11.692390
  H      2.512080    5.164010    8.186020
  H      3.015990    7.472600    7.093160
  H      3.484260    9.422950    9.254490
  H      4.167760    9.435370    6.256220
  H      4.876530   11.347410    8.567210
  H      6.162810   13.462890    7.759690
  H      7.068930   14.534340    5.602520
  H      7.620430   15.083280    3.383050
  H      8.068640   15.115130    0.868970
  H      6.695440   11.906750   -0.931540
  H      9.511530   14.290600   -0.427780
  H      7.768160   13.856360   -5.051810
  H      6.652780   12.702320   -3.185260
  H     13.145700   15.537190   -2.270590
  H     12.375240   14.132130   -3.004620
  H     12.249670   14.809140   -0.026030
  H     13.311220   13.623310   -0.776330
  H     11.569680   13.372060   -0.803010
  H     11.811580   17.451430   -1.488400
  H     10.777460   16.467500   -0.450340
  H      9.802160   18.199580   -2.768760
  H      9.643250   18.578800   -1.051440
  H      8.773780   17.204150   -1.739950
  H     12.746090   17.508780   -3.882090
  H     10.808790   16.899510   -7.650830
  H      9.211280   15.357840   -6.615000
  H     13.488800   18.730680   -5.698800
  H     12.456740   18.000800   -8.479350
  H     14.564050   19.944000   -7.388010
  H     14.460830   18.858670  -11.289810
  H     16.130640   19.470890  -11.168900
  H     12.665160   20.017880   -9.768650
  H     13.183250   21.345860   -8.721870
  H     15.823460   22.328300  -11.827160
  H     14.616370   22.624520  -13.049040
  H     16.344390   21.033210   -9.165050
  H     14.558610   23.310790   -9.640200
  H     16.965030   22.922460   -7.776230
  H     15.901000   24.409070   -7.915490

 Total Charge           Charge          ....    0
 Multiplicity           Mult            ....    1
 Number of Electrons    NEL             ....  484
 Basis Dimension        Dim             .... 1148

ORBITAL ENERGIES
----------------

  NO   OCC          E(Eh)            E(eV)
   0   2.0000     -88.949237     -2420.4318
   1   2.0000     -88.921446     -2419.6756
   2   2.0000     -88.917888     -2419.5787
   3   2.0000     -88.904324     -2419.2097
   4   2.0000     -88.892610     -2418.8909
   5   2.0000     -19.176036      -521.8065
   6   2.0000     -19.173890      -521.7481
   7   2.0000     -14.446230      -393.1019
   8   2.0000     -14.431820      -392.7098
   9   2.0000     -14.423893      -392.4941
  10   2.0000     -14.422652      -392.4603
  11   2.0000     -14.414768      -392.2458
  12   2.0000     -14.413728      -392.2175
  13   2.0000     -10.364856      -282.0421
  14   2.0000     -10.363623      -282.0085
  15   2.0000     -10.316023      -280.7132
  16   2.0000     -10.315302      -280.6936
  17   2.0000     -10.313700      -280.6500
  18   2.0000     -10.312545      -280.6186
  19   2.0000     -10.308844      -280.5179
  20   2.0000     -10.295729      -280.1610
  21   2.0000     -10.293941      -280.1124
  22   2.0000     -10.292952      -280.0855
  23   2.0000     -10.291912      -280.0572
  24   2.0000     -10.290153      -280.0093
  25   2.0000     -10.287017      -279.9240
  26   2.0000     -10.286320      -279.9050
  27   2.0000     -10.285402      -279.8800
  28   2.0000     -10.283866      -279.8382
  29   2.0000     -10.283528      -279.8290
  30   2.0000     -10.283274      -279.8221
  31   2.0000     -10.279916      -279.7307
  32   2.0000     -10.274659      -279.5877
  33   2.0000     -10.271990      -279.5151
  34   2.0000     -10.269643      -279.4512
  35   2.0000     -10.266522      -279.3663
  36   2.0000     -10.265588      -279.3408
  37   2.0000     -10.265398      -279.3357
  38   2.0000     -10.263611      -279.2870
  39   2.0000     -10.263214      -279.2763
  40   2.0000     -10.262690      -279.2620
  41   2.0000     -10.262239      -279.2497
  42   2.0000     -10.261071      -279.2179
  43   2.0000     -10.259646      -279.1792
  44   2.0000     -10.258571      -279.1499
  45   2.0000     -10.256601      -279.0963
  46   2.0000     -10.255215      -279.0586
  47   2.0000     -10.254720      -279.0451
  48   2.0000     -10.254619      -279.0424
  49   2.0000     -10.254344      -279.0349
  50   2.0000     -10.253823      -279.0207
  51   2.0000     -10.253419      -279.0097
  52   2.0000     -10.253245      -279.0050
  53   2.0000     -10.252859      -278.9945
  54   2.0000     -10.252560      -278.9863
  55   2.0000     -10.252357      -278.9808
  56   2.0000     -10.252254      -278.9780
  57   2.0000     -10.251667      -278.9620
  58   2.0000     -10.251131      -278.9474
  59   2.0000     -10.240194      -278.6499
  60   2.0000     -10.240104      -278.6474
  61   2.0000     -10.236677      -278.5541
  62   2.0000      -8.045134      -218.9192
  63   2.0000      -8.017715      -218.1731
  64   2.0000      -8.014395      -218.0828
  65   2.0000      -8.000211      -217.6968
  66   2.0000      -7.988277      -217.3721
  67   2.0000      -6.014563      -163.6646
  68   2.0000      -6.010392      -163.5511
  69   2.0000      -6.007044      -163.4600
  70   2.0000      -5.987470      -162.9273
  71   2.0000      -5.984233      -162.8392
  72   2.0000      -5.983546      -162.8206
  73   2.0000      -5.980312      -162.7326
  74   2.0000      -5.978528      -162.6840
  75   2.0000      -5.974989      -162.5877
  76   2.0000      -5.970810      -162.4740
  77   2.0000      -5.966692      -162.3619
  78   2.0000      -5.959515      -162.1666
  79   2.0000      -5.959226      -162.1588
  80   2.0000      -5.954640      -162.0340
  81   2.0000      -5.947357      -161.8358
  82   2.0000      -1.116881       -30.3919
  83   2.0000      -1.115152       -30.3448
  84   2.0000      -1.058174       -28.7944
  85   2.0000      -1.030828       -28.0503
  86   2.0000      -1.030017       -28.0282
  87   2.0000      -1.020449       -27.7678
  88   2.0000      -0.978867       -26.6363
  89   2.0000      -0.977958       -26.6116
  90   2.0000      -0.972445       -26.4616
  91   2.0000      -0.970491       -26.4084
  92   2.0000      -0.962078       -26.1795
  93   2.0000      -0.949494       -25.8371
  94   2.0000      -0.933538       -25.4029
  95   2.0000      -0.926795       -25.2194
  96   2.0000      -0.918722       -24.9997
  97   2.0000      -0.904234       -24.6055
  98   2.0000      -0.886108       -24.1122
  99   2.0000      -0.878229       -23.8978
 100   2.0000      -0.865840       -23.5607
 101   2.0000      -0.849049       -23.1038
 102   2.0000      -0.844302       -22.9746
 103   2.0000      -0.834208       -22.7000
 104   2.0000      -0.825155       -22.4536
 105   2.0000      -0.824217       -22.4281
 106   2.0000      -0.822717       -22.3873
 107   2.0000      -0.819048       -22.2874
 108   2.0000      -0.815452       -22.1896
 109   2.0000      -0.811430       -22.0801
 110   2.0000      -0.809914       -22.0389
 111   2.0000      -0.809348       -22.0235
 112   2.0000      -0.799286       -21.7497
 113   2.0000      -0.796617       -21.6771
 114   2.0000      -0.786283       -21.3959
 115   2.0000      -0.772216       -21.0131
 116   2.0000      -0.770899       -20.9772
 117   2.0000      -0.750974       -20.4351
 118   2.0000      -0.746665       -20.3178
 119   2.0000      -0.722893       -19.6709
 120   2.0000      -0.710401       -19.3310
 121   2.0000      -0.704991       -19.1838
 122   2.0000      -0.702806       -19.1243
 123   2.0000      -0.697064       -18.9681
 124   2.0000      -0.690963       -18.8021
 125   2.0000      -0.680663       -18.5218
 126   2.0000      -0.678812       -18.4714
 127   2.0000      -0.674265       -18.3477
 128   2.0000      -0.668079       -18.1794
 129   2.0000      -0.664526       -18.0827
 130   2.0000      -0.657168       -17.8824
 131   2.0000      -0.655840       -17.8463
 132   2.0000      -0.653716       -17.7885
 133   2.0000      -0.644883       -17.5481
 134   2.0000      -0.644340       -17.5334
 135   2.0000      -0.641213       -17.4483
 136   2.0000      -0.638113       -17.3639
 137   2.0000      -0.630829       -17.1657
 138   2.0000      -0.627233       -17.0679
 139   2.0000      -0.619104       -16.8467
 140   2.0000      -0.614057       -16.7093
 141   2.0000      -0.609460       -16.5843
 142   2.0000      -0.608494       -16.5580
 143   2.0000      -0.601972       -16.3805
 144   2.0000      -0.597152       -16.2493
 145   2.0000      -0.593282       -16.1440
 146   2.0000      -0.589509       -16.0414
 147   2.0000      -0.582321       -15.8458
 148   2.0000      -0.578401       -15.7391
 149   2.0000      -0.575958       -15.6726
 150   2.0000      -0.564518       -15.3613
 151   2.0000      -0.559923       -15.2363
 152   2.0000      -0.556253       -15.1364
 153   2.0000      -0.546954       -14.8834
 154   2.0000      -0.545424       -14.8417
 155   2.0000      -0.540930       -14.7195
 156   2.0000      -0.539171       -14.6716
 157   2.0000      -0.536484       -14.5985
 158   2.0000      -0.530889       -14.4462
 159   2.0000      -0.528092       -14.3701
 160   2.0000      -0.524956       -14.2848
 161   2.0000      -0.518484       -14.1087
 162   2.0000      -0.518438       -14.1074
 163   2.0000      -0.517008       -14.0685
 164   2.0000      -0.512784       -13.9536
 165   2.0000      -0.507815       -13.8183
 166   2.0000      -0.506805       -13.7909
 167   2.0000      -0.505129       -13.7453
 168   2.0000      -0.503076       -13.6894
 169   2.0000      -0.498426       -13.5629
 170   2.0000      -0.497262       -13.5312
 171   2.0000      -0.495569       -13.4851
 172   2.0000      -0.492535       -13.4026
 173   2.0000      -0.490599       -13.3499
 174   2.0000      -0.490006       -13.3337
 175   2.0000      -0.486691       -13.2435
 176   2.0000      -0.485826       -13.2200
 177   2.0000      -0.478519       -13.0212
 178   2.0000      -0.477376       -12.9901
 179   2.0000      -0.475655       -12.9432
 180   2.0000      -0.474420       -12.9096
 181   2.0000      -0.470191       -12.7945
 182   2.0000      -0.468545       -12.7498
 183   2.0000      -0.467350       -12.7172
 184   2.0000      -0.464649       -12.6437
 185   2.0000      -0.460506       -12.5310
 186   2.0000      -0.457079       -12.4377
 187   2.0000      -0.456580       -12.4242
 188   2.0000      -0.452833       -12.3222
 189   2.0000      -0.451188       -12.2774
 190   2.0000      -0.448057       -12.1923
 191   2.0000      -0.447424       -12.1750
 192   2.0000      -0.444749       -12.1022
 193   2.0000      -0.443824       -12.0771
 194   2.0000      -0.441907       -12.0249
 195   2.0000      -0.439116       -11.9489
 196   2.0000      -0.435207       -11.8426
 197   2.0000      -0.432874       -11.7791
 198   2.0000      -0.431512       -11.7420
 199   2.0000      -0.431113       -11.7312
 200   2.0000      -0.429064       -11.6754
 201   2.0000      -0.425663       -11.5829
 202   2.0000      -0.423892       -11.5347
 203   2.0000      -0.421460       -11.4685
 204   2.0000      -0.421181       -11.4609
 205   2.0000      -0.418707       -11.3936
 206   2.0000      -0.416783       -11.3412
 207   2.0000      -0.412589       -11.2271
 208   2.0000      -0.411949       -11.2097
 209   2.0000      -0.405772       -11.0416
 210   2.0000      -0.402858       -10.9623
 211   2.0000      -0.400111       -10.8876
 212   2.0000      -0.395343       -10.7578
 213   2.0000      -0.394025       -10.7220
 214   2.0000      -0.388928       -10.5833
 215   2.0000      -0.381367       -10.3775
 216   2.0000      -0.380342       -10.3496
 217   2.0000      -0.376814       -10.2536
 218   2.0000      -0.376243       -10.2381
 219   2.0000      -0.371484       -10.1086
 220   2.0000      -0.368073       -10.0158
 221   2.0000      -0.362125        -9.8539
 222   2.0000      -0.360302        -9.8043
 223   2.0000      -0.341924        -9.3042
 224   2.0000      -0.339905        -9.2493
 225   2.0000      -0.338656        -9.2153
 226   2.0000      -0.324573        -8.8321
 227   2.0000      -0.322380        -8.7724
 228   2.0000      -0.318966        -8.6795
 229   2.0000      -0.314119        -8.5476
 230   2.0000      -0.305798        -8.3212
 231   2.0000      -0.305161        -8.3038
 232   2.0000      -0.303014        -8.2454
 233   2.0000      -0.299355        -8.1459
 234   2.0000      -0.293467        -7.9856
 235   2.0000      -0.285863        -7.7787
 236   2.0000      -0.270335        -7.3562
 237   2.0000      -0.268903        -7.3172
 238   2.0000      -0.261436        -7.1140
 239   2.0000      -0.242958        -6.6112
 240   2.0000      -0.234929        -6.3927
 241   2.0000      -0.185606        -5.0506
 242   0.0000      -0.049682        -1.3519
 243   0.0000      -0.006281        -0.1709
 244   0.0000       0.018978         0.5164
 245   0.0000       0.028719         0.7815
 246   0.0000       0.035721         0.9720

MULLIKEN ATOMIC CHARGES
-----------------------
   0 C :   -0.020950
   1 S :   -0.108977
   2 C :    0.078308
   3 C :   -0.255238
   4 C :    0.092388
   5 C :    0.038699
   6 O :   -0.201974
   7 N :   -0.065004
   8 N :   -0.164002
   9 C :    0.012769
  10 C :    0.056903
  11 N :   -0.099718
  12 C :    0.095683
  13 C :   -0.188775
  14 S :    0.110461
  15 C :   -0.180429
  16 C :    0.089461
  17 N :   -0.056683
  18 C :    0.059454
  19 C :   -0.021076
  20 C :   -0.022325
  21 C :   -0.020320
  22 C :    0.043836
  23 C :    0.018501
  24 C :   -0.035560
  25 S :    0.053129
  26 C :   -0.061298
  27 C :    0.019898
  28 C :    0.019175
  29 C :   -0.049819
  30 S :    0.061032
  31 C :   -0.005665
  32 C :    0.105802
  33 C :   -0.107649
  34 C :    0.014956
  35 C :    0.102164
  36 C :   -0.052817
  37 C :   -0.013935
  38 C :    0.104523
  39 C :    0.017635
  40 C :   -0.128343
  41 C :    0.077205
  42 C :    0.030888
  43 C :    0.051926
  44 C :    0.023408
  45 C :   -0.113090
  46 C :    0.122163
  47 C :   -0.016029
  48 C :   -0.047154
  49 C :    0.010137
  50 C :    0.047872
  51 C :   -0.142361
  52 S :   -0.064703
  53 C :    0.048053
  54 C :   -0.258113
  55 C :    0.204097
  56 C :    0.041446
  57 O :   -0.208272
  58 N :   -0.053568
  59 N :   -0.157530
  60 C :    0.037095
  61 C :   -0.068732
  62 H :    0.037464
  63 H :    0.050666
  64 H :    0.058576
  65 H :    0.033846
  66 H :    0.027739
  67 H :    0.009158
  68 H :    0.130070
  69 H :    0.124259
  70 H :    0.103556
  71 H :   -0.006757
  72 H :    0.015317
  73 H :    0.114640
  74 H :   -0.001684
  75 H :    0.002381
  76 H :    0.124004
  77 H :    0.030052
  78 H :   -0.016295
  79 H :   -0.015940
  80 H :   -0.021365
  81 H :   -0.022558
  82 H :   -0.020808
  83 H :   -0.015571
  84 H :   -0.022143
  85 H :   -0.038017
  86 H :   -0.039748
  87 H :   -0.034301
  88 H :   -0.006853
  89 H :    0.005708
  90 H :    0.001116
  91 H :    0.008517
  92 H :    0.027719
  93 H :   -0.005505
  94 H :    0.002043
  95 H :    0.020937
  96 H :    0.005345
  97 H :    0.021544
  98 H :   -0.046387
  99 H :   -0.034229
 100 H :   -0.040699
 101 H :   -0.031451
 102 H :   -0.007508
 103 H :    0.030831
 104 H :    0.061367
 105 H :    0.039198
 106 H :    0.026619
 107 H :    0.016325
 108 H :    0.131976
 109 H :    0.126545
 110 H :    0.109654
 111 H :    0.014928
 112 H :    0.001566
 113 H :    0.015195
Sum of atomic charges:   -0.0000000

LOEWDIN ATOMIC CHARGES
----------------------
   0 C :   -0.134386
   1 S :    0.215943
   2 C :   -0.126909
   3 C :   -0.044658
   4 C :   -0.030710
   5 C :    0.054106
   6 O :   -0.207244
   7 N :    0.003139
   8 N :   -0.058555
   9 C :   -0.047215
  10 C :   -0.026435
  11 N :   -0.016568
  12 C :   -0.032598
  13 C :   -0.232973
  14 S :    0.428882
  15 C :   -0.227576
  16 C :   -0.036662
  17 N :    0.021208
  18 C :    0.044981
  19 C :   -0.106787
  20 C :   -0.042488
  21 C :   -0.169624
  22 C :   -0.030288
  23 C :   -0.045440
  24 C :   -0.168544
  25 S :    0.353665
  26 C :   -0.197175
  27 C :   -0.023583
  28 C :   -0.057601
  29 C :   -0.136391
  30 S :    0.345763
  31 C :   -0.071400
  32 C :   -0.021149
  33 C :   -0.029406
  34 C :    0.002625
  35 C :   -0.023185
  36 C :   -0.021541
  37 C :   -0.021691
  38 C :   -0.018323
  39 C :    0.003441
  40 C :   -0.034086
  41 C :   -0.009661
  42 C :   -0.059836
  43 C :   -0.016248
  44 C :   -0.057334
  45 C :   -0.024195
  46 C :   -0.026480
  47 C :   -0.016298
  48 C :   -0.020061
  49 C :   -0.027476
  50 C :   -0.038878
  51 C :   -0.108240
  52 S :    0.208803
  53 C :   -0.115037
  54 C :   -0.044442
  55 C :   -0.025132
  56 C :    0.052957
  57 O :   -0.210477
  58 N :    0.006062
  59 N :   -0.047167
  60 C :    0.014483
  61 C :   -0.133348
  62 H :    0.012495
  63 H :    0.026352
  64 H :    0.023402
  65 H :    0.019168
  66 H :    0.037196
  67 H :    0.025064
  68 H :    0.072114
  69 H :    0.077868
  70 H :    0.066649
  71 H :    0.016499
  72 H :    0.025867
  73 H :    0.081075
  74 H :    0.018186
  75 H :    0.019551
  76 H :    0.089195
  77 H :    0.032946
  78 H :    0.017279
  79 H :    0.028551
  80 H :    0.030062
  81 H :    0.028121
  82 H :    0.029586
  83 H :    0.029566
  84 H :    0.025347
  85 H :    0.022760
  86 H :    0.024935
  87 H :    0.024476
  88 H :    0.018454
  89 H :    0.026938
  90 H :    0.018857
  91 H :    0.026219
  92 H :    0.026346
  93 H :    0.018784
  94 H :    0.018008
  95 H :    0.025616
  96 H :    0.021808
  97 H :    0.025165
  98 H :    0.021157
  99 H :    0.024340
 100 H :    0.025160
 101 H :    0.024010
 102 H :    0.020681
 103 H :    0.021219
 104 H :    0.028979
 105 H :    0.022869
 106 H :    0.033436
 107 H :    0.032668
 108 H :    0.073547
 109 H :    0.079498
 110 H :    0.061715
 111 H :    0.024157
 112 H :    0.017209
 113 H :    0.024295

  Mayer bond orders larger than 0.100000
B(  0-C ,  1-S ) :   0.9946 B(  0-C ,  4-C ) :   1.0681 B(  0-C , 62-H ) :   0.9461
B(  0-C , 63-H ) :   0.9505 B(  1-S ,  2-C ) :   0.9978 B(  2-C ,  3-C ) :   0.9991
B(  2-C , 64-H ) :   0.9291 B(  2-C , 65-H ) :   0.9297 B(  3-C ,  4-C ) :   1.0296
B(  3-C ,  5-C ) :   0.8603 B(  3-C ,  8-N ) :   0.9990 B(  4-C , 66-H ) :   0.9356
B(  4-C , 67-H ) :   0.9321 B(  5-C ,  6-O ) :   2.1794 B(  5-C ,  7-N ) :   1.2847
B(  7-N , 68-H ) :   0.9226 B(  7-N , 69-H ) :   0.9426 B(  8-N ,  9-C ) :   1.0703
B(  8-N , 70-H ) :   0.9356 B(  9-C , 10-C ) :   1.7994 B(  9-C , 71-H ) :   0.9634
B( 10-C , 11-N ) :   1.0417 B( 10-C , 72-H ) :   0.9486 B( 11-N , 12-C ) :   1.1066
B( 11-N , 73-H ) :   0.9277 B( 12-C , 13-C ) :   1.5286 B( 12-C , 16-C ) :   1.2508
B( 13-C , 14-S ) :   1.1474 B( 13-C , 74-H ) :   0.9748 B( 14-S , 15-C ) :   1.1567
B( 15-C , 16-C ) :   1.5254 B( 15-C , 75-H ) :   0.9747 B( 16-C , 17-N ) :   1.0856
B( 17-N , 18-C ) :   1.1431 B( 17-N , 76-H ) :   0.9220 B( 18-C , 19-C ) :   1.6438
B( 18-C , 77-H ) :   0.9589 B( 19-C , 20-C ) :   1.1542 B( 19-C , 78-H ) :   0.9626
B( 20-C , 21-C ) :   1.6008 B( 20-C , 79-H ) :   0.9746 B( 21-C , 22-C ) :   1.1354
B( 21-C , 25-S ) :   1.0091 B( 22-C , 23-C ) :   1.5984 B( 22-C , 80-H ) :   0.9985
B( 23-C , 24-C ) :   1.1834 B( 23-C , 81-H ) :   0.9917 B( 24-C , 25-S ) :   1.0485
B( 24-C , 26-C ) :   1.5234 B( 26-C , 27-C ) :   1.1870 B( 26-C , 30-S ) :   1.0285
B( 27-C , 28-C ) :   1.6139 B( 27-C , 82-H ) :   0.9918 B( 28-C , 29-C ) :   1.1294
B( 28-C , 83-H ) :   0.9855 B( 29-C , 30-S ) :   1.0296 B( 29-C , 31-C ) :   1.6303
B( 31-C , 32-C ) :   1.0892 B( 31-C , 84-H ) :   0.9536 B( 32-C , 33-C ) :   1.2915
B( 32-C , 37-C ) :   1.3349 B( 33-C , 34-C ) :   1.4058 B( 33-C , 85-H ) :   0.9915
B( 34-C , 35-C ) :   1.3785 B( 34-C , 40-C ) :   0.9180 B( 35-C , 36-C ) :   1.3329
B( 35-C , 38-C ) :   0.9966 B( 36-C , 37-C ) :   1.3786 B( 36-C , 86-H ) :   0.9914
B( 37-C , 87-H ) :   0.9934 B( 38-C , 39-C ) :   1.3837 B( 38-C , 48-C ) :   1.3290
B( 39-C , 40-C ) :   0.9248 B( 39-C , 45-C ) :   1.3750 B( 40-C , 41-C ) :   1.0144
B( 40-C , 43-C ) :   1.0318 B( 41-C , 42-C ) :   1.1151 B( 41-C , 88-H ) :   0.9371
B( 41-C , 89-H ) :   0.9390 B( 42-C , 90-H ) :   0.9625 B( 42-C , 91-H ) :   0.9588
B( 42-C , 92-H ) :   0.9603 B( 43-C , 44-C ) :   1.1044 B( 43-C , 93-H ) :   0.9385
B( 43-C , 94-H ) :   0.9385 B( 44-C , 95-H ) :   0.9630 B( 44-C , 96-H ) :   0.9649
B( 44-C , 97-H ) :   0.9643 B( 45-C , 46-C ) :   1.2971 B( 45-C , 98-H ) :   1.0091
B( 46-C , 47-C ) :   1.3593 B( 46-C , 49-C ) :   1.0538 B( 47-C , 48-C ) :   1.3962
B( 47-C , 99-H ) :   0.9835 B( 48-C ,100-H ) :   0.9898 B( 49-C , 50-C ) :   1.8145
B( 49-C ,101-H ) :   0.9780 B( 50-C , 51-C ) :   0.9749 B( 50-C ,102-H ) :   0.9561
B( 51-C , 52-S ) :   0.9821 B( 51-C , 55-C ) :   0.9874 B( 51-C ,103-H ) :   0.9245
B( 52-S , 53-C ) :   0.9963 B( 53-C , 54-C ) :   0.9951 B( 53-C ,104-H ) :   0.9458
B( 53-C ,105-H ) :   0.9403 B( 54-C , 55-C ) :   1.0190 B( 54-C , 56-C ) :   0.8486
B( 54-C , 59-N ) :   1.0044 B( 55-C ,106-H ) :   0.9227 B( 55-C ,107-H ) :   0.9248
B( 56-C , 57-O ) :   2.1651 B( 56-C , 58-N ) :   1.3043 B( 58-N ,108-H ) :   0.9218
B( 58-N ,109-H ) :   0.9398 B( 59-N , 60-C ) :   1.1030 B( 59-N ,110-H ) :   0.9208
B( 60-C , 61-C ) :   1.9344 B( 60-C ,111-H ) :   0.9595 B( 61-C ,112-H ) :   0.9569
B( 61-C ,113-H ) :   0.9521

-----------------------------------------------------------------------------
         ABSORPTION SPECTRUM VIA TRANSITION ELECTRIC DIPOLE MOMENTS
-----------------------------------------------------------------------------
State   Energy  Wavelength   fosc         T2         TX        TY        TZ
        (cm-1)    (nm)                  (au**2)     (au)      (au)      (au)
-----------------------------------------------------------------------------
   0   16142.4    619.5   2.047282123  41.75271   2.60626   2.51216  -5.35249
   1   25519.6    391.9   0.009967282   0.12858  -0.12231  -0.09926  -0.32213
   2   26351.6    379.5   0.044569819   0.55681   0.09279   0.12769   0.72931
   3   28632.6    349.3   0.100351421   1.15382   0.43965  -0.37340  -0.90615
   4   30531.8    327.5   0.049742845   0.53636   0.21330   0.68606   0.14205
   5   30673.3    326.0   0.002661376   0.02856   0.13572  -0.01402   0.09973
   6   32271.6    309.9   0.052037087   0.53085   0.44529   0.52000  -0.24932
   7   33089.0    302.2   0.212635065   2.11557   0.54890   1.32983  -0.21410
   8   33421.1    299.2   0.122911942   1.21073   0.59876   0.78864  -0.47986
   9   33599.6    297.6   0.211260312   2.06995   0.97222   1.04450  -0.18373
  10   35738.7    279.8   0.008122916   0.07483   0.01616   0.14431   0.23181
  11   37271.6    268.3   0.026611834   0.23506  -0.34924  -0.14322   0.30426
  12   37957.4    263.5   0.592897175   5.14231   1.38200   1.43075  -1.08873
  13   38444.6    260.1   0.009330316   0.07990  -0.03139   0.27782   0.04159
  14   39056.2    256.0   0.019810636   0.16699  -0.35602   0.19183  -0.05860
  15   39896.4    250.6   0.195463021   1.61290  -0.06390   0.04936   1.26743
  16   40252.1    248.4   0.026041532   0.21299   0.45979   0.00140  -0.03972
  17   40288.8    248.2   0.024575745   0.20082  -0.34632   0.15113  -0.24091

FINAL SINGLE POINT ENERGY     -4364.778446664238

DIPOLE MOMENT
-------------
                                X             Y             Z
Electronic contribution:    -36.27428     -51.52197      39.12311
Nuclear contribution   :     34.98597      51.15284     -37.58726
                        -----------------------------------------
Total Dipole Moment    :     -1.28831      -0.36913       1.53585
                        -----------------------------------------
Magnitude (a.u.)       :      2.03834
Magnitude (Debye)      :      5.18104

Rotational constants in cm-1:     0.003126     0.000194     0.000188
Rotational constants in MHz :    93.712355     5.823262     5.650128

                             ****ORCA TERMINATED NORMALLY****
TOTAL RUN TIME: 0 days 0 hours 9 minutes 47 seconds 100 msec
