                         Program Version 4.2.0 -  RELEASE  -
|  1> # ORCA input file
|  2> # SCF done       -147.674826725716          0.000416892355
|  3> ! CAM-B3LYP def2-SVP def2/J RIJCOSX Grid4 TightSCF
|  4> %maxcore 5000
|  5> %tddft
|  6>     Mode sTDDFT
|  7>     Ethresh 5.0
|  8>     maxcore 5000
|  9> end
| 10>
| 11> %pal
| 12>   nprocs 6
| 13>   end
| 14> * xyz 0 1
| 15>    C        3.26439        -1.59392         1.05579
| 16>    S        1.70871        -0.94464         1.78556
| 17>    C        2.23039        -1.31032         3.48986
| 18>    C        3.75967        -1.27238         3.46772
| 19>    C        4.15001        -2.06081         2.20694
| 20>    C        4.34315        -2.00488         4.69272
| 21>    O        3.76475        -2.91300         5.24108
| 22>    N        5.57800        -1.59089         5.03097
| 23>    N        4.27505         0.08272         3.37873
| 24>    C        3.94848         0.98472         4.37044
| 25>    C        3.73159         2.29004         4.15080
| 26>    C        3.53922         3.24310         5.21227
| 27>    C        2.92002         4.44482         5.05628
| 28>    O        2.90865         5.41629         6.05816
| 29>    C        3.48771         5.04576         7.23034
| 30>    C        4.06643         3.75506         7.41376
| 31>    C        4.57927         3.57883         8.65557
| 32>    S        4.36491         4.98801         9.62786
| 33>    C        3.57569         5.82121         8.33836
| 34>    O        4.10268         2.83099         6.41216
| 35>    C        2.21172         4.90227         3.89432
| 36>    C        1.63371         4.15410         2.93295
| 37>    C        0.94374         4.73718         1.82032
| 38>    C        0.42949         4.05961         0.78127
| 39>    C        0.51561         2.57089         0.62882
| 40>    C       -0.27126         4.79888        -0.33331
| 41>    N       -1.51041         4.16948        -0.70733
| 42>    C       -1.79060         3.69261        -1.93285
| 43>    C       -2.90973         2.98510        -2.24873
| 44>    C       -3.19792         2.54355        -3.55038
| 45>    C       -4.30556         1.80856        -3.88883
| 46>    C       -4.67591         1.34234        -5.17195
| 47>    C       -5.83584         0.62725        -5.19546
| 48>    C       -6.44361         0.48422        -3.92835
| 49>    S       -5.50359         1.29631        -2.70270
| 50>    C       -7.60538        -0.19147        -3.60097
| 51>    C       -8.48908        -0.89356        -4.44411
| 52>    C       -9.54013        -1.46038        -3.78713
| 53>    C       -9.54331        -1.23814        -2.38589
| 54>    S       -8.15603        -0.26835        -1.93847
| 55>    C      -10.48813        -1.72473        -1.51605
| 56>    C      -10.55609        -1.55562        -0.12095
| 57>    S      -11.85353        -2.34525         0.77106
| 58>    C      -11.34780        -1.75107         2.30758
| 59>    C      -10.22715        -0.97187         2.16237
| 60>    C       -9.78841        -0.86528         0.80291
| 61>    O       -8.68891        -0.08256         0.72276
| 62>    C       -8.42060         0.30435         1.99559
| 63>    N       -7.30790         1.13955         2.21200
| 64>    O       -7.09271         1.47054         3.36810
| 65>    O       -6.63598         1.47592         1.25707
| 66>    C       -9.30705        -0.19454         2.91570
| 67>    H        3.71856        -0.78571         0.48205
| 68>    H        3.01466        -2.40550         0.37552
| 69>    H        1.87428        -2.29723         3.78493
| 70>    H        1.80630        -0.55473         4.14851
| 71>    H        3.97744        -3.11968         2.40515
| 72>    H        5.20545        -1.91883         1.97225
| 73>    H        5.98740        -0.78378         4.59269
| 74>    H        6.02963        -2.00723         5.82832
| 75>    H        4.17085         0.47681         2.45074
| 76>    H        3.90239         0.57564         5.36940
| 77>    H        3.74159         2.68599         3.14620
| 78>    H        5.06405         2.71228         9.05350
| 79>    H        3.22603         6.82308         8.47225
| 80>    H        2.09331         5.97831         3.86473
| 81>    H        1.64613         3.07830         2.99701
| 82>    H        0.85582         5.81661         1.83338
| 83>    H        1.53026         2.21766         0.79779
| 84>    H        0.20702         2.26484        -0.36736
| 85>    H       -0.12711         2.06481         1.34854
| 86>    H        0.37308         4.82411        -1.21951
| 87>    H       -0.46022         5.83486        -0.02463
| 88>    H       -2.15552         3.95423         0.03861
| 89>    H       -1.06089         3.92625        -2.69815
| 90>    H       -3.62216         2.74665        -1.47069
| 91>    H       -2.50606         2.79782        -4.34362
| 92>    H       -4.07350         1.55150        -6.03913
| 93>    H       -6.26664         0.19810        -6.08247
| 94>    H       -8.33104        -0.96333        -5.50583
| 95>    H      -10.31641        -2.03511        -4.26115
| 96>    H      -11.27967        -2.32297        -1.94745
| 97>    H      -11.89430        -2.00670         3.19005
| 98>    H       -9.28619        -0.01792         3.97079
| 99> *
|100>
|101>                          ****END OF INPUT****

CARTESIAN COORDINATES (ANGSTROEM)
---------------------------------
  C      3.264390   -1.593920    1.055790
  S      1.708710   -0.944640    1.785560
  C      2.230390   -1.310320    3.489860
  C      3.759670   -1.272380    3.467720
  C      4.150010   -2.060810    2.206940
  C      4.343150   -2.004880    4.692720
  O      3.764750   -2.913000    5.241080
  N      5.578000   -1.590890    5.030970
  N      4.275050    0.082720    3.378730
  C      3.948480    0.984720    4.370440
  C      3.731590    2.290040    4.150800
  C      3.539220    3.243100    5.212270
  C      2.920020    4.444820    5.056280
  O      2.908650    5.416290    6.058160
  C      3.487710    5.045760    7.230340
  C      4.066430    3.755060    7.413760
  C      4.579270    3.578830    8.655570
  S      4.364910    4.988010    9.627860
  C      3.575690    5.821210    8.338360
  O      4.102680    2.830990    6.412160
  C      2.211720    4.902270    3.894320
  C      1.633710    4.154100    2.932950
  C      0.943740    4.737180    1.820320
  C      0.429490    4.059610    0.781270
  C      0.515610    2.570890    0.628820
  C     -0.271260    4.798880   -0.333310
  N     -1.510410    4.169480   -0.707330
  C     -1.790600    3.692610   -1.932850
  C     -2.909730    2.985100   -2.248730
  C     -3.197920    2.543550   -3.550380
  C     -4.305560    1.808560   -3.888830
  C     -4.675910    1.342340   -5.171950
  C     -5.835840    0.627250   -5.195460
  C     -6.443610    0.484220   -3.928350
  S     -5.503590    1.296310   -2.702700
  C     -7.605380   -0.191470   -3.600970
  C     -8.489080   -0.893560   -4.444110
  C     -9.540130   -1.460380   -3.787130
  C     -9.543310   -1.238140   -2.385890
  S     -8.156030   -0.268350   -1.938470
  C    -10.488130   -1.724730   -1.516050
  C    -10.556090   -1.555620   -0.120950
  S    -11.853530   -2.345250    0.771060
  C    -11.347800   -1.751070    2.307580
  C    -10.227150   -0.971870    2.162370
  C     -9.788410   -0.865280    0.802910
  O     -8.688910   -0.082560    0.722760
  C     -8.420600    0.304350    1.995590
  N     -7.307900    1.139550    2.212000
  O     -7.092710    1.470540    3.368100
  O     -6.635980    1.475920    1.257070
  C     -9.307050   -0.194540    2.915700
  H      3.718560   -0.785710    0.482050
  H      3.014660   -2.405500    0.375520
  H      1.874280   -2.297230    3.784930
  H      1.806300   -0.554730    4.148510
  H      3.977440   -3.119680    2.405150
  H      5.205450   -1.918830    1.972250
  H      5.987400   -0.783780    4.592690
  H      6.029630   -2.007230    5.828320
  H      4.170850    0.476810    2.450740
  H      3.902390    0.575640    5.369400
  H      3.741590    2.685990    3.146200
  H      5.064050    2.712280    9.053500
  H      3.226030    6.823080    8.472250
  H      2.093310    5.978310    3.864730
  H      1.646130    3.078300    2.997010
  H      0.855820    5.816610    1.833380
  H      1.530260    2.217660    0.797790
  H      0.207020    2.264840   -0.367360
  H     -0.127110    2.064810    1.348540
  H      0.373080    4.824110   -1.219510
  H     -0.460220    5.834860   -0.024630
  H     -2.155520    3.954230    0.038610
  H     -1.060890    3.926250   -2.698150
  H     -3.622160    2.746650   -1.470690
  H     -2.506060    2.797820   -4.343620
  H     -4.073500    1.551500   -6.039130
  H     -6.266640    0.198100   -6.082470
  H     -8.331040   -0.963330   -5.505830
  H    -10.316410   -2.035110   -4.261150
  H    -11.279670   -2.322970   -1.947450
  H    -11.894300   -2.006700    3.190050
  H     -9.286190   -0.017920    3.970790

 Total Charge           Charge          ....    0
 Multiplicity           Mult            ....    1
 Number of Electrons    NEL             ....  410
 Basis Dimension        Dim             ....  908

ORBITAL ENERGIES
----------------

  NO   OCC          E(Eh)            E(eV)
   0   2.0000     -88.954161     -2420.5658
   1   2.0000     -88.948810     -2420.4202
   2   2.0000     -88.920376     -2419.6465
   3   2.0000     -88.916213     -2419.5332
   4   2.0000     -88.910519     -2419.3782
   5   2.0000     -19.289449      -524.8926
   6   2.0000     -19.265574      -524.2429
   7   2.0000     -19.257961      -524.0358
   8   2.0000     -19.230893      -523.2992
   9   2.0000     -19.227865      -523.2168
  10   2.0000     -19.182236      -521.9752
  11   2.0000     -14.641562      -398.4172
  12   2.0000     -14.436948      -392.8493
  13   2.0000     -14.432657      -392.7326
  14   2.0000     -14.431569      -392.7030
  15   2.0000     -10.373017      -282.2642
  16   2.0000     -10.371529      -282.2236
  17   2.0000     -10.334751      -281.2229
  18   2.0000     -10.331513      -281.1348
  19   2.0000     -10.330266      -281.1008
  20   2.0000     -10.326966      -281.0110
  21   2.0000     -10.326687      -281.0034
  22   2.0000     -10.325774      -280.9786
  23   2.0000     -10.316603      -280.7290
  24   2.0000     -10.312755      -280.6243
  25   2.0000     -10.310153      -280.5535
  26   2.0000     -10.300278      -280.2848
  27   2.0000     -10.299283      -280.2578
  28   2.0000     -10.296003      -280.1685
  29   2.0000     -10.291323      -280.0411
  30   2.0000     -10.289874      -280.0017
  31   2.0000     -10.288617      -279.9675
  32   2.0000     -10.287781      -279.9448
  33   2.0000     -10.287439      -279.9354
  34   2.0000     -10.286042      -279.8974
  35   2.0000     -10.284015      -279.8423
  36   2.0000     -10.280436      -279.7449
  37   2.0000     -10.276825      -279.6466
  38   2.0000     -10.276330      -279.6332
  39   2.0000     -10.276156      -279.6284
  40   2.0000     -10.275135      -279.6006
  41   2.0000     -10.271774      -279.5092
  42   2.0000     -10.269441      -279.4457
  43   2.0000     -10.268323      -279.4153
  44   2.0000     -10.265871      -279.3486
  45   2.0000     -10.265198      -279.3302
  46   2.0000     -10.264279      -279.3052
  47   2.0000     -10.262543      -279.2580
  48   2.0000     -10.261016      -279.2164
  49   2.0000     -10.259827      -279.1841
  50   2.0000     -10.257469      -279.1199
  51   2.0000     -10.249378      -278.8997
  52   2.0000      -8.049097      -219.0271
  53   2.0000      -8.044572      -218.9039
  54   2.0000      -8.016701      -218.1455
  55   2.0000      -8.012449      -218.0298
  56   2.0000      -8.006555      -217.8694
  57   2.0000      -6.018500      -163.7717
  58   2.0000      -6.014200      -163.6547
  59   2.0000      -6.014078      -163.6514
  60   2.0000      -6.011319      -163.5763
  61   2.0000      -6.009961      -163.5394
  62   2.0000      -6.006218      -163.4375
  63   2.0000      -5.986431      -162.8991
  64   2.0000      -5.982392      -162.7892
  65   2.0000      -5.982216      -162.7844
  66   2.0000      -5.978085      -162.6720
  67   2.0000      -5.977603      -162.6589
  68   2.0000      -5.977345      -162.6518
  69   2.0000      -5.973200      -162.5390
  70   2.0000      -5.973009      -162.5338
  71   2.0000      -5.965716      -162.3354
  72   2.0000      -1.311195       -35.6794
  73   2.0000      -1.211281       -32.9606
  74   2.0000      -1.186725       -32.2924
  75   2.0000      -1.149258       -31.2729
  76   2.0000      -1.126362       -30.6499
  77   2.0000      -1.124296       -30.5937
  78   2.0000      -1.045019       -28.4364
  79   2.0000      -1.038279       -28.2530
  80   2.0000      -0.987530       -26.8721
  81   2.0000      -0.976255       -26.5653
  82   2.0000      -0.976003       -26.5584
  83   2.0000      -0.969931       -26.3932
  84   2.0000      -0.948915       -25.8213
  85   2.0000      -0.936892       -25.4941
  86   2.0000      -0.920072       -25.0364
  87   2.0000      -0.919461       -25.0198
  88   2.0000      -0.901425       -24.5290
  89   2.0000      -0.884832       -24.0775
  90   2.0000      -0.877767       -23.8853
  91   2.0000      -0.866491       -23.5784
  92   2.0000      -0.855959       -23.2918
  93   2.0000      -0.838330       -22.8121
  94   2.0000      -0.830628       -22.6025
  95   2.0000      -0.825980       -22.4761
  96   2.0000      -0.824094       -22.4247
  97   2.0000      -0.816023       -22.2051
  98   2.0000      -0.805234       -21.9115
  99   2.0000      -0.802213       -21.8293
 100   2.0000      -0.796151       -21.6644
 101   2.0000      -0.792320       -21.5601
 102   2.0000      -0.780301       -21.2331
 103   2.0000      -0.770136       -20.9565
 104   2.0000      -0.761971       -20.7343
 105   2.0000      -0.742674       -20.2092
 106   2.0000      -0.724107       -19.7040
 107   2.0000      -0.715946       -19.4819
 108   2.0000      -0.711983       -19.3740
 109   2.0000      -0.694109       -18.8877
 110   2.0000      -0.690650       -18.7935
 111   2.0000      -0.686454       -18.6794
 112   2.0000      -0.680577       -18.5194
 113   2.0000      -0.669892       -18.2287
 114   2.0000      -0.662216       -18.0198
 115   2.0000      -0.657906       -17.9025
 116   2.0000      -0.650848       -17.7105
 117   2.0000      -0.647681       -17.6243
 118   2.0000      -0.643864       -17.5204
 119   2.0000      -0.634191       -17.2572
 120   2.0000      -0.625844       -17.0301
 121   2.0000      -0.624985       -17.0067
 122   2.0000      -0.615814       -16.7571
 123   2.0000      -0.612230       -16.6596
 124   2.0000      -0.608571       -16.5601
 125   2.0000      -0.604804       -16.4576
 126   2.0000      -0.602662       -16.3993
 127   2.0000      -0.599076       -16.3017
 128   2.0000      -0.591834       -16.1046
 129   2.0000      -0.585410       -15.9298
 130   2.0000      -0.578858       -15.7515
 131   2.0000      -0.572586       -15.5808
 132   2.0000      -0.572013       -15.5653
 133   2.0000      -0.564289       -15.3551
 134   2.0000      -0.563417       -15.3314
 135   2.0000      -0.558287       -15.1918
 136   2.0000      -0.552668       -15.0389
 137   2.0000      -0.552223       -15.0268
 138   2.0000      -0.549546       -14.9539
 139   2.0000      -0.547876       -14.9085
 140   2.0000      -0.536849       -14.6084
 141   2.0000      -0.533506       -14.5174
 142   2.0000      -0.528156       -14.3719
 143   2.0000      -0.520671       -14.1682
 144   2.0000      -0.516389       -14.0517
 145   2.0000      -0.510653       -13.8956
 146   2.0000      -0.509085       -13.8529
 147   2.0000      -0.506371       -13.7790
 148   2.0000      -0.499401       -13.5894
 149   2.0000      -0.498642       -13.5687
 150   2.0000      -0.495836       -13.4924
 151   2.0000      -0.494710       -13.4617
 152   2.0000      -0.488682       -13.2977
 153   2.0000      -0.487780       -13.2732
 154   2.0000      -0.487161       -13.2563
 155   2.0000      -0.477488       -12.9931
 156   2.0000      -0.474542       -12.9130
 157   2.0000      -0.474299       -12.9063
 158   2.0000      -0.470139       -12.7931
 159   2.0000      -0.468915       -12.7598
 160   2.0000      -0.464591       -12.6422
 161   2.0000      -0.459027       -12.4908
 162   2.0000      -0.457497       -12.4491
 163   2.0000      -0.455693       -12.4000
 164   2.0000      -0.453439       -12.3387
 165   2.0000      -0.452902       -12.3241
 166   2.0000      -0.451797       -12.2940
 167   2.0000      -0.445106       -12.1119
 168   2.0000      -0.444486       -12.0951
 169   2.0000      -0.443518       -12.0687
 170   2.0000      -0.441635       -12.0175
 171   2.0000      -0.440147       -11.9770
 172   2.0000      -0.433573       -11.7981
 173   2.0000      -0.428605       -11.6629
 174   2.0000      -0.427870       -11.6429
 175   2.0000      -0.423922       -11.5355
 176   2.0000      -0.415364       -11.3026
 177   2.0000      -0.412558       -11.2263
 178   2.0000      -0.410720       -11.1763
 179   2.0000      -0.409061       -11.1311
 180   2.0000      -0.403531       -10.9806
 181   2.0000      -0.396750       -10.7961
 182   2.0000      -0.395905       -10.7731
 183   2.0000      -0.390436       -10.6243
 184   2.0000      -0.380922       -10.3654
 185   2.0000      -0.378003       -10.2860
 186   2.0000      -0.368470       -10.0266
 187   2.0000      -0.367918       -10.0116
 188   2.0000      -0.364270        -9.9123
 189   2.0000      -0.356874        -9.7110
 190   2.0000      -0.352964        -9.6046
 191   2.0000      -0.346727        -9.4349
 192   2.0000      -0.334310        -9.0970
 193   2.0000      -0.331902        -9.0315
 194   2.0000      -0.315584        -8.5875
 195   2.0000      -0.308833        -8.4038
 196   2.0000      -0.303363        -8.2549
 197   2.0000      -0.299508        -8.1500
 198   2.0000      -0.289750        -7.8845
 199   2.0000      -0.288121        -7.8402
 200   2.0000      -0.286012        -7.7828
 201   2.0000      -0.281522        -7.6606
 202   2.0000      -0.245200        -6.6722
 203   2.0000      -0.230567        -6.2740
 204   2.0000      -0.181119        -4.9285
 205   0.0000      -0.057522        -1.5653
 206   0.0000      -0.042397        -1.1537
 207   0.0000      -0.022739        -0.6188
 208   0.0000       0.013062         0.3554
 209   0.0000       0.032976         0.8973

MULLIKEN ATOMIC CHARGES
-----------------------
   0 C :   -0.034655
   1 S :   -0.108513
   2 C :    0.058509
   3 C :   -0.255639
   4 C :    0.094810
   5 C :    0.047255
   6 O :   -0.203540
   7 N :   -0.059209
   8 N :   -0.129717
   9 C :    0.059126
  10 C :   -0.088517
  11 C :    0.142405
  12 C :    0.149992
  13 O :   -0.261202
  14 C :    0.226974
  15 C :    0.212846
  16 C :   -0.179404
  17 S :    0.100316
  18 C :   -0.178816
  19 O :   -0.264503
  20 C :   -0.009046
  21 C :   -0.018302
  22 C :   -0.000935
  23 C :   -0.234634
  24 C :    0.111218
  25 C :    0.234935
  26 N :   -0.151632
  27 C :    0.059692
  28 C :   -0.035838
  29 C :   -0.002955
  30 C :   -0.044544
  31 C :    0.045034
  32 C :    0.007806
  33 C :   -0.040539
  34 S :    0.075446
  35 C :   -0.054631
  36 C :    0.034932
  37 C :    0.013915
  38 C :   -0.020618
  39 S :    0.082711
  40 C :    0.020773
  41 C :   -0.215876
  42 S :    0.127900
  43 C :   -0.154517
  44 C :    0.134474
  45 C :    0.183130
  46 O :   -0.192279
  47 C :    0.243413
  48 N :    0.274543
  49 O :   -0.260847
  50 O :   -0.235892
  51 C :   -0.086327
  52 H :    0.040657
  53 H :    0.056538
  54 H :    0.069652
  55 H :    0.051100
  56 H :    0.034953
  57 H :    0.016890
  58 H :    0.132466
  59 H :    0.130010
  60 H :    0.109559
  61 H :    0.020532
  62 H :    0.001898
  63 H :    0.018414
  64 H :    0.020863
  65 H :   -0.001047
  66 H :    0.010451
  67 H :   -0.029794
  68 H :    0.016392
  69 H :    0.007602
  70 H :    0.039540
  71 H :    0.022067
  72 H :    0.009348
  73 H :    0.129331
  74 H :   -0.000665
  75 H :    0.000263
  76 H :   -0.026100
  77 H :   -0.023149
  78 H :   -0.025011
  79 H :   -0.021289
  80 H :   -0.024898
  81 H :   -0.034331
  82 H :    0.021486
  83 H :    0.007244
Sum of atomic charges:   -0.0000000

LOEWDIN ATOMIC CHARGES
----------------------
   0 C :   -0.130985
   1 S :    0.203715
   2 C :   -0.120946
   3 C :   -0.044592
   4 C :   -0.028254
   5 C :    0.054449
   6 O :   -0.205692
   7 N :    0.007367
   8 N :   -0.033815
   9 C :    0.030970
  10 C :   -0.106237
  11 C :    0.032328
  12 C :    0.000342
  13 O :   -0.068352
  14 C :   -0.006563
  15 C :   -0.008651
  16 C :   -0.215200
  17 S :    0.426228
  18 C :   -0.214796
  19 O :   -0.063136
  20 C :   -0.025763
  21 C :   -0.027559
  22 C :   -0.047782
  23 C :   -0.047607
  24 C :   -0.056579
  25 C :    0.046158
  26 N :    0.010263
  27 C :    0.050908
  28 C :   -0.127182
  29 C :   -0.025947
  30 C :   -0.183752
  31 C :   -0.024458
  32 C :   -0.058337
  33 C :   -0.161472
  34 S :    0.373395
  35 C :   -0.209836
  36 C :   -0.027552
  37 C :   -0.058349
  38 C :   -0.135120
  39 S :    0.388660
  40 C :   -0.119255
  41 C :   -0.188479
  42 S :    0.456441
  43 C :   -0.207870
  44 C :   -0.080939
  45 C :    0.000127
  46 O :   -0.002241
  47 C :    0.022406
  48 N :    0.274598
  49 O :   -0.221727
  50 O :   -0.197880
  51 C :   -0.012209
  52 H :    0.014977
  53 H :    0.028083
  54 H :    0.027557
  55 H :    0.026964
  56 H :    0.040584
  57 H :    0.028912
  58 H :    0.073942
  59 H :    0.081505
  60 H :    0.069738
  61 H :    0.026693
  62 H :    0.030100
  63 H :    0.026268
  64 H :    0.027407
  65 H :    0.034243
  66 H :    0.028603
  67 H :    0.023553
  68 H :    0.027415
  69 H :    0.029277
  70 H :    0.041148
  71 H :    0.032835
  72 H :    0.024699
  73 H :    0.086037
  74 H :    0.026551
  75 H :    0.022731
  76 H :    0.028683
  77 H :    0.029232
  78 H :    0.026971
  79 H :    0.028484
  80 H :    0.027290
  81 H :    0.028195
  82 H :    0.023894
  83 H :    0.044190

  Mayer bond orders larger than 0.100000
B(  0-C ,  1-S ) :   0.9958 B(  0-C ,  4-C ) :   1.0653 B(  0-C , 52-H ) :   0.9490
B(  0-C , 53-H ) :   0.9496 B(  1-S ,  2-C ) :   0.9942 B(  2-C ,  3-C ) :   0.9909
B(  2-C , 54-H ) :   0.9366 B(  2-C , 55-H ) :   0.9364 B(  3-C ,  4-C ) :   1.0347
B(  3-C ,  5-C ) :   0.8549 B(  3-C ,  8-N ) :   0.9937 B(  4-C , 56-H ) :   0.9336
B(  4-C , 57-H ) :   0.9367 B(  5-C ,  6-O ) :   2.1723 B(  5-C ,  7-N ) :   1.2988
B(  7-N , 58-H ) :   0.9244 B(  7-N , 59-H ) :   0.9404 B(  8-N ,  9-C ) :   1.1154
B(  8-N , 60-H ) :   0.9278 B(  9-C , 10-C ) :   1.7112 B(  9-C , 61-H ) :   0.9638
B( 10-C , 11-C ) :   1.1491 B( 10-C , 62-H ) :   0.9449 B( 11-C , 12-C ) :   1.5587
B( 11-C , 19-O ) :   1.0484 B( 12-C , 13-O ) :   1.0184 B( 12-C , 20-C ) :   1.0918
B( 13-O , 14-C ) :   1.0731 B( 14-C , 15-C ) :   1.1966 B( 14-C , 18-C ) :   1.5744
B( 15-C , 16-C ) :   1.5725 B( 15-C , 19-O ) :   1.0574 B( 16-C , 17-S ) :   1.1389
B( 16-C , 63-H ) :   0.9729 B( 17-S , 18-C ) :   1.1359 B( 18-C , 64-H ) :   0.9704
B( 20-C , 21-C ) :   1.7020 B( 20-C , 65-H ) :   0.9608 B( 21-C , 22-C ) :   1.1068
B( 21-C , 66-H ) :   0.9660 B( 22-C , 23-C ) :   1.7662 B( 22-C , 67-H ) :   0.9781
B( 23-C , 24-C ) :   1.0622 B( 23-C , 25-C ) :   1.0459 B( 24-C , 68-H ) :   0.9431
B( 24-C , 69-H ) :   0.9514 B( 24-C , 70-H ) :   0.9449 B( 25-C , 26-N ) :   0.9929
B( 25-C , 71-H ) :   0.9243 B( 25-C , 72-H ) :   0.9388 B( 26-N , 27-C ) :   1.2456
B( 26-N , 73-H ) :   0.9391 B( 27-C , 28-C ) :   1.5765 B( 27-C , 74-H ) :   0.9663
B( 28-C , 29-C ) :   1.1845 B( 28-C , 75-H ) :   0.9648 B( 29-C , 30-C ) :   1.5695
B( 29-C , 76-H ) :   0.9783 B( 30-C , 31-C ) :   1.1559 B( 30-C , 34-S ) :   1.0085
B( 31-C , 32-C ) :   1.5757 B( 31-C , 77-H ) :   0.9972 B( 32-C , 33-C ) :   1.1974
B( 32-C , 78-H ) :   0.9941 B( 33-C , 34-S ) :   1.0699 B( 33-C , 35-C ) :   1.4855
B( 35-C , 36-C ) :   1.2044 B( 35-C , 39-S ) :   1.0181 B( 36-C , 37-C ) :   1.5727
B( 36-C , 79-H ) :   0.9927 B( 37-C , 38-C ) :   1.1517 B( 37-C , 80-H ) :   0.9996
B( 38-C , 39-S ) :   1.0599 B( 38-C , 40-C ) :   1.5784 B( 40-C , 41-C ) :   1.1589
B( 40-C , 81-H ) :   0.9422 B( 41-C , 42-S ) :   1.1346 B( 41-C , 43-C ) :   0.1080
B( 41-C , 45-C ) :   1.4248 B( 42-S , 43-C ) :   1.1591 B( 43-C , 44-C ) :   1.4331
B( 43-C , 82-H ) :   0.9780 B( 44-C , 45-C ) :   1.2306 B( 44-C , 51-C ) :   1.0649
B( 45-C , 46-O ) :   1.0783 B( 46-O , 47-C ) :   1.1305 B( 47-C , 48-N ) :   0.9236
B( 47-C , 51-C ) :   1.5640 B( 48-N , 49-O ) :   1.5226 B( 48-N , 50-O ) :   1.5116
B( 49-O , 50-O ) :   0.2763 B( 51-C , 83-H ) :   1.0255

-----------------------------------------------------------------------------
         ABSORPTION SPECTRUM VIA TRANSITION ELECTRIC DIPOLE MOMENTS
-----------------------------------------------------------------------------
State   Energy  Wavelength   fosc         T2         TX        TY        TZ
        (cm-1)    (nm)                  (au**2)     (au)      (au)      (au)
-----------------------------------------------------------------------------
   0   11411.4    876.3   0.181827083   5.24559   1.76526   0.90236  -1.14681
   1   15852.3    630.8   0.964130543  20.02249  -3.83698  -2.13127   0.87050
   2   23641.3    423.0   0.051559615   0.71798  -0.44556   0.08660  -0.71551
   3   24605.7    406.4   0.062594829   0.83749  -0.00569  -0.16404   0.90030
   4   26384.5    379.0   0.018122976   0.22613   0.05287   0.02396   0.47197
   5   26966.0    370.8   0.465363799   5.68136  -1.43074   0.98605  -1.63157
   6   28923.6    345.7   0.063817830   0.72638  -0.07427  -0.66946  -0.52219
   7   29538.3    338.5   0.840310595   9.36549  -1.06330  -1.32016  -2.54795
   8   31751.4    314.9   0.009603905   0.09958   0.24236   0.06720   0.19058
   9   32458.3    308.1   0.000649253   0.00659  -0.04988  -0.04483  -0.04569
  10   32703.2    305.8   0.021710195   0.21855  -0.35148  -0.27009  -0.14853
  11   34162.8    292.7   0.084270773   0.81208  -0.02392   0.09089   0.89624
  12   35231.7    283.8   0.003856408   0.03604  -0.13295  -0.13008  -0.03793
  13   35737.0    279.8   0.049755766   0.45835  -0.43324  -0.40907  -0.32143
  14   35859.3    278.9   0.409016773   3.75504   1.54024   1.14045   0.28651
  15   36567.2    273.5   0.080599662   0.72563   0.72370  -0.17027   0.41581
  16   36731.7    272.2   0.064562883   0.57865   0.52982   0.48762  -0.24528
  17   37091.1    269.6   0.028535702   0.25328  -0.04279   0.50089   0.02356
  18   37392.9    267.4   0.112215376   0.98796  -0.15198  -0.43180  -0.88227
  19   37513.5    266.6   0.046842033   0.41108   0.48827   0.38013   0.16783
  20   38921.3    256.9   0.124041968   1.04920   0.40750  -0.37065   0.86358
  21   39467.4    253.4   0.053155292   0.44339   0.60835   0.03842   0.26800
  22   39546.8    252.9   0.024571890   0.20455   0.45110  -0.01675   0.02798
  23   39764.3    251.5   0.057275312   0.47419  -0.15506  -0.35188   0.57125
  24   39829.7    251.1   0.017215724   0.14230   0.02949  -0.05912   0.37139
  25   40011.3    249.9   0.089376419   0.73539  -0.57617  -0.15745  -0.61532

FINAL SINGLE POINT ENERGY     -4087.064898000070

DIPOLE MOMENT
-------------
                                X             Y             Z
Electronic contribution:    -53.44543      -2.40338      14.68745
Nuclear contribution   :     56.12025       2.69747     -15.62167
                        -----------------------------------------
Total Dipole Moment    :      2.67482       0.29409      -0.93422
                        -----------------------------------------
Magnitude (a.u.)       :      2.84849
Magnitude (Debye)      :      7.24029

Rotational constants in cm-1:     0.001823     0.000453     0.000434
Rotational constants in MHz :    54.644172    13.569409    13.019615

                             ****ORCA TERMINATED NORMALLY****
TOTAL RUN TIME: 0 days 0 hours 6 minutes 8 seconds 431 msec
