                         Program Version 4.2.0 -  RELEASE  -
|  1> # ORCA input file
|  2> # SCF done       -166.416799112986          0.000341704668
|  3> ! CAM-B3LYP def2-SVP def2/J RIJCOSX Grid4 TightSCF
|  4> %maxcore 5000
|  5> %tddft
|  6>     Mode sTDDFT
|  7>     Ethresh 5.0
|  8>     maxcore 5000
|  9> end
| 10>
| 11> %pal
| 12>   nprocs 6
| 13>   end
| 14> * xyz 0 1
| 15>    C       -0.84250        -1.90824         0.33989
| 16>    S       -0.59973        -0.35416        -0.35238
| 17>    C       -0.57772         0.38908         1.22410
| 18>    C       -0.73040        -0.56186         2.21197
| 19>    C       -0.87802        -1.87855         1.70303
| 20>    S       -1.03197        -3.37888         2.61319
| 21>    C       -1.98740        -2.89826         4.10923
| 22>    C       -2.96693        -1.75687         3.87045
| 23>    C       -2.42554        -0.42325         4.36969
| 24>    S       -0.66915        -0.14583         3.92502
| 25>    C       -0.42692         1.78937         1.41447
| 26>    C       -0.26047         2.67216         0.40513
| 27>    C       -0.09674         4.07770         0.51158
| 28>    S       -0.26624         5.00427        -0.95537
| 29>    C       -0.00153         6.49851        -0.11090
| 30>    C        0.21927         6.27122         1.24218
| 31>    C        0.19648         4.90183         1.59204
| 32>    S        0.53402         4.19559         3.17372
| 33>    C        1.72781         5.38007         3.88971
| 34>    C        1.03225         6.45852         4.70454
| 35>    C       -0.07787         7.11553         3.89984
| 36>    S        0.51600         7.67938         2.26632
| 37>    C       -0.04433         7.75596        -0.76047
| 38>    C       -0.16751         7.89719        -2.10203
| 39>    C       -0.22757         9.09192        -2.86101
| 40>    S       -0.54874         8.91229        -4.56189
| 41>    C       -0.49284        10.63012        -4.82960
| 42>    C       -0.26023        11.30427        -3.63347
| 43>    C       -0.06904        10.43594        -2.53266
| 44>    S        0.36705        10.87090        -0.87781
| 45>    C        1.27546        12.44350        -1.07957
| 46>    C        0.34364        13.64054        -0.98617
| 47>    C       -0.83560        13.47182        -1.93012
| 48>    S       -0.28147        13.07030        -3.62478
| 49>    C       -0.68880        11.07011        -6.16168
| 50>    C       -0.53409        12.31961        -6.66290
| 51>    C       -0.74383        12.64632        -8.02330
| 52>    S       -1.09570        11.43810        -9.22699
| 53>    C       -1.15630        12.63921       -10.48527
| 54>    C       -0.93335        13.91285        -9.97587
| 55>    C       -0.67501        13.91400        -8.58983
| 56>    S       -0.33124        15.28383        -7.53120
| 57>    C        0.52789        16.43518        -8.66193
| 58>    C       -0.43942        17.38434        -9.35136
| 59>    C       -1.57928        16.62626       -10.01337
| 60>    S       -0.97111        15.28131       -11.09120
| 61>    C       -1.41225        12.29784       -11.83348
| 62>    C       -1.56182        11.03001       -12.28413
| 63>    C       -1.83320        10.68335       -13.62912
| 64>    S       -2.09804        11.88722       -14.85691
| 65>    C       -2.33542        10.66732       -16.07052
| 66>    C       -2.20324         9.39665       -15.54107
| 67>    C       -1.93950         9.40184       -14.15158
| 68>    S       -1.69866         8.03059       -13.06669
| 69>    C       -2.76095         6.75018       -13.82318
| 70>    C       -2.00231         5.90586       -14.83490
| 71>    C       -1.28451         6.77679       -15.85396
| 72>    S       -2.40483         8.00470       -16.61296
| 73>    C       -2.61399        11.00535       -17.43475
| 74>    C       -2.78080        12.24579       -17.88899
| 75>    H       -0.92020        -2.77034        -0.29089
| 76>    H       -1.27371        -2.64881         4.89424
| 77>    H       -2.50250        -3.81957         4.37798
| 78>    H       -3.90485        -1.96009         4.39356
| 79>    H       -3.19928        -1.68477         2.80496
| 80>    H       -2.43086        -0.38106         5.45868
| 81>    H       -3.00800         0.40982         3.97510
| 82>    H       -0.46267         2.11604         2.44257
| 83>    H       -0.27629         2.29735        -0.61186
| 84>    H        2.30061         5.80390         3.06638
| 85>    H        2.38832         4.77813         4.51234
| 86>    H        1.77190         7.20607         5.00012
| 87>    H        0.59964         6.02253         5.60787
| 88>    H       -0.45108         8.00975         4.39710
| 89>    H       -0.90637         6.43077         3.72578
| 90>    H        0.02974         8.61326        -0.10991
| 91>    H       -0.24290         6.99359        -2.69696
| 92>    H        1.78938        12.40587        -2.03865
| 93>    H        2.01275        12.44953        -0.27796
| 94>    H        0.90229        14.54323        -1.24331
| 95>    H       -0.03255        13.74331         0.03413
| 96>    H       -1.40292        14.39641        -2.02760
| 97>    H       -1.50247        12.67508        -1.60459
| 98>    H       -0.97822        10.28396        -6.84996
| 99>    H       -0.23113        13.14197        -6.03339
|100>    H        1.07772        15.83100        -9.38190
|101>    H        1.23551        16.97989        -8.03833
|102>    H        0.11079        17.95857       -10.10032
|103>    H       -0.86148        18.08018        -8.62255
|104>    H       -2.16120        17.27910       -10.66253
|105>    H       -2.24059        16.17377        -9.27600
|106>    H       -1.47614        13.12518       -12.52913
|107>    H       -1.46391        10.20251       -11.59257
|108>    H       -3.60678         7.26088       -14.28110
|109>    H       -3.11753         6.14229       -12.99274
|110>    H       -2.71266         5.24812       -15.34127
|111>    H       -1.26159         5.28708       -14.32306
|112>    H       -0.90278         6.18022       -16.68151
|113>    H       -0.46127         7.32755       -15.40132
|114>    H       -2.68668        10.15790       -18.10420
|115>    H       -2.72478        13.09680       -17.23019
|116>    H       -2.98014        12.44318       -18.92677
|117> *
|118>
|119>                          ****END OF INPUT****

CARTESIAN COORDINATES (ANGSTROEM)
---------------------------------
  C     -0.842500   -1.908240    0.339890
  S     -0.599730   -0.354160   -0.352380
  C     -0.577720    0.389080    1.224100
  C     -0.730400   -0.561860    2.211970
  C     -0.878020   -1.878550    1.703030
  S     -1.031970   -3.378880    2.613190
  C     -1.987400   -2.898260    4.109230
  C     -2.966930   -1.756870    3.870450
  C     -2.425540   -0.423250    4.369690
  S     -0.669150   -0.145830    3.925020
  C     -0.426920    1.789370    1.414470
  C     -0.260470    2.672160    0.405130
  C     -0.096740    4.077700    0.511580
  S     -0.266240    5.004270   -0.955370
  C     -0.001530    6.498510   -0.110900
  C      0.219270    6.271220    1.242180
  C      0.196480    4.901830    1.592040
  S      0.534020    4.195590    3.173720
  C      1.727810    5.380070    3.889710
  C      1.032250    6.458520    4.704540
  C     -0.077870    7.115530    3.899840
  S      0.516000    7.679380    2.266320
  C     -0.044330    7.755960   -0.760470
  C     -0.167510    7.897190   -2.102030
  C     -0.227570    9.091920   -2.861010
  S     -0.548740    8.912290   -4.561890
  C     -0.492840   10.630120   -4.829600
  C     -0.260230   11.304270   -3.633470
  C     -0.069040   10.435940   -2.532660
  S      0.367050   10.870900   -0.877810
  C      1.275460   12.443500   -1.079570
  C      0.343640   13.640540   -0.986170
  C     -0.835600   13.471820   -1.930120
  S     -0.281470   13.070300   -3.624780
  C     -0.688800   11.070110   -6.161680
  C     -0.534090   12.319610   -6.662900
  C     -0.743830   12.646320   -8.023300
  S     -1.095700   11.438100   -9.226990
  C     -1.156300   12.639210  -10.485270
  C     -0.933350   13.912850   -9.975870
  C     -0.675010   13.914000   -8.589830
  S     -0.331240   15.283830   -7.531200
  C      0.527890   16.435180   -8.661930
  C     -0.439420   17.384340   -9.351360
  C     -1.579280   16.626260  -10.013370
  S     -0.971110   15.281310  -11.091200
  C     -1.412250   12.297840  -11.833480
  C     -1.561820   11.030010  -12.284130
  C     -1.833200   10.683350  -13.629120
  S     -2.098040   11.887220  -14.856910
  C     -2.335420   10.667320  -16.070520
  C     -2.203240    9.396650  -15.541070
  C     -1.939500    9.401840  -14.151580
  S     -1.698660    8.030590  -13.066690
  C     -2.760950    6.750180  -13.823180
  C     -2.002310    5.905860  -14.834900
  C     -1.284510    6.776790  -15.853960
  S     -2.404830    8.004700  -16.612960
  C     -2.613990   11.005350  -17.434750
  C     -2.780800   12.245790  -17.888990
  H     -0.920200   -2.770340   -0.290890
  H     -1.273710   -2.648810    4.894240
  H     -2.502500   -3.819570    4.377980
  H     -3.904850   -1.960090    4.393560
  H     -3.199280   -1.684770    2.804960
  H     -2.430860   -0.381060    5.458680
  H     -3.008000    0.409820    3.975100
  H     -0.462670    2.116040    2.442570
  H     -0.276290    2.297350   -0.611860
  H      2.300610    5.803900    3.066380
  H      2.388320    4.778130    4.512340
  H      1.771900    7.206070    5.000120
  H      0.599640    6.022530    5.607870
  H     -0.451080    8.009750    4.397100
  H     -0.906370    6.430770    3.725780
  H      0.029740    8.613260   -0.109910
  H     -0.242900    6.993590   -2.696960
  H      1.789380   12.405870   -2.038650
  H      2.012750   12.449530   -0.277960
  H      0.902290   14.543230   -1.243310
  H     -0.032550   13.743310    0.034130
  H     -1.402920   14.396410   -2.027600
  H     -1.502470   12.675080   -1.604590
  H     -0.978220   10.283960   -6.849960
  H     -0.231130   13.141970   -6.033390
  H      1.077720   15.831000   -9.381900
  H      1.235510   16.979890   -8.038330
  H      0.110790   17.958570  -10.100320
  H     -0.861480   18.080180   -8.622550
  H     -2.161200   17.279100  -10.662530
  H     -2.240590   16.173770   -9.276000
  H     -1.476140   13.125180  -12.529130
  H     -1.463910   10.202510  -11.592570
  H     -3.606780    7.260880  -14.281100
  H     -3.117530    6.142290  -12.992740
  H     -2.712660    5.248120  -15.341270
  H     -1.261590    5.287080  -14.323060
  H     -0.902780    6.180220  -16.681510
  H     -0.461270    7.327550  -15.401320
  H     -2.686680   10.157900  -18.104200
  H     -2.724780   13.096800  -17.230190
  H     -2.980140   12.443180  -18.926770

 Total Charge           Charge          ....    0
 Multiplicity           Mult            ....    1
 Number of Electrons    NEL             ....  552
 Basis Dimension        Dim             .... 1110

ORBITAL ENERGIES
----------------

  NO   OCC          E(Eh)            E(eV)
   0   2.0000     -88.946920     -2420.3687
   1   2.0000     -88.943638     -2420.2794
   2   2.0000     -88.943035     -2420.2630
   3   2.0000     -88.942697     -2420.2538
   4   2.0000     -88.942664     -2420.2529
   5   2.0000     -88.922296     -2419.6987
   6   2.0000     -88.921968     -2419.6898
   7   2.0000     -88.921214     -2419.6693
   8   2.0000     -88.920528     -2419.6506
   9   2.0000     -88.919766     -2419.6298
  10   2.0000     -88.919610     -2419.6256
  11   2.0000     -88.919442     -2419.6210
  12   2.0000     -88.919203     -2419.6145
  13   2.0000     -88.913546     -2419.4606
  14   2.0000     -88.909618     -2419.3537
  15   2.0000     -10.297878      -280.2195
  16   2.0000     -10.297368      -280.2056
  17   2.0000     -10.296935      -280.1938
  18   2.0000     -10.295986      -280.1680
  19   2.0000     -10.295625      -280.1582
  20   2.0000     -10.295191      -280.1464
  21   2.0000     -10.295131      -280.1448
  22   2.0000     -10.295075      -280.1432
  23   2.0000     -10.294590      -280.1300
  24   2.0000     -10.294457      -280.1264
  25   2.0000     -10.294456      -280.1264
  26   2.0000     -10.294364      -280.1239
  27   2.0000     -10.293025      -280.0874
  28   2.0000     -10.292784      -280.0809
  29   2.0000     -10.292065      -280.0613
  30   2.0000     -10.292013      -280.0599
  31   2.0000     -10.291873      -280.0561
  32   2.0000     -10.291707      -280.0516
  33   2.0000     -10.291668      -280.0505
  34   2.0000     -10.291069      -280.0342
  35   2.0000     -10.290999      -280.0323
  36   2.0000     -10.290806      -280.0271
  37   2.0000     -10.290600      -280.0215
  38   2.0000     -10.290586      -280.0211
  39   2.0000     -10.290451      -280.0174
  40   2.0000     -10.290445      -280.0172
  41   2.0000     -10.290032      -280.0060
  42   2.0000     -10.286988      -279.9232
  43   2.0000     -10.286918      -279.9213
  44   2.0000     -10.283899      -279.8391
  45   2.0000     -10.274116      -279.5729
  46   2.0000     -10.273385      -279.5530
  47   2.0000     -10.272765      -279.5361
  48   2.0000     -10.272725      -279.5351
  49   2.0000     -10.272549      -279.5303
  50   2.0000     -10.272325      -279.5242
  51   2.0000     -10.272295      -279.5234
  52   2.0000     -10.271843      -279.5111
  53   2.0000     -10.271228      -279.4943
  54   2.0000     -10.270585      -279.4768
  55   2.0000     -10.269739      -279.4538
  56   2.0000     -10.268451      -279.4188
  57   2.0000     -10.267717      -279.3988
  58   2.0000     -10.267674      -279.3976
  59   2.0000     -10.257197      -279.1125
  60   2.0000      -8.042780      -218.8552
  61   2.0000      -8.039399      -218.7632
  62   2.0000      -8.039140      -218.7561
  63   2.0000      -8.038236      -218.7315
  64   2.0000      -8.038076      -218.7272
  65   2.0000      -8.016936      -218.1519
  66   2.0000      -8.016590      -218.1425
  67   2.0000      -8.015876      -218.1231
  68   2.0000      -8.015427      -218.1108
  69   2.0000      -8.014761      -218.0927
  70   2.0000      -8.014520      -218.0862
  71   2.0000      -8.014485      -218.0852
  72   2.0000      -8.014285      -218.0798
  73   2.0000      -8.008316      -217.9173
  74   2.0000      -8.005230      -217.8334
  75   2.0000      -6.012024      -163.5955
  76   2.0000      -6.008664      -163.5041
  77   2.0000      -6.008367      -163.4960
  78   2.0000      -6.007967      -163.4851
  79   2.0000      -6.007489      -163.4721
  80   2.0000      -6.007318      -163.4674
  81   2.0000      -6.004875      -163.4010
  82   2.0000      -6.004824      -163.3996
  83   2.0000      -6.004541      -163.3919
  84   2.0000      -6.003696      -163.3689
  85   2.0000      -6.003592      -163.3660
  86   2.0000      -6.001220      -163.3015
  87   2.0000      -6.000961      -163.2944
  88   2.0000      -6.000061      -163.2700
  89   2.0000      -5.999896      -163.2655
  90   2.0000      -5.987420      -162.9260
  91   2.0000      -5.987077      -162.9166
  92   2.0000      -5.986374      -162.8975
  93   2.0000      -5.985933      -162.8855
  94   2.0000      -5.985213      -162.8659
  95   2.0000      -5.985014      -162.8605
  96   2.0000      -5.984948      -162.8587
  97   2.0000      -5.984769      -162.8538
  98   2.0000      -5.983228      -162.8119
  99   2.0000      -5.982900      -162.8030
 100   2.0000      -5.982178      -162.7833
 101   2.0000      -5.981820      -162.7736
 102   2.0000      -5.981262      -162.7584
 103   2.0000      -5.980962      -162.7503
 104   2.0000      -5.980953      -162.7500
 105   2.0000      -5.980784      -162.7454
 106   2.0000      -5.978967      -162.6960
 107   2.0000      -5.976710      -162.6345
 108   2.0000      -5.976354      -162.6249
 109   2.0000      -5.975985      -162.6148
 110   2.0000      -5.975621      -162.6049
 111   2.0000      -5.975045      -162.5893
 112   2.0000      -5.974955      -162.5868
 113   2.0000      -5.974339      -162.5700
 114   2.0000      -5.974117      -162.5640
 115   2.0000      -5.974066      -162.5626
 116   2.0000      -5.973823      -162.5560
 117   2.0000      -5.971592      -162.4953
 118   2.0000      -5.967586      -162.3863
 119   2.0000      -5.964565      -162.3041
 120   2.0000      -0.988727       -26.9046
 121   2.0000      -0.987498       -26.8712
 122   2.0000      -0.985545       -26.8180
 123   2.0000      -0.983601       -26.7651
 124   2.0000      -0.982324       -26.7304
 125   2.0000      -0.925376       -25.1808
 126   2.0000      -0.924046       -25.1446
 127   2.0000      -0.923474       -25.1290
 128   2.0000      -0.921884       -25.0857
 129   2.0000      -0.917343       -24.9622
 130   2.0000      -0.911321       -24.7983
 131   2.0000      -0.905307       -24.6347
 132   2.0000      -0.896349       -24.3909
 133   2.0000      -0.887397       -24.1473
 134   2.0000      -0.878599       -23.9079
 135   2.0000      -0.864735       -23.5306
 136   2.0000      -0.862933       -23.4816
 137   2.0000      -0.861261       -23.4361
 138   2.0000      -0.859764       -23.3954
 139   2.0000      -0.858436       -23.3592
 140   2.0000      -0.849849       -23.1256
 141   2.0000      -0.846756       -23.0414
 142   2.0000      -0.845245       -23.0003
 143   2.0000      -0.841580       -22.9006
 144   2.0000      -0.837526       -22.7902
 145   2.0000      -0.823169       -22.3996
 146   2.0000      -0.809226       -22.0202
 147   2.0000      -0.794889       -21.6300
 148   2.0000      -0.780673       -21.2432
 149   2.0000      -0.769420       -20.9370
 150   2.0000      -0.758408       -20.6373
 151   2.0000      -0.757218       -20.6049
 152   2.0000      -0.756653       -20.5896
 153   2.0000      -0.756221       -20.5778
 154   2.0000      -0.755691       -20.5634
 155   2.0000      -0.744786       -20.2667
 156   2.0000      -0.737673       -20.0731
 157   2.0000      -0.736017       -20.0280
 158   2.0000      -0.730080       -19.8665
 159   2.0000      -0.717580       -19.5263
 160   2.0000      -0.705541       -19.1988
 161   2.0000      -0.692302       -18.8385
 162   2.0000      -0.675630       -18.3848
 163   2.0000      -0.665269       -18.1029
 164   2.0000      -0.658687       -17.9238
 165   2.0000      -0.650222       -17.6935
 166   2.0000      -0.648667       -17.6511
 167   2.0000      -0.647456       -17.6182
 168   2.0000      -0.647036       -17.6067
 169   2.0000      -0.644831       -17.5467
 170   2.0000      -0.637093       -17.3362
 171   2.0000      -0.626632       -17.0515
 172   2.0000      -0.623092       -16.9552
 173   2.0000      -0.617444       -16.8015
 174   2.0000      -0.612568       -16.6688
 175   2.0000      -0.600200       -16.3323
 176   2.0000      -0.593243       -16.1430
 177   2.0000      -0.587649       -15.9907
 178   2.0000      -0.586985       -15.9727
 179   2.0000      -0.573532       -15.6066
 180   2.0000      -0.570148       -15.5145
 181   2.0000      -0.560227       -15.2445
 182   2.0000      -0.559316       -15.2198
 183   2.0000      -0.555336       -15.1115
 184   2.0000      -0.554438       -15.0870
 185   2.0000      -0.553582       -15.0637
 186   2.0000      -0.551148       -14.9975
 187   2.0000      -0.547908       -14.9093
 188   2.0000      -0.544623       -14.8199
 189   2.0000      -0.542396       -14.7594
 190   2.0000      -0.539497       -14.6805
 191   2.0000      -0.538443       -14.6518
 192   2.0000      -0.532168       -14.4810
 193   2.0000      -0.531304       -14.4575
 194   2.0000      -0.530016       -14.4225
 195   2.0000      -0.521929       -14.2024
 196   2.0000      -0.513834       -13.9821
 197   2.0000      -0.511182       -13.9100
 198   2.0000      -0.505497       -13.7553
 199   2.0000      -0.502959       -13.6862
 200   2.0000      -0.500800       -13.6275
 201   2.0000      -0.499160       -13.5828
 202   2.0000      -0.497969       -13.5504
 203   2.0000      -0.494399       -13.4533
 204   2.0000      -0.491273       -13.3682
 205   2.0000      -0.486796       -13.2464
 206   2.0000      -0.485929       -13.2228
 207   2.0000      -0.481397       -13.0995
 208   2.0000      -0.478589       -13.0231
 209   2.0000      -0.477476       -12.9928
 210   2.0000      -0.473767       -12.8918
 211   2.0000      -0.470647       -12.8069
 212   2.0000      -0.468750       -12.7553
 213   2.0000      -0.465758       -12.6739
 214   2.0000      -0.463200       -12.6043
 215   2.0000      -0.461346       -12.5539
 216   2.0000      -0.456291       -12.4163
 217   2.0000      -0.455110       -12.3842
 218   2.0000      -0.452337       -12.3087
 219   2.0000      -0.451854       -12.2956
 220   2.0000      -0.447197       -12.1689
 221   2.0000      -0.447022       -12.1641
 222   2.0000      -0.446209       -12.1420
 223   2.0000      -0.445409       -12.1202
 224   2.0000      -0.445020       -12.1096
 225   2.0000      -0.442918       -12.0524
 226   2.0000      -0.439996       -11.9729
 227   2.0000      -0.439058       -11.9474
 228   2.0000      -0.437767       -11.9122
 229   2.0000      -0.436394       -11.8749
 230   2.0000      -0.429625       -11.6907
 231   2.0000      -0.425514       -11.5788
 232   2.0000      -0.420972       -11.4552
 233   2.0000      -0.420686       -11.4474
 234   2.0000      -0.418881       -11.3983
 235   2.0000      -0.417830       -11.3697
 236   2.0000      -0.416599       -11.3362
 237   2.0000      -0.411460       -11.1964
 238   2.0000      -0.406102       -11.0506
 239   2.0000      -0.404557       -11.0086
 240   2.0000      -0.400537       -10.8992
 241   2.0000      -0.397083       -10.8052
 242   2.0000      -0.393280       -10.7017
 243   2.0000      -0.392232       -10.6732
 244   2.0000      -0.387325       -10.5396
 245   2.0000      -0.383828       -10.4445
 246   2.0000      -0.381671       -10.3858
 247   2.0000      -0.380167       -10.3449
 248   2.0000      -0.378680       -10.3044
 249   2.0000      -0.376462       -10.2441
 250   2.0000      -0.375567       -10.2197
 251   2.0000      -0.374512       -10.1910
 252   2.0000      -0.371465       -10.1081
 253   2.0000      -0.369142       -10.0449
 254   2.0000      -0.365331        -9.9412
 255   2.0000      -0.359130        -9.7724
 256   2.0000      -0.350186        -9.5290
 257   2.0000      -0.348973        -9.4960
 258   2.0000      -0.347473        -9.4552
 259   2.0000      -0.344389        -9.3713
 260   2.0000      -0.329341        -8.9618
 261   2.0000      -0.323123        -8.7926
 262   2.0000      -0.319951        -8.7063
 263   2.0000      -0.317115        -8.6291
 264   2.0000      -0.316501        -8.6124
 265   2.0000      -0.304343        -8.2816
 266   2.0000      -0.290267        -7.8986
 267   2.0000      -0.278838        -7.5876
 268   2.0000      -0.265818        -7.2333
 269   2.0000      -0.262426        -7.1410
 270   2.0000      -0.260526        -7.0893
 271   2.0000      -0.260269        -7.0823
 272   2.0000      -0.259239        -7.0542
 273   2.0000      -0.250672        -6.8211
 274   2.0000      -0.227523        -6.1912
 275   2.0000      -0.205623        -5.5953
 276   0.0000      -0.058105        -1.5811
 277   0.0000      -0.038756        -1.0546
 278   0.0000      -0.011916        -0.3243
 279   0.0000       0.009934         0.2703
 280   0.0000       0.035084         0.9547

MULLIKEN ATOMIC CHARGES
-----------------------
   0 C :   -0.100398
   1 S :    0.110021
   2 C :   -0.089600
   3 C :   -0.073208
   4 C :   -0.014364
   5 S :   -0.009789
   6 C :   -0.067469
   7 C :    0.005170
   8 C :   -0.049702
   9 S :   -0.023899
  10 C :   -0.014561
  11 C :    0.034233
  12 C :   -0.114605
  13 S :    0.110810
  14 C :   -0.098579
  15 C :   -0.036109
  16 C :   -0.022089
  17 S :   -0.032089
  18 C :   -0.096089
  19 C :    0.105212
  20 C :   -0.104475
  21 S :   -0.026072
  22 C :   -0.022291
  23 C :    0.034159
  24 C :   -0.112487
  25 S :    0.120485
  26 C :   -0.110565
  27 C :   -0.038730
  28 C :   -0.034481
  29 S :   -0.035000
  30 C :   -0.095971
  31 C :    0.102786
  32 C :   -0.092465
  33 S :   -0.036819
  34 C :    0.038048
  35 C :   -0.025832
  36 C :   -0.090455
  37 S :    0.101230
  38 C :   -0.086229
  39 C :   -0.021830
  40 C :   -0.027910
  41 S :   -0.023548
  42 C :   -0.108030
  43 C :    0.107119
  44 C :   -0.108584
  45 S :   -0.026761
  46 C :   -0.015153
  47 C :   -0.014471
  48 C :   -0.093921
  49 S :    0.108662
  50 C :   -0.110365
  51 C :   -0.022558
  52 C :   -0.018957
  53 S :   -0.026275
  54 C :   -0.106788
  55 C :    0.105824
  56 C :   -0.108461
  57 S :   -0.029945
  58 C :   -0.002004
  59 C :   -0.027548
  60 H :    0.019376
  61 H :    0.062295
  62 H :    0.047462
  63 H :    0.020695
  64 H :    0.049678
  65 H :    0.048568
  66 H :    0.049654
  67 H :    0.018822
  68 H :   -0.012353
  69 H :    0.076995
  70 H :    0.055724
  71 H :    0.017922
  72 H :    0.017005
  73 H :    0.052337
  74 H :    0.073734
  75 H :    0.027751
  76 H :   -0.015801
  77 H :    0.077383
  78 H :    0.055628
  79 H :    0.018830
  80 H :    0.017095
  81 H :    0.054569
  82 H :    0.077307
  83 H :   -0.015425
  84 H :    0.024700
  85 H :    0.075757
  86 H :    0.052691
  87 H :    0.018223
  88 H :    0.017035
  89 H :    0.053946
  90 H :    0.075984
  91 H :    0.003934
  92 H :    0.004226
  93 H :    0.074528
  94 H :    0.053928
  95 H :    0.018361
  96 H :    0.018814
  97 H :    0.053475
  98 H :    0.075047
  99 H :    0.004417
 100 H :    0.020725
 101 H :    0.022727
Sum of atomic charges:    0.0000000

LOEWDIN ATOMIC CHARGES
----------------------
   0 C :   -0.207490
   1 S :    0.431594
   2 C :   -0.173116
   3 C :   -0.225388
   4 C :   -0.213539
   5 S :    0.272334
   6 C :   -0.135225
   7 C :   -0.063204
   8 C :   -0.124414
   9 S :    0.277793
  10 C :   -0.047437
  11 C :   -0.054334
  12 C :   -0.183338
  13 S :    0.430698
  14 C :   -0.189444
  15 C :   -0.207751
  16 C :   -0.211295
  17 S :    0.312501
  18 C :   -0.133714
  19 C :   -0.063135
  20 C :   -0.134002
  21 S :    0.294755
  22 C :   -0.052373
  23 C :   -0.058195
  24 C :   -0.187675
  25 S :    0.436653
  26 C :   -0.186899
  27 C :   -0.211310
  28 C :   -0.210500
  29 S :    0.314807
  30 C :   -0.133782
  31 C :   -0.063296
  32 C :   -0.133511
  33 S :    0.313876
  34 C :   -0.058032
  35 C :   -0.051233
  36 C :   -0.182919
  37 S :    0.430095
  38 C :   -0.183564
  39 C :   -0.209716
  40 C :   -0.209208
  41 S :    0.292440
  42 C :   -0.133561
  43 C :   -0.063129
  44 C :   -0.132716
  45 S :    0.288225
  46 C :   -0.050350
  47 C :   -0.050630
  48 C :   -0.184238
  49 S :    0.434494
  50 C :   -0.189382
  51 C :   -0.207628
  52 C :   -0.211027
  53 S :    0.289623
  54 C :   -0.133149
  55 C :   -0.063135
  56 C :   -0.133254
  57 S :    0.285496
  58 C :   -0.043468
  59 C :   -0.051195
  60 H :    0.022692
  61 H :    0.016851
  62 H :    0.025806
  63 H :    0.032407
  64 H :    0.031641
  65 H :    0.023522
  66 H :    0.024157
  67 H :    0.012110
  68 H :    0.019701
  69 H :    0.027226
  70 H :    0.029831
  71 H :    0.027232
  72 H :    0.027021
  73 H :    0.028377
  74 H :    0.025860
  75 H :    0.009762
  76 H :    0.018643
  77 H :    0.026967
  78 H :    0.029650
  79 H :    0.027433
  80 H :    0.027077
  81 H :    0.029481
  82 H :    0.027148
  83 H :    0.019073
  84 H :    0.010437
  85 H :    0.026591
  86 H :    0.028454
  87 H :    0.027395
  88 H :    0.027154
  89 H :    0.028822
  90 H :    0.027062
  91 H :    0.019627
  92 H :    0.019241
  93 H :    0.026327
  94 H :    0.029074
  95 H :    0.027499
  96 H :    0.027727
  97 H :    0.028739
  98 H :    0.026811
  99 H :    0.027577
 100 H :    0.016510
 101 H :    0.025802

  Mayer bond orders larger than 0.100000
B(  0-C ,  1-S ) :   1.1394 B(  0-C ,  4-C ) :   1.5941 B(  0-C , 60-H ) :   0.9692
B(  1-S ,  2-C ) :   1.1325 B(  2-C ,  3-C ) :   1.5377 B(  2-C , 10-C ) :   1.1764
B(  3-C ,  4-C ) :   1.2344 B(  3-C ,  9-S ) :   1.0392 B(  4-C ,  5-S ) :   1.0018
B(  5-S ,  6-C ) :   0.9850 B(  6-C ,  7-C ) :   1.0505 B(  6-C , 61-H ) :   0.9494
B(  6-C , 62-H ) :   0.9527 B(  7-C ,  8-C ) :   1.0659 B(  7-C , 63-H ) :   0.9386
B(  7-C , 64-H ) :   0.9446 B(  8-C ,  9-S ) :   1.0013 B(  8-C , 65-H ) :   0.9501
B(  8-C , 66-H ) :   0.9516 B( 10-C , 11-C ) :   1.6564 B( 10-C , 67-H ) :   0.9467
B( 11-C , 12-C ) :   1.1476 B( 11-C , 68-H ) :   0.9503 B( 12-C , 13-S ) :   1.1104
B( 12-C , 14-C ) :   0.1030 B( 12-C , 16-C ) :   1.5351 B( 13-S , 14-C ) :   1.1005
B( 14-C , 15-C ) :   1.5350 B( 14-C , 22-C ) :   1.1851 B( 15-C , 16-C ) :   1.2625
B( 15-C , 21-S ) :   1.0101 B( 16-C , 17-S ) :   1.0085 B( 17-S , 18-C ) :   1.0009
B( 18-C , 19-C ) :   1.0449 B( 18-C , 69-H ) :   0.9379 B( 18-C , 70-H ) :   0.9541
B( 19-C , 20-C ) :   1.0426 B( 19-C , 71-H ) :   0.9396 B( 19-C , 72-H ) :   0.9394
B( 20-C , 21-S ) :   1.0055 B( 20-C , 73-H ) :   0.9543 B( 20-C , 74-H ) :   0.9387
B( 22-C , 23-C ) :   1.6500 B( 22-C , 75-H ) :   0.9433 B( 23-C , 24-C ) :   1.1562
B( 23-C , 76-H ) :   0.9476 B( 24-C , 25-S ) :   1.1153 B( 24-C , 26-C ) :   0.1049
B( 24-C , 28-C ) :   1.5217 B( 25-S , 26-C ) :   1.1149 B( 26-C , 27-C ) :   1.5222
B( 26-C , 34-C ) :   1.1584 B( 27-C , 28-C ) :   1.2685 B( 27-C , 33-S ) :   1.0054
B( 28-C , 29-S ) :   1.0072 B( 29-S , 30-C ) :   1.0019 B( 30-C , 31-C ) :   1.0455
B( 30-C , 77-H ) :   0.9376 B( 30-C , 78-H ) :   0.9542 B( 31-C , 32-C ) :   1.0439
B( 31-C , 79-H ) :   0.9400 B( 31-C , 80-H ) :   0.9397 B( 32-C , 33-S ) :   1.0017
B( 32-C , 81-H ) :   0.9543 B( 32-C , 82-H ) :   0.9377 B( 34-C , 35-C ) :   1.6449
B( 34-C , 83-H ) :   0.9453 B( 35-C , 36-C ) :   1.1966 B( 35-C , 84-H ) :   0.9427
B( 36-C , 37-S ) :   1.0930 B( 36-C , 38-C ) :   0.1045 B( 36-C , 40-C ) :   1.5327
B( 37-S , 38-C ) :   1.1002 B( 38-C , 39-C ) :   1.5322 B( 38-C , 46-C ) :   1.1817
B( 39-C , 40-C ) :   1.2702 B( 39-C , 45-S ) :   1.0069 B( 40-C , 41-S ) :   1.0100
B( 41-S , 42-C ) :   1.0059 B( 42-C , 43-C ) :   1.0421 B( 42-C , 85-H ) :   0.9391
B( 42-C , 86-H ) :   0.9546 B( 43-C , 44-C ) :   1.0407 B( 43-C , 87-H ) :   0.9399
B( 43-C , 88-H ) :   0.9395 B( 44-C , 45-S ) :   1.0050 B( 44-C , 89-H ) :   0.9547
B( 44-C , 90-H ) :   0.9396 B( 46-C , 47-C ) :   1.6388 B( 46-C , 91-H ) :   0.9600
B( 47-C , 48-C ) :   1.1779 B( 47-C , 92-H ) :   0.9592 B( 48-C , 49-S ) :   1.1063
B( 48-C , 50-C ) :   0.1026 B( 48-C , 52-C ) :   1.5399 B( 49-S , 50-C ) :   1.1005
B( 50-C , 51-C ) :   1.5688 B( 50-C , 58-C ) :   1.1325 B( 51-C , 52-C ) :   1.2591
B( 51-C , 57-S ) :   1.0049 B( 52-C , 53-S ) :   1.0082 B( 53-S , 54-C ) :   1.0056
B( 54-C , 55-C ) :   1.0427 B( 54-C , 93-H ) :   0.9391 B( 54-C , 94-H ) :   0.9541
B( 55-C , 56-C ) :   1.0418 B( 55-C , 95-H ) :   0.9395 B( 55-C , 96-H ) :   0.9395
B( 56-C , 57-S ) :   1.0055 B( 56-C , 97-H ) :   0.9544 B( 56-C , 98-H ) :   0.9396
B( 58-C , 59-C ) :   1.9167 B( 58-C , 99-H ) :   0.9526 B( 59-C ,100-H ) :   0.9561
B( 59-C ,101-H ) :   0.9491

-----------------------------------------------------------------------------
         ABSORPTION SPECTRUM VIA TRANSITION ELECTRIC DIPOLE MOMENTS
-----------------------------------------------------------------------------
State   Energy  Wavelength   fosc         T2         TX        TY        TZ
        (cm-1)    (nm)                  (au**2)     (au)      (au)      (au)
-----------------------------------------------------------------------------
   0   17940.1    557.4   1.953125637  35.84103  -0.53368   2.66091  -5.33627
   1   23032.0    434.2   1.190534170  17.01710  -0.65851  -3.91611  -1.11695
   2   24401.2    409.8   0.027854322   0.37580   0.08119   0.60194   0.08294
   3   27271.1    366.7   0.007525367   0.09084  -0.05298   0.00222  -0.29670
   4   28183.6    354.8   0.019991132   0.23352  -0.12596  -0.41760  -0.20799
   5   28344.3    352.8   0.011437066   0.13284  -0.13247   0.02258  -0.33879
   6   28611.8    349.5   0.157221759   1.80902  -0.26775  -1.05953  -0.78404
   7   29108.8    343.5   0.116694857   1.31979   0.07041  -1.07508   0.39879
   8   29646.9    337.3   0.055527221   0.61660   0.09750  -0.09495   0.77335
   9   31316.6    319.3   0.057046268   0.59969  -0.04300  -0.06200   0.77071
  10   31759.6    314.9   0.065604925   0.68004   0.04554  -0.49773   0.65592
  11   32197.7    310.6   0.083342767   0.85216   0.25300   0.25107   0.85153
  12   33268.9    300.6   0.074924178   0.74141  -0.29515  -0.77113  -0.24424
  13   34253.8    291.9   0.008843319   0.08499  -0.17309  -0.12152  -0.20066
  14   35037.8    285.4   0.088546931   0.83198  -0.07952   0.41635  -0.80766
  15   35222.9    283.9   0.011211288   0.10479   0.03402  -0.07691   0.31259
  16   36040.5    277.5   0.013197969   0.12056  -0.03774   0.18921  -0.28867
  17   36158.4    276.6   0.034676928   0.31572  -0.12299  -0.33805  -0.43164
  18   36875.0    271.2   0.006524539   0.05825  -0.02289  -0.23645  -0.04264
  19   37379.0    267.5   0.013636663   0.12010   0.03922   0.14388   0.31283
  20   38415.6    260.3   0.101066025   0.86611  -0.10531   0.90048  -0.21012
  21   38817.5    257.6   0.034751920   0.29473  -0.03962  -0.48149   0.24765
  22   39129.8    255.6   0.325251156   2.73644   0.08244   1.61438  -0.35131
  23   39744.0    251.6   0.050922469   0.42181  -0.00743   0.40081  -0.51098
  24   39790.5    251.3   0.071289323   0.58982  -0.04135   0.54135  -0.54318
  25   39979.6    250.1   0.087263384   0.71857   0.24439   0.33620   0.73879

FINAL SINGLE POINT ENERGY     -7708.815454000926

DIPOLE MOMENT
-------------
                                X             Y             Z
Electronic contribution:      4.72642     -12.06801      -9.99861
Nuclear contribution   :     -5.15245      13.14172      11.32947
                        -----------------------------------------
Total Dipole Moment    :     -0.42603       1.07371       1.33086
                        -----------------------------------------
Magnitude (a.u.)       :      1.76226
Magnitude (Debye)      :      4.47930

Rotational constants in cm-1:     0.001030     0.000250     0.000203
Rotational constants in MHz :    30.888495     7.509109     6.093514

                             ****ORCA TERMINATED NORMALLY****
TOTAL RUN TIME: 0 days 0 hours 9 minutes 43 seconds 196 msec
