                         Program Version 4.2.0 -  RELEASE  -
|  1> # ORCA input file
|  2> # SCF done       -197.532038157470          0.000620840006
|  3> ! CAM-B3LYP def2-SVP def2/J RIJCOSX Grid4 TightSCF
|  4> %maxcore 5000
|  5> %tddft
|  6>     Mode sTDDFT
|  7>     Ethresh 5.0
|  8>     maxcore 5000
|  9> end
| 10>
| 11> %pal
| 12>   nprocs 6
| 13>   end
| 14> * xyz 0 1
| 15>    C       -9.20101         4.69915        -6.90533
| 16>    S       -8.95687         6.08001        -5.92407
| 17>    C       -8.61429         5.08926        -4.52958
| 18>    C       -8.69013         3.74922        -4.85793
| 19>    C       -9.02455         3.53077        -6.21978
| 20>    S       -9.13433         1.99087        -7.06945
| 21>    C       -9.95850         0.86646        -5.86715
| 22>    C      -10.84386         1.58506        -4.85944
| 23>    C      -10.12939         1.81918        -3.53511
| 24>    S       -8.41120         2.42364        -3.72709
| 25>    C       -8.33923         5.76221        -3.30397
| 26>    C       -7.82256         5.21726        -2.17971
| 27>    C       -7.62058         5.98172        -0.99828
| 28>    O       -7.07362         5.37946         0.09304
| 29>    C       -7.88419         7.29840        -0.67425
| 30>    C       -8.42298         8.56033        -1.17416
| 31>    O       -8.87843         8.86330        -2.24902
| 32>    N       -8.30941         9.42410        -0.08507
| 33>    C       -7.75804         8.86201         1.06153
| 34>    O       -7.59269         9.44512         2.10653
| 35>    C       -7.47711         7.48266         0.67478
| 36>    C       -6.97905         6.27169         1.11357
| 37>    C       -6.45292         5.84931         2.36827
| 38>    C       -6.38062         6.68398         3.42431
| 39>    C       -5.85863         6.29419         4.71378
| 40>    C       -4.82972         5.39617         4.78064
| 41>    S       -4.32329         4.99033         6.36489
| 42>    C       -5.56492         6.01548         7.01423
| 43>    C       -6.30940         6.68896         6.03430
| 44>    C       -7.37897         7.51874         6.45657
| 45>    C       -8.10884         8.33534         5.42159
| 46>    C       -9.21041         7.54010         4.72040
| 47>    C       -7.73567         7.58232         7.80171
| 48>    C       -9.03118         8.23564         8.21424
| 49>    C      -10.01484         7.19202         8.75013
| 50>    C       -6.93019         6.95715         8.78943
| 51>    C       -7.01094         6.93292        10.24132
| 52>    C       -6.02536         6.14370        10.78421
| 53>    S       -4.96382         5.43023         9.65678
| 54>    C       -5.84587         6.17825         8.35946
| 55>    C       -7.91885         7.64065        11.09526
| 56>    C       -8.18620         7.31215        12.38875
| 57>    C       -9.07471         8.04232        13.19692
| 58>    C       -9.35615         7.73173        14.50372
| 59>    C      -10.25206         8.39886        15.37332
| 60>    C      -10.31643         7.86563        16.62556
| 61>    C       -9.46799         6.75189        16.81503
| 62>    S       -8.59502         6.39144        15.35129
| 63>    C       -9.28253         6.00599        17.96849
| 64>    C       -9.90888         6.16368        19.22033
| 65>    C       -9.48329         5.26972        20.16166
| 66>    C       -8.50055         4.36827        19.69904
| 67>    S       -8.13977         4.68194        18.01792
| 68>    C       -7.87284         3.37629        20.43253
| 69>    C       -6.90002         2.54544        19.89351
| 70>    C       -6.21590         1.56318        20.58634
| 71>    C       -5.19944         0.69332        20.05883
| 72>    C       -4.73221         0.64084        18.76407
| 73>    C       -3.73397        -0.24723        18.31996
| 74>    N       -2.92627        -0.94382        17.89175
| 75>    C       -5.16959         1.44648        17.69517
| 76>    N       -5.46069         2.05546        16.76435
| 77>    C       -4.72987        -0.15691        21.15266
| 78>    C       -5.45089         0.17519        22.32468
| 79>    C       -6.40986         1.25846        22.01427
| 80>    O       -7.18474         1.77423        22.79804
| 81>    C       -5.23700        -0.44766        23.52862
| 82>    C       -4.26095        -1.44956        23.58103
| 83>    C       -3.54551        -1.77396        22.40630
| 84>    C       -3.76322        -1.14288        21.18665
| 85>    S       -2.38548        -3.03711        22.69246
| 86>    C       -2.87315        -3.10942        24.36479
| 87>    C       -3.85254        -2.23527        24.69417
| 88>   Br       -2.04151        -4.33293        25.51930
| 89>    H       -9.43489         4.80364        -7.94553
| 90>    H       -9.18224         0.28646        -5.36810
| 91>    H      -10.53997         0.20406        -6.50699
| 92>    H      -11.73518         0.98458        -4.66015
| 93>    H      -11.18127         2.53830        -5.27430
| 94>    H      -10.01540         0.88681        -2.98236
| 95>    H      -10.66837         2.53893        -2.91842
| 96>    H       -8.56730         6.82100        -3.30840
| 97>    H       -7.53662         4.17864        -2.12445
| 98>    H       -8.60521        10.38894        -0.12796
| 99>    H       -6.15571         4.81290         2.43202
|100>    H       -6.72201         7.69630         3.28421
|101>    H       -4.30224         4.97224         3.94855
|102>    H       -8.53859         9.22902         5.87258
|103>    H       -7.39460         8.69994         4.68779
|104>    H       -9.99879         7.27320         5.42062
|105>    H       -8.80931         6.62453         4.29194
|106>    H       -9.64112         8.13506         3.91895
|107>    H       -9.50831         8.71912         7.36720
|108>    H       -8.85032         9.01510         8.95461
|109>    H      -10.21824         6.44997         7.98115
|110>    H      -10.95290         7.66979         9.02459
|111>    H       -9.62318         6.67638         9.62267
|112>    H       -5.83805         5.98305        11.82757
|113>    H       -8.41556         8.51060        10.69838
|114>    H       -7.73408         6.43763        12.83599
|115>    H       -9.57525         8.90167        12.76936
|116>    H      -10.82120         9.25071        15.04495
|117>    H      -10.94234         8.24346        17.41370
|118>    H      -10.64967         6.92249        19.39842
|119>    H       -9.84256         5.23335        21.17466
|120>    H       -8.15143         3.25819        21.46953
|121>    H       -6.65912         2.69356        18.84781
|122>    H       -5.80323        -0.17124        24.40428
|123>    H       -3.18938        -1.42729        20.32077
|124>    H       -4.27111        -2.14556        25.67997
|125> *
|126>
|127>                          ****END OF INPUT****

CARTESIAN COORDINATES (ANGSTROEM)
---------------------------------
  C     -9.201010    4.699150   -6.905330
  S     -8.956870    6.080010   -5.924070
  C     -8.614290    5.089260   -4.529580
  C     -8.690130    3.749220   -4.857930
  C     -9.024550    3.530770   -6.219780
  S     -9.134330    1.990870   -7.069450
  C     -9.958500    0.866460   -5.867150
  C    -10.843860    1.585060   -4.859440
  C    -10.129390    1.819180   -3.535110
  S     -8.411200    2.423640   -3.727090
  C     -8.339230    5.762210   -3.303970
  C     -7.822560    5.217260   -2.179710
  C     -7.620580    5.981720   -0.998280
  O     -7.073620    5.379460    0.093040
  C     -7.884190    7.298400   -0.674250
  C     -8.422980    8.560330   -1.174160
  O     -8.878430    8.863300   -2.249020
  N     -8.309410    9.424100   -0.085070
  C     -7.758040    8.862010    1.061530
  O     -7.592690    9.445120    2.106530
  C     -7.477110    7.482660    0.674780
  C     -6.979050    6.271690    1.113570
  C     -6.452920    5.849310    2.368270
  C     -6.380620    6.683980    3.424310
  C     -5.858630    6.294190    4.713780
  C     -4.829720    5.396170    4.780640
  S     -4.323290    4.990330    6.364890
  C     -5.564920    6.015480    7.014230
  C     -6.309400    6.688960    6.034300
  C     -7.378970    7.518740    6.456570
  C     -8.108840    8.335340    5.421590
  C     -9.210410    7.540100    4.720400
  C     -7.735670    7.582320    7.801710
  C     -9.031180    8.235640    8.214240
  C    -10.014840    7.192020    8.750130
  C     -6.930190    6.957150    8.789430
  C     -7.010940    6.932920   10.241320
  C     -6.025360    6.143700   10.784210
  S     -4.963820    5.430230    9.656780
  C     -5.845870    6.178250    8.359460
  C     -7.918850    7.640650   11.095260
  C     -8.186200    7.312150   12.388750
  C     -9.074710    8.042320   13.196920
  C     -9.356150    7.731730   14.503720
  C    -10.252060    8.398860   15.373320
  C    -10.316430    7.865630   16.625560
  C     -9.467990    6.751890   16.815030
  S     -8.595020    6.391440   15.351290
  C     -9.282530    6.005990   17.968490
  C     -9.908880    6.163680   19.220330
  C     -9.483290    5.269720   20.161660
  C     -8.500550    4.368270   19.699040
  S     -8.139770    4.681940   18.017920
  C     -7.872840    3.376290   20.432530
  C     -6.900020    2.545440   19.893510
  C     -6.215900    1.563180   20.586340
  C     -5.199440    0.693320   20.058830
  C     -4.732210    0.640840   18.764070
  C     -3.733970   -0.247230   18.319960
  N     -2.926270   -0.943820   17.891750
  C     -5.169590    1.446480   17.695170
  N     -5.460690    2.055460   16.764350
  C     -4.729870   -0.156910   21.152660
  C     -5.450890    0.175190   22.324680
  C     -6.409860    1.258460   22.014270
  O     -7.184740    1.774230   22.798040
  C     -5.237000   -0.447660   23.528620
  C     -4.260950   -1.449560   23.581030
  C     -3.545510   -1.773960   22.406300
  C     -3.763220   -1.142880   21.186650
  S     -2.385480   -3.037110   22.692460
  C     -2.873150   -3.109420   24.364790
  C     -3.852540   -2.235270   24.694170
  Br    -2.041510   -4.332930   25.519300
  H     -9.434890    4.803640   -7.945530
  H     -9.182240    0.286460   -5.368100
  H    -10.539970    0.204060   -6.506990
  H    -11.735180    0.984580   -4.660150
  H    -11.181270    2.538300   -5.274300
  H    -10.015400    0.886810   -2.982360
  H    -10.668370    2.538930   -2.918420
  H     -8.567300    6.821000   -3.308400
  H     -7.536620    4.178640   -2.124450
  H     -8.605210   10.388940   -0.127960
  H     -6.155710    4.812900    2.432020
  H     -6.722010    7.696300    3.284210
  H     -4.302240    4.972240    3.948550
  H     -8.538590    9.229020    5.872580
  H     -7.394600    8.699940    4.687790
  H     -9.998790    7.273200    5.420620
  H     -8.809310    6.624530    4.291940
  H     -9.641120    8.135060    3.918950
  H     -9.508310    8.719120    7.367200
  H     -8.850320    9.015100    8.954610
  H    -10.218240    6.449970    7.981150
  H    -10.952900    7.669790    9.024590
  H     -9.623180    6.676380    9.622670
  H     -5.838050    5.983050   11.827570
  H     -8.415560    8.510600   10.698380
  H     -7.734080    6.437630   12.835990
  H     -9.575250    8.901670   12.769360
  H    -10.821200    9.250710   15.044950
  H    -10.942340    8.243460   17.413700
  H    -10.649670    6.922490   19.398420
  H     -9.842560    5.233350   21.174660
  H     -8.151430    3.258190   21.469530
  H     -6.659120    2.693560   18.847810
  H     -5.803230   -0.171240   24.404280
  H     -3.189380   -1.427290   20.320770
  H     -4.271110   -2.145560   25.679970

 Total Charge           Charge          ....    0
 Multiplicity           Mult            ....    1
 Number of Electrons    NEL             ....  600
 Basis Dimension        Dim             .... 1266

ORBITAL ENERGIES
----------------

  NO   OCC          E(Eh)            E(eV)
   0   2.0000    -482.873991    -13139.6693
   1   2.0000     -88.961668     -2420.7700
   2   2.0000     -88.960904     -2420.7493
   3   2.0000     -88.960626     -2420.7417
   4   2.0000     -88.959133     -2420.7011
   5   2.0000     -88.957933     -2420.6684
   6   2.0000     -88.954357     -2420.5711
   7   2.0000     -88.924886     -2419.7692
   8   2.0000     -88.917452     -2419.5669
   9   2.0000     -62.551693     -1702.1181
  10   2.0000     -56.385626     -1534.3309
  11   2.0000     -56.382945     -1534.2579
  12   2.0000     -56.382903     -1534.2568
  13   2.0000     -19.306679      -525.3614
  14   2.0000     -19.213245      -522.8190
  15   2.0000     -19.211209      -522.7636
  16   2.0000     -19.194222      -522.3013
  17   2.0000     -14.454741      -393.3335
  18   2.0000     -14.395959      -391.7340
  19   2.0000     -14.393245      -391.6601
  20   2.0000     -10.400372      -283.0085
  21   2.0000     -10.398645      -282.9615
  22   2.0000     -10.357495      -281.8418
  23   2.0000     -10.355646      -281.7914
  24   2.0000     -10.344646      -281.4921
  25   2.0000     -10.344486      -281.4878
  26   2.0000     -10.333887      -281.1994
  27   2.0000     -10.321722      -280.8683
  28   2.0000     -10.318648      -280.7847
  29   2.0000     -10.318438      -280.7790
  30   2.0000     -10.316220      -280.7186
  31   2.0000     -10.315904      -280.7100
  32   2.0000     -10.308837      -280.5177
  33   2.0000     -10.308778      -280.5161
  34   2.0000     -10.305489      -280.4266
  35   2.0000     -10.305036      -280.4143
  36   2.0000     -10.303902      -280.3834
  37   2.0000     -10.303512      -280.3728
  38   2.0000     -10.302496      -280.3452
  39   2.0000     -10.301543      -280.3192
  40   2.0000     -10.300886      -280.3014
  41   2.0000     -10.300784      -280.2986
  42   2.0000     -10.300502      -280.2909
  43   2.0000     -10.300320      -280.2860
  44   2.0000     -10.300252      -280.2841
  45   2.0000     -10.300174      -280.2820
  46   2.0000     -10.298653      -280.2406
  47   2.0000     -10.297982      -280.2223
  48   2.0000     -10.295615      -280.1579
  49   2.0000     -10.295004      -280.1413
  50   2.0000     -10.292431      -280.0713
  51   2.0000     -10.291731      -280.0522
  52   2.0000     -10.290688      -280.0239
  53   2.0000     -10.290504      -280.0189
  54   2.0000     -10.289617      -279.9947
  55   2.0000     -10.288907      -279.9754
  56   2.0000     -10.288469      -279.9635
  57   2.0000     -10.287557      -279.9387
  58   2.0000     -10.287122      -279.9268
  59   2.0000     -10.287043      -279.9247
  60   2.0000     -10.286983      -279.9230
  61   2.0000     -10.286705      -279.9155
  62   2.0000     -10.284393      -279.8526
  63   2.0000     -10.283431      -279.8264
  64   2.0000     -10.283227      -279.8208
  65   2.0000     -10.283099      -279.8174
  66   2.0000     -10.283040      -279.8158
  67   2.0000     -10.282650      -279.8051
  68   2.0000     -10.281402      -279.7712
  69   2.0000     -10.280399      -279.7439
  70   2.0000     -10.278948      -279.7044
  71   2.0000     -10.272765      -279.5362
  72   2.0000     -10.270525      -279.4752
  73   2.0000     -10.269503      -279.4474
  74   2.0000     -10.266937      -279.3776
  75   2.0000     -10.260573      -279.2044
  76   2.0000     -10.259155      -279.1658
  77   2.0000     -10.253072      -279.0003
  78   2.0000      -8.781105      -238.9460
  79   2.0000      -8.057897      -219.2665
  80   2.0000      -8.056974      -219.2414
  81   2.0000      -8.056908      -219.2396
  82   2.0000      -8.055156      -219.1919
  83   2.0000      -8.054103      -219.1633
  84   2.0000      -8.050281      -219.0593
  85   2.0000      -8.019788      -218.2295
  86   2.0000      -8.013058      -218.0464
  87   2.0000      -6.617326      -180.0666
  88   2.0000      -6.602861      -179.6730
  89   2.0000      -6.602715      -179.6690
  90   2.0000      -6.027254      -164.0099
  91   2.0000      -6.026609      -163.9924
  92   2.0000      -6.026587      -163.9918
  93   2.0000      -6.024344      -163.9307
  94   2.0000      -6.023551      -163.9092
  95   2.0000      -6.023039      -163.8952
  96   2.0000      -6.022598      -163.8832
  97   2.0000      -6.022349      -163.8764
  98   2.0000      -6.020175      -163.8173
  99   2.0000      -6.019845      -163.8083
 100   2.0000      -6.019804      -163.8072
 101   2.0000      -6.019339      -163.7945
 102   2.0000      -6.018124      -163.7615
 103   2.0000      -6.017983      -163.7576
 104   2.0000      -6.017402      -163.7418
 105   2.0000      -6.015887      -163.7006
 106   2.0000      -6.015849      -163.6996
 107   2.0000      -6.011519      -163.5817
 108   2.0000      -5.990463      -163.0088
 109   2.0000      -5.986388      -162.8979
 110   2.0000      -5.983839      -162.8285
 111   2.0000      -5.979422      -162.7084
 112   2.0000      -5.979053      -162.6983
 113   2.0000      -5.972342      -162.5157
 114   2.0000      -2.733222       -74.3748
 115   2.0000      -2.729138       -74.2636
 116   2.0000      -2.729028       -74.2606
 117   2.0000      -2.717535       -73.9479
 118   2.0000      -2.717516       -73.9474
 119   2.0000      -1.222489       -33.2656
 120   2.0000      -1.155450       -31.4414
 121   2.0000      -1.134950       -30.8836
 122   2.0000      -1.107351       -30.1325
 123   2.0000      -1.042121       -28.3576
 124   2.0000      -1.009208       -27.4620
 125   2.0000      -1.008206       -27.4347
 126   2.0000      -1.005040       -27.3485
 127   2.0000      -0.995002       -27.0754
 128   2.0000      -0.994363       -27.0580
 129   2.0000      -0.985608       -26.8197
 130   2.0000      -0.979145       -26.6439
 131   2.0000      -0.973884       -26.5007
 132   2.0000      -0.969544       -26.3826
 133   2.0000      -0.931061       -25.3355
 134   2.0000      -0.928851       -25.2753
 135   2.0000      -0.927506       -25.2387
 136   2.0000      -0.926005       -25.1979
 137   2.0000      -0.924003       -25.1434
 138   2.0000      -0.921170       -25.0663
 139   2.0000      -0.903250       -24.5787
 140   2.0000      -0.899820       -24.4853
 141   2.0000      -0.890720       -24.2377
 142   2.0000      -0.884955       -24.0808
 143   2.0000      -0.879510       -23.9327
 144   2.0000      -0.869903       -23.6713
 145   2.0000      -0.868475       -23.6324
 146   2.0000      -0.866158       -23.5694
 147   2.0000      -0.858958       -23.3734
 148   2.0000      -0.857196       -23.3255
 149   2.0000      -0.855314       -23.2743
 150   2.0000      -0.848961       -23.1014
 151   2.0000      -0.836475       -22.7616
 152   2.0000      -0.833398       -22.6779
 153   2.0000      -0.824303       -22.4304
 154   2.0000      -0.818306       -22.2672
 155   2.0000      -0.812347       -22.1051
 156   2.0000      -0.802847       -21.8466
 157   2.0000      -0.794793       -21.6274
 158   2.0000      -0.782307       -21.2877
 159   2.0000      -0.776667       -21.1342
 160   2.0000      -0.767682       -20.8897
 161   2.0000      -0.766815       -20.8661
 162   2.0000      -0.761310       -20.7163
 163   2.0000      -0.753819       -20.5124
 164   2.0000      -0.739840       -20.1321
 165   2.0000      -0.738580       -20.0978
 166   2.0000      -0.726547       -19.7703
 167   2.0000      -0.720711       -19.6115
 168   2.0000      -0.713415       -19.4130
 169   2.0000      -0.706052       -19.2126
 170   2.0000      -0.702503       -19.1161
 171   2.0000      -0.698880       -19.0175
 172   2.0000      -0.696408       -18.9502
 173   2.0000      -0.679082       -18.4788
 174   2.0000      -0.678750       -18.4697
 175   2.0000      -0.675214       -18.3735
 176   2.0000      -0.671001       -18.2589
 177   2.0000      -0.669976       -18.2310
 178   2.0000      -0.655167       -17.8280
 179   2.0000      -0.650921       -17.7125
 180   2.0000      -0.642291       -17.4776
 181   2.0000      -0.640687       -17.4340
 182   2.0000      -0.639810       -17.4101
 183   2.0000      -0.637864       -17.3572
 184   2.0000      -0.628433       -17.1005
 185   2.0000      -0.622794       -16.9471
 186   2.0000      -0.614544       -16.7226
 187   2.0000      -0.613508       -16.6944
 188   2.0000      -0.605363       -16.4728
 189   2.0000      -0.605229       -16.4691
 190   2.0000      -0.598656       -16.2903
 191   2.0000      -0.598082       -16.2746
 192   2.0000      -0.594160       -16.1679
 193   2.0000      -0.585823       -15.9411
 194   2.0000      -0.582029       -15.8378
 195   2.0000      -0.580988       -15.8095
 196   2.0000      -0.578471       -15.7410
 197   2.0000      -0.575275       -15.6540
 198   2.0000      -0.564293       -15.3552
 199   2.0000      -0.561248       -15.2723
 200   2.0000      -0.556701       -15.1486
 201   2.0000      -0.553481       -15.0610
 202   2.0000      -0.552394       -15.0314
 203   2.0000      -0.550462       -14.9788
 204   2.0000      -0.544114       -14.8061
 205   2.0000      -0.542207       -14.7542
 206   2.0000      -0.541305       -14.7297
 207   2.0000      -0.536945       -14.6110
 208   2.0000      -0.534866       -14.5544
 209   2.0000      -0.529681       -14.4134
 210   2.0000      -0.527174       -14.3451
 211   2.0000      -0.521425       -14.1887
 212   2.0000      -0.520373       -14.1601
 213   2.0000      -0.520226       -14.1561
 214   2.0000      -0.514625       -14.0036
 215   2.0000      -0.512647       -13.9498
 216   2.0000      -0.510733       -13.8978
 217   2.0000      -0.510617       -13.8946
 218   2.0000      -0.509348       -13.8601
 219   2.0000      -0.508668       -13.8416
 220   2.0000      -0.507011       -13.7965
 221   2.0000      -0.501678       -13.6513
 222   2.0000      -0.498345       -13.5607
 223   2.0000      -0.496915       -13.5217
 224   2.0000      -0.495884       -13.4937
 225   2.0000      -0.493913       -13.4401
 226   2.0000      -0.492326       -13.3969
 227   2.0000      -0.490225       -13.3397
 228   2.0000      -0.487992       -13.2789
 229   2.0000      -0.485394       -13.2083
 230   2.0000      -0.484798       -13.1920
 231   2.0000      -0.481928       -13.1139
 232   2.0000      -0.478781       -13.0283
 233   2.0000      -0.477819       -13.0021
 234   2.0000      -0.476551       -12.9676
 235   2.0000      -0.475198       -12.9308
 236   2.0000      -0.473624       -12.8880
 237   2.0000      -0.472309       -12.8522
 238   2.0000      -0.469430       -12.7738
 239   2.0000      -0.466579       -12.6963
 240   2.0000      -0.462494       -12.5851
 241   2.0000      -0.459104       -12.4929
 242   2.0000      -0.458290       -12.4707
 243   2.0000      -0.455764       -12.4020
 244   2.0000      -0.454375       -12.3642
 245   2.0000      -0.454295       -12.3620
 246   2.0000      -0.451178       -12.2772
 247   2.0000      -0.447502       -12.1771
 248   2.0000      -0.444351       -12.0914
 249   2.0000      -0.443378       -12.0649
 250   2.0000      -0.442060       -12.0291
 251   2.0000      -0.440224       -11.9791
 252   2.0000      -0.436260       -11.8712
 253   2.0000      -0.433398       -11.7934
 254   2.0000      -0.432796       -11.7770
 255   2.0000      -0.431585       -11.7440
 256   2.0000      -0.429332       -11.6827
 257   2.0000      -0.428513       -11.6604
 258   2.0000      -0.424791       -11.5592
 259   2.0000      -0.423934       -11.5358
 260   2.0000      -0.422603       -11.4996
 261   2.0000      -0.416452       -11.3322
 262   2.0000      -0.412142       -11.2150
 263   2.0000      -0.411565       -11.1993
 264   2.0000      -0.407765       -11.0959
 265   2.0000      -0.406946       -11.0736
 266   2.0000      -0.406284       -11.0556
 267   2.0000      -0.403967       -10.9925
 268   2.0000      -0.402699       -10.9580
 269   2.0000      -0.394936       -10.7468
 270   2.0000      -0.393169       -10.6987
 271   2.0000      -0.392134       -10.6705
 272   2.0000      -0.387785       -10.5522
 273   2.0000      -0.385915       -10.5013
 274   2.0000      -0.379175       -10.3179
 275   2.0000      -0.378116       -10.2891
 276   2.0000      -0.373055       -10.1513
 277   2.0000      -0.371113       -10.0985
 278   2.0000      -0.368380       -10.0241
 279   2.0000      -0.364611        -9.9216
 280   2.0000      -0.363629        -9.8948
 281   2.0000      -0.360213        -9.8019
 282   2.0000      -0.352133        -9.5820
 283   2.0000      -0.348372        -9.4797
 284   2.0000      -0.346635        -9.4324
 285   2.0000      -0.343565        -9.3489
 286   2.0000      -0.337307        -9.1786
 287   2.0000      -0.332065        -9.0360
 288   2.0000      -0.322419        -8.7735
 289   2.0000      -0.315159        -8.5759
 290   2.0000      -0.314821        -8.5667
 291   2.0000      -0.299496        -8.1497
 292   2.0000      -0.299158        -8.1405
 293   2.0000      -0.294178        -8.0050
 294   2.0000      -0.281083        -7.6486
 295   2.0000      -0.277942        -7.5632
 296   2.0000      -0.270102        -7.3498
 297   2.0000      -0.266762        -7.2590
 298   2.0000      -0.247183        -6.7262
 299   2.0000      -0.220074        -5.9885
 300   0.0000      -0.104815        -2.8521
 301   0.0000      -0.055498        -1.5102
 302   0.0000      -0.054626        -1.4865
 303   0.0000      -0.046230        -1.2580
 304   0.0000      -0.038335        -1.0431

MULLIKEN ATOMIC CHARGES
-----------------------
   0 C :   -0.091218
   1 S :    0.148066
   2 C :   -0.117057
   3 C :   -0.062441
   4 C :   -0.036309
   5 S :   -0.003697
   6 C :   -0.065645
   7 C :    0.004457
   8 C :   -0.050001
   9 S :   -0.023436
  10 C :    0.034131
  11 C :    0.007149
  12 C :    0.106037
  13 O :   -0.195999
  14 C :   -0.072360
  15 C :    0.178884
  16 O :   -0.157020
  17 N :   -0.153960
  18 C :    0.182661
  19 O :   -0.168464
  20 C :   -0.070294
  21 C :    0.111495
  22 C :   -0.011562
  23 C :   -0.028630
  24 C :    0.071017
  25 C :   -0.116066
  26 S :    0.138973
  27 C :   -0.144982
  28 C :    0.120709
  29 C :   -0.118016
  30 C :    0.015061
  31 C :    0.039064
  32 C :   -0.122525
  33 C :    0.043522
  34 C :    0.012870
  35 C :    0.131057
  36 C :    0.072606
  37 C :   -0.113599
  38 S :    0.156530
  39 C :   -0.157754
  40 C :   -0.008921
  41 C :   -0.011681
  42 C :    0.010677
  43 C :   -0.032552
  44 C :    0.053721
  45 C :    0.017355
  46 C :   -0.022722
  47 S :    0.103636
  48 C :   -0.058885
  49 C :    0.042294
  50 C :    0.023752
  51 C :    0.004938
  52 S :    0.107075
  53 C :   -0.026797
  54 C :   -0.037715
  55 C :   -0.092384
  56 C :    0.330716
  57 C :   -0.364346
  58 C :   -0.190257
  59 N :    0.129825
  60 C :   -0.190653
  61 N :    0.126519
  62 C :    0.009969
  63 C :   -0.009259
  64 C :    0.136710
  65 O :   -0.169266
  66 C :   -0.077208
  67 C :    0.116025
  68 C :   -0.093306
  69 C :   -0.022979
  70 S :    0.176590
  71 C :   -0.123957
  72 C :    0.038504
  73 Br:    0.011531
  74 H :    0.024289
  75 H :    0.061398
  76 H :    0.051254
  77 H :    0.024935
  78 H :    0.049625
  79 H :    0.052845
  80 H :    0.053119
  81 H :    0.003729
  82 H :   -0.003456
  83 H :    0.136062
  84 H :   -0.016346
  85 H :    0.035409
  86 H :    0.023546
  87 H :    0.004255
  88 H :    0.020398
  89 H :   -0.002004
  90 H :    0.015338
  91 H :    0.017065
  92 H :   -0.003518
  93 H :    0.007384
  94 H :    0.016159
  95 H :    0.010152
  96 H :    0.028531
  97 H :    0.033303
  98 H :   -0.011477
  99 H :    0.008711
 100 H :   -0.006822
 101 H :   -0.004885
 102 H :   -0.007791
 103 H :   -0.007676
 104 H :   -0.003256
 105 H :    0.013763
 106 H :    0.013087
 107 H :   -0.017576
 108 H :   -0.011397
 109 H :   -0.008355
Sum of atomic charges:   -0.0000000

LOEWDIN ATOMIC CHARGES
----------------------
   0 C :   -0.203681
   1 S :    0.459373
   2 C :   -0.180159
   3 C :   -0.217969
   4 C :   -0.215373
   5 S :    0.273573
   6 C :   -0.133896
   7 C :   -0.062369
   8 C :   -0.121583
   9 S :    0.291826
  10 C :   -0.014518
  11 C :   -0.048405
  12 C :    0.069272
  13 O :    0.018439
  14 C :   -0.108018
  15 C :    0.088008
  16 O :   -0.165062
  17 N :   -0.001526
  18 C :    0.089515
  19 O :   -0.171839
  20 C :   -0.110632
  21 C :    0.070085
  22 C :   -0.051114
  23 C :    0.022550
  24 C :   -0.064190
  25 C :   -0.160917
  26 S :    0.424229
  27 C :   -0.178253
  28 C :   -0.037896
  29 C :   -0.014447
  30 C :   -0.029970
  31 C :   -0.051062
  32 C :   -0.021233
  33 C :   -0.030162
  34 C :   -0.050228
  35 C :   -0.038263
  36 C :   -0.072336
  37 C :   -0.152025
  38 S :    0.442084
  39 C :   -0.178456
  40 C :    0.016690
  41 C :   -0.043856
  42 C :   -0.015264
  43 C :   -0.162108
  44 C :   -0.009843
  45 C :   -0.042559
  46 C :   -0.144248
  47 S :    0.398172
  48 C :   -0.200134
  49 C :   -0.007785
  50 C :   -0.047375
  51 C :   -0.102362
  52 S :    0.412067
  53 C :   -0.077871
  54 C :    0.048748
  55 C :   -0.113421
  56 C :    0.073356
  57 C :   -0.160812
  58 C :   -0.018909
  59 N :   -0.073313
  60 C :   -0.020695
  61 N :   -0.072561
  62 C :   -0.017652
  63 C :   -0.048029
  64 C :    0.081292
  65 O :   -0.161926
  66 C :    0.015973
  67 C :   -0.036914
  68 C :   -0.146365
  69 C :   -0.014455
  70 S :    0.425341
  71 C :   -0.275835
  72 C :   -0.070979
  73 Br:    0.127366
  74 H :    0.025078
  75 H :    0.017943
  76 H :    0.026700
  77 H :    0.034593
  78 H :    0.032017
  79 H :    0.025723
  80 H :    0.025740
  81 H :    0.033024
  82 H :    0.022065
  83 H :    0.094066
  84 H :    0.034459
  85 H :    0.033900
  86 H :    0.024529
  87 H :    0.026620
  88 H :    0.030117
  89 H :    0.019788
  90 H :    0.023323
  91 H :    0.025929
  92 H :    0.027742
  93 H :    0.021482
  94 H :    0.026557
  95 H :    0.023720
  96 H :    0.024438
  97 H :    0.026942
  98 H :    0.030336
  99 H :    0.023322
 100 H :    0.036748
 101 H :    0.037103
 102 H :    0.034042
 103 H :    0.034271
 104 H :    0.037616
 105 H :    0.037679
 106 H :    0.030624
 107 H :    0.038071
 108 H :    0.039693
 109 H :    0.036897

  Mayer bond orders larger than 0.100000
B(  0-C ,  1-S ) :   1.1604 B(  0-C ,  4-C ) :   1.5775 B(  0-C , 74-H ) :   0.9681
B(  1-S ,  2-C ) :   1.1596 B(  2-C ,  3-C ) :   1.5203 B(  2-C , 10-C ) :   1.1336
B(  3-C ,  4-C ) :   1.2459 B(  3-C ,  9-S ) :   1.0451 B(  4-C ,  5-S ) :   1.0096
B(  5-S ,  6-C ) :   0.9784 B(  6-C ,  7-C ) :   1.0562 B(  6-C , 75-H ) :   0.9498
B(  6-C , 76-H ) :   0.9523 B(  7-C ,  8-C ) :   1.0662 B(  7-C , 77-H ) :   0.9376
B(  7-C , 78-H ) :   0.9422 B(  8-C ,  9-S ) :   1.0023 B(  8-C , 79-H ) :   0.9499
B(  8-C , 80-H ) :   0.9517 B( 10-C , 11-C ) :   1.6583 B( 10-C , 81-H ) :   0.9346
B( 11-C , 12-C ) :   1.1706 B( 11-C , 82-H ) :   0.9505 B( 12-C , 13-O ) :   1.1421
B( 12-C , 14-C ) :   1.4193 B( 13-O , 21-C ) :   1.1471 B( 14-C , 15-C ) :   0.8950
B( 14-C , 20-C ) :   1.2632 B( 15-C , 16-O ) :   2.1710 B( 15-C , 17-N ) :   1.0912
B( 17-N , 18-C ) :   1.1040 B( 17-N , 83-H ) :   0.9161 B( 18-C , 19-O ) :   2.1464
B( 18-C , 20-C ) :   0.8963 B( 20-C , 21-C ) :   1.4280 B( 21-C , 22-C ) :   1.1357
B( 22-C , 23-C ) :   1.7055 B( 22-C , 84-H ) :   0.9707 B( 23-C , 24-C ) :   1.0335
B( 23-C , 85-H ) :   0.9402 B( 24-C , 25-C ) :   1.5964 B( 24-C , 28-C ) :   1.1459
B( 25-C , 26-S ) :   1.1255 B( 25-C , 86-H ) :   0.9634 B( 26-S , 27-C ) :   1.0790
B( 27-C , 28-C ) :   1.3744 B( 27-C , 39-C ) :   1.3796 B( 28-C , 29-C ) :   1.2632
B( 29-C , 30-C ) :   1.0487 B( 29-C , 32-C ) :   1.5282 B( 30-C , 31-C ) :   1.1041
B( 30-C , 87-H ) :   0.9180 B( 30-C , 88-H ) :   0.9292 B( 31-C , 89-H ) :   0.9592
B( 31-C , 90-H ) :   0.9630 B( 31-C , 91-H ) :   0.9622 B( 32-C , 33-C ) :   1.0664
B( 32-C , 35-C ) :   1.2413 B( 33-C , 34-C ) :   1.1054 B( 33-C , 92-H ) :   0.9094
B( 33-C , 93-H ) :   0.9232 B( 34-C , 94-H ) :   0.9579 B( 34-C , 95-H ) :   0.9658
B( 34-C , 96-H ) :   0.9659 B( 35-C , 36-C ) :   1.1313 B( 35-C , 39-C ) :   1.3840
B( 36-C , 37-C ) :   1.5650 B( 36-C , 40-C ) :   1.0511 B( 37-C , 38-S ) :   1.1497
B( 37-C , 97-H ) :   0.9594 B( 38-S , 39-C ) :   1.0763 B( 40-C , 41-C ) :   1.6504
B( 40-C , 98-H ) :   0.9776 B( 41-C , 42-C ) :   1.1505 B( 41-C , 99-H ) :   0.9733
B( 42-C , 43-C ) :   1.5499 B( 42-C ,100-H ) :   0.9861 B( 43-C , 44-C ) :   1.1508
B( 43-C , 47-S ) :   1.0214 B( 44-C , 45-C ) :   1.5729 B( 44-C ,101-H ) :   1.0002
B( 45-C , 46-C ) :   1.2014 B( 45-C ,102-H ) :   0.9952 B( 46-C , 47-S ) :   1.0901
B( 46-C , 48-C ) :   1.4498 B( 48-C , 49-C ) :   1.2293 B( 48-C , 52-S ) :   1.0444
B( 49-C , 50-C ) :   1.5262 B( 49-C ,103-H ) :   0.9953 B( 50-C , 51-C ) :   1.1917
B( 50-C ,104-H ) :   1.0017 B( 51-C , 52-S ) :   1.0933 B( 51-C , 53-C ) :   1.3952
B( 53-C , 54-C ) :   1.2818 B( 53-C ,105-H ) :   0.9785 B( 54-C , 55-C ) :   1.4598
B( 54-C ,106-H ) :   0.9413 B( 55-C , 56-C ) :   1.1253 B( 55-C , 64-C ) :   0.9702
B( 56-C , 57-C ) :   1.5710 B( 56-C , 62-C ) :   0.9854 B( 57-C , 58-C ) :   1.1500
B( 57-C , 60-C ) :   1.1566 B( 58-C , 59-N ) :   2.9587 B( 60-C , 61-N ) :   2.9538
B( 62-C , 63-C ) :   1.2798 B( 62-C , 69-C ) :   1.4213 B( 63-C , 64-C ) :   0.9328
B( 63-C , 66-C ) :   1.4336 B( 64-C , 65-O ) :   2.1828 B( 66-C , 67-C ) :   1.2366
B( 66-C ,107-H ) :   1.0161 B( 67-C , 68-C ) :   1.3191 B( 67-C , 72-C ) :   1.1602
B( 68-C , 69-C ) :   1.3188 B( 68-C , 70-S ) :   1.0816 B( 69-C ,108-H ) :   0.9790
B( 70-S , 71-C ) :   1.0852 B( 71-C , 72-C ) :   1.6211 B( 71-C , 73-Br) :   1.0112
B( 72-C ,109-H ) :   1.0002

-----------------------------------------------------------------------------
         ABSORPTION SPECTRUM VIA TRANSITION ELECTRIC DIPOLE MOMENTS
-----------------------------------------------------------------------------
State   Energy  Wavelength   fosc         T2         TX        TY        TZ
        (cm-1)    (nm)                  (au**2)     (au)      (au)      (au)
-----------------------------------------------------------------------------
   0   11447.2    873.6   1.257583726  36.16691   1.39727  -3.44902   4.72428
   1   21056.4    474.9   0.033567121   0.52482  -0.09925  -0.21713   0.68397
   2   22014.0    454.3   0.780712834  11.67532   1.88587  -1.23397  -2.56830
   3   22901.8    436.6   0.006308856   0.09069  -0.03019   0.05614   0.29432
   4   24288.5    411.7   0.381103324   5.16556  -1.16120   0.96962   1.69617
   5   25258.2    395.9   0.170577915   2.22329   0.53918  -1.15417   0.77490
   6   25509.4    392.0   1.063915304  13.73036   1.07874   1.09901   3.37029
   7   26977.9    370.7   0.000086503   0.00106  -0.02261   0.02097   0.01024
   8   27097.7    369.0   0.517284764   6.28453   1.03529  -1.11802   1.99066
   9   27583.3    362.5   0.057711013   0.68879   0.66183  -0.50054   0.01533
  10   28143.5    355.3   0.145185641   1.69833   0.94643  -0.65191  -0.61450
  11   28975.9    345.1   0.000956589   0.01087   0.08029  -0.04587  -0.04815
  12   29117.3    343.4   0.011256512   0.12727  -0.15886   0.07885   0.30954
  13   30167.9    331.5   0.050371069   0.54968  -0.05916  -0.72790  -0.12786
  14   30379.0    329.2   0.004871317   0.05279   0.03290   0.22526  -0.03104
  15   30878.5    323.8   0.086153443   0.91853  -0.58851   0.35505   0.66792
  16   31307.5    319.4   0.165698302   1.74239   0.70695  -0.90532   0.65040
  17   31673.2    315.7   0.000333494   0.00347  -0.03616   0.02127  -0.04131
  18   32166.4    310.9   0.046651382   0.47746   0.20675  -0.37436   0.54274
  19   32436.5    308.3   0.447869666   4.54562  -0.65428   1.26644  -1.58546
  20   32500.7    307.7   0.017704876   0.17934  -0.03007  -0.41234  -0.09173
  21   32971.8    303.3   0.017641358   0.17614  -0.13366   0.21534  -0.33452
  22   33180.0    301.4   0.006624309   0.06573   0.07215  -0.03278   0.24382
  23   33733.0    296.4   0.041277938   0.40285  -0.49347   0.30734   0.25471
  24   34071.2    293.5   0.003502583   0.03384   0.00889   0.13034  -0.12952
  25   34404.9    290.7   0.013069495   0.12506  -0.04247  -0.03671   0.34915
  26   34895.1    286.6   0.232706236   2.19543   0.05665   0.29542  -1.45084
  27   34964.1    286.0   0.099351907   0.93547  -0.18334  -0.05731   0.94793
  28   35479.8    281.9   0.146494553   1.35930  -0.24131  -0.68107  -0.91500
  29   35985.4    277.9   0.015776258   0.14433  -0.24202   0.28089   0.08281
  30   36296.1    275.5   0.087534959   0.79396   0.47089  -0.30227  -0.69343
  31   36500.6    274.0   0.046928683   0.42327   0.42117  -0.47090   0.15534
  32   36766.2    272.0   0.050572165   0.45283   0.37646  -0.05707  -0.55485
  33   37396.2    267.4   0.044140431   0.38858   0.36453  -0.35350  -0.36159
  34   37770.9    264.8   0.013745121   0.11980  -0.04564   0.13073   0.31722
  35   38044.3    262.9   0.154489413   1.33686   0.54495  -0.43031  -0.92451
  36   38072.0    262.7   0.024233487   0.20955   0.28726  -0.32572   0.14469
  37   38353.8    260.7   0.004898782   0.04205   0.14336  -0.06203  -0.13285
  38   39003.4    256.4   0.129572269   1.09367  -0.41269   0.04477   0.95987
  39   39161.8    255.4   0.006904057   0.05804  -0.20346   0.05081   0.11858
  40   39780.8    251.4   0.033100193   0.27393  -0.37070   0.34225  -0.13920
  41   39969.1    250.2   0.012579289   0.10361   0.20127  -0.10204  -0.22954
  42   40277.7    248.3   0.158244125   1.29342  -0.17256   0.40953  -1.04686

FINAL SINGLE POINT ENERGY     -8452.053723945168

DIPOLE MOMENT
-------------
                                X             Y             Z
Electronic contribution:    101.11891    -123.97643     232.89055
Nuclear contribution   :   -104.36586     126.36392    -234.33018
                        -----------------------------------------
Total Dipole Moment    :     -3.24696       2.38749      -1.43962
                        -----------------------------------------
Magnitude (a.u.)       :      4.27965
Magnitude (Debye)      :     10.87800

Rotational constants in cm-1:     0.001057     0.000119     0.000110
Rotational constants in MHz :    31.699164     3.561949     3.309828

                             ****ORCA TERMINATED NORMALLY****
TOTAL RUN TIME: 0 days 0 hours 22 minutes 22 seconds 480 msec
