                         Program Version 4.2.0 -  RELEASE  -
|  1> # ORCA input file
|  2> # SCF done       -132.911473888890          0.000200635818
|  3> ! CAM-B3LYP def2-SVP def2/J RIJCOSX Grid4 TightSCF
|  4> %maxcore 5000
|  5> %tddft
|  6>     Mode sTDDFT
|  7>     Ethresh 5.0
|  8>     maxcore 5000
|  9> end
| 10>
| 11> %pal
| 12>   nprocs 6
| 13>   end
| 14> * xyz 0 1
| 15>    C        7.10161        -5.94369        -6.82538
| 16>    S        6.89646        -6.07015        -5.11466
| 17>    C        5.74739        -7.37963        -5.23937
| 18>    C        5.55150        -7.68541        -6.57580
| 19>    C        6.32692        -6.86080        -7.45890
| 20>    S        6.01250        -7.31693        -9.10605
| 21>    C        4.90238        -8.53592        -8.47071
| 22>    N        4.77283        -8.60595        -7.20646
| 23>    C        5.17566        -7.95149        -4.07691
| 24>    C        4.28512        -8.97364        -4.11252
| 25>    C        3.70596        -9.54754        -2.95603
| 26>    S        2.59146       -10.87399        -3.09937
| 27>    C        2.35356       -10.98950        -1.40862
| 28>    C        3.09428       -10.05185        -0.73201
| 29>    C        3.86171        -9.21636        -1.61013
| 30>    N        4.60070        -8.19653        -1.11668
| 31>    C        4.60530        -8.02912         0.17551
| 32>    C        3.93181        -8.95588         1.07609
| 33>    N        4.06303        -8.83316         2.42461
| 34>    C        3.50562        -9.83169         3.30428
| 35>    N        3.17875        -9.91970         0.61570
| 36>    N        5.35755        -6.96984         0.67342
| 37>    C        6.12854        -6.23208        -0.32027
| 38>    C        4.83194        -6.24047         1.74008
| 39>    C        5.60004        -5.75261         2.75331
| 40>    O        5.06253        -4.98965         3.78168
| 41>    C        3.70028        -4.91199         3.78553
| 42>    C        2.90191        -5.47182         2.74604
| 43>    C        1.57288        -5.28964         2.94054
| 44>    S        1.27145        -4.42493         4.39904
| 45>    C        2.95709        -4.31545         4.74940
| 46>    O        3.46301        -6.10373         1.67203
| 47>    C        7.00019        -6.01397         2.85680
| 48>    C        7.75667        -5.58097         3.89503
| 49>    C        9.13853        -5.82654         4.06967
| 50>    S        9.83936        -5.50024         5.63359
| 51>    C       11.42966        -6.04224         5.15330
| 52>    C       11.38288        -6.42666         3.82414
| 53>    C       10.11397        -6.31427         3.19990
| 54>    C       10.17449        -6.69383         1.82851
| 55>    C       11.41043        -7.08331         1.43859
| 56>    C       11.84731        -7.53539         0.09395
| 57>    S       12.59293        -7.01436         2.73813
| 58>    C       12.51510        -6.05934         6.05667
| 59>    C       12.39290        -5.62636         7.47165
| 60>    C       13.56709        -5.76714         8.08010
| 61>    C       14.55304        -6.30795         7.08512
| 62>    O       15.71994        -6.56191         7.28696
| 63>    C       13.79594        -6.45883         5.83625
| 64>    H        7.76791        -5.21268        -7.23386
| 65>    H        4.37819        -9.17132        -9.15719
| 66>    H        5.47157        -7.53901        -3.12467
| 67>    H        3.99149        -9.38789        -5.06710
| 68>    H        1.69769       -11.73123        -1.00146
| 69>    H        4.87733        -8.34487         2.76414
| 70>    H        4.15302       -10.70962         3.39235
| 71>    H        2.55133       -10.14781         2.88992
| 72>    H        3.35754        -9.39227         4.28958
| 73>    H        5.47356        -5.81944        -1.09152
| 74>    H        6.82731        -6.91862        -0.79561
| 75>    H        6.66671        -5.42611         0.17138
| 76>    H        0.76664        -5.60750         2.31349
| 77>    H        3.29941        -3.81616         5.63125
| 78>    H        7.42277        -6.62836         2.08043
| 79>    H        7.27212        -5.02428         4.68524
| 80>    H        9.34039        -6.65950         1.15238
| 81>    H       11.01407        -7.50692        -0.60392
| 82>    H       12.23516        -8.55274         0.14100
| 83>    H       12.64534        -6.89536        -0.28137
| 84>    H       11.46736        -5.26490         7.88427
| 85>    H       13.82500        -5.54964         9.09879
| 86>    H       14.22284        -6.82966         4.92482
| 87> *
| 88>
| 89>                          ****END OF INPUT****

CARTESIAN COORDINATES (ANGSTROEM)
---------------------------------
  C      7.101610   -5.943690   -6.825380
  S      6.896460   -6.070150   -5.114660
  C      5.747390   -7.379630   -5.239370
  C      5.551500   -7.685410   -6.575800
  C      6.326920   -6.860800   -7.458900
  S      6.012500   -7.316930   -9.106050
  C      4.902380   -8.535920   -8.470710
  N      4.772830   -8.605950   -7.206460
  C      5.175660   -7.951490   -4.076910
  C      4.285120   -8.973640   -4.112520
  C      3.705960   -9.547540   -2.956030
  S      2.591460  -10.873990   -3.099370
  C      2.353560  -10.989500   -1.408620
  C      3.094280  -10.051850   -0.732010
  C      3.861710   -9.216360   -1.610130
  N      4.600700   -8.196530   -1.116680
  C      4.605300   -8.029120    0.175510
  C      3.931810   -8.955880    1.076090
  N      4.063030   -8.833160    2.424610
  C      3.505620   -9.831690    3.304280
  N      3.178750   -9.919700    0.615700
  N      5.357550   -6.969840    0.673420
  C      6.128540   -6.232080   -0.320270
  C      4.831940   -6.240470    1.740080
  C      5.600040   -5.752610    2.753310
  O      5.062530   -4.989650    3.781680
  C      3.700280   -4.911990    3.785530
  C      2.901910   -5.471820    2.746040
  C      1.572880   -5.289640    2.940540
  S      1.271450   -4.424930    4.399040
  C      2.957090   -4.315450    4.749400
  O      3.463010   -6.103730    1.672030
  C      7.000190   -6.013970    2.856800
  C      7.756670   -5.580970    3.895030
  C      9.138530   -5.826540    4.069670
  S      9.839360   -5.500240    5.633590
  C     11.429660   -6.042240    5.153300
  C     11.382880   -6.426660    3.824140
  C     10.113970   -6.314270    3.199900
  C     10.174490   -6.693830    1.828510
  C     11.410430   -7.083310    1.438590
  C     11.847310   -7.535390    0.093950
  S     12.592930   -7.014360    2.738130
  C     12.515100   -6.059340    6.056670
  C     12.392900   -5.626360    7.471650
  C     13.567090   -5.767140    8.080100
  C     14.553040   -6.307950    7.085120
  O     15.719940   -6.561910    7.286960
  C     13.795940   -6.458830    5.836250
  H      7.767910   -5.212680   -7.233860
  H      4.378190   -9.171320   -9.157190
  H      5.471570   -7.539010   -3.124670
  H      3.991490   -9.387890   -5.067100
  H      1.697690  -11.731230   -1.001460
  H      4.877330   -8.344870    2.764140
  H      4.153020  -10.709620    3.392350
  H      2.551330  -10.147810    2.889920
  H      3.357540   -9.392270    4.289580
  H      5.473560   -5.819440   -1.091520
  H      6.827310   -6.918620   -0.795610
  H      6.666710   -5.426110    0.171380
  H      0.766640   -5.607500    2.313490
  H      3.299410   -3.816160    5.631250
  H      7.422770   -6.628360    2.080430
  H      7.272120   -5.024280    4.685240
  H      9.340390   -6.659500    1.152380
  H     11.014070   -7.506920   -0.603920
  H     12.235160   -8.552740    0.141000
  H     12.645340   -6.895360   -0.281370
  H     11.467360   -5.264900    7.884270
  H     13.825000   -5.549640    9.098790
  H     14.222840   -6.829660    4.924820

 Total Charge           Charge          ....    0
 Multiplicity           Mult            ....    1
 Number of Electrons    NEL             ....  388
 Basis Dimension        Dim             ....  825

ORBITAL ENERGIES
----------------

  NO   OCC          E(Eh)            E(eV)
   0   2.0000     -88.967090     -2420.9176
   1   2.0000     -88.962150     -2420.7832
   2   2.0000     -88.956167     -2420.6204
   3   2.0000     -88.954971     -2420.5878
   4   2.0000     -88.950742     -2420.4727
   5   2.0000     -88.949667     -2420.4435
   6   2.0000     -19.284582      -524.7602
   7   2.0000     -19.277490      -524.5672
   8   2.0000     -19.201864      -522.5093
   9   2.0000     -14.457909      -393.4197
  10   2.0000     -14.426168      -392.5560
  11   2.0000     -14.409861      -392.1123
  12   2.0000     -14.409775      -392.1099
  13   2.0000     -14.391739      -391.6191
  14   2.0000     -10.382471      -282.5214
  15   2.0000     -10.354994      -281.7737
  16   2.0000     -10.348883      -281.6074
  17   2.0000     -10.348460      -281.5959
  18   2.0000     -10.345709      -281.5211
  19   2.0000     -10.345435      -281.5136
  20   2.0000     -10.343952      -281.4733
  21   2.0000     -10.331313      -281.1293
  22   2.0000     -10.315622      -280.7023
  23   2.0000     -10.313030      -280.6318
  24   2.0000     -10.310950      -280.5752
  25   2.0000     -10.307251      -280.4746
  26   2.0000     -10.306115      -280.4437
  27   2.0000     -10.299153      -280.2542
  28   2.0000     -10.298508      -280.2366
  29   2.0000     -10.298012      -280.2232
  30   2.0000     -10.296480      -280.1815
  31   2.0000     -10.295840      -280.1640
  32   2.0000     -10.293966      -280.1131
  33   2.0000     -10.292370      -280.0696
  34   2.0000     -10.291917      -280.0573
  35   2.0000     -10.291591      -280.0484
  36   2.0000     -10.290480      -280.0182
  37   2.0000     -10.290234      -280.0115
  38   2.0000     -10.289989      -280.0048
  39   2.0000     -10.289677      -279.9963
  40   2.0000     -10.286405      -279.9073
  41   2.0000     -10.285488      -279.8823
  42   2.0000     -10.283204      -279.8202
  43   2.0000     -10.280274      -279.7405
  44   2.0000     -10.274731      -279.5896
  45   2.0000     -10.266899      -279.3765
  46   2.0000     -10.265496      -279.3383
  47   2.0000     -10.262083      -279.2455
  48   2.0000     -10.256272      -279.0873
  49   2.0000      -8.061994      -219.3780
  50   2.0000      -8.057963      -219.2683
  51   2.0000      -8.051852      -219.1020
  52   2.0000      -8.050151      -219.0558
  53   2.0000      -8.047176      -218.9748
  54   2.0000      -8.044880      -218.9123
  55   2.0000      -6.031203      -164.1174
  56   2.0000      -6.027459      -164.0155
  57   2.0000      -6.027201      -164.0085
  58   2.0000      -6.024280      -163.9290
  59   2.0000      -6.023280      -163.9018
  60   2.0000      -6.021584      -163.8556
  61   2.0000      -6.019651      -163.8030
  62   2.0000      -6.019507      -163.7991
  63   2.0000      -6.017272      -163.7383
  64   2.0000      -6.016707      -163.7229
  65   2.0000      -6.015255      -163.6834
  66   2.0000      -6.013875      -163.6459
  67   2.0000      -6.013175      -163.6268
  68   2.0000      -6.012785      -163.6162
  69   2.0000      -6.012417      -163.6062
  70   2.0000      -6.009788      -163.5346
  71   2.0000      -6.008378      -163.4963
  72   2.0000      -6.007712      -163.4782
  73   2.0000      -1.210270       -32.9331
  74   2.0000      -1.171234       -31.8709
  75   2.0000      -1.110682       -30.2232
  76   2.0000      -1.096055       -29.8252
  77   2.0000      -1.060420       -28.8555
  78   2.0000      -1.051127       -28.6026
  79   2.0000      -1.023920       -27.8623
  80   2.0000      -1.012204       -27.5435
  81   2.0000      -0.988690       -26.9036
  82   2.0000      -0.968685       -26.3593
  83   2.0000      -0.966319       -26.2949
  84   2.0000      -0.962577       -26.1931
  85   2.0000      -0.953806       -25.9544
  86   2.0000      -0.948534       -25.8109
  87   2.0000      -0.916625       -24.9426
  88   2.0000      -0.896798       -24.4031
  89   2.0000      -0.879938       -23.9443
  90   2.0000      -0.867849       -23.6154
  91   2.0000      -0.853876       -23.2351
  92   2.0000      -0.851233       -23.1632
  93   2.0000      -0.841782       -22.9060
  94   2.0000      -0.832870       -22.6635
  95   2.0000      -0.820184       -22.3183
  96   2.0000      -0.817592       -22.2478
  97   2.0000      -0.815327       -22.1862
  98   2.0000      -0.812076       -22.0977
  99   2.0000      -0.797913       -21.7123
 100   2.0000      -0.786411       -21.3993
 101   2.0000      -0.780122       -21.2282
 102   2.0000      -0.779457       -21.2101
 103   2.0000      -0.765862       -20.8402
 104   2.0000      -0.751770       -20.4567
 105   2.0000      -0.729429       -19.8488
 106   2.0000      -0.711481       -19.3604
 107   2.0000      -0.705599       -19.2003
 108   2.0000      -0.693567       -18.8729
 109   2.0000      -0.691400       -18.8139
 110   2.0000      -0.688861       -18.7449
 111   2.0000      -0.679002       -18.4766
 112   2.0000      -0.677600       -18.4384
 113   2.0000      -0.660269       -17.9668
 114   2.0000      -0.655943       -17.8491
 115   2.0000      -0.648794       -17.6546
 116   2.0000      -0.639142       -17.3919
 117   2.0000      -0.633647       -17.2424
 118   2.0000      -0.626733       -17.0543
 119   2.0000      -0.614329       -16.7168
 120   2.0000      -0.609945       -16.5974
 121   2.0000      -0.609268       -16.5790
 122   2.0000      -0.597910       -16.2700
 123   2.0000      -0.588988       -16.0272
 124   2.0000      -0.585545       -15.9335
 125   2.0000      -0.579723       -15.7751
 126   2.0000      -0.574451       -15.6316
 127   2.0000      -0.561124       -15.2689
 128   2.0000      -0.559808       -15.2331
 129   2.0000      -0.550138       -14.9700
 130   2.0000      -0.545308       -14.8386
 131   2.0000      -0.541868       -14.7450
 132   2.0000      -0.541297       -14.7294
 133   2.0000      -0.539658       -14.6848
 134   2.0000      -0.535599       -14.5744
 135   2.0000      -0.527141       -14.3442
 136   2.0000      -0.525110       -14.2890
 137   2.0000      -0.522380       -14.2147
 138   2.0000      -0.520823       -14.1723
 139   2.0000      -0.513622       -13.9764
 140   2.0000      -0.512794       -13.9538
 141   2.0000      -0.512482       -13.9453
 142   2.0000      -0.507259       -13.8032
 143   2.0000      -0.504529       -13.7289
 144   2.0000      -0.503192       -13.6926
 145   2.0000      -0.498774       -13.5723
 146   2.0000      -0.498032       -13.5521
 147   2.0000      -0.494913       -13.4673
 148   2.0000      -0.493193       -13.4205
 149   2.0000      -0.488880       -13.3031
 150   2.0000      -0.487100       -13.2547
 151   2.0000      -0.485816       -13.2197
 152   2.0000      -0.483507       -13.1569
 153   2.0000      -0.479575       -13.0499
 154   2.0000      -0.478760       -13.0277
 155   2.0000      -0.469215       -12.7680
 156   2.0000      -0.467270       -12.7151
 157   2.0000      -0.460392       -12.5279
 158   2.0000      -0.453327       -12.3357
 159   2.0000      -0.450464       -12.2577
 160   2.0000      -0.448347       -12.2001
 161   2.0000      -0.447403       -12.1744
 162   2.0000      -0.445554       -12.1241
 163   2.0000      -0.437709       -11.9107
 164   2.0000      -0.433220       -11.7885
 165   2.0000      -0.428313       -11.6550
 166   2.0000      -0.422791       -11.5047
 167   2.0000      -0.421768       -11.4769
 168   2.0000      -0.420854       -11.4520
 169   2.0000      -0.419873       -11.4253
 170   2.0000      -0.417091       -11.3496
 171   2.0000      -0.414813       -11.2876
 172   2.0000      -0.413030       -11.2391
 173   2.0000      -0.408839       -11.1251
 174   2.0000      -0.392226       -10.6730
 175   2.0000      -0.386706       -10.5228
 176   2.0000      -0.371921       -10.1205
 177   2.0000      -0.369577       -10.0567
 178   2.0000      -0.361681        -9.8418
 179   2.0000      -0.354729        -9.6527
 180   2.0000      -0.343917        -9.3585
 181   2.0000      -0.337272        -9.1776
 182   2.0000      -0.322209        -8.7678
 183   2.0000      -0.318061        -8.6549
 184   2.0000      -0.315256        -8.5786
 185   2.0000      -0.313352        -8.5267
 186   2.0000      -0.309222        -8.4144
 187   2.0000      -0.303430        -8.2568
 188   2.0000      -0.299793        -8.1578
 189   2.0000      -0.289587        -7.8800
 190   2.0000      -0.276679        -7.5288
 191   2.0000      -0.264453        -7.1961
 192   2.0000      -0.237618        -6.4659
 193   2.0000      -0.224305        -6.1037
 194   0.0000      -0.075387        -2.0514
 195   0.0000      -0.047383        -1.2894
 196   0.0000      -0.032276        -0.8783
 197   0.0000      -0.005155        -0.1403
 198   0.0000       0.019595         0.5332

MULLIKEN ATOMIC CHARGES
-----------------------
   0 C :   -0.198074
   1 S :    0.116078
   2 C :   -0.138564
   3 C :    0.054218
   4 C :    0.037136
   5 S :    0.070398
   6 C :    0.011706
   7 N :   -0.044398
   8 C :    0.014565
   9 C :    0.035640
  10 C :   -0.168052
  11 S :    0.143914
  12 C :   -0.178105
  13 C :    0.084740
  14 C :    0.034639
  15 N :   -0.031936
  16 C :    0.064931
  17 C :   -0.052449
  18 N :   -0.151097
  19 C :    0.125971
  20 N :   -0.043955
  21 N :   -0.265448
  22 C :    0.169289
  23 C :    0.082593
  24 C :    0.187988
  25 O :   -0.268797
  26 C :    0.222422
  27 C :    0.218236
  28 C :   -0.167753
  29 S :    0.114224
  30 C :   -0.177159
  31 O :   -0.229050
  32 C :   -0.095604
  33 C :    0.064514
  34 C :   -0.114255
  35 S :    0.138142
  36 C :   -0.114416
  37 C :   -0.050043
  38 C :    0.127334
  39 C :   -0.018629
  40 C :   -0.192539
  41 C :    0.116442
  42 S :    0.117727
  43 C :    0.071210
  44 C :    0.027532
  45 C :   -0.030653
  46 C :    0.141810
  47 O :   -0.147062
  48 C :   -0.144561
  49 H :    0.022495
  50 H :    0.040580
  51 H :   -0.038316
  52 H :   -0.015989
  53 H :    0.003430
  54 H :    0.130942
  55 H :    0.018490
  56 H :    0.043461
  57 H :    0.017914
  58 H :    0.037476
  59 H :    0.035454
  60 H :    0.030510
  61 H :    0.031388
  62 H :    0.025060
  63 H :   -0.001442
  64 H :   -0.002310
  65 H :   -0.032337
  66 H :    0.025261
  67 H :    0.040654
  68 H :    0.040645
  69 H :   -0.000622
  70 H :   -0.008198
  71 H :   -0.015348
Sum of atomic charges:    0.0000000

LOEWDIN ATOMIC CHARGES
----------------------
   0 C :   -0.223110
   1 S :    0.440817
   2 C :   -0.170816
   3 C :   -0.076338
   4 C :   -0.205436
   5 S :    0.353101
   6 C :   -0.096701
   7 N :   -0.082553
   8 C :   -0.052042
   9 C :   -0.026900
  10 C :   -0.189407
  11 S :    0.469461
  12 C :   -0.216027
  13 C :   -0.052571
  14 C :   -0.058944
  15 N :   -0.072248
  16 C :    0.028335
  17 C :    0.026621
  18 N :   -0.022137
  19 C :    0.025421
  20 N :   -0.107685
  21 N :   -0.044251
  22 C :    0.037140
  23 C :    0.036649
  24 C :   -0.004170
  25 O :   -0.065124
  26 C :   -0.006258
  27 C :   -0.009274
  28 C :   -0.203627
  29 S :    0.441017
  30 C :   -0.211125
  31 O :   -0.050763
  32 C :   -0.043695
  33 C :   -0.038768
  34 C :   -0.164008
  35 S :    0.453234
  36 C :   -0.200862
  37 C :   -0.170743
  38 C :   -0.069588
  39 C :   -0.077606
  40 C :   -0.138472
  41 C :   -0.058739
  42 S :    0.405313
  43 C :   -0.014513
  44 C :   -0.000036
  45 C :   -0.038922
  46 C :    0.072925
  47 O :   -0.120907
  48 C :   -0.092296
  49 H :    0.023618
  50 H :    0.018714
  51 H :    0.024411
  52 H :    0.028815
  53 H :    0.022686
  54 H :    0.072834
  55 H :    0.018051
  56 H :    0.033060
  57 H :    0.022853
  58 H :    0.026077
  59 H :    0.027622
  60 H :    0.024604
  61 H :    0.032323
  62 H :    0.029327
  63 H :    0.031609
  64 H :    0.031933
  65 H :    0.025794
  66 H :    0.039749
  67 H :    0.041581
  68 H :    0.041168
  69 H :    0.021938
  70 H :    0.029949
  71 H :    0.017914

  Mayer bond orders larger than 0.100000
B(  0-C ,  1-S ) :   1.1468 B(  0-C ,  2-C ) :   0.1002 B(  0-C ,  4-C ) :   1.5391
B(  0-C , 49-H ) :   0.9809 B(  1-S ,  2-C ) :   1.1423 B(  2-C ,  3-C ) :   1.4328
B(  2-C ,  8-C ) :   1.1310 B(  3-C ,  4-C ) :   1.2321 B(  3-C ,  7-N ) :   1.2812
B(  4-C ,  5-S ) :   1.0257 B(  5-S ,  6-C ) :   1.0770 B(  5-S ,  7-N ) :   0.1074
B(  6-C ,  7-N ) :   1.7901 B(  6-C , 50-H ) :   0.9630 B(  8-C ,  9-C ) :   1.6844
B(  8-C , 51-H ) :   0.9509 B(  9-C , 10-C ) :   1.1462 B(  9-C , 52-H ) :   0.9472
B( 10-C , 11-S ) :   1.1705 B( 10-C , 12-C ) :   0.1116 B( 10-C , 14-C ) :   1.3461
B( 11-S , 12-C ) :   1.1614 B( 12-C , 13-C ) :   1.4264 B( 12-C , 53-H ) :   0.9771
B( 13-C , 14-C ) :   1.2154 B( 13-C , 20-N ) :   1.3161 B( 14-C , 15-N ) :   1.3227
B( 15-N , 16-C ) :   1.7287 B( 16-C , 17-C ) :   1.0497 B( 16-C , 21-N ) :   1.0707
B( 17-C , 18-N ) :   1.2694 B( 17-C , 20-N ) :   1.6925 B( 18-N , 19-C ) :   1.0018
B( 18-N , 54-H ) :   0.8970 B( 19-C , 55-H ) :   0.9740 B( 19-C , 56-H ) :   0.9623
B( 19-C , 57-H ) :   0.9745 B( 21-N , 22-C ) :   0.9460 B( 21-N , 23-C ) :   1.1257
B( 22-C , 58-H ) :   0.9626 B( 22-C , 59-H ) :   0.9715 B( 22-C , 60-H ) :   0.9620
B( 23-C , 24-C ) :   1.5533 B( 23-C , 31-O ) :   1.0647 B( 24-C , 25-O ) :   1.0487
B( 24-C , 32-C ) :   1.1543 B( 25-O , 26-C ) :   1.0512 B( 26-C , 27-C ) :   1.2041
B( 26-C , 30-C ) :   1.5719 B( 27-C , 28-C ) :   1.5752 B( 27-C , 31-O ) :   1.0309
B( 28-C , 29-S ) :   1.1468 B( 28-C , 61-H ) :   0.9720 B( 29-S , 30-C ) :   1.1422
B( 30-C , 62-H ) :   0.9726 B( 32-C , 33-C ) :   1.6545 B( 32-C , 63-H ) :   0.9562
B( 33-C , 34-C ) :   1.1172 B( 33-C , 64-H ) :   0.9585 B( 34-C , 35-S ) :   1.1284
B( 34-C , 36-C ) :   0.1066 B( 34-C , 38-C ) :   1.3859 B( 35-S , 36-C ) :   1.1124
B( 36-C , 37-C ) :   1.4898 B( 36-C , 43-C ) :   1.1519 B( 37-C , 38-C ) :   1.2595
B( 37-C , 42-S ) :   1.0677 B( 38-C , 39-C ) :   1.1244 B( 39-C , 40-C ) :   1.6841
B( 39-C , 65-H ) :   0.9923 B( 40-C , 41-C ) :   1.0703 B( 40-C , 42-S ) :   1.0701
B( 41-C , 66-H ) :   0.9567 B( 41-C , 67-H ) :   0.9472 B( 41-C , 68-H ) :   0.9473
B( 43-C , 44-C ) :   0.9931 B( 43-C , 48-C ) :   1.6202 B( 44-C , 45-C ) :   1.7714
B( 44-C , 69-H ) :   0.9944 B( 45-C , 46-C ) :   0.9698 B( 45-C , 70-H ) :   1.0076
B( 46-C , 47-O ) :   2.1637 B( 46-C , 48-C ) :   0.9847 B( 48-C , 71-H ) :   1.0119

-----------------------------------------------------------------------------
         ABSORPTION SPECTRUM VIA TRANSITION ELECTRIC DIPOLE MOMENTS
-----------------------------------------------------------------------------
State   Energy  Wavelength   fosc         T2         TX        TY        TZ
        (cm-1)    (nm)                  (au**2)     (au)      (au)      (au)
-----------------------------------------------------------------------------
   0   19612.0    509.9   1.004895442  16.86840   2.95849  -0.10960   2.84670
   1   21668.0    461.5   0.405385173   6.15921  -2.09511  -0.63166   1.17078
   2   23380.1    427.7   0.342957051   4.82913  -0.68803  -0.78945   1.93197
   3   24623.9    406.1   0.000000897   0.00001  -0.00271  -0.00126  -0.00174
   4   25829.9    387.1   0.172549600   2.19921   1.25567   0.78507   0.07847
   5   27517.1    363.4   0.074170264   0.88737  -0.85522  -0.39488  -0.00622
   6   28318.4    353.1   0.111925365   1.30117  -0.85393   0.68668   0.31694
   7   28759.7    347.7   0.095370925   1.09171   1.01337   0.06131  -0.24703
   8   29031.1    344.5   0.179394266   2.03433   0.43862   0.55273  -1.23953
   9   29999.7    333.3   0.057015053   0.62567  -0.73197   0.10939  -0.27916
  10   30850.8    324.1   0.174728900   1.86455   0.36969   0.41484   1.24731
  11   31800.6    314.5   0.025709466   0.26615  -0.01469  -0.43338  -0.27951
  12   32877.6    304.2   0.119152801   1.19311  -0.61485   0.38219   0.81792
  13   33475.6    298.7   0.009197673   0.09045   0.16466   0.16040   0.19394
  14   34685.1    288.3   0.053211481   0.50505  -0.44804  -0.55067  -0.03296
  15   35299.9    283.3   0.065319146   0.60918   0.71360  -0.28127   0.14433
  16   36089.4    277.1   0.069477305   0.63378  -0.29995  -0.25453  -0.69212
  17   36429.8    274.5   0.042808271   0.38685   0.61134  -0.02840  -0.11097
  18   37079.0    269.7   0.001357766   0.01206   0.05989   0.06712   0.06295
  19   37572.0    266.2   0.017055439   0.14944  -0.16756  -0.23348  -0.25856
  20   38441.1    260.1   0.069305595   0.59354  -0.74523   0.10045  -0.16755
  21   38780.1    257.9   0.094397552   0.80136  -0.46086   0.33061   0.69258
  22   39116.2    255.6   0.009888168   0.08322  -0.05525   0.16593   0.22942
  23   39797.3    251.3   0.052014010   0.43027   0.16368   0.03317   0.63433
  24   40057.4    249.6   0.007915342   0.06505   0.10353   0.09533  -0.21271
  25   40251.5    248.4   0.027516923   0.22506   0.00739   0.22789   0.41602

FINAL SINGLE POINT ENERGY     -4233.014532421341

DIPOLE MOMENT
-------------
                                X             Y             Z
Electronic contribution:     -6.08881       6.05115     -10.11599
Nuclear contribution   :      4.73760      -5.44775       9.69621
                        -----------------------------------------
Total Dipole Moment    :     -1.35121       0.60340      -0.41979
                        -----------------------------------------
Magnitude (a.u.)       :      1.53820
Magnitude (Debye)      :      3.90980

Rotational constants in cm-1:     0.001796     0.000760     0.000599
Rotational constants in MHz :    53.843488    22.774709    17.955213

                             ****ORCA TERMINATED NORMALLY****
TOTAL RUN TIME: 0 days 0 hours 5 minutes 32 seconds 437 msec
