                         Program Version 4.2.0 -  RELEASE  -
|  1> # ORCA input file
|  2> # SCF done       -167.876611105825          0.000720970989
|  3> ! CAM-B3LYP def2-SVP def2/J RIJCOSX Grid4 TightSCF
|  4> %maxcore 5000
|  5> %tddft
|  6>     Mode sTDDFT
|  7>     Ethresh 5.0
|  8>     maxcore 5000
|  9> end
| 10>
| 11> %pal
| 12>   nprocs 6
| 13>   end
| 14> * xyz 0 1
| 15>    C        4.00485        -4.40064       -10.68466
| 16>    S        4.52111        -5.23143        -9.26154
| 17>    C        5.13392        -6.60124       -10.15992
| 18>    C        4.92300        -6.38747       -11.51145
| 19>    C        4.28403        -5.13407       -11.79252
| 20>    S        4.07321        -4.96586       -13.50922
| 21>    C        4.83970        -6.54921       -13.67669
| 22>    N        5.20871        -7.13672       -12.60891
| 23>    C        5.74631        -7.72790        -9.56274
| 24>    C        5.95973        -7.84211        -8.22792
| 25>    C        6.55223        -8.90643        -7.50974
| 26>    S        6.97984        -8.59017        -5.86307
| 27>    C        7.62276       -10.17340        -5.59139
| 28>    C        7.50909       -10.94319        -6.76320
| 29>    C        6.88428       -10.23170        -7.84211
| 30>    C        6.60615       -10.90338        -9.04751
| 31>    C        6.97724       -12.20848        -9.18925
| 32>    F        6.70756       -12.86090       -10.33133
| 33>    C        7.62737       -12.89456        -8.14411
| 34>    F        7.97393       -14.18136        -8.32741
| 35>    C        7.87886       -12.28964        -6.94785
| 36>    C        8.04038       -10.46216        -4.26711
| 37>    C        8.69311       -11.54494        -3.78016
| 38>    C        8.86386       -11.73515        -2.37589
| 39>    C        9.48324       -12.78290        -1.79712
| 40>    C       10.15416       -13.87781        -2.56262
| 41>    C        9.35280       -12.98867        -0.30979
| 42>    N        8.30179       -13.97749        -0.11971
| 43>    C        8.55333       -15.29672        -0.01250
| 44>    C        7.74735       -16.25935        -0.54120
| 45>    C        7.95969       -17.63963        -0.41268
| 46>    C        7.37715       -18.56515        -1.24236
| 47>    C        7.56238       -19.96578        -1.26044
| 48>    C        7.00789       -20.59072        -2.33822
| 49>    C        6.36684       -19.71043        -3.23830
| 50>    S        6.39143       -18.08212        -2.62256
| 51>    C        5.90688       -19.97877        -4.51646
| 52>    C        6.01325       -21.16906        -5.25976
| 53>    C        5.73007       -21.00822        -6.58509
| 54>    C        5.40786       -19.68295        -6.96045
| 55>    S        5.32991       -18.67873        -5.54138
| 56>    C        5.16849       -19.27742        -8.26598
| 57>    C        4.95095       -18.02154        -8.81343
| 58>    C        5.07226       -16.72591        -8.33130
| 59>    C        4.32623       -15.66413        -9.04834
| 60>    O        3.72403       -15.77376       -10.09514
| 61>    C        4.41901       -14.46094        -8.19114
| 62>    C        3.85572       -13.23137        -8.35506
| 63>    C        4.01149       -12.26122        -7.33590
| 64>    C        4.71992       -12.60781        -6.15092
| 65>    C        4.80573       -11.66588        -5.10928
| 66>    C        4.22614       -10.43777        -5.26332
| 67>    C        3.56234       -10.06198        -6.43601
| 68>    C        3.45930       -10.97109        -7.45344
| 69>    F        4.30162        -9.54209        -4.25443
| 70>    C        5.33658       -13.87702        -6.03353
| 71>    C        5.21016       -14.77824        -7.05195
| 72>    C        5.76580       -16.11929        -7.24415
| 73>    C        6.91738       -16.56888        -6.62361
| 74>    C        7.62961       -17.70266        -7.05507
| 75>    N        8.23949       -18.61618        -7.39156
| 76>    C        7.57352       -15.85342        -5.61343
| 77>    N        8.13842       -15.29863        -4.77726
| 78>    H        3.53744        -3.44128       -10.60161
| 79>    H        4.96965        -6.96322       -14.65715
| 80>    H        6.06432        -8.48068       -10.26626
| 81>    H        5.67197        -6.99581        -7.61267
| 82>    H        6.08302       -10.42108        -9.85370
| 83>    H        8.33605       -12.86780        -6.16481
| 84>    H        7.76287        -9.69263        -3.55409
| 85>    H        9.06401       -12.31946        -4.42864
| 86>    H        8.41301       -10.98260        -1.73915
| 87>    H       10.58748       -14.61426        -1.89017
| 88>    H       10.94969       -13.47253        -3.18614
| 89>    H        9.45112       -14.39043        -3.22008
| 90>    H        9.05892       -12.06372         0.19423
| 91>    H       10.27426       -13.36474         0.13826
| 92>    H        7.45776       -13.75007        -0.63365
| 93>    H        9.44928       -15.55984         0.53489
| 94>    H        6.92625       -15.94761        -1.17453
| 95>    H        8.66372       -17.99632         0.32737
| 96>    H        8.12041       -20.46707        -0.48894
| 97>    H        7.07051       -21.64718        -2.52664
| 98>    H        6.33268       -22.09451        -4.81567
| 99>    H        5.79798       -21.79252        -7.31761
|100>    H        5.10566       -20.10125        -8.96776
|101>    H        4.53713       -18.03648        -9.81890
|102>    H        3.28937       -12.99980        -9.24452
|103>    H        5.32813       -11.91299        -4.19801
|104>    H        3.14146        -9.07192        -6.51089
|105>    H        2.94269       -10.70885        -8.36441
|106>    H        5.88322       -14.10555        -5.13231
|107> *
|108>
|109>                          ****END OF INPUT****

CARTESIAN COORDINATES (ANGSTROEM)
---------------------------------
  C      4.004850   -4.400640  -10.684660
  S      4.521110   -5.231430   -9.261540
  C      5.133920   -6.601240  -10.159920
  C      4.923000   -6.387470  -11.511450
  C      4.284030   -5.134070  -11.792520
  S      4.073210   -4.965860  -13.509220
  C      4.839700   -6.549210  -13.676690
  N      5.208710   -7.136720  -12.608910
  C      5.746310   -7.727900   -9.562740
  C      5.959730   -7.842110   -8.227920
  C      6.552230   -8.906430   -7.509740
  S      6.979840   -8.590170   -5.863070
  C      7.622760  -10.173400   -5.591390
  C      7.509090  -10.943190   -6.763200
  C      6.884280  -10.231700   -7.842110
  C      6.606150  -10.903380   -9.047510
  C      6.977240  -12.208480   -9.189250
  F      6.707560  -12.860900  -10.331330
  C      7.627370  -12.894560   -8.144110
  F      7.973930  -14.181360   -8.327410
  C      7.878860  -12.289640   -6.947850
  C      8.040380  -10.462160   -4.267110
  C      8.693110  -11.544940   -3.780160
  C      8.863860  -11.735150   -2.375890
  C      9.483240  -12.782900   -1.797120
  C     10.154160  -13.877810   -2.562620
  C      9.352800  -12.988670   -0.309790
  N      8.301790  -13.977490   -0.119710
  C      8.553330  -15.296720   -0.012500
  C      7.747350  -16.259350   -0.541200
  C      7.959690  -17.639630   -0.412680
  C      7.377150  -18.565150   -1.242360
  C      7.562380  -19.965780   -1.260440
  C      7.007890  -20.590720   -2.338220
  C      6.366840  -19.710430   -3.238300
  S      6.391430  -18.082120   -2.622560
  C      5.906880  -19.978770   -4.516460
  C      6.013250  -21.169060   -5.259760
  C      5.730070  -21.008220   -6.585090
  C      5.407860  -19.682950   -6.960450
  S      5.329910  -18.678730   -5.541380
  C      5.168490  -19.277420   -8.265980
  C      4.950950  -18.021540   -8.813430
  C      5.072260  -16.725910   -8.331300
  C      4.326230  -15.664130   -9.048340
  O      3.724030  -15.773760  -10.095140
  C      4.419010  -14.460940   -8.191140
  C      3.855720  -13.231370   -8.355060
  C      4.011490  -12.261220   -7.335900
  C      4.719920  -12.607810   -6.150920
  C      4.805730  -11.665880   -5.109280
  C      4.226140  -10.437770   -5.263320
  C      3.562340  -10.061980   -6.436010
  C      3.459300  -10.971090   -7.453440
  F      4.301620   -9.542090   -4.254430
  C      5.336580  -13.877020   -6.033530
  C      5.210160  -14.778240   -7.051950
  C      5.765800  -16.119290   -7.244150
  C      6.917380  -16.568880   -6.623610
  C      7.629610  -17.702660   -7.055070
  N      8.239490  -18.616180   -7.391560
  C      7.573520  -15.853420   -5.613430
  N      8.138420  -15.298630   -4.777260
  H      3.537440   -3.441280  -10.601610
  H      4.969650   -6.963220  -14.657150
  H      6.064320   -8.480680  -10.266260
  H      5.671970   -6.995810   -7.612670
  H      6.083020  -10.421080   -9.853700
  H      8.336050  -12.867800   -6.164810
  H      7.762870   -9.692630   -3.554090
  H      9.064010  -12.319460   -4.428640
  H      8.413010  -10.982600   -1.739150
  H     10.587480  -14.614260   -1.890170
  H     10.949690  -13.472530   -3.186140
  H      9.451120  -14.390430   -3.220080
  H      9.058920  -12.063720    0.194230
  H     10.274260  -13.364740    0.138260
  H      7.457760  -13.750070   -0.633650
  H      9.449280  -15.559840    0.534890
  H      6.926250  -15.947610   -1.174530
  H      8.663720  -17.996320    0.327370
  H      8.120410  -20.467070   -0.488940
  H      7.070510  -21.647180   -2.526640
  H      6.332680  -22.094510   -4.815670
  H      5.797980  -21.792520   -7.317610
  H      5.105660  -20.101250   -8.967760
  H      4.537130  -18.036480   -9.818900
  H      3.289370  -12.999800   -9.244520
  H      5.328130  -11.912990   -4.198010
  H      3.141460   -9.071920   -6.510890
  H      2.942690  -10.708850   -8.364410
  H      5.883220  -14.105550   -5.132310

 Total Charge           Charge          ....    0
 Multiplicity           Mult            ....    1
 Number of Electrons    NEL             ....  472
 Basis Dimension        Dim             .... 1047

ORBITAL ENERGIES
----------------

  NO   OCC          E(Eh)            E(eV)
   0   2.0000     -88.961106     -2420.7548
   1   2.0000     -88.959757     -2420.7181
   2   2.0000     -88.953757     -2420.5548
   3   2.0000     -88.953213     -2420.5400
   4   2.0000     -88.950229     -2420.4588
   5   2.0000     -24.778887      -674.2678
   6   2.0000     -24.775624      -674.1790
   7   2.0000     -24.772093      -674.0829
   8   2.0000     -19.182106      -521.9716
   9   2.0000     -14.454196      -393.3187
  10   2.0000     -14.412531      -392.1849
  11   2.0000     -14.397356      -391.7720
  12   2.0000     -14.380263      -391.3069
  13   2.0000     -10.356464      -281.8137
  14   2.0000     -10.355939      -281.7994
  15   2.0000     -10.350397      -281.6486
  16   2.0000     -10.339803      -281.3603
  17   2.0000     -10.334951      -281.2283
  18   2.0000     -10.332715      -281.1675
  19   2.0000     -10.327896      -281.0364
  20   2.0000     -10.319938      -280.8198
  21   2.0000     -10.310283      -280.5571
  22   2.0000     -10.306821      -280.4629
  23   2.0000     -10.306119      -280.4438
  24   2.0000     -10.305540      -280.4280
  25   2.0000     -10.305284      -280.4210
  26   2.0000     -10.303601      -280.3752
  27   2.0000     -10.302709      -280.3510
  28   2.0000     -10.302474      -280.3446
  29   2.0000     -10.301666      -280.3226
  30   2.0000     -10.301249      -280.3112
  31   2.0000     -10.300368      -280.2873
  32   2.0000     -10.299503      -280.2637
  33   2.0000     -10.299465      -280.2627
  34   2.0000     -10.299142      -280.2539
  35   2.0000     -10.287234      -279.9299
  36   2.0000     -10.285406      -279.8801
  37   2.0000     -10.285047      -279.8704
  38   2.0000     -10.284800      -279.8636
  39   2.0000     -10.284123      -279.8452
  40   2.0000     -10.283673      -279.8330
  41   2.0000     -10.283393      -279.8254
  42   2.0000     -10.280990      -279.7599
  43   2.0000     -10.280724      -279.7527
  44   2.0000     -10.278726      -279.6983
  45   2.0000     -10.278202      -279.6841
  46   2.0000     -10.278043      -279.6798
  47   2.0000     -10.277959      -279.6775
  48   2.0000     -10.277105      -279.6542
  49   2.0000     -10.276750      -279.6446
  50   2.0000     -10.276655      -279.6420
  51   2.0000     -10.275222      -279.6030
  52   2.0000     -10.275157      -279.6012
  53   2.0000     -10.274451      -279.5820
  54   2.0000     -10.272360      -279.5251
  55   2.0000     -10.270893      -279.4852
  56   2.0000     -10.270507      -279.4747
  57   2.0000     -10.270134      -279.4645
  58   2.0000     -10.267209      -279.3850
  59   2.0000     -10.264528      -279.3120
  60   2.0000     -10.262873      -279.2670
  61   2.0000     -10.259223      -279.1677
  62   2.0000     -10.251575      -278.9595
  63   2.0000      -8.056000      -219.2149
  64   2.0000      -8.054935      -219.1859
  65   2.0000      -8.050269      -219.0590
  66   2.0000      -8.049368      -219.0344
  67   2.0000      -8.045060      -218.9172
  68   2.0000      -6.024876      -163.9452
  69   2.0000      -6.024308      -163.9298
  70   2.0000      -6.020899      -163.8370
  71   2.0000      -6.020071      -163.8145
  72   2.0000      -6.019845      -163.8083
  73   2.0000      -6.018990      -163.7850
  74   2.0000      -6.018936      -163.7836
  75   2.0000      -6.017084      -163.7332
  76   2.0000      -6.015872      -163.7002
  77   2.0000      -6.014941      -163.6749
  78   2.0000      -6.014487      -163.6625
  79   2.0000      -6.011397      -163.5784
  80   2.0000      -6.010485      -163.5536
  81   2.0000      -6.010270      -163.5478
  82   2.0000      -6.006899      -163.4560
  83   2.0000      -1.297950       -35.3190
  84   2.0000      -1.284561       -34.9547
  85   2.0000      -1.282958       -34.9111
  86   2.0000      -1.096499       -29.8373
  87   2.0000      -1.064661       -28.9709
  88   2.0000      -1.055853       -28.7312
  89   2.0000      -0.999864       -27.2077
  90   2.0000      -0.996094       -27.1051
  91   2.0000      -0.992680       -27.0122
  92   2.0000      -0.977205       -26.5911
  93   2.0000      -0.974967       -26.5302
  94   2.0000      -0.972272       -26.4569
  95   2.0000      -0.964424       -26.2433
  96   2.0000      -0.949832       -25.8462
  97   2.0000      -0.935501       -25.4563
  98   2.0000      -0.923058       -25.1177
  99   2.0000      -0.912116       -24.8199
 100   2.0000      -0.904951       -24.6250
 101   2.0000      -0.902015       -24.5451
 102   2.0000      -0.890121       -24.2214
 103   2.0000      -0.883000       -24.0276
 104   2.0000      -0.870525       -23.6882
 105   2.0000      -0.867115       -23.5954
 106   2.0000      -0.860915       -23.4267
 107   2.0000      -0.853754       -23.2318
 108   2.0000      -0.850138       -23.1334
 109   2.0000      -0.839451       -22.8426
 110   2.0000      -0.827745       -22.5241
 111   2.0000      -0.825923       -22.4745
 112   2.0000      -0.823254       -22.4019
 113   2.0000      -0.819792       -22.3077
 114   2.0000      -0.811758       -22.0891
 115   2.0000      -0.811229       -22.0747
 116   2.0000      -0.796486       -21.6735
 117   2.0000      -0.783892       -21.3308
 118   2.0000      -0.776285       -21.1238
 119   2.0000      -0.754922       -20.5425
 120   2.0000      -0.749555       -20.3964
 121   2.0000      -0.733332       -19.9550
 122   2.0000      -0.726152       -19.7596
 123   2.0000      -0.724834       -19.7237
 124   2.0000      -0.716090       -19.4858
 125   2.0000      -0.708631       -19.2828
 126   2.0000      -0.698963       -19.0197
 127   2.0000      -0.694018       -18.8852
 128   2.0000      -0.691911       -18.8279
 129   2.0000      -0.686185       -18.6720
 130   2.0000      -0.678758       -18.4699
 131   2.0000      -0.663093       -18.0437
 132   2.0000      -0.661519       -18.0009
 133   2.0000      -0.653486       -17.7822
 134   2.0000      -0.652889       -17.7660
 135   2.0000      -0.640962       -17.4415
 136   2.0000      -0.633429       -17.2365
 137   2.0000      -0.629869       -17.1396
 138   2.0000      -0.624387       -16.9904
 139   2.0000      -0.620394       -16.8818
 140   2.0000      -0.617156       -16.7937
 141   2.0000      -0.612370       -16.6634
 142   2.0000      -0.610411       -16.6101
 143   2.0000      -0.605424       -16.4744
 144   2.0000      -0.603491       -16.4218
 145   2.0000      -0.598309       -16.2808
 146   2.0000      -0.594188       -16.1687
 147   2.0000      -0.586886       -15.9700
 148   2.0000      -0.585441       -15.9307
 149   2.0000      -0.578300       -15.7364
 150   2.0000      -0.570198       -15.5159
 151   2.0000      -0.566971       -15.4281
 152   2.0000      -0.563982       -15.3467
 153   2.0000      -0.562176       -15.2976
 154   2.0000      -0.556396       -15.1403
 155   2.0000      -0.547645       -14.9022
 156   2.0000      -0.546845       -14.8804
 157   2.0000      -0.542937       -14.7741
 158   2.0000      -0.540017       -14.6946
 159   2.0000      -0.537147       -14.6165
 160   2.0000      -0.533633       -14.5209
 161   2.0000      -0.531793       -14.4708
 162   2.0000      -0.527474       -14.3533
 163   2.0000      -0.526952       -14.3391
 164   2.0000      -0.524202       -14.2643
 165   2.0000      -0.519594       -14.1389
 166   2.0000      -0.517597       -14.0845
 167   2.0000      -0.517300       -14.0765
 168   2.0000      -0.516076       -14.0431
 169   2.0000      -0.511255       -13.9120
 170   2.0000      -0.507069       -13.7981
 171   2.0000      -0.503304       -13.6956
 172   2.0000      -0.502643       -13.6776
 173   2.0000      -0.500100       -13.6084
 174   2.0000      -0.498755       -13.5718
 175   2.0000      -0.494560       -13.4577
 176   2.0000      -0.493701       -13.4343
 177   2.0000      -0.492230       -13.3943
 178   2.0000      -0.487371       -13.2620
 179   2.0000      -0.485569       -13.2130
 180   2.0000      -0.482162       -13.1203
 181   2.0000      -0.479203       -13.0398
 182   2.0000      -0.477943       -13.0055
 183   2.0000      -0.475002       -12.9255
 184   2.0000      -0.471856       -12.8399
 185   2.0000      -0.470493       -12.8028
 186   2.0000      -0.464204       -12.6316
 187   2.0000      -0.461686       -12.5631
 188   2.0000      -0.458337       -12.4720
 189   2.0000      -0.456364       -12.4183
 190   2.0000      -0.455109       -12.3841
 191   2.0000      -0.451815       -12.2945
 192   2.0000      -0.448940       -12.2163
 193   2.0000      -0.446131       -12.1398
 194   2.0000      -0.440829       -11.9956
 195   2.0000      -0.439960       -11.9719
 196   2.0000      -0.436960       -11.8903
 197   2.0000      -0.434841       -11.8326
 198   2.0000      -0.431903       -11.7527
 199   2.0000      -0.427744       -11.6395
 200   2.0000      -0.426744       -11.6123
 201   2.0000      -0.424830       -11.5602
 202   2.0000      -0.423892       -11.5347
 203   2.0000      -0.418570       -11.3899
 204   2.0000      -0.417994       -11.3742
 205   2.0000      -0.415586       -11.3087
 206   2.0000      -0.415354       -11.3024
 207   2.0000      -0.412972       -11.2375
 208   2.0000      -0.409024       -11.1301
 209   2.0000      -0.408506       -11.1160
 210   2.0000      -0.405823       -11.0430
 211   2.0000      -0.403864       -10.9897
 212   2.0000      -0.400616       -10.9013
 213   2.0000      -0.396650       -10.7934
 214   2.0000      -0.395378       -10.7588
 215   2.0000      -0.387437       -10.5427
 216   2.0000      -0.379833       -10.3358
 217   2.0000      -0.374393       -10.1878
 218   2.0000      -0.370232       -10.0745
 219   2.0000      -0.356144        -9.6912
 220   2.0000      -0.348492        -9.4830
 221   2.0000      -0.346893        -9.4395
 222   2.0000      -0.339186        -9.2297
 223   2.0000      -0.334067        -9.0904
 224   2.0000      -0.319638        -8.6978
 225   2.0000      -0.314942        -8.5700
 226   2.0000      -0.309071        -8.4103
 227   2.0000      -0.307781        -8.3751
 228   2.0000      -0.303900        -8.2695
 229   2.0000      -0.301641        -8.2081
 230   2.0000      -0.285883        -7.7793
 231   2.0000      -0.281976        -7.6729
 232   2.0000      -0.270202        -7.3526
 233   2.0000      -0.265326        -7.2199
 234   2.0000      -0.219020        -5.9598
 235   2.0000      -0.213907        -5.8207
 236   0.0000      -0.087162        -2.3718
 237   0.0000      -0.065865        -1.7923
 238   0.0000      -0.038573        -1.0496
 239   0.0000      -0.026726        -0.7273
 240   0.0000      -0.015260        -0.4152

MULLIKEN ATOMIC CHARGES
-----------------------
   0 C :   -0.180119
   1 S :    0.113345
   2 C :   -0.145966
   3 C :    0.060621
   4 C :    0.032710
   5 S :    0.076952
   6 C :    0.012766
   7 N :   -0.050047
   8 C :   -0.025626
   9 C :    0.041502
  10 C :   -0.123485
  11 S :    0.153438
  12 C :   -0.141048
  13 C :    0.166932
  14 C :    0.128318
  15 C :   -0.133037
  16 C :    0.245156
  17 F :   -0.176891
  18 C :    0.210941
  19 F :   -0.174429
  20 C :   -0.100106
  21 C :    0.048976
  22 C :   -0.020870
  23 C :    0.002070
  24 C :   -0.238160
  25 C :    0.107753
  26 C :    0.198931
  27 N :   -0.122475
  28 C :    0.058980
  29 C :   -0.027115
  30 C :    0.028772
  31 C :   -0.063739
  32 C :    0.062263
  33 C :    0.007850
  34 C :   -0.011608
  35 S :    0.102823
  36 C :   -0.073644
  37 C :    0.043816
  38 C :    0.043326
  39 C :   -0.033438
  40 S :    0.117785
  41 C :   -0.009832
  42 C :    0.030397
  43 C :   -0.153506
  44 C :    0.137173
  45 O :   -0.157504
  46 C :    0.022146
  47 C :   -0.100063
  48 C :    0.104509
  49 C :    0.097000
  50 C :   -0.067508
  51 C :    0.276212
  52 C :   -0.008398
  53 C :   -0.020290
  54 F :   -0.206703
  55 C :   -0.112773
  56 C :    0.041761
  57 C :    0.284604
  58 C :   -0.391140
  59 C :   -0.203847
  60 N :    0.156123
  61 C :   -0.151529
  62 N :    0.136765
  63 H :    0.026913
  64 H :    0.044549
  65 H :    0.005619
  66 H :   -0.014752
  67 H :   -0.018068
  68 H :   -0.029171
  69 H :   -0.018214
  70 H :    0.006930
  71 H :   -0.033153
  72 H :   -0.009886
  73 H :    0.029859
  74 H :    0.043845
  75 H :    0.014814
  76 H :    0.018282
  77 H :    0.125492
  78 H :    0.012845
  79 H :    0.004026
  80 H :   -0.004073
  81 H :   -0.005438
  82 H :   -0.008578
  83 H :   -0.014624
  84 H :   -0.012382
  85 H :   -0.008766
  86 H :    0.016197
  87 H :   -0.021265
  88 H :   -0.024690
  89 H :   -0.009725
  90 H :   -0.017778
  91 H :   -0.026631
Sum of atomic charges:    0.0000000

LOEWDIN ATOMIC CHARGES
----------------------
   0 C :   -0.209523
   1 S :    0.442485
   2 C :   -0.175999
   3 C :   -0.071975
   4 C :   -0.208012
   5 S :    0.355091
   6 C :   -0.091805
   7 N :   -0.086847
   8 C :   -0.038230
   9 C :   -0.053369
  10 C :   -0.176560
  11 S :    0.496608
  12 C :   -0.180572
  13 C :   -0.040906
  14 C :   -0.041945
  15 C :   -0.040263
  16 C :    0.063618
  17 F :   -0.052395
  18 C :    0.063971
  19 F :   -0.048251
  20 C :   -0.032913
  21 C :   -0.046119
  22 C :   -0.030952
  23 C :   -0.052516
  24 C :   -0.043417
  25 C :   -0.063767
  26 C :    0.049894
  27 N :    0.019878
  28 C :    0.072202
  29 C :   -0.122902
  30 C :    0.010480
  31 C :   -0.185574
  32 C :   -0.000246
  33 C :   -0.058729
  34 C :   -0.127450
  35 S :    0.401208
  36 C :   -0.216340
  37 C :   -0.015190
  38 C :   -0.048143
  39 C :   -0.110775
  40 S :    0.470276
  41 C :   -0.082404
  42 C :    0.034326
  43 C :   -0.118022
  44 C :    0.082101
  45 O :   -0.158275
  46 C :   -0.055053
  47 C :    0.024792
  48 C :   -0.023578
  49 C :   -0.000666
  50 C :   -0.043404
  51 C :    0.079507
  52 C :   -0.044489
  53 C :    0.000988
  54 F :   -0.077778
  55 C :   -0.008017
  56 C :   -0.013280
  57 C :    0.041466
  58 C :   -0.186310
  59 C :   -0.033662
  60 N :   -0.074604
  61 C :    0.009575
  62 N :   -0.100619
  63 H :    0.026026
  64 H :    0.020288
  65 H :    0.037875
  66 H :    0.019680
  67 H :    0.038872
  68 H :    0.038392
  69 H :    0.026161
  70 H :    0.029343
  71 H :    0.021282
  72 H :    0.021864
  73 H :    0.039479
  74 H :    0.038281
  75 H :    0.026204
  76 H :    0.028379
  77 H :    0.083373
  78 H :    0.030412
  79 H :    0.022831
  80 H :    0.037163
  81 H :    0.036387
  82 H :    0.033050
  83 H :    0.032121
  84 H :    0.033553
  85 H :    0.038065
  86 H :    0.043871
  87 H :    0.036382
  88 H :    0.034597
  89 H :    0.036772
  90 H :    0.032760
  91 H :    0.029913

  Mayer bond orders larger than 0.100000
B(  0-C ,  1-S ) :   1.1508 B(  0-C ,  2-C ) :   0.1013 B(  0-C ,  4-C ) :   1.5512
B(  0-C , 63-H ) :   0.9785 B(  1-S ,  2-C ) :   1.1232 B(  2-C ,  3-C ) :   1.4257
B(  2-C ,  8-C ) :   1.1983 B(  3-C ,  4-C ) :   1.2206 B(  3-C ,  7-N ) :   1.2963
B(  4-C ,  5-S ) :   1.0264 B(  5-S ,  6-C ) :   1.0795 B(  5-S ,  7-N ) :   0.1072
B(  6-C ,  7-N ) :   1.7931 B(  6-C , 64-H ) :   0.9629 B(  8-C ,  9-C ) :   1.6097
B(  8-C , 65-H ) :   0.9775 B(  9-C , 10-C ) :   1.1583 B(  9-C , 66-H ) :   0.9444
B( 10-C , 11-S ) :   1.1620 B( 10-C , 12-C ) :   0.1092 B( 10-C , 14-C ) :   1.3360
B( 11-S , 12-C ) :   1.1680 B( 12-C , 13-C ) :   1.3236 B( 12-C , 21-C ) :   1.1255
B( 13-C , 14-C ) :   1.2300 B( 13-C , 20-C ) :   1.1687 B( 14-C , 15-C ) :   1.1589
B( 15-C , 16-C ) :   1.4899 B( 15-C , 20-C ) :   0.1137 B( 15-C , 67-H ) :   1.0039
B( 16-C , 17-F ) :   1.1259 B( 16-C , 18-C ) :   1.1729 B( 18-C , 19-F ) :   1.1031
B( 18-C , 20-C ) :   1.4957 B( 20-C , 68-H ) :   0.9965 B( 21-C , 22-C ) :   1.6661
B( 21-C , 69-H ) :   0.9517 B( 22-C , 23-C ) :   1.1278 B( 22-C , 70-H ) :   0.9747
B( 23-C , 24-C ) :   1.7321 B( 23-C , 71-H ) :   0.9783 B( 24-C , 25-C ) :   1.0721
B( 24-C , 26-C ) :   1.0533 B( 25-C , 72-H ) :   0.9369 B( 25-C , 73-H ) :   0.9374
B( 25-C , 74-H ) :   0.9128 B( 26-C , 27-N ) :   0.9892 B( 26-C , 75-H ) :   0.9441
B( 26-C , 76-H ) :   0.9314 B( 27-N , 28-C ) :   1.2884 B( 27-N , 77-H ) :   0.9314
B( 28-C , 29-C ) :   1.5374 B( 28-C , 78-H ) :   0.9720 B( 29-C , 30-C ) :   1.2236
B( 29-C , 79-H ) :   0.9552 B( 30-C , 31-C ) :   1.5328 B( 30-C , 80-H ) :   0.9812
B( 31-C , 32-C ) :   1.1803 B( 31-C , 35-S ) :   1.0194 B( 32-C , 33-C ) :   1.5479
B( 32-C , 81-H ) :   0.9970 B( 33-C , 34-C ) :   1.2227 B( 33-C , 82-H ) :   0.9955
B( 34-C , 35-S ) :   1.1183 B( 34-C , 36-C ) :   1.4138 B( 36-C , 37-C ) :   1.2403
B( 36-C , 40-S ) :   1.0398 B( 37-C , 38-C ) :   1.5267 B( 37-C , 83-H ) :   0.9903
B( 38-C , 39-C ) :   1.2072 B( 38-C , 84-H ) :   0.9972 B( 39-C , 40-S ) :   1.1299
B( 39-C , 41-C ) :   1.3838 B( 41-C , 42-C ) :   1.3992 B( 41-C , 85-H ) :   0.9535
B( 42-C , 43-C ) :   1.4027 B( 42-C , 86-H ) :   0.9270 B( 43-C , 44-C ) :   0.9775
B( 43-C , 57-C ) :   1.1713 B( 44-C , 45-O ) :   2.2461 B( 44-C , 46-C ) :   0.9084
B( 46-C , 47-C ) :   1.4779 B( 46-C , 56-C ) :   1.2343 B( 47-C , 48-C ) :   1.1607
B( 47-C , 87-H ) :   1.0210 B( 48-C , 49-C ) :   1.2823 B( 48-C , 53-C ) :   1.2323
B( 49-C , 50-C ) :   1.2136 B( 49-C , 55-C ) :   1.1706 B( 50-C , 51-C ) :   1.4287
B( 50-C , 88-H ) :   1.0032 B( 51-C , 52-C ) :   1.2666 B( 51-C , 54-F ) :   1.0638
B( 52-C , 53-C ) :   1.4449 B( 52-C , 89-H ) :   0.9916 B( 53-C , 90-H ) :   1.0000
B( 55-C , 56-C ) :   1.4768 B( 55-C , 91-H ) :   0.9972 B( 56-C , 57-C ) :   0.9779
B( 57-C , 58-C ) :   1.5030 B( 58-C , 59-C ) :   1.1600 B( 58-C , 61-C ) :   1.1825
B( 59-C , 60-N ) :   3.0167 B( 61-C , 62-N ) :   2.8892 B( 62-N , 74-H ) :   0.1221

-----------------------------------------------------------------------------
         ABSORPTION SPECTRUM VIA TRANSITION ELECTRIC DIPOLE MOMENTS
-----------------------------------------------------------------------------
State   Energy  Wavelength   fosc         T2         TX        TY        TZ
        (cm-1)    (nm)                  (au**2)     (au)      (au)      (au)
-----------------------------------------------------------------------------
   0   12194.6    820.0   0.350300915   9.45691  -0.85548  -0.12677  -2.95110
   1   16525.3    605.1   0.306513910   6.10628  -0.42206   1.75011  -1.69271
   2   18869.8    529.9   1.257284444  21.93523   1.51190  -3.05986   3.20728
   3   20479.8    488.3   0.019862182   0.31928   0.46166   0.12202   0.30210
   4   21658.8    461.7   0.040528823   0.61603   0.36645   0.00286   0.69408
   5   23420.9    427.0   0.254603346   3.57879  -1.03292  -1.25447  -0.96859
   6   24194.9    413.3   0.083905651   1.14168   0.60344   0.40187   0.78488
   7   25187.3    397.0   0.077973474   1.01915  -0.48580  -0.80542  -0.36667
   8   26059.0    383.7   0.451090987   5.69879  -0.36283  -2.30911  -0.48491
   9   26573.4    376.3   0.388771488   4.81641   0.61716   1.95376   0.78635
  10   27086.3    369.2   0.019287168   0.23442  -0.20245  -0.32304  -0.29847
  11   27800.6    359.7   0.102115245   1.20924   0.70451  -0.50725   0.67498
  12   28319.7    353.1   0.035281342   0.41014   0.13018  -0.62637  -0.02928
  13   29632.6    337.5   0.039858563   0.44282   0.26669  -0.58588  -0.16863
  14   29727.1    336.4   0.085654646   0.94858  -0.14310   0.92444   0.27112
  15   30001.3    333.3   0.106285007   1.16629   0.28892   0.96940  -0.37825
  16   30535.9    327.5   0.024921238   0.26868  -0.36881  -0.22020  -0.29012
  17   31070.8    321.8   0.088838381   0.94129   0.39228   0.37497   0.80424
  18   31391.4    318.6   0.043194982   0.45300   0.07496  -0.53443   0.40220
  19   31650.0    316.0   0.034660803   0.36053   0.00848   0.17395  -0.57463
  20   32078.0    311.7   0.077899711   0.79947   0.17798  -0.79151   0.37592
  21   32355.3    309.1   0.223159952   2.27063   0.59569  -1.38239   0.06917
  22   32640.9    306.4   0.130757005   1.31880   0.15357  -1.11569  -0.22463
  23   33066.5    302.4   0.006077907   0.06051  -0.21409   0.10553   0.05950
  24   33135.5    301.8   0.142566034   1.41644   0.50325  -1.07350  -0.10384
  25   33440.4    299.0   0.023977935   0.23606  -0.25912  -0.28749  -0.29370
  26   33954.4    294.5   0.010320997   0.10007  -0.14429  -0.22840  -0.16458
  27   34260.4    291.9   0.034324681   0.32983   0.00062   0.56765   0.08722
  28   34288.2    291.6   0.166932344   1.60277  -0.20470  -0.05609  -1.24809
  29   34906.9    286.5   0.176684154   1.66633  -0.43187  -0.34316  -1.16708
  30   35119.2    284.7   0.050199362   0.47058   0.52404  -0.33402   0.29050
  31   35361.7    282.8   0.017112852   0.15932  -0.10760   0.35757   0.14101
  32   35439.2    282.2   0.082673005   0.76799  -0.37872   0.75799   0.22364
  33   36092.8    277.1   0.091550276   0.83505  -0.36747   0.65225  -0.52401
  34   36401.9    274.7   0.138453760   1.25215  -0.79425   0.72559  -0.30796
  35   36861.9    271.3   0.242716128   2.16769   0.79202  -0.77024   0.97320
  36   37112.1    269.5   0.076995655   0.68301   0.02132  -0.04010  -0.82519
  37   37612.9    265.9   0.012892789   0.11285   0.02154   0.33453   0.02167
  38   37775.2    264.7   0.002489916   0.02170  -0.07388   0.02119   0.12567
  39   38367.4    260.6   0.194853005   1.67194   0.55292  -0.50880   1.05230
  40   38714.1    258.3   0.024205055   0.20583  -0.18491   0.12457  -0.39512
  41   39062.9    256.0   0.006792320   0.05724  -0.14577   0.01021   0.18944
  42   39164.7    255.3   0.084815511   0.71295   0.13745  -0.66810  -0.49769
  43   39873.6    250.8   0.029569860   0.24414   0.03455   0.34885   0.34821
  44   40107.3    249.3   0.032171757   0.26407   0.27566  -0.43367  -0.00325
  45   40133.6    249.2   0.008434830   0.06919   0.10124  -0.05085   0.23739
  46   40181.8    248.9   0.005448663   0.04464  -0.15580  -0.05279   0.13259

FINAL SINGLE POINT ENERGY     -4503.599818002888

DIPOLE MOMENT
-------------
                                X             Y             Z
Electronic contribution:    -19.00200      19.39427     -41.61143
Nuclear contribution   :     19.31303     -18.56472      45.23014
                        -----------------------------------------
Total Dipole Moment    :      0.31103       0.82955       3.61871
                        -----------------------------------------
Magnitude (a.u.)       :      3.72558
Magnitude (Debye)      :      9.46968

Rotational constants in cm-1:     0.002051     0.000629     0.000523
Rotational constants in MHz :    61.483880    18.854000    15.678072

                             ****ORCA TERMINATED NORMALLY****
TOTAL RUN TIME: 0 days 0 hours 15 minutes 15 seconds 447 msec
