                         Program Version 4.2.0 -  RELEASE  -
|  1> # ORCA input file
|  2> # SCF done       -162.818657368860          0.000860802938
|  3> ! CAM-B3LYP def2-SVP def2/J RIJCOSX Grid4 TightSCF
|  4> %maxcore 5000
|  5> %tddft
|  6>     Mode sTDDFT
|  7>     Ethresh 5.0
|  8>     maxcore 5000
|  9> end
| 10>
| 11> %pal
| 12>   nprocs 6
| 13>   end
| 14> * xyz 0 1
| 15>    C       -4.99495         1.93591        -0.42966
| 16>    C       -4.39524         0.99305        -1.23506
| 17>    C       -3.32642         1.53487        -2.03872
| 18>    N       -2.64375         0.72881        -2.87039
| 19>    C       -2.99913        -0.52704        -2.90724
| 20>    C       -4.05389        -1.06418        -2.11982
| 21>    C       -4.42922        -2.50852        -2.23627
| 22>    C       -5.20371        -2.75925        -3.53166
| 23>    N       -4.73731        -0.31283        -1.29770
| 24>    C       -3.12906         2.90928        -1.82213
| 25>    S       -4.28148         3.46609        -0.63113
| 26>    C       -2.22883         3.86240        -2.34614
| 27>    S       -2.32530         5.47248        -1.71126
| 28>    C       -1.04781         6.09058        -2.72710
| 29>    C       -0.55569         5.04892        -3.54970
| 30>    C       -1.21624         3.79848        -3.33194
| 31>    C       -0.83481         2.67016        -4.07599
| 32>    C        0.16478         2.78550        -5.00124
| 33>    F        0.53819         1.71107        -5.71930
| 34>    C        0.81284         4.01419        -5.22070
| 35>    F        1.78981         4.09477        -6.14234
| 36>    C        0.46276         5.13086        -4.51074
| 37>    C       -0.76617         7.44466        -2.55742
| 38>    C        0.16548         8.26838        -3.15574
| 39>    C        0.30410         9.63257        -2.90451
| 40>    C       -0.45172        10.46882        -2.09136
| 41>    C       -0.20718        11.84142        -1.88528
| 42>    C       -1.08754        12.46371        -1.03636
| 43>    C       -2.07594        11.60804        -0.53215
| 44>    S       -1.86316         9.99924        -1.17090
| 45>    C       -3.11092        11.84409         0.36810
| 46>    C       -3.47233        13.00931         1.05595
| 47>    C       -4.53968        12.83757         1.89855
| 48>    C       -5.06896        11.52957         1.92666
| 49>    S       -4.16982        10.52690         0.81283
| 50>    C       -6.18425        11.17063         2.66759
| 51>    C       -6.87949         9.97907         2.85946
| 52>    S       -8.47247        10.16458         3.56159
| 53>    C       -8.84366         8.46886         3.49906
| 54>    C       -7.75942         7.76674         2.92750
| 55>    C       -6.63917         8.60033         2.61452
| 56>    C       -5.44814         8.00170         2.18170
| 57>    C       -5.40729         6.65290         1.95161
| 58>    F       -4.26197         6.08264         1.53739
| 59>    C       -6.54919         5.85560         2.13722
| 60>    F       -6.49743         4.54350         1.83852
| 61>    C       -7.70569         6.39354         2.62983
| 62>    C      -10.07853         8.05976         4.02939
| 63>    C      -10.47866         6.79909         4.36535
| 64>    C      -11.73900         6.48861         4.90330
| 65>    C      -12.15594         5.22160         5.33099
| 66>    C      -13.49639         5.21499         5.84757
| 67>    N      -14.05408         4.06865         6.31181
| 68>    C      -13.29957         3.01218         6.25292
| 69>    C      -11.96706         3.01061         5.73925
| 70>    C      -11.17985         1.73619         5.71508
| 71>    C       -9.78759         1.91457         5.12699
| 72>    N      -11.40966         4.10544         5.28427
| 73>    C      -14.08272         6.45941         5.80496
| 74>    S      -13.02588         7.63406         5.14974
| 75>    H       -5.80415         1.79723         0.25758
| 76>    H       -2.43411        -1.15975        -3.57859
| 77>    H       -5.04914        -2.77487        -1.37998
| 78>    H       -3.52468        -3.12072        -2.22739
| 79>    H       -6.11351        -2.16381        -3.54521
| 80>    H       -5.47493        -3.80923        -3.60857
| 81>    H       -4.60332        -2.49199        -4.39870
| 82>    H       -1.32785         1.72462        -3.90904
| 83>    H        0.97810         6.05365        -4.70922
| 84>    H       -1.40106         7.89724        -1.80984
| 85>    H        0.86288         7.85443        -3.86729
| 86>    H        1.11580        10.13320        -3.41864
| 87>    H        0.61818        12.34092        -2.36224
| 88>    H       -1.03787        13.50449        -0.77026
| 89>    H       -2.94808        13.93879         0.92395
| 90>    H       -4.95471        13.62092         2.50802
| 91>    H       -6.65510        12.02055         3.15191
| 92>    H       -4.54975         8.57370         2.04108
| 93>    H       -8.56347         5.75769         2.76077
| 94>    H      -10.77150         8.86653         4.24233
| 95>    H       -9.81939         5.94924         4.28530
| 96>    H      -13.73523         2.09243         6.62245
| 97>    H      -11.74108         0.99519         5.13764
| 98>    H      -11.11043         1.35597         6.73910
| 99>    H       -9.85478         2.27484         4.10453
|100>    H       -9.25140         0.96916         5.13345
|101>    H       -9.22656         2.64314         5.70502
|102>    H      -15.06643         6.73600         6.12420
|103> *
|104>
|105>                          ****END OF INPUT****

CARTESIAN COORDINATES (ANGSTROEM)
---------------------------------
  C     -4.994950    1.935910   -0.429660
  C     -4.395240    0.993050   -1.235060
  C     -3.326420    1.534870   -2.038720
  N     -2.643750    0.728810   -2.870390
  C     -2.999130   -0.527040   -2.907240
  C     -4.053890   -1.064180   -2.119820
  C     -4.429220   -2.508520   -2.236270
  C     -5.203710   -2.759250   -3.531660
  N     -4.737310   -0.312830   -1.297700
  C     -3.129060    2.909280   -1.822130
  S     -4.281480    3.466090   -0.631130
  C     -2.228830    3.862400   -2.346140
  S     -2.325300    5.472480   -1.711260
  C     -1.047810    6.090580   -2.727100
  C     -0.555690    5.048920   -3.549700
  C     -1.216240    3.798480   -3.331940
  C     -0.834810    2.670160   -4.075990
  C      0.164780    2.785500   -5.001240
  F      0.538190    1.711070   -5.719300
  C      0.812840    4.014190   -5.220700
  F      1.789810    4.094770   -6.142340
  C      0.462760    5.130860   -4.510740
  C     -0.766170    7.444660   -2.557420
  C      0.165480    8.268380   -3.155740
  C      0.304100    9.632570   -2.904510
  C     -0.451720   10.468820   -2.091360
  C     -0.207180   11.841420   -1.885280
  C     -1.087540   12.463710   -1.036360
  C     -2.075940   11.608040   -0.532150
  S     -1.863160    9.999240   -1.170900
  C     -3.110920   11.844090    0.368100
  C     -3.472330   13.009310    1.055950
  C     -4.539680   12.837570    1.898550
  C     -5.068960   11.529570    1.926660
  S     -4.169820   10.526900    0.812830
  C     -6.184250   11.170630    2.667590
  C     -6.879490    9.979070    2.859460
  S     -8.472470   10.164580    3.561590
  C     -8.843660    8.468860    3.499060
  C     -7.759420    7.766740    2.927500
  C     -6.639170    8.600330    2.614520
  C     -5.448140    8.001700    2.181700
  C     -5.407290    6.652900    1.951610
  F     -4.261970    6.082640    1.537390
  C     -6.549190    5.855600    2.137220
  F     -6.497430    4.543500    1.838520
  C     -7.705690    6.393540    2.629830
  C    -10.078530    8.059760    4.029390
  C    -10.478660    6.799090    4.365350
  C    -11.739000    6.488610    4.903300
  C    -12.155940    5.221600    5.330990
  C    -13.496390    5.214990    5.847570
  N    -14.054080    4.068650    6.311810
  C    -13.299570    3.012180    6.252920
  C    -11.967060    3.010610    5.739250
  C    -11.179850    1.736190    5.715080
  C     -9.787590    1.914570    5.126990
  N    -11.409660    4.105440    5.284270
  C    -14.082720    6.459410    5.804960
  S    -13.025880    7.634060    5.149740
  H     -5.804150    1.797230    0.257580
  H     -2.434110   -1.159750   -3.578590
  H     -5.049140   -2.774870   -1.379980
  H     -3.524680   -3.120720   -2.227390
  H     -6.113510   -2.163810   -3.545210
  H     -5.474930   -3.809230   -3.608570
  H     -4.603320   -2.491990   -4.398700
  H     -1.327850    1.724620   -3.909040
  H      0.978100    6.053650   -4.709220
  H     -1.401060    7.897240   -1.809840
  H      0.862880    7.854430   -3.867290
  H      1.115800   10.133200   -3.418640
  H      0.618180   12.340920   -2.362240
  H     -1.037870   13.504490   -0.770260
  H     -2.948080   13.938790    0.923950
  H     -4.954710   13.620920    2.508020
  H     -6.655100   12.020550    3.151910
  H     -4.549750    8.573700    2.041080
  H     -8.563470    5.757690    2.760770
  H    -10.771500    8.866530    4.242330
  H     -9.819390    5.949240    4.285300
  H    -13.735230    2.092430    6.622450
  H    -11.741080    0.995190    5.137640
  H    -11.110430    1.355970    6.739100
  H     -9.854780    2.274840    4.104530
  H     -9.251400    0.969160    5.133450
  H     -9.226560    2.643140    5.705020
  H    -15.066430    6.736000    6.124200

 Total Charge           Charge          ....    0
 Multiplicity           Mult            ....    1
 Number of Electrons    NEL             ....  464
 Basis Dimension        Dim             .... 1004

ORBITAL ENERGIES
----------------

  NO   OCC          E(Eh)            E(eV)
   0   2.0000     -88.969372     -2420.9797
   1   2.0000     -88.966471     -2420.9007
   2   2.0000     -88.960954     -2420.7506
   3   2.0000     -88.957819     -2420.6653
   4   2.0000     -88.946947     -2420.3695
   5   2.0000     -88.944954     -2420.3152
   6   2.0000     -24.787376      -674.4988
   7   2.0000     -24.782368      -674.3625
   8   2.0000     -24.776326      -674.1981
   9   2.0000     -24.771289      -674.0611
  10   2.0000     -14.422859      -392.4659
  11   2.0000     -14.417551      -392.3215
  12   2.0000     -14.415206      -392.2577
  13   2.0000     -14.410416      -392.1274
  14   2.0000     -10.364097      -282.0214
  15   2.0000     -10.361498      -281.9507
  16   2.0000     -10.356217      -281.8070
  17   2.0000     -10.350709      -281.6571
  18   2.0000     -10.316053      -280.7141
  19   2.0000     -10.313044      -280.6322
  20   2.0000     -10.311919      -280.6016
  21   2.0000     -10.311770      -280.5975
  22   2.0000     -10.311194      -280.5819
  23   2.0000     -10.310799      -280.5711
  24   2.0000     -10.310747      -280.5697
  25   2.0000     -10.308823      -280.5173
  26   2.0000     -10.308512      -280.5089
  27   2.0000     -10.307103      -280.4705
  28   2.0000     -10.307101      -280.4705
  29   2.0000     -10.306308      -280.4489
  30   2.0000     -10.303462      -280.3714
  31   2.0000     -10.303125      -280.3623
  32   2.0000     -10.303081      -280.3611
  33   2.0000     -10.302813      -280.3538
  34   2.0000     -10.301300      -280.3126
  35   2.0000     -10.300518      -280.2913
  36   2.0000     -10.295724      -280.1609
  37   2.0000     -10.292994      -280.0866
  38   2.0000     -10.291425      -280.0439
  39   2.0000     -10.289692      -279.9967
  40   2.0000     -10.289265      -279.9851
  41   2.0000     -10.286266      -279.9035
  42   2.0000     -10.285639      -279.8865
  43   2.0000     -10.284951      -279.8677
  44   2.0000     -10.284769      -279.8628
  45   2.0000     -10.283832      -279.8373
  46   2.0000     -10.282188      -279.7926
  47   2.0000     -10.282112      -279.7905
  48   2.0000     -10.281526      -279.7745
  49   2.0000     -10.280593      -279.7492
  50   2.0000     -10.280034      -279.7339
  51   2.0000     -10.278602      -279.6950
  52   2.0000     -10.277845      -279.6744
  53   2.0000     -10.277256      -279.6584
  54   2.0000     -10.272345      -279.5247
  55   2.0000     -10.270372      -279.4710
  56   2.0000     -10.266301      -279.3602
  57   2.0000     -10.262656      -279.2611
  58   2.0000     -10.259167      -279.1661
  59   2.0000     -10.249040      -278.8906
  60   2.0000      -8.064393      -219.4433
  61   2.0000      -8.061723      -219.3706
  62   2.0000      -8.056613      -219.2316
  63   2.0000      -8.053485      -219.1465
  64   2.0000      -8.043070      -218.8631
  65   2.0000      -8.040770      -218.8005
  66   2.0000      -6.033263      -164.1734
  67   2.0000      -6.030744      -164.1049
  68   2.0000      -6.029188      -164.0625
  69   2.0000      -6.027449      -164.0152
  70   2.0000      -6.026368      -163.9858
  71   2.0000      -6.025593      -163.9647
  72   2.0000      -6.024611      -163.9380
  73   2.0000      -6.022579      -163.8827
  74   2.0000      -6.021708      -163.8590
  75   2.0000      -6.019082      -163.7875
  76   2.0000      -6.018475      -163.7710
  77   2.0000      -6.015879      -163.7004
  78   2.0000      -6.012747      -163.6152
  79   2.0000      -6.010421      -163.5519
  80   2.0000      -6.008548      -163.5009
  81   2.0000      -6.006276      -163.4391
  82   2.0000      -6.004228      -163.3833
  83   2.0000      -6.002026      -163.3234
  84   2.0000      -1.305327       -35.5197
  85   2.0000      -1.295161       -35.2431
  86   2.0000      -1.290291       -35.1106
  87   2.0000      -1.279821       -34.8257
  88   2.0000      -1.072785       -29.1920
  89   2.0000      -1.072242       -29.1772
  90   2.0000      -1.000515       -27.2254
  91   2.0000      -1.000043       -27.2125
  92   2.0000      -0.997303       -27.1380
  93   2.0000      -0.994648       -27.0657
  94   2.0000      -0.993130       -27.0245
  95   2.0000      -0.976199       -26.5637
  96   2.0000      -0.971927       -26.4475
  97   2.0000      -0.970677       -26.4135
  98   2.0000      -0.940178       -25.5836
  99   2.0000      -0.931834       -25.3565
 100   2.0000      -0.909628       -24.7522
 101   2.0000      -0.903806       -24.5938
 102   2.0000      -0.883942       -24.0533
 103   2.0000      -0.878445       -23.9037
 104   2.0000      -0.878152       -23.8957
 105   2.0000      -0.870001       -23.6739
 106   2.0000      -0.859047       -23.3759
 107   2.0000      -0.844341       -22.9757
 108   2.0000      -0.835589       -22.7375
 109   2.0000      -0.832946       -22.6656
 110   2.0000      -0.831881       -22.6366
 111   2.0000      -0.830523       -22.5997
 112   2.0000      -0.826058       -22.4782
 113   2.0000      -0.820800       -22.3351
 114   2.0000      -0.819453       -22.2985
 115   2.0000      -0.813477       -22.1358
 116   2.0000      -0.798261       -21.7218
 117   2.0000      -0.779859       -21.2210
 118   2.0000      -0.758316       -20.6348
 119   2.0000      -0.755973       -20.5711
 120   2.0000      -0.747843       -20.3498
 121   2.0000      -0.739005       -20.1094
 122   2.0000      -0.731828       -19.9140
 123   2.0000      -0.721933       -19.6448
 124   2.0000      -0.721499       -19.6330
 125   2.0000      -0.719104       -19.5678
 126   2.0000      -0.702666       -19.1205
 127   2.0000      -0.699951       -19.0466
 128   2.0000      -0.693577       -18.8732
 129   2.0000      -0.676052       -18.3963
 130   2.0000      -0.674583       -18.3563
 131   2.0000      -0.668830       -18.1998
 132   2.0000      -0.663383       -18.0516
 133   2.0000      -0.662223       -18.0200
 134   2.0000      -0.652244       -17.7485
 135   2.0000      -0.643026       -17.4976
 136   2.0000      -0.638179       -17.3657
 137   2.0000      -0.632453       -17.2099
 138   2.0000      -0.628960       -17.1149
 139   2.0000      -0.622287       -16.9333
 140   2.0000      -0.619030       -16.8447
 141   2.0000      -0.612294       -16.6614
 142   2.0000      -0.611409       -16.6373
 143   2.0000      -0.608422       -16.5560
 144   2.0000      -0.604385       -16.4461
 145   2.0000      -0.602618       -16.3981
 146   2.0000      -0.597572       -16.2608
 147   2.0000      -0.586627       -15.9629
 148   2.0000      -0.583003       -15.8643
 149   2.0000      -0.570932       -15.5358
 150   2.0000      -0.569757       -15.5039
 151   2.0000      -0.564361       -15.3571
 152   2.0000      -0.560531       -15.2528
 153   2.0000      -0.560212       -15.2441
 154   2.0000      -0.556506       -15.1433
 155   2.0000      -0.553090       -15.0503
 156   2.0000      -0.546112       -14.8605
 157   2.0000      -0.545706       -14.8494
 158   2.0000      -0.538599       -14.6560
 159   2.0000      -0.533886       -14.5278
 160   2.0000      -0.532953       -14.5024
 161   2.0000      -0.531507       -14.4630
 162   2.0000      -0.529657       -14.4127
 163   2.0000      -0.525170       -14.2906
 164   2.0000      -0.522926       -14.2295
 165   2.0000      -0.522720       -14.2239
 166   2.0000      -0.518620       -14.1124
 167   2.0000      -0.515689       -14.0326
 168   2.0000      -0.511737       -13.9251
 169   2.0000      -0.511605       -13.9215
 170   2.0000      -0.506613       -13.7856
 171   2.0000      -0.504009       -13.7148
 172   2.0000      -0.502673       -13.6784
 173   2.0000      -0.500178       -13.6105
 174   2.0000      -0.498687       -13.5700
 175   2.0000      -0.493118       -13.4184
 176   2.0000      -0.491456       -13.3732
 177   2.0000      -0.489009       -13.3066
 178   2.0000      -0.488451       -13.2914
 179   2.0000      -0.485883       -13.2215
 180   2.0000      -0.482722       -13.1355
 181   2.0000      -0.476964       -12.9788
 182   2.0000      -0.473757       -12.8916
 183   2.0000      -0.470129       -12.7929
 184   2.0000      -0.464593       -12.6422
 185   2.0000      -0.461772       -12.5655
 186   2.0000      -0.461180       -12.5494
 187   2.0000      -0.459525       -12.5043
 188   2.0000      -0.456084       -12.4107
 189   2.0000      -0.450278       -12.2527
 190   2.0000      -0.448218       -12.1966
 191   2.0000      -0.443244       -12.0613
 192   2.0000      -0.442327       -12.0363
 193   2.0000      -0.439806       -11.9677
 194   2.0000      -0.433817       -11.8048
 195   2.0000      -0.432245       -11.7620
 196   2.0000      -0.431247       -11.7348
 197   2.0000      -0.430100       -11.7036
 198   2.0000      -0.427965       -11.6455
 199   2.0000      -0.426462       -11.6046
 200   2.0000      -0.422519       -11.4973
 201   2.0000      -0.421126       -11.4594
 202   2.0000      -0.420605       -11.4452
 203   2.0000      -0.419132       -11.4052
 204   2.0000      -0.415263       -11.2999
 205   2.0000      -0.413585       -11.2542
 206   2.0000      -0.411496       -11.1974
 207   2.0000      -0.410016       -11.1571
 208   2.0000      -0.408055       -11.1037
 209   2.0000      -0.404559       -11.0086
 210   2.0000      -0.401176       -10.9166
 211   2.0000      -0.389145       -10.5892
 212   2.0000      -0.386964       -10.5298
 213   2.0000      -0.382949       -10.4206
 214   2.0000      -0.374140       -10.1809
 215   2.0000      -0.372661       -10.1406
 216   2.0000      -0.353918        -9.6306
 217   2.0000      -0.343536        -9.3481
 218   2.0000      -0.334656        -9.1065
 219   2.0000      -0.320443        -8.7197
 220   2.0000      -0.317532        -8.6405
 221   2.0000      -0.315967        -8.5979
 222   2.0000      -0.314346        -8.5538
 223   2.0000      -0.313777        -8.5383
 224   2.0000      -0.312154        -8.4941
 225   2.0000      -0.310807        -8.4575
 226   2.0000      -0.302883        -8.2419
 227   2.0000      -0.301745        -8.2109
 228   2.0000      -0.284647        -7.7456
 229   2.0000      -0.254506        -6.9255
 230   2.0000      -0.224614        -6.1121
 231   2.0000      -0.185243        -5.0407
 232   0.0000      -0.099713        -2.7133
 233   0.0000      -0.068939        -1.8759
 234   0.0000      -0.049222        -1.3394
 235   0.0000      -0.031095        -0.8461
 236   0.0000      -0.015401        -0.4191

MULLIKEN ATOMIC CHARGES
-----------------------
   0 C :   -0.137204
   1 C :    0.045085
   2 C :    0.057682
   3 N :   -0.021313
   4 C :    0.034569
   5 C :   -0.144930
   6 C :    0.100997
   7 C :   -0.007439
   8 N :    0.000012
   9 C :   -0.156933
  10 S :    0.173451
  11 C :   -0.109081
  12 S :    0.140390
  13 C :   -0.097358
  14 C :    0.125100
  15 C :    0.106424
  16 C :   -0.106330
  17 C :    0.216139
  18 F :   -0.183766
  19 C :    0.225975
  20 F :   -0.182382
  21 C :   -0.129983
  22 C :    0.048739
  23 C :   -0.010276
  24 C :    0.006859
  25 C :   -0.030242
  26 C :    0.033112
  27 C :    0.016767
  28 C :   -0.022861
  29 S :    0.042728
  30 C :   -0.041030
  31 C :    0.029889
  32 C :    0.022375
  33 C :   -0.030223
  34 S :    0.073984
  35 C :    0.004031
  36 C :   -0.125309
  37 S :    0.141710
  38 C :   -0.110115
  39 C :    0.114402
  40 C :    0.139295
  41 C :   -0.123860
  42 C :    0.212656
  43 F :   -0.181097
  44 C :    0.227533
  45 F :   -0.188359
  46 C :   -0.128575
  47 C :    0.037503
  48 C :   -0.020258
  49 C :   -0.157886
  50 C :    0.036381
  51 C :    0.060550
  52 N :    0.006700
  53 C :    0.012432
  54 C :   -0.118652
  55 C :    0.021973
  56 C :    0.055212
  57 N :   -0.011221
  58 C :   -0.148937
  59 S :    0.151042
  60 H :    0.019760
  61 H :    0.000369
  62 H :    0.015484
  63 H :    0.010839
  64 H :    0.024649
  65 H :    0.022983
  66 H :    0.013099
  67 H :   -0.016884
  68 H :   -0.029436
  69 H :   -0.006819
  70 H :   -0.029280
  71 H :   -0.017597
  72 H :   -0.014340
  73 H :   -0.017013
  74 H :   -0.014563
  75 H :   -0.013858
  76 H :   -0.014209
  77 H :   -0.005843
  78 H :   -0.007488
  79 H :   -0.016713
  80 H :    0.003050
  81 H :   -0.002700
  82 H :    0.023582
  83 H :    0.023730
  84 H :    0.013525
  85 H :    0.006858
  86 H :    0.016768
  87 H :    0.015971
Sum of atomic charges:   -0.0000000

LOEWDIN ATOMIC CHARGES
----------------------
   0 C :   -0.196902
   1 C :   -0.055032
   2 C :   -0.053585
   3 N :   -0.021464
   4 C :    0.006155
   5 C :   -0.005506
   6 C :   -0.035025
   7 C :   -0.048255
   8 N :   -0.049580
   9 C :   -0.198753
  10 S :    0.500933
  11 C :   -0.186983
  12 S :    0.469516
  13 C :   -0.163351
  14 C :   -0.042686
  15 C :   -0.039745
  16 C :   -0.032974
  17 C :    0.052495
  18 F :   -0.063284
  19 C :    0.063721
  20 F :   -0.061322
  21 C :   -0.045918
  22 C :   -0.053517
  23 C :   -0.049897
  24 C :   -0.049986
  25 C :   -0.155792
  26 C :   -0.030798
  27 C :   -0.048946
  28 C :   -0.179504
  29 S :    0.401565
  30 C :   -0.182581
  31 C :   -0.040139
  32 C :   -0.036753
  33 C :   -0.158519
  34 S :    0.406807
  35 C :   -0.084276
  36 C :   -0.169530
  37 S :    0.465666
  38 C :   -0.172137
  39 C :   -0.042611
  40 C :   -0.045365
  41 C :   -0.043086
  42 C :    0.056044
  43 F :   -0.059427
  44 C :    0.060989
  45 F :   -0.065632
  46 C :   -0.039945
  47 C :   -0.057606
  48 C :   -0.035711
  49 C :   -0.187017
  50 C :   -0.051413
  51 C :   -0.061732
  52 N :   -0.036290
  53 C :    0.004447
  54 C :   -0.004737
  55 C :   -0.043215
  56 C :   -0.049882
  57 N :   -0.050628
  58 C :   -0.191529
  59 S :    0.484002
  60 H :    0.030414
  61 H :    0.023440
  62 H :    0.034360
  63 H :    0.029448
  64 H :    0.028059
  65 H :    0.027162
  66 H :    0.021942
  67 H :    0.031304
  68 H :    0.036438
  69 H :    0.004276
  70 H :    0.026342
  71 H :    0.034975
  72 H :    0.032428
  73 H :    0.030778
  74 H :    0.032358
  75 H :    0.031842
  76 H :    0.033552
  77 H :    0.019281
  78 H :    0.041457
  79 H :    0.020561
  80 H :    0.036025
  81 H :    0.023149
  82 H :    0.036372
  83 H :    0.036679
  84 H :    0.025798
  85 H :    0.022905
  86 H :    0.026595
  87 H :    0.028288

  Mayer bond orders larger than 0.100000
B(  0-C ,  1-C ) :   1.4117 B(  0-C ,  9-C ) :   0.1281 B(  0-C , 10-S ) :   1.1820
B(  0-C , 60-H ) :   0.9814 B(  1-C ,  2-C ) :   1.1894 B(  1-C ,  8-N ) :   1.3497
B(  2-C ,  3-N ) :   1.3944 B(  2-C ,  9-C ) :   1.3222 B(  3-N ,  4-C ) :   1.6758
B(  3-N , 67-H ) :   0.1252 B(  4-C ,  5-C ) :   1.1544 B(  4-C , 61-H ) :   0.9738
B(  5-C ,  6-C ) :   1.0248 B(  5-C ,  8-N ) :   1.7355 B(  6-C ,  7-C ) :   1.0977
B(  6-C , 62-H ) :   0.9272 B(  6-C , 63-H ) :   0.9332 B(  7-C , 64-H ) :   0.9686
B(  7-C , 65-H ) :   0.9704 B(  7-C , 66-H ) :   0.9745 B(  9-C , 10-S ) :   1.1907
B(  9-C , 11-C ) :   1.2142 B( 11-C , 12-S ) :   1.1554 B( 11-C , 13-C ) :   0.1041
B( 11-C , 15-C ) :   1.3322 B( 12-S , 13-C ) :   1.1328 B( 13-C , 14-C ) :   1.2706
B( 13-C , 22-C ) :   1.3079 B( 14-C , 15-C ) :   1.2156 B( 14-C , 21-C ) :   1.1853
B( 15-C , 16-C ) :   1.2086 B( 16-C , 17-C ) :   1.4647 B( 16-C , 21-C ) :   0.1153
B( 16-C , 67-H ) :   0.9653 B( 17-C , 18-F ) :   1.1319 B( 17-C , 19-C ) :   1.1688
B( 19-C , 20-F ) :   1.1333 B( 19-C , 21-C ) :   1.4793 B( 21-C , 68-H ) :   1.0060
B( 22-C , 23-C ) :   1.4784 B( 22-C , 69-H ) :   0.9035 B( 23-C , 24-C ) :   1.3048
B( 23-C , 70-H ) :   0.9761 B( 24-C , 25-C ) :   1.4684 B( 24-C , 71-H ) :   0.9602
B( 25-C , 26-C ) :   1.2099 B( 25-C , 29-S ) :   1.0511 B( 26-C , 27-C ) :   1.5198
B( 26-C , 72-H ) :   0.9986 B( 27-C , 28-C ) :   1.2456 B( 27-C , 73-H ) :   0.9943
B( 28-C , 29-S ) :   1.0539 B( 28-C , 30-C ) :   1.4163 B( 30-C , 31-C ) :   1.2420
B( 30-C , 34-S ) :   1.0543 B( 31-C , 32-C ) :   1.5239 B( 31-C , 74-H ) :   0.9939
B( 32-C , 33-C ) :   1.1966 B( 32-C , 75-H ) :   0.9983 B( 33-C , 34-S ) :   1.0389
B( 33-C , 35-C ) :   1.5253 B( 35-C , 36-C ) :   1.2491 B( 35-C , 76-H ) :   0.9338
B( 36-C , 37-S ) :   1.1384 B( 36-C , 40-C ) :   1.2680 B( 37-S , 38-C ) :   1.1406
B( 38-C , 39-C ) :   1.3121 B( 38-C , 47-C ) :   1.2002 B( 39-C , 40-C ) :   1.2288
B( 39-C , 46-C ) :   1.1784 B( 40-C , 41-C ) :   1.1911 B( 41-C , 42-C ) :   1.4900
B( 41-C , 46-C ) :   0.1067 B( 41-C , 77-H ) :   0.9706 B( 42-C , 43-F ) :   1.1194
B( 42-C , 44-C ) :   1.1771 B( 44-C , 45-F ) :   1.1108 B( 44-C , 46-C ) :   1.4819
B( 46-C , 78-H ) :   0.9979 B( 47-C , 48-C ) :   1.5633 B( 47-C , 79-H ) :   0.9471
B( 48-C , 49-C ) :   1.2314 B( 48-C , 80-H ) :   0.9683 B( 49-C , 50-C ) :   1.3100
B( 49-C , 58-C ) :   0.1159 B( 49-C , 59-S ) :   1.1547 B( 50-C , 51-C ) :   1.1966
B( 50-C , 57-N ) :   1.3959 B( 51-C , 52-N ) :   1.3466 B( 51-C , 58-C ) :   1.4074
B( 52-N , 53-C ) :   1.7713 B( 53-C , 54-C ) :   1.1536 B( 53-C , 81-H ) :   0.9800
B( 54-C , 55-C ) :   0.9957 B( 54-C , 57-N ) :   1.7197 B( 55-C , 56-C ) :   1.1386
B( 55-C , 82-H ) :   0.9288 B( 55-C , 83-H ) :   0.9285 B( 56-C , 84-H ) :   0.9643
B( 56-C , 85-H ) :   0.9614 B( 56-C , 86-H ) :   0.9639 B( 58-C , 59-S ) :   1.1894
B( 58-C , 87-H ) :   0.9778

-----------------------------------------------------------------------------
         ABSORPTION SPECTRUM VIA TRANSITION ELECTRIC DIPOLE MOMENTS
-----------------------------------------------------------------------------
State   Energy  Wavelength   fosc         T2         TX        TY        TZ
        (cm-1)    (nm)                  (au**2)     (au)      (au)      (au)
-----------------------------------------------------------------------------
   0    6182.9   1617.4   0.452546878  24.09599  -3.35199   1.94509   3.01277
   1   11672.7    856.7   0.097112257   2.73892  -1.19960  -0.94284   0.64103
   2   15198.6    658.0   1.810497160  39.21660  -3.91892  -4.59867   1.64646
   3   16917.8    591.1   0.033769196   0.65713  -0.51912  -0.01871   0.62233
   4   19794.7    505.2   0.054242416   0.90213   0.04622  -0.93489  -0.16116
   5   20758.4    481.7   0.118610793   1.88107   0.05561  -1.20843  -0.64628
   6   21369.9    467.9   0.006918944   0.10659   0.10856  -0.20408  -0.23055
   7   23051.4    433.8   0.088435008   1.26300  -0.78727  -0.38805   0.70187
   8   25353.3    394.4   0.104813643   1.36100   0.43367  -0.96046  -0.50046
   9   26065.2    383.7   0.060795991   0.76787   0.69136   0.34687  -0.41179
  10   27397.3    365.0   0.073851399   0.88741   0.28832  -0.82259  -0.35726
  11   27412.3    364.8   0.006888523   0.08273  -0.06859  -0.13646  -0.24373
  12   27886.6    358.6   0.087698115   1.03531   0.13792  -0.96623  -0.28755
  13   28342.5    352.8   0.021582412   0.25069  -0.35267   0.29797   0.19372
  14   28704.0    348.4   0.003645489   0.04181   0.14424   0.05761   0.13299
  15   28977.2    345.1   0.149616677   1.69981  -1.07382  -0.01222   0.73930
  16   29539.9    338.5   0.016264060   0.18126  -0.16623  -0.37738  -0.10586
  17   29993.0    333.4   0.059083061   0.64851  -0.61352  -0.03728   0.52031
  18   30305.0    330.0   0.006092452   0.06618   0.22578  -0.05697  -0.10937
  19   30971.2    322.9   0.007014184   0.07456  -0.08542   0.25629   0.03968
  20   31126.7    321.3   0.092534961   0.97870  -0.71880   0.53373   0.42090
  21   31442.8    318.0   0.024368824   0.25515  -0.11347   0.46474   0.16213
  22   31959.8    312.9   0.089651350   0.92348  -0.08684  -0.95307  -0.08722
  23   32368.7    308.9   0.001321790   0.01344   0.01969  -0.10741  -0.03897
  24   32704.7    305.8   0.058761753   0.59151  -0.59326   0.26246   0.41312
  25   33259.6    300.7   0.053495571   0.52951  -0.51879   0.12277   0.49528
  26   33842.4    295.5   0.143129114   1.39233  -0.88898  -0.35137   0.69180
  27   33884.5    295.1   0.142677729   1.38621  -0.69255  -0.91233   0.27248
  28   34288.2    291.6   0.003431685   0.03295  -0.03570  -0.17724   0.01615
  29   34530.6    289.6   0.021752101   0.20738  -0.17561  -0.40197   0.12233
  30   34692.6    288.2   0.020692998   0.19636   0.23140  -0.28622  -0.24677
  31   34886.6    286.6   0.067115654   0.63335   0.15694  -0.75764   0.18626
  32   35169.3    284.3   0.022977752   0.21509  -0.29929  -0.22957   0.26984
  33   35651.8    280.5   0.002993609   0.02764  -0.08603   0.02699  -0.13969
  34   36203.7    276.2   0.010838674   0.09856   0.18541   0.02486  -0.25212
  35   36366.4    275.0   0.018750794   0.16974   0.21011  -0.20758  -0.28725
  36   36730.7    272.3   0.001067205   0.00957  -0.08822  -0.04057   0.01165
  37   37188.3    268.9   0.004445132   0.03935  -0.04139  -0.10857   0.16078
  38   37242.0    268.5   0.058835939   0.52010  -0.41480  -0.52906   0.26102
  39   37747.3    264.9   0.066225713   0.57759  -0.43430   0.49151   0.38391
  40   38008.7    263.1   0.032617294   0.28251   0.42124  -0.16378  -0.27973
  41   38371.0    260.6   0.004207588   0.03610  -0.06926  -0.17340   0.03516
  42   38694.3    258.4   0.021667705   0.18435   0.01806  -0.42603   0.05024
  43   39312.1    254.4   0.013983168   0.11710  -0.16537  -0.28982   0.07585
  44   39337.6    254.2   0.020643480   0.17276   0.08514   0.40597  -0.02652
  45   39564.7    252.8   0.036794461   0.30616   0.41587  -0.03481  -0.36332
  46   39658.0    252.2   0.017522781   0.14546   0.26666  -0.20092  -0.18435

FINAL SINGLE POINT ENERGY     -4773.494270277289

DIPOLE MOMENT
-------------
                                X             Y             Z
Electronic contribution:     25.07448      27.49644     -15.71446
Nuclear contribution   :    -25.88236     -26.59708      16.65416
                        -----------------------------------------
Total Dipole Moment    :     -0.80788       0.89936       0.93970
                        -----------------------------------------
Magnitude (a.u.)       :      1.53119
Magnitude (Debye)      :      3.89198

Rotational constants in cm-1:     0.001166     0.000609     0.000406
Rotational constants in MHz :    34.967315    18.266688    12.174721

                             ****ORCA TERMINATED NORMALLY****
TOTAL RUN TIME: 0 days 0 hours 8 minutes 6 seconds 209 msec
