                         Program Version 4.2.0 -  RELEASE  -
|  1> # ORCA input file
|  2> # SCF done       -165.824354489307          0.000224737189
|  3> ! CAM-B3LYP def2-SVP def2/J RIJCOSX Grid4 TightSCF
|  4> %maxcore 5000
|  5> %tddft
|  6>     Mode sTDDFT
|  7>     Ethresh 5.0
|  8>     maxcore 5000
|  9> end
| 10>
| 11> %pal
| 12>   nprocs 6
| 13>   end
| 14> * xyz 0 1
| 15>    C        3.63467         4.80738        -3.42352
| 16>    C        3.36640         3.94022        -2.38951
| 17>    C        2.41597         4.47487        -1.44754
| 18>    N        2.03305         3.75835        -0.37370
| 19>    C        2.57317         2.57824        -0.24706
| 20>    C        3.51610         2.04058        -1.17084
| 21>    C        4.11250         0.68662        -0.93764
| 22>    C        5.14286         0.74031         0.19161
| 23>    N        3.90450         2.70808        -2.22412
| 24>    C        1.97386         5.75873        -1.79059
| 25>    S        2.74777         6.26009        -3.26223
| 26>    C        1.05427         6.60759        -1.13843
| 27>    C        0.40612         6.28298         0.01303
| 28>    C       -0.51956         7.12974         0.65536
| 29>    O       -0.83452         8.35858         0.16277
| 30>    C       -1.75590         8.92631         0.98463
| 31>    C       -2.03764         8.04213         2.03090
| 32>    C       -1.25243         6.89996         1.82364
| 33>    O       -1.20045         5.78719         2.58298
| 34>    O       -2.90106         8.20649         3.07006
| 35>    C       -2.29510        10.20102         0.73613
| 36>    C       -1.97292        11.00858        -0.32117
| 37>    C       -2.57746        12.25653        -0.51422
| 38>    C       -2.30140        13.09949        -1.56442
| 39>    C       -2.89691        14.33592        -1.82713
| 40>    C       -3.89589        15.00067        -1.13738
| 41>    C       -4.44490        16.24534        -1.51608
| 42>    C       -5.43573        16.71002        -0.69610
| 43>    C       -5.72250        15.85714         0.38345
| 44>    S       -4.69338        14.44567         0.32157
| 45>    C       -6.65741        16.01701         1.39600
| 46>    C       -7.56791        17.07168         1.58642
| 47>    C       -8.36093        16.92450         2.69077
| 48>    C       -8.11508        15.74997         3.43089
| 49>    S       -6.83429        14.82636         2.66560
| 50>    C       -8.74590        15.34013         4.58803
| 51>    C       -8.43466        14.17278         5.28354
| 52>    C       -9.05702        13.78454         6.44239
| 53>    C       -8.73163        12.62689         7.16388
| 54>    O       -7.75472        11.76966         6.76140
| 55>    C       -7.65808        10.76591         7.67490
| 56>    C       -8.59984        10.98189         8.68525
| 57>    C       -9.28355        12.15922         8.36362
| 58>    O      -10.28060        12.74966         9.05923
| 59>    O       -8.85692        10.23298         9.79388
| 60>    C       -6.71913         9.72339         7.53989
| 61>    C       -5.86853         9.58362         6.48231
| 62>    C       -4.90044         8.56429         6.32712
| 63>    C       -4.58425         7.60881         7.24524
| 64>    C       -3.60734         6.61129         7.06692
| 65>    C       -3.22753         5.64631         8.00667
| 66>    C       -2.19191         4.76889         7.52836
| 67>    N       -1.70900         3.77370         8.31334
| 68>    C       -2.23227         3.68859         9.50057
| 69>    C       -3.25140         4.55976         9.98533
| 70>    C       -3.76940         4.41718        11.38292
| 71>    C       -2.74990         4.95291        12.39036
| 72>    N       -3.74339         5.52114         9.24244
| 73>    C       -1.79719         5.06879         6.24543
| 74>    S       -2.66659         6.40634         5.62120
| 75>    H        4.29758         4.66214        -4.25143
| 76>    H        2.26034         2.00048         0.61272
| 77>    H        4.59331         0.35719        -1.85912
| 78>    H        3.32051        -0.01904        -0.67614
| 79>    H        5.94287         1.43116        -0.06410
| 80>    H        5.57348        -0.24484         0.35331
| 81>    H        4.68239         1.07405         1.11903
| 82>    H        0.86580         7.56735        -1.60020
| 83>    H        0.58492         5.32863         0.48367
| 84>    H       -1.81236         5.90060         3.32318
| 85>    H       -3.32477         9.06899         2.99595
| 86>    H       -3.03186        10.55469         1.44722
| 87>    H       -1.23520        10.66355        -1.03178
| 88>    H       -3.31156        12.55043         0.22123
| 89>    H       -1.54856        12.77736        -2.27342
| 90>    H       -2.54313        14.86002        -2.70717
| 91>    H       -4.09456        16.76620        -2.39029
| 92>    H       -5.95762        17.63818        -0.84589
| 93>    H       -7.62017        17.90730         0.91150
| 94>    H       -9.11414        17.63040         2.99414
| 95>    H       -9.52705        15.98037         4.97693
| 96>    H       -7.64884        13.54260         4.88796
| 97>    H       -9.84707        14.38527         6.86844
| 98>    H      -10.45640        12.21156         9.84195
| 99>    H       -8.27269         9.46740         9.80693
|100>    H       -6.70084         9.00089         8.34445
|101>    H       -5.94530        10.31473         5.68961
|102>    H       -4.35203         8.55267         5.39312
|103>    H       -5.07281         7.56967         8.20842
|104>    H       -1.85569         2.89434        10.13249
|105>    H       -3.97021         3.36400        11.59247
|106>    H       -4.69992         4.97961        11.46781
|107>    H       -1.81420         4.40223        12.32165
|108>    H       -3.13559         4.85609        13.40233
|109>    H       -2.54614         6.00334        12.19512
|110>    H       -1.04933         4.58130         5.65378
|111> *
|112>
|113>                          ****END OF INPUT****

CARTESIAN COORDINATES (ANGSTROEM)
---------------------------------
  C      3.634670    4.807380   -3.423520
  C      3.366400    3.940220   -2.389510
  C      2.415970    4.474870   -1.447540
  N      2.033050    3.758350   -0.373700
  C      2.573170    2.578240   -0.247060
  C      3.516100    2.040580   -1.170840
  C      4.112500    0.686620   -0.937640
  C      5.142860    0.740310    0.191610
  N      3.904500    2.708080   -2.224120
  C      1.973860    5.758730   -1.790590
  S      2.747770    6.260090   -3.262230
  C      1.054270    6.607590   -1.138430
  C      0.406120    6.282980    0.013030
  C     -0.519560    7.129740    0.655360
  O     -0.834520    8.358580    0.162770
  C     -1.755900    8.926310    0.984630
  C     -2.037640    8.042130    2.030900
  C     -1.252430    6.899960    1.823640
  O     -1.200450    5.787190    2.582980
  O     -2.901060    8.206490    3.070060
  C     -2.295100   10.201020    0.736130
  C     -1.972920   11.008580   -0.321170
  C     -2.577460   12.256530   -0.514220
  C     -2.301400   13.099490   -1.564420
  C     -2.896910   14.335920   -1.827130
  C     -3.895890   15.000670   -1.137380
  C     -4.444900   16.245340   -1.516080
  C     -5.435730   16.710020   -0.696100
  C     -5.722500   15.857140    0.383450
  S     -4.693380   14.445670    0.321570
  C     -6.657410   16.017010    1.396000
  C     -7.567910   17.071680    1.586420
  C     -8.360930   16.924500    2.690770
  C     -8.115080   15.749970    3.430890
  S     -6.834290   14.826360    2.665600
  C     -8.745900   15.340130    4.588030
  C     -8.434660   14.172780    5.283540
  C     -9.057020   13.784540    6.442390
  C     -8.731630   12.626890    7.163880
  O     -7.754720   11.769660    6.761400
  C     -7.658080   10.765910    7.674900
  C     -8.599840   10.981890    8.685250
  C     -9.283550   12.159220    8.363620
  O    -10.280600   12.749660    9.059230
  O     -8.856920   10.232980    9.793880
  C     -6.719130    9.723390    7.539890
  C     -5.868530    9.583620    6.482310
  C     -4.900440    8.564290    6.327120
  C     -4.584250    7.608810    7.245240
  C     -3.607340    6.611290    7.066920
  C     -3.227530    5.646310    8.006670
  C     -2.191910    4.768890    7.528360
  N     -1.709000    3.773700    8.313340
  C     -2.232270    3.688590    9.500570
  C     -3.251400    4.559760    9.985330
  C     -3.769400    4.417180   11.382920
  C     -2.749900    4.952910   12.390360
  N     -3.743390    5.521140    9.242440
  C     -1.797190    5.068790    6.245430
  S     -2.666590    6.406340    5.621200
  H      4.297580    4.662140   -4.251430
  H      2.260340    2.000480    0.612720
  H      4.593310    0.357190   -1.859120
  H      3.320510   -0.019040   -0.676140
  H      5.942870    1.431160   -0.064100
  H      5.573480   -0.244840    0.353310
  H      4.682390    1.074050    1.119030
  H      0.865800    7.567350   -1.600200
  H      0.584920    5.328630    0.483670
  H     -1.812360    5.900600    3.323180
  H     -3.324770    9.068990    2.995950
  H     -3.031860   10.554690    1.447220
  H     -1.235200   10.663550   -1.031780
  H     -3.311560   12.550430    0.221230
  H     -1.548560   12.777360   -2.273420
  H     -2.543130   14.860020   -2.707170
  H     -4.094560   16.766200   -2.390290
  H     -5.957620   17.638180   -0.845890
  H     -7.620170   17.907300    0.911500
  H     -9.114140   17.630400    2.994140
  H     -9.527050   15.980370    4.976930
  H     -7.648840   13.542600    4.887960
  H     -9.847070   14.385270    6.868440
  H    -10.456400   12.211560    9.841950
  H     -8.272690    9.467400    9.806930
  H     -6.700840    9.000890    8.344450
  H     -5.945300   10.314730    5.689610
  H     -4.352030    8.552670    5.393120
  H     -5.072810    7.569670    8.208420
  H     -1.855690    2.894340   10.132490
  H     -3.970210    3.364000   11.592470
  H     -4.699920    4.979610   11.467810
  H     -1.814200    4.402230   12.321650
  H     -3.135590    4.856090   13.402330
  H     -2.546140    6.003340   12.195120
  H     -1.049330    4.581300    5.653780

 Total Charge           Charge          ....    0
 Multiplicity           Mult            ....    1
 Number of Electrons    NEL             ....  452
 Basis Dimension        Dim             .... 1036

ORBITAL ENERGIES
----------------

  NO   OCC          E(Eh)            E(eV)
   0   2.0000     -88.970366     -2421.0068
   1   2.0000     -88.957564     -2420.6584
   2   2.0000     -88.937908     -2420.1235
   3   2.0000     -88.935966     -2420.0707
   4   2.0000     -19.281817      -524.6849
   5   2.0000     -19.274541      -524.4869
   6   2.0000     -19.266210      -524.2602
   7   2.0000     -19.261606      -524.1349
   8   2.0000     -19.255091      -523.9577
   9   2.0000     -19.247755      -523.7580
  10   2.0000     -14.417547      -392.3214
  11   2.0000     -14.416113      -392.2824
  12   2.0000     -14.410772      -392.1370
  13   2.0000     -14.400857      -391.8672
  14   2.0000     -10.335802      -281.2515
  15   2.0000     -10.332459      -281.1605
  16   2.0000     -10.329010      -281.0667
  17   2.0000     -10.328769      -281.0601
  18   2.0000     -10.325429      -280.9692
  19   2.0000     -10.324537      -280.9449
  20   2.0000     -10.321247      -280.8554
  21   2.0000     -10.315640      -280.7028
  22   2.0000     -10.315008      -280.6856
  23   2.0000     -10.311194      -280.5819
  24   2.0000     -10.304400      -280.3970
  25   2.0000     -10.303600      -280.3752
  26   2.0000     -10.303120      -280.3621
  27   2.0000     -10.302524      -280.3459
  28   2.0000     -10.301813      -280.3266
  29   2.0000     -10.300267      -280.2845
  30   2.0000     -10.298494      -280.2363
  31   2.0000     -10.296211      -280.1742
  32   2.0000     -10.294585      -280.1299
  33   2.0000     -10.294535      -280.1285
  34   2.0000     -10.292826      -280.0820
  35   2.0000     -10.292061      -280.0612
  36   2.0000     -10.290150      -280.0092
  37   2.0000     -10.284635      -279.8591
  38   2.0000     -10.278513      -279.6926
  39   2.0000     -10.277968      -279.6777
  40   2.0000     -10.276953      -279.6501
  41   2.0000     -10.276642      -279.6416
  42   2.0000     -10.275905      -279.6216
  43   2.0000     -10.274460      -279.5823
  44   2.0000     -10.274394      -279.5805
  45   2.0000     -10.274051      -279.5712
  46   2.0000     -10.272793      -279.5369
  47   2.0000     -10.272785      -279.5367
  48   2.0000     -10.271278      -279.4957
  49   2.0000     -10.270458      -279.4734
  50   2.0000     -10.267609      -279.3958
  51   2.0000     -10.266742      -279.3722
  52   2.0000     -10.264988      -279.3245
  53   2.0000     -10.264786      -279.3190
  54   2.0000     -10.262912      -279.2680
  55   2.0000     -10.261668      -279.2342
  56   2.0000     -10.261197      -279.2214
  57   2.0000     -10.261116      -279.2192
  58   2.0000     -10.259760      -279.1823
  59   2.0000     -10.253827      -279.0208
  60   2.0000      -8.065033      -219.4607
  61   2.0000      -8.052796      -219.1277
  62   2.0000      -8.033558      -218.6042
  63   2.0000      -8.032270      -218.5692
  64   2.0000      -6.033886      -164.1904
  65   2.0000      -6.029887      -164.0816
  66   2.0000      -6.028080      -164.0324
  67   2.0000      -6.021628      -163.8568
  68   2.0000      -6.017547      -163.7458
  69   2.0000      -6.015924      -163.7016
  70   2.0000      -6.003244      -163.3566
  71   2.0000      -6.001934      -163.3209
  72   2.0000      -5.999162      -163.2455
  73   2.0000      -5.997985      -163.2135
  74   2.0000      -5.994738      -163.1251
  75   2.0000      -5.993262      -163.0849
  76   2.0000      -1.201272       -32.6883
  77   2.0000      -1.194035       -32.4913
  78   2.0000      -1.158270       -31.5181
  79   2.0000      -1.153300       -31.3829
  80   2.0000      -1.141186       -31.0533
  81   2.0000      -1.135833       -30.9076
  82   2.0000      -1.071993       -29.1704
  83   2.0000      -1.060720       -28.8637
  84   2.0000      -0.996791       -27.1241
  85   2.0000      -0.986045       -26.8316
  86   2.0000      -0.985504       -26.8169
  87   2.0000      -0.976737       -26.5784
  88   2.0000      -0.963789       -26.2260
  89   2.0000      -0.963403       -26.2155
  90   2.0000      -0.918291       -24.9880
  91   2.0000      -0.910602       -24.7787
  92   2.0000      -0.902796       -24.5663
  93   2.0000      -0.891624       -24.2623
  94   2.0000      -0.886173       -24.1140
  95   2.0000      -0.882671       -24.0187
  96   2.0000      -0.881172       -23.9779
  97   2.0000      -0.877590       -23.8804
  98   2.0000      -0.873147       -23.7595
  99   2.0000      -0.867312       -23.6007
 100   2.0000      -0.854003       -23.2386
 101   2.0000      -0.840735       -22.8776
 102   2.0000      -0.832561       -22.6551
 103   2.0000      -0.823901       -22.4195
 104   2.0000      -0.819966       -22.3124
 105   2.0000      -0.814290       -22.1580
 106   2.0000      -0.812635       -22.1129
 107   2.0000      -0.806864       -21.9559
 108   2.0000      -0.792032       -21.5523
 109   2.0000      -0.775293       -21.0968
 110   2.0000      -0.759571       -20.6690
 111   2.0000      -0.749646       -20.3989
 112   2.0000      -0.747258       -20.3339
 113   2.0000      -0.737503       -20.0685
 114   2.0000      -0.731879       -19.9154
 115   2.0000      -0.716034       -19.4843
 116   2.0000      -0.713800       -19.4235
 117   2.0000      -0.710805       -19.3420
 118   2.0000      -0.703337       -19.1388
 119   2.0000      -0.698626       -19.0106
 120   2.0000      -0.692978       -18.8569
 121   2.0000      -0.684624       -18.6296
 122   2.0000      -0.680528       -18.5181
 123   2.0000      -0.677983       -18.4488
 124   2.0000      -0.662306       -18.0222
 125   2.0000      -0.660791       -17.9810
 126   2.0000      -0.654685       -17.8149
 127   2.0000      -0.651456       -17.7270
 128   2.0000      -0.644531       -17.5386
 129   2.0000      -0.634047       -17.2533
 130   2.0000      -0.632407       -17.2087
 131   2.0000      -0.624669       -16.9981
 132   2.0000      -0.622805       -16.9474
 133   2.0000      -0.615050       -16.7364
 134   2.0000      -0.610774       -16.6200
 135   2.0000      -0.608121       -16.5478
 136   2.0000      -0.602974       -16.4078
 137   2.0000      -0.601313       -16.3626
 138   2.0000      -0.593977       -16.1629
 139   2.0000      -0.583654       -15.8820
 140   2.0000      -0.582731       -15.8569
 141   2.0000      -0.575633       -15.6638
 142   2.0000      -0.569551       -15.4983
 143   2.0000      -0.562491       -15.3061
 144   2.0000      -0.561402       -15.2765
 145   2.0000      -0.555499       -15.1159
 146   2.0000      -0.555208       -15.1080
 147   2.0000      -0.549139       -14.9428
 148   2.0000      -0.545694       -14.8491
 149   2.0000      -0.540122       -14.6975
 150   2.0000      -0.537256       -14.6195
 151   2.0000      -0.536304       -14.5936
 152   2.0000      -0.531820       -14.4715
 153   2.0000      -0.525849       -14.3091
 154   2.0000      -0.522483       -14.2175
 155   2.0000      -0.520490       -14.1633
 156   2.0000      -0.518262       -14.1026
 157   2.0000      -0.513426       -13.9710
 158   2.0000      -0.507696       -13.8151
 159   2.0000      -0.506804       -13.7908
 160   2.0000      -0.504104       -13.7174
 161   2.0000      -0.502405       -13.6711
 162   2.0000      -0.499383       -13.5889
 163   2.0000      -0.498182       -13.5562
 164   2.0000      -0.496458       -13.5093
 165   2.0000      -0.489870       -13.3300
 166   2.0000      -0.487727       -13.2717
 167   2.0000      -0.485629       -13.2146
 168   2.0000      -0.485313       -13.2060
 169   2.0000      -0.483330       -13.1521
 170   2.0000      -0.481164       -13.0931
 171   2.0000      -0.479753       -13.0547
 172   2.0000      -0.476240       -12.9591
 173   2.0000      -0.474699       -12.9172
 174   2.0000      -0.467137       -12.7114
 175   2.0000      -0.465956       -12.6793
 176   2.0000      -0.464479       -12.6391
 177   2.0000      -0.463235       -12.6053
 178   2.0000      -0.459756       -12.5106
 179   2.0000      -0.457493       -12.4490
 180   2.0000      -0.455853       -12.4044
 181   2.0000      -0.454390       -12.3646
 182   2.0000      -0.452304       -12.3078
 183   2.0000      -0.450593       -12.2613
 184   2.0000      -0.446085       -12.1386
 185   2.0000      -0.444906       -12.1065
 186   2.0000      -0.441813       -12.0223
 187   2.0000      -0.440900       -11.9975
 188   2.0000      -0.435758       -11.8576
 189   2.0000      -0.432044       -11.7565
 190   2.0000      -0.427602       -11.6356
 191   2.0000      -0.426338       -11.6013
 192   2.0000      -0.424358       -11.5474
 193   2.0000      -0.423713       -11.5298
 194   2.0000      -0.420163       -11.4332
 195   2.0000      -0.418567       -11.3898
 196   2.0000      -0.416267       -11.3272
 197   2.0000      -0.415594       -11.3089
 198   2.0000      -0.413603       -11.2547
 199   2.0000      -0.412085       -11.2134
 200   2.0000      -0.409785       -11.1508
 201   2.0000      -0.407289       -11.0829
 202   2.0000      -0.406978       -11.0744
 203   2.0000      -0.403954       -10.9921
 204   2.0000      -0.399726       -10.8771
 205   2.0000      -0.383503       -10.4356
 206   2.0000      -0.382236       -10.4012
 207   2.0000      -0.378457       -10.2983
 208   2.0000      -0.369753       -10.0615
 209   2.0000      -0.364352        -9.9145
 210   2.0000      -0.352730        -9.5983
 211   2.0000      -0.336377        -9.1533
 212   2.0000      -0.327057        -8.8997
 213   2.0000      -0.317568        -8.6415
 214   2.0000      -0.315093        -8.5741
 215   2.0000      -0.314272        -8.5518
 216   2.0000      -0.307971        -8.3803
 217   2.0000      -0.305592        -8.3156
 218   2.0000      -0.301529        -8.2050
 219   2.0000      -0.300902        -8.1880
 220   2.0000      -0.299019        -8.1367
 221   2.0000      -0.279821        -7.6143
 222   2.0000      -0.258924        -7.0457
 223   2.0000      -0.233687        -6.3589
 224   2.0000      -0.213431        -5.8078
 225   2.0000      -0.182103        -4.9553
 226   0.0000      -0.085599        -2.3293
 227   0.0000      -0.062999        -1.7143
 228   0.0000      -0.047215        -1.2848
 229   0.0000      -0.027296        -0.7428
 230   0.0000      -0.009027        -0.2456

MULLIKEN ATOMIC CHARGES
-----------------------
   0 C :   -0.166991
   1 C :    0.073902
   2 C :    0.019480
   3 N :   -0.000374
   4 C :    0.018287
   5 C :   -0.149901
   6 C :    0.101054
   7 C :   -0.004228
   8 N :   -0.007018
   9 C :   -0.146556
  10 S :    0.158570
  11 C :    0.013424
  12 C :   -0.037037
  13 C :    0.092707
  14 O :   -0.226619
  15 C :    0.132398
  16 C :    0.072377
  17 C :    0.085527
  18 O :   -0.177518
  19 O :   -0.199161
  20 C :   -0.085372
  21 C :    0.017850
  22 C :    0.003073
  23 C :    0.008037
  24 C :    0.005292
  25 C :   -0.025455
  26 C :    0.031878
  27 C :    0.021181
  28 C :   -0.032584
  29 S :    0.044564
  30 C :   -0.040465
  31 C :    0.018491
  32 C :    0.032444
  33 C :   -0.019812
  34 S :    0.067910
  35 C :   -0.007985
  36 C :    0.015689
  37 C :   -0.048586
  38 C :    0.097390
  39 O :   -0.227739
  40 C :    0.106875
  41 C :    0.082796
  42 C :    0.086190
  43 O :   -0.177670
  44 O :   -0.197759
  45 C :   -0.047402
  46 C :    0.015518
  47 C :    0.007066
  48 C :    0.015028
  49 C :   -0.119131
  50 C :    0.021377
  51 C :    0.070886
  52 N :    0.001437
  53 C :    0.012474
  54 C :   -0.141988
  55 C :    0.101887
  56 C :   -0.007218
  57 N :   -0.010312
  58 C :   -0.155205
  59 S :    0.108843
  60 H :    0.009250
  61 H :   -0.005021
  62 H :    0.013604
  63 H :    0.008159
  64 H :    0.023297
  65 H :    0.019755
  66 H :    0.011792
  67 H :   -0.021986
  68 H :    0.014707
  69 H :    0.191177
  70 H :    0.204106
  71 H :   -0.030853
  72 H :   -0.005581
  73 H :   -0.004414
  74 H :   -0.020614
  75 H :   -0.020972
  76 H :   -0.018087
  77 H :   -0.020091
  78 H :   -0.016100
  79 H :   -0.016166
  80 H :   -0.018531
  81 H :    0.004052
  82 H :   -0.000535
  83 H :    0.193295
  84 H :    0.191708
  85 H :   -0.035685
  86 H :   -0.009667
  87 H :   -0.033151
  88 H :   -0.012442
  89 H :    0.000104
  90 H :    0.011187
  91 H :    0.008773
  92 H :    0.014599
  93 H :    0.022110
  94 H :    0.023571
  95 H :    0.022836
Sum of atomic charges:   -0.0000000

LOEWDIN ATOMIC CHARGES
----------------------
   0 C :   -0.214697
   1 C :   -0.052765
   2 C :   -0.061543
   3 N :   -0.028277
   4 C :   -0.002504
   5 C :   -0.006322
   6 C :   -0.035469
   7 C :   -0.048578
   8 N :   -0.054892
   9 C :   -0.176063
  10 S :    0.487391
  11 C :   -0.053844
  12 C :   -0.021111
  13 C :    0.005268
  14 O :   -0.001379
  15 C :   -0.008711
  16 C :   -0.018387
  17 C :   -0.003697
  18 O :   -0.046174
  19 O :   -0.062398
  20 C :   -0.057372
  21 C :   -0.018630
  22 C :   -0.034131
  23 C :   -0.043859
  24 C :   -0.062771
  25 C :   -0.148978
  26 C :   -0.035690
  27 C :   -0.045154
  28 C :   -0.184364
  29 S :    0.388322
  30 C :   -0.176448
  31 C :   -0.038694
  32 C :   -0.036543
  33 C :   -0.152077
  34 S :    0.369398
  35 C :   -0.052297
  36 C :   -0.033926
  37 C :   -0.034877
  38 C :    0.007583
  39 O :   -0.001936
  40 C :   -0.006451
  41 C :   -0.018219
  42 C :   -0.004942
  43 O :   -0.047860
  44 O :   -0.061837
  45 C :   -0.044675
  46 C :   -0.033364
  47 C :   -0.040335
  48 C :   -0.030751
  49 C :   -0.183203
  50 C :   -0.052858
  51 C :   -0.060569
  52 N :   -0.035430
  53 C :    0.002968
  54 C :   -0.005909
  55 C :   -0.035520
  56 C :   -0.048202
  57 N :   -0.054094
  58 C :   -0.194782
  59 S :    0.496843
  60 H :    0.024924
  61 H :    0.021063
  62 H :    0.033298
  63 H :    0.028374
  64 H :    0.027650
  65 H :    0.025883
  66 H :    0.021382
  67 H :    0.025829
  68 H :    0.039812
  69 H :    0.072315
  70 H :    0.096455
  71 H :    0.025017
  72 H :    0.030951
  73 H :    0.006799
  74 H :    0.028455
  75 H :    0.032809
  76 H :    0.031250
  77 H :    0.029470
  78 H :    0.030712
  79 H :    0.031952
  80 H :    0.031626
  81 H :    0.023358
  82 H :    0.039887
  83 H :    0.103678
  84 H :    0.098459
  85 H :    0.023485
  86 H :    0.030504
  87 H :    0.018553
  88 H :    0.031576
  89 H :    0.022632
  90 H :    0.029571
  91 H :    0.031443
  92 H :    0.022602
  93 H :    0.026823
  94 H :    0.027625
  95 H :    0.029568

  Mayer bond orders larger than 0.100000
B(  0-C ,  1-C ) :   1.4103 B(  0-C ,  9-C ) :   0.1163 B(  0-C , 10-S ) :   1.1733
B(  0-C , 60-H ) :   0.9762 B(  1-C ,  2-C ) :   1.1958 B(  1-C ,  8-N ) :   1.3444
B(  2-C ,  3-N ) :   1.3913 B(  2-C ,  9-C ) :   1.3124 B(  3-N ,  4-C ) :   1.7218
B(  4-C ,  5-C ) :   1.1419 B(  4-C , 61-H ) :   0.9767 B(  5-C ,  6-C ) :   1.0229
B(  5-C ,  8-N ) :   1.7450 B(  6-C ,  7-C ) :   1.0977 B(  6-C , 62-H ) :   0.9279
B(  6-C , 63-H ) :   0.9330 B(  7-C , 64-H ) :   0.9686 B(  7-C , 65-H ) :   0.9701
B(  7-C , 66-H ) :   0.9742 B(  9-C , 10-S ) :   1.1925 B(  9-C , 11-C ) :   1.1555
B( 11-C , 12-C ) :   1.5990 B( 11-C , 67-H ) :   0.9665 B( 12-C , 13-C ) :   1.1843
B( 12-C , 68-H ) :   0.9519 B( 13-C , 14-O ) :   1.1163 B( 13-C , 15-C ) :   0.1094
B( 13-C , 17-C ) :   1.3532 B( 14-O , 15-C ) :   1.1229 B( 15-C , 16-C ) :   1.2811
B( 15-C , 20-C ) :   1.1636 B( 16-C , 17-C ) :   1.2588 B( 16-C , 19-O ) :   1.2203
B( 17-C , 18-O ) :   1.2640 B( 18-O , 69-H ) :   0.9452 B( 19-O , 70-H ) :   0.9352
B( 20-C , 21-C ) :   1.5532 B( 20-C , 71-H ) :   0.9646 B( 21-C , 22-C ) :   1.2048
B( 21-C , 72-H ) :   1.0053 B( 22-C , 23-C ) :   1.5198 B( 22-C , 73-H ) :   0.9606
B( 23-C , 24-C ) :   1.2436 B( 23-C , 74-H ) :   0.9724 B( 24-C , 25-C ) :   1.5088
B( 24-C , 75-H ) :   0.9617 B( 25-C , 26-C ) :   1.1856 B( 25-C , 29-S ) :   1.0458
B( 26-C , 27-C ) :   1.5467 B( 26-C , 76-H ) :   0.9987 B( 27-C , 28-C ) :   1.2233
B( 27-C , 77-H ) :   0.9932 B( 28-C , 29-S ) :   1.0425 B( 28-C , 30-C ) :   1.4534
B( 30-C , 31-C ) :   1.2254 B( 30-C , 34-S ) :   1.0530 B( 31-C , 32-C ) :   1.5460
B( 31-C , 78-H ) :   0.9942 B( 32-C , 33-C ) :   1.1761 B( 32-C , 79-H ) :   0.9997
B( 33-C , 34-S ) :   1.0344 B( 33-C , 35-C ) :   1.5074 B( 35-C , 36-C ) :   1.1917
B( 35-C , 80-H ) :   0.9835 B( 36-C , 37-C ) :   1.5320 B( 36-C , 81-H ) :   0.9807
B( 37-C , 38-C ) :   1.2101 B( 37-C , 82-H ) :   0.9741 B( 38-C , 39-O ) :   1.1122
B( 38-C , 40-C ) :   0.1058 B( 38-C , 42-C ) :   1.3384 B( 39-O , 40-C ) :   1.1187
B( 40-C , 41-C ) :   1.2736 B( 40-C , 45-C ) :   1.1965 B( 41-C , 42-C ) :   1.2666
B( 41-C , 44-O ) :   1.2277 B( 42-C , 43-O ) :   1.2691 B( 43-O , 83-H ) :   0.9541
B( 44-O , 84-H ) :   0.9593 B( 45-C , 46-C ) :   1.6305 B( 45-C , 85-H ) :   0.9461
B( 46-C , 47-C ) :   1.1512 B( 46-C , 86-H ) :   0.9829 B( 47-C , 48-C ) :   1.6091
B( 47-C , 87-H ) :   0.9721 B( 48-C , 49-C ) :   1.2167 B( 48-C , 88-H ) :   0.9597
B( 49-C , 50-C ) :   1.3191 B( 49-C , 58-C ) :   0.1211 B( 49-C , 59-S ) :   1.1576
B( 50-C , 51-C ) :   1.1907 B( 50-C , 57-N ) :   1.3915 B( 51-C , 52-N ) :   1.3488
B( 51-C , 58-C ) :   1.4182 B( 52-N , 53-C ) :   1.7626 B( 53-C , 54-C ) :   1.1418
B( 53-C , 89-H ) :   0.9759 B( 54-C , 55-C ) :   1.0248 B( 54-C , 57-N ) :   1.7166
B( 55-C , 56-C ) :   1.0963 B( 55-C , 90-H ) :   0.9327 B( 55-C , 91-H ) :   0.9269
B( 56-C , 92-H ) :   0.9745 B( 56-C , 93-H ) :   0.9704 B( 56-C , 94-H ) :   0.9686
B( 58-C , 59-S ) :   1.1704 B( 58-C , 95-H ) :   0.9738

-----------------------------------------------------------------------------
         ABSORPTION SPECTRUM VIA TRANSITION ELECTRIC DIPOLE MOMENTS
-----------------------------------------------------------------------------
State   Energy  Wavelength   fosc         T2         TX        TY        TZ
        (cm-1)    (nm)                  (au**2)     (au)      (au)      (au)
-----------------------------------------------------------------------------
   0    8299.2   1204.9   0.496594789  19.69897  -2.57539   0.44011   3.58784
   1   13570.0    736.9   0.253161318   6.14176   1.70053  -1.67312  -0.67130
   2   15792.0    633.2   1.935960945  40.35862  -3.31755   5.38279  -0.61484
   3   17520.2    570.8   0.157344519   2.95657  -0.54083   1.59603  -0.34168
   4   19684.6    508.0   0.016365811   0.27371   0.22969   0.22192  -0.41437
   5   20122.3    497.0   0.233086344   3.81343   1.60140  -1.03237  -0.42796
   6   21550.3    464.0   0.492794674   7.52816   0.69710  -2.34804   1.23649
   7   23794.1    420.3   0.251479741   3.47944   0.99765   0.34883  -1.53703
   8   24544.1    407.4   0.022567478   0.30270  -0.39006   0.38405  -0.05525
   9   24854.6    402.3   0.072909305   0.96572   0.36075  -0.83529   0.37130
  10   26165.9    382.2   0.252718926   3.17964  -0.86659  -0.74545   1.36856
  11   27369.2    365.4   0.050006937   0.60151   0.62439  -0.29129  -0.35609
  12   28122.3    355.6   0.204342450   2.39212   0.97071  -0.00618  -1.20408
  13   28197.2    354.6   0.004918771   0.05743   0.10697   0.06689   0.20374
  14   28428.6    351.8   0.005103727   0.05910  -0.16400  -0.15553  -0.08954
  15   29435.2    339.7   0.069209050   0.77406   0.48361   0.15434  -0.71858
  16   29853.7    335.0   0.073749581   0.81327  -0.59661   0.66235   0.13646
  17   30085.6    332.4   0.201789877   2.20809   0.83582   0.02430  -1.22837
  18   31136.6    321.2   0.095096119   1.00546   0.75539  -0.39697  -0.52656
  19   31366.5    318.8   0.003130448   0.03286  -0.01347  -0.12934   0.12628
  20   32124.8    311.3   0.000130416   0.00134   0.00744   0.02629  -0.02429
  21   32697.8    305.8   0.038806858   0.39072  -0.23488  -0.22653   0.53313
  22   32992.1    303.1   0.029923573   0.29859   0.25788   0.07314  -0.47617
  23   33270.8    300.6   0.046866033   0.46374  -0.33550  -0.09663   0.58467
  24   33681.8    296.9   0.004975845   0.04863  -0.16696   0.05928   0.13132
  25   34095.9    293.3   0.002079527   0.02008   0.09970  -0.05322  -0.08548
  26   34198.0    292.4   0.031818670   0.30631  -0.07860  -0.28280   0.46920
  27   34874.5    286.7   0.002436943   0.02300  -0.06179   0.11606  -0.07561
  28   34946.0    286.2   0.000187323   0.00176  -0.01778  -0.03700   0.00892
  29   35305.9    283.2   0.170203877   1.58708  -0.48708  -0.37450   1.09981
  30   35958.8    278.1   0.269738422   2.46952   0.55242   0.61285  -1.33745
  31   36422.7    274.6   0.040677922   0.36767   0.26789  -0.15101  -0.52259
  32   36444.8    274.4   0.017042251   0.15395  -0.22464   0.30721   0.09541
  33   36743.9    272.2   0.099082440   0.88774   0.23770  -0.58755   0.69715
  34   37251.3    268.4   0.031688957   0.28005  -0.18298   0.47737  -0.13672
  35   37319.5    268.0   0.025607401   0.22589   0.07678  -0.40419   0.23797
  36   37748.6    264.9   0.004363007   0.03805  -0.05826  -0.12539   0.13760
  37   37894.3    263.9   0.003419566   0.02971   0.09989   0.10939  -0.08811
  38   38245.9    261.5   0.002440448   0.02101  -0.07452  -0.02879   0.12093
  39   38289.7    261.2   0.001546456   0.01330   0.05293  -0.03728   0.09542
  40   38575.4    259.2   0.012385307   0.10570  -0.09561  -0.16894   0.26081
  41   39070.8    255.9   0.008150345   0.06868   0.15518  -0.20852  -0.03337
  42   39602.3    252.5   0.023013930   0.19131  -0.26270  -0.03536   0.34793
  43   39771.1    251.4   0.001092058   0.00904   0.06950   0.02818   0.05844
  44   39898.5    250.6   0.048837246   0.40297  -0.16186  -0.39099   0.47318
  45   40237.9    248.5   0.008609197   0.07044   0.11060   0.00808  -0.24112

FINAL SINGLE POINT ENERGY     -4033.987710864926

DIPOLE MOMENT
-------------
                                X             Y             Z
Electronic contribution:    -14.12030      24.75759     -20.78794
Nuclear contribution   :     12.89844     -24.46653      22.63726
                        -----------------------------------------
Total Dipole Moment    :     -1.22186       0.29107       1.84932
                        -----------------------------------------
Magnitude (a.u.)       :      2.23554
Magnitude (Debye)      :      5.68229

Rotational constants in cm-1:     0.000961     0.000543     0.000350
Rotational constants in MHz :    28.808902    16.269729    10.499450

                             ****ORCA TERMINATED NORMALLY****
TOTAL RUN TIME: 0 days 0 hours 7 minutes 0 seconds 57 msec
