                         Program Version 4.2.0 -  RELEASE  -
|  1> # ORCA input file
|  2> # SCF done       -188.732278014114          0.000441099396
|  3> ! CAM-B3LYP def2-SVP def2/J RIJCOSX Grid4 TightSCF
|  4> %maxcore 5000
|  5> %tddft
|  6>     Mode sTDDFT
|  7>     Ethresh 5.0
|  8>     maxcore 5000
|  9> end
| 10>
| 11> %pal
| 12>   nprocs 6
| 13>   end
| 14> * xyz 0 1
| 15>    C       -2.94328        -2.63918         6.30491
| 16>    C       -1.89899        -3.49905         6.13972
| 17>    C       -2.15109        -4.28500         4.95971
| 18>    C       -3.42276        -3.85482         4.41643
| 19>    O       -4.05007        -4.19583         3.43151
| 20>    N       -3.84729        -2.86814         5.31146
| 21>    C       -1.05661        -5.09228         4.76388
| 22>    O       -0.14634        -4.87691         5.75987
| 23>    C       -0.60544        -3.89961         6.64709
| 24>    O        0.04875        -3.55395         7.59018
| 25>    C       -0.74640        -6.02066         3.72069
| 26>    C        0.50145        -6.67097         3.69393
| 27>    C        0.78798        -7.51753         2.65271
| 28>    C       -0.17676        -7.75132         1.65279
| 29>    C       -1.41175        -7.11435         1.67578
| 30>    C       -1.69101        -6.24553         2.70492
| 31>    C        0.33489        -8.73994         0.74086
| 32>    C        1.61557        -9.13407         1.16611
| 33>    C        2.04107        -8.31550         2.36863
| 34>    C        2.46315        -9.19119         3.55619
| 35>    C        1.38736       -10.19959         3.94413
| 36>    C        3.18742        -7.38933         1.89435
| 37>    C        3.67269        -6.36554         2.91148
| 38>    C        2.30099       -10.11461         0.48820
| 39>    C        1.72245       -10.71812        -0.64260
| 40>    C        0.43670       -10.31001        -1.03990
| 41>    C       -0.25580        -9.33107        -0.36739
| 42>    C        2.42612       -11.74592        -1.37057
| 43>    C        2.09000       -12.09300        -2.63835
| 44>    C        2.59879       -13.12076        -3.45765
| 45>    C        2.06620       -13.31843        -4.70865
| 46>    C        2.34290       -14.30278        -5.69094
| 47>    C        1.58246       -14.21083        -6.82149
| 48>    C        0.66673       -13.13649        -6.81073
| 49>    S        0.79350       -12.25932        -5.30249
| 50>    C       -0.24399       -12.65968        -7.73230
| 51>    C       -0.65114       -13.09514        -9.01340
| 52>    C       -1.57916       -12.29023        -9.60290
| 53>    C       -1.96757       -11.15503        -8.83241
| 54>    S       -1.08210       -11.18388        -7.31119
| 55>    C       -2.91977       -10.21721        -9.10912
| 56>    C       -3.24365        -9.13152        -8.21937
| 57>    C       -2.25851        -8.58517        -7.38059
| 58>    C       -2.61799        -7.75171        -6.35636
| 59>    C       -3.95542        -7.35462        -6.17928
| 60>    C       -4.91922        -7.77922        -7.08940
| 61>    C       -4.56097        -8.66026        -8.09124
| 62>    C       -4.02914        -6.54582        -4.98122
| 63>    C       -2.74091        -6.47518        -4.41238
| 64>    C       -1.73848        -7.22472        -5.25271
| 65>    C       -0.63078        -6.29790        -5.78255
| 66>    C       -1.17951        -5.12113        -6.58024
| 67>    C       -1.10759        -8.39224        -4.46620
| 68>    C       -2.14547        -9.37581        -3.94027
| 69>    C       -2.51663        -5.80420        -3.24057
| 70>    C       -3.58309        -5.15589        -2.59253
| 71>    C       -4.85736        -5.21220        -3.18194
| 72>    C       -5.09011        -5.90102        -4.35559
| 73>    C       -3.39318        -4.42676        -1.36666
| 74>    C       -2.25258        -4.42667        -0.63565
| 75>    C       -1.98751        -3.67642         0.53516
| 76>    C       -0.80133        -3.67868         1.24751
| 77>    C       -0.92169        -2.76438         2.34857
| 78>    C       -2.26476        -2.18552         2.28628
| 79>    O       -2.82774        -1.38698         2.99760
| 80>    N       -2.82566        -2.77533         1.15612
| 81>    C        0.24448        -2.82325         3.03349
| 82>    O        1.10039        -3.69532         2.45907
| 83>    C        0.50016        -4.27298         1.32358
| 84>    O        1.07852        -5.08552         0.64768
| 85>    H       -3.11029        -1.88789         7.05282
| 86>    H       -4.66929        -2.30998         5.14122
| 87>    H        1.19835        -6.48691         4.49605
| 88>    H       -2.14036        -7.29766         0.90071
| 89>    H       -2.64204        -5.73897         2.74820
| 90>    H        2.67564        -8.55259         4.41391
| 91>    H        3.38202        -9.72043         3.29480
| 92>    H        0.46721        -9.68893         4.22021
| 93>    H        1.71836       -10.79437         4.79259
| 94>    H        1.16987       -10.87092         3.11603
| 95>    H        2.83195        -6.85198         1.01281
| 96>    H        4.02305        -8.02540         1.59186
| 97>    H        2.89484        -5.63829         3.12341
| 98>    H        4.52359        -5.82972         2.49618
| 99>    H        3.99027        -6.83404         3.83971
|100>    H        3.28615       -10.42586         0.80608
|101>    H       -0.03938       -10.79814        -1.87495
|102>    H       -1.24452        -9.03952        -0.68863
|103>    H        3.25455       -12.23186        -0.87186
|104>    H        1.30870       -11.51263        -3.11244
|105>    H        3.38011       -13.77673        -3.10143
|106>    H        3.09607       -15.05482        -5.53062
|107>    H        1.66186       -14.87876        -7.66162
|108>    H       -0.25804       -13.99293        -9.45814
|109>    H       -2.00368       -12.47030       -10.57541
|110>    H       -3.52628       -10.35335        -9.99446
|111>    H       -1.21811        -8.81084        -7.54756
|112>    H       -5.94497        -7.45356        -6.99627
|113>    H       -5.31702        -9.03906        -8.76425
|114>    H        0.03883        -6.88449        -6.41448
|115>    H       -0.04995        -5.92562        -4.93638
|116>    H       -1.75048        -5.47152        -7.43747
|117>    H       -0.36291        -4.50007        -6.94094
|118>    H       -1.83096        -4.50702        -5.96212
|119>    H       -0.53354        -7.98585        -3.63089
|120>    H       -0.41637        -8.92400        -5.12253
|121>    H       -2.84277        -8.88195        -3.26660
|122>    H       -1.65477       -10.18175        -3.40170
|123>    H       -2.70893        -9.81349        -4.76077
|124>    H       -1.52154        -5.76344        -2.82718
|125>    H       -5.67895        -4.70951        -2.69115
|126>    H       -6.08280        -5.93615        -4.77928
|127>    H       -4.24263        -3.84546        -1.02971
|128>    H       -1.41172        -5.03671        -0.93241
|129>    H       -3.79449        -2.63951         0.91408
|130>    H        0.59532        -2.31662         3.91355
|131> *
|132>
|133>                          ****END OF INPUT****

CARTESIAN COORDINATES (ANGSTROEM)
---------------------------------
  C     -2.943280   -2.639180    6.304910
  C     -1.898990   -3.499050    6.139720
  C     -2.151090   -4.285000    4.959710
  C     -3.422760   -3.854820    4.416430
  O     -4.050070   -4.195830    3.431510
  N     -3.847290   -2.868140    5.311460
  C     -1.056610   -5.092280    4.763880
  O     -0.146340   -4.876910    5.759870
  C     -0.605440   -3.899610    6.647090
  O      0.048750   -3.553950    7.590180
  C     -0.746400   -6.020660    3.720690
  C      0.501450   -6.670970    3.693930
  C      0.787980   -7.517530    2.652710
  C     -0.176760   -7.751320    1.652790
  C     -1.411750   -7.114350    1.675780
  C     -1.691010   -6.245530    2.704920
  C      0.334890   -8.739940    0.740860
  C      1.615570   -9.134070    1.166110
  C      2.041070   -8.315500    2.368630
  C      2.463150   -9.191190    3.556190
  C      1.387360  -10.199590    3.944130
  C      3.187420   -7.389330    1.894350
  C      3.672690   -6.365540    2.911480
  C      2.300990  -10.114610    0.488200
  C      1.722450  -10.718120   -0.642600
  C      0.436700  -10.310010   -1.039900
  C     -0.255800   -9.331070   -0.367390
  C      2.426120  -11.745920   -1.370570
  C      2.090000  -12.093000   -2.638350
  C      2.598790  -13.120760   -3.457650
  C      2.066200  -13.318430   -4.708650
  C      2.342900  -14.302780   -5.690940
  C      1.582460  -14.210830   -6.821490
  C      0.666730  -13.136490   -6.810730
  S      0.793500  -12.259320   -5.302490
  C     -0.243990  -12.659680   -7.732300
  C     -0.651140  -13.095140   -9.013400
  C     -1.579160  -12.290230   -9.602900
  C     -1.967570  -11.155030   -8.832410
  S     -1.082100  -11.183880   -7.311190
  C     -2.919770  -10.217210   -9.109120
  C     -3.243650   -9.131520   -8.219370
  C     -2.258510   -8.585170   -7.380590
  C     -2.617990   -7.751710   -6.356360
  C     -3.955420   -7.354620   -6.179280
  C     -4.919220   -7.779220   -7.089400
  C     -4.560970   -8.660260   -8.091240
  C     -4.029140   -6.545820   -4.981220
  C     -2.740910   -6.475180   -4.412380
  C     -1.738480   -7.224720   -5.252710
  C     -0.630780   -6.297900   -5.782550
  C     -1.179510   -5.121130   -6.580240
  C     -1.107590   -8.392240   -4.466200
  C     -2.145470   -9.375810   -3.940270
  C     -2.516630   -5.804200   -3.240570
  C     -3.583090   -5.155890   -2.592530
  C     -4.857360   -5.212200   -3.181940
  C     -5.090110   -5.901020   -4.355590
  C     -3.393180   -4.426760   -1.366660
  C     -2.252580   -4.426670   -0.635650
  C     -1.987510   -3.676420    0.535160
  C     -0.801330   -3.678680    1.247510
  C     -0.921690   -2.764380    2.348570
  C     -2.264760   -2.185520    2.286280
  O     -2.827740   -1.386980    2.997600
  N     -2.825660   -2.775330    1.156120
  C      0.244480   -2.823250    3.033490
  O      1.100390   -3.695320    2.459070
  C      0.500160   -4.272980    1.323580
  O      1.078520   -5.085520    0.647680
  H     -3.110290   -1.887890    7.052820
  H     -4.669290   -2.309980    5.141220
  H      1.198350   -6.486910    4.496050
  H     -2.140360   -7.297660    0.900710
  H     -2.642040   -5.738970    2.748200
  H      2.675640   -8.552590    4.413910
  H      3.382020   -9.720430    3.294800
  H      0.467210   -9.688930    4.220210
  H      1.718360  -10.794370    4.792590
  H      1.169870  -10.870920    3.116030
  H      2.831950   -6.851980    1.012810
  H      4.023050   -8.025400    1.591860
  H      2.894840   -5.638290    3.123410
  H      4.523590   -5.829720    2.496180
  H      3.990270   -6.834040    3.839710
  H      3.286150  -10.425860    0.806080
  H     -0.039380  -10.798140   -1.874950
  H     -1.244520   -9.039520   -0.688630
  H      3.254550  -12.231860   -0.871860
  H      1.308700  -11.512630   -3.112440
  H      3.380110  -13.776730   -3.101430
  H      3.096070  -15.054820   -5.530620
  H      1.661860  -14.878760   -7.661620
  H     -0.258040  -13.992930   -9.458140
  H     -2.003680  -12.470300  -10.575410
  H     -3.526280  -10.353350   -9.994460
  H     -1.218110   -8.810840   -7.547560
  H     -5.944970   -7.453560   -6.996270
  H     -5.317020   -9.039060   -8.764250
  H      0.038830   -6.884490   -6.414480
  H     -0.049950   -5.925620   -4.936380
  H     -1.750480   -5.471520   -7.437470
  H     -0.362910   -4.500070   -6.940940
  H     -1.830960   -4.507020   -5.962120
  H     -0.533540   -7.985850   -3.630890
  H     -0.416370   -8.924000   -5.122530
  H     -2.842770   -8.881950   -3.266600
  H     -1.654770  -10.181750   -3.401700
  H     -2.708930   -9.813490   -4.760770
  H     -1.521540   -5.763440   -2.827180
  H     -5.678950   -4.709510   -2.691150
  H     -6.082800   -5.936150   -4.779280
  H     -4.242630   -3.845460   -1.029710
  H     -1.411720   -5.036710   -0.932410
  H     -3.794490   -2.639510    0.914080
  H      0.595320   -2.316620    3.913550

 Total Charge           Charge          ....    0
 Multiplicity           Mult            ....    1
 Number of Electrons    NEL             ....  500
 Basis Dimension        Dim             .... 1218

ORBITAL ENERGIES
----------------

  NO   OCC          E(Eh)            E(eV)
   0   2.0000     -88.938078     -2420.1281
   1   2.0000     -88.937257     -2420.1058
   2   2.0000     -19.273171      -524.4496
   3   2.0000     -19.271346      -524.4000
   4   2.0000     -19.200016      -522.4590
   5   2.0000     -19.197312      -522.3854
   6   2.0000     -19.193928      -522.2933
   7   2.0000     -19.188523      -522.1463
   8   2.0000     -14.454157      -393.3176
   9   2.0000     -14.453126      -393.2896
  10   2.0000     -10.397584      -282.9326
  11   2.0000     -10.395694      -282.8812
  12   2.0000     -10.383990      -282.5627
  13   2.0000     -10.375532      -282.3326
  14   2.0000     -10.358569      -281.8710
  15   2.0000     -10.350232      -281.6441
  16   2.0000     -10.344128      -281.4780
  17   2.0000     -10.331839      -281.1436
  18   2.0000     -10.306586      -280.4565
  19   2.0000     -10.305078      -280.4154
  20   2.0000     -10.304179      -280.3910
  21   2.0000     -10.302812      -280.3538
  22   2.0000     -10.300431      -280.2890
  23   2.0000     -10.288040      -279.9518
  24   2.0000     -10.287717      -279.9430
  25   2.0000     -10.286779      -279.9175
  26   2.0000     -10.285349      -279.8786
  27   2.0000     -10.284204      -279.8474
  28   2.0000     -10.284054      -279.8433
  29   2.0000     -10.280601      -279.7494
  30   2.0000     -10.278884      -279.7026
  31   2.0000     -10.278429      -279.6903
  32   2.0000     -10.278383      -279.6890
  33   2.0000     -10.277712      -279.6708
  34   2.0000     -10.276584      -279.6401
  35   2.0000     -10.275978      -279.6236
  36   2.0000     -10.274551      -279.5847
  37   2.0000     -10.274413      -279.5810
  38   2.0000     -10.273321      -279.5513
  39   2.0000     -10.272668      -279.5335
  40   2.0000     -10.271056      -279.4896
  41   2.0000     -10.270708      -279.4802
  42   2.0000     -10.270639      -279.4783
  43   2.0000     -10.270522      -279.4751
  44   2.0000     -10.270163      -279.4653
  45   2.0000     -10.269734      -279.4537
  46   2.0000     -10.268589      -279.4225
  47   2.0000     -10.267701      -279.3983
  48   2.0000     -10.267546      -279.3941
  49   2.0000     -10.267380      -279.3896
  50   2.0000     -10.266425      -279.3636
  51   2.0000     -10.265799      -279.3466
  52   2.0000     -10.265127      -279.3283
  53   2.0000     -10.264566      -279.3130
  54   2.0000     -10.264208      -279.3033
  55   2.0000     -10.263420      -279.2819
  56   2.0000     -10.262369      -279.2533
  57   2.0000     -10.262133      -279.2468
  58   2.0000     -10.261627      -279.2331
  59   2.0000     -10.261252      -279.2229
  60   2.0000     -10.260687      -279.2075
  61   2.0000     -10.260672      -279.2071
  62   2.0000     -10.259957      -279.1876
  63   2.0000     -10.257063      -279.1089
  64   2.0000     -10.252092      -278.9736
  65   2.0000     -10.244241      -278.7600
  66   2.0000     -10.243111      -278.7292
  67   2.0000     -10.241599      -278.6881
  68   2.0000     -10.237669      -278.5811
  69   2.0000     -10.230837      -278.3952
  70   2.0000      -8.033885      -218.6131
  71   2.0000      -8.033598      -218.6053
  72   2.0000      -6.003751      -163.3704
  73   2.0000      -6.003366      -163.3599
  74   2.0000      -5.999498      -163.2547
  75   2.0000      -5.999299      -163.2492
  76   2.0000      -5.994710      -163.1244
  77   2.0000      -5.994433      -163.1168
  78   2.0000      -1.200813       -32.6758
  79   2.0000      -1.199631       -32.6436
  80   2.0000      -1.134158       -30.8620
  81   2.0000      -1.123480       -30.5715
  82   2.0000      -1.106594       -30.1120
  83   2.0000      -1.105928       -30.0938
  84   2.0000      -1.057525       -28.7767
  85   2.0000      -1.051236       -28.6056
  86   2.0000      -0.993444       -27.0330
  87   2.0000      -0.988960       -26.9110
  88   2.0000      -0.980062       -26.6689
  89   2.0000      -0.969991       -26.3948
  90   2.0000      -0.949641       -25.8410
  91   2.0000      -0.941872       -25.6296
  92   2.0000      -0.923919       -25.1411
  93   2.0000      -0.916754       -24.9461
  94   2.0000      -0.904163       -24.6035
  95   2.0000      -0.900188       -24.4954
  96   2.0000      -0.899312       -24.4715
  97   2.0000      -0.896389       -24.3920
  98   2.0000      -0.884163       -24.0593
  99   2.0000      -0.876129       -23.8407
 100   2.0000      -0.863041       -23.4845
 101   2.0000      -0.850809       -23.1517
 102   2.0000      -0.846530       -23.0353
 103   2.0000      -0.835387       -22.7320
 104   2.0000      -0.834119       -22.6975
 105   2.0000      -0.830953       -22.6114
 106   2.0000      -0.828199       -22.5364
 107   2.0000      -0.825667       -22.4675
 108   2.0000      -0.823728       -22.4148
 109   2.0000      -0.820269       -22.3206
 110   2.0000      -0.818974       -22.2854
 111   2.0000      -0.813212       -22.1286
 112   2.0000      -0.805473       -21.9180
 113   2.0000      -0.796269       -21.6676
 114   2.0000      -0.782378       -21.2896
 115   2.0000      -0.769118       -20.9288
 116   2.0000      -0.760049       -20.6820
 117   2.0000      -0.756508       -20.5856
 118   2.0000      -0.752277       -20.4705
 119   2.0000      -0.751301       -20.4439
 120   2.0000      -0.747949       -20.3527
 121   2.0000      -0.737479       -20.0678
 122   2.0000      -0.722542       -19.6614
 123   2.0000      -0.710517       -19.3342
 124   2.0000      -0.704862       -19.1803
 125   2.0000      -0.694448       -18.8969
 126   2.0000      -0.690360       -18.7857
 127   2.0000      -0.685232       -18.6461
 128   2.0000      -0.681308       -18.5393
 129   2.0000      -0.675783       -18.3890
 130   2.0000      -0.673939       -18.3388
 131   2.0000      -0.670680       -18.2501
 132   2.0000      -0.669149       -18.2085
 133   2.0000      -0.664474       -18.0813
 134   2.0000      -0.658485       -17.9183
 135   2.0000      -0.653391       -17.7797
 136   2.0000      -0.640331       -17.4243
 137   2.0000      -0.637832       -17.3563
 138   2.0000      -0.628873       -17.1125
 139   2.0000      -0.622741       -16.9456
 140   2.0000      -0.611995       -16.6532
 141   2.0000      -0.608904       -16.5691
 142   2.0000      -0.606699       -16.5091
 143   2.0000      -0.603788       -16.4299
 144   2.0000      -0.600913       -16.3517
 145   2.0000      -0.595253       -16.1976
 146   2.0000      -0.591740       -16.1021
 147   2.0000      -0.588975       -16.0268
 148   2.0000      -0.582907       -15.8617
 149   2.0000      -0.579344       -15.7648
 150   2.0000      -0.578470       -15.7410
 151   2.0000      -0.574580       -15.6351
 152   2.0000      -0.573349       -15.6016
 153   2.0000      -0.571395       -15.5484
 154   2.0000      -0.565137       -15.3782
 155   2.0000      -0.560419       -15.2498
 156   2.0000      -0.555580       -15.1181
 157   2.0000      -0.551263       -15.0006
 158   2.0000      -0.545001       -14.8302
 159   2.0000      -0.541637       -14.7387
 160   2.0000      -0.538295       -14.6477
 161   2.0000      -0.536288       -14.5931
 162   2.0000      -0.535540       -14.5728
 163   2.0000      -0.530149       -14.4261
 164   2.0000      -0.528273       -14.3750
 165   2.0000      -0.524692       -14.2776
 166   2.0000      -0.521107       -14.1800
 167   2.0000      -0.519063       -14.1244
 168   2.0000      -0.517693       -14.0871
 169   2.0000      -0.516257       -14.0481
 170   2.0000      -0.514947       -14.0124
 171   2.0000      -0.513004       -13.9596
 172   2.0000      -0.512408       -13.9433
 173   2.0000      -0.510893       -13.9021
 174   2.0000      -0.509401       -13.8615
 175   2.0000      -0.505704       -13.7609
 176   2.0000      -0.502064       -13.6619
 177   2.0000      -0.501370       -13.6430
 178   2.0000      -0.501185       -13.6379
 179   2.0000      -0.497118       -13.5273
 180   2.0000      -0.494260       -13.4495
 181   2.0000      -0.492030       -13.3888
 182   2.0000      -0.489510       -13.3202
 183   2.0000      -0.486427       -13.2364
 184   2.0000      -0.483955       -13.1691
 185   2.0000      -0.480710       -13.0808
 186   2.0000      -0.477062       -12.9815
 187   2.0000      -0.471768       -12.8375
 188   2.0000      -0.469742       -12.7823
 189   2.0000      -0.467998       -12.7349
 190   2.0000      -0.467203       -12.7132
 191   2.0000      -0.464757       -12.6467
 192   2.0000      -0.463591       -12.6150
 193   2.0000      -0.462063       -12.5734
 194   2.0000      -0.461225       -12.5506
 195   2.0000      -0.459562       -12.5053
 196   2.0000      -0.457876       -12.4594
 197   2.0000      -0.457456       -12.4480
 198   2.0000      -0.452353       -12.3091
 199   2.0000      -0.452014       -12.2999
 200   2.0000      -0.449655       -12.2357
 201   2.0000      -0.445855       -12.1323
 202   2.0000      -0.443259       -12.0617
 203   2.0000      -0.439272       -11.9532
 204   2.0000      -0.437542       -11.9061
 205   2.0000      -0.435611       -11.8536
 206   2.0000      -0.430143       -11.7048
 207   2.0000      -0.428977       -11.6730
 208   2.0000      -0.428112       -11.6495
 209   2.0000      -0.424401       -11.5485
 210   2.0000      -0.422364       -11.4931
 211   2.0000      -0.421408       -11.4671
 212   2.0000      -0.419926       -11.4268
 213   2.0000      -0.419331       -11.4106
 214   2.0000      -0.414850       -11.2886
 215   2.0000      -0.412848       -11.2342
 216   2.0000      -0.411537       -11.1985
 217   2.0000      -0.409273       -11.1369
 218   2.0000      -0.405461       -11.0332
 219   2.0000      -0.403107       -10.9691
 220   2.0000      -0.399367       -10.8673
 221   2.0000      -0.395123       -10.7518
 222   2.0000      -0.386401       -10.5145
 223   2.0000      -0.385932       -10.5018
 224   2.0000      -0.381994       -10.3946
 225   2.0000      -0.381302       -10.3757
 226   2.0000      -0.378252       -10.2928
 227   2.0000      -0.375784       -10.2256
 228   2.0000      -0.371691       -10.1142
 229   2.0000      -0.366755        -9.9799
 230   2.0000      -0.359874        -9.7927
 231   2.0000      -0.357436        -9.7263
 232   2.0000      -0.354152        -9.6370
 233   2.0000      -0.351566        -9.5666
 234   2.0000      -0.345093        -9.3905
 235   2.0000      -0.337579        -9.1860
 236   2.0000      -0.336179        -9.1479
 237   2.0000      -0.331587        -9.0229
 238   2.0000      -0.328740        -8.9455
 239   2.0000      -0.322960        -8.7882
 240   2.0000      -0.319399        -8.6913
 241   2.0000      -0.313612        -8.5338
 242   2.0000      -0.312731        -8.5098
 243   2.0000      -0.307197        -8.3592
 244   2.0000      -0.303829        -8.2676
 245   2.0000      -0.284892        -7.7523
 246   2.0000      -0.268352        -7.3022
 247   2.0000      -0.258514        -7.0345
 248   2.0000      -0.239393        -6.5142
 249   2.0000      -0.208082        -5.6622
 250   0.0000      -0.081102        -2.2069
 251   0.0000      -0.069808        -1.8996
 252   0.0000      -0.056732        -1.5437
 253   0.0000      -0.020268        -0.5515
 254   0.0000      -0.001779        -0.0484

MULLIKEN ATOMIC CHARGES
-----------------------
   0 C :    0.045642
   1 C :   -0.069087
   2 C :   -0.080175
   3 C :    0.173740
   4 O :   -0.213507
   5 N :   -0.092592
   6 C :    0.145537
   7 O :   -0.260411
   8 C :    0.222562
   9 O :   -0.135021
  10 C :   -0.000059
  11 C :   -0.095534
  12 C :    0.039291
  13 C :    0.144983
  14 C :   -0.080295
  15 C :    0.027027
  16 C :    0.100216
  17 C :    0.027081
  18 C :   -0.131071
  19 C :    0.050966
  20 C :    0.028980
  21 C :    0.081267
  22 C :    0.030990
  23 C :   -0.105037
  24 C :    0.115992
  25 C :   -0.021523
  26 C :   -0.041327
  27 C :   -0.004026
  28 C :   -0.002880
  29 C :    0.012502
  30 C :   -0.018412
  31 C :    0.033783
  32 C :    0.033237
  33 C :   -0.031841
  34 S :    0.019558
  35 C :   -0.039392
  36 C :    0.041987
  37 C :    0.035019
  38 C :   -0.019117
  39 S :    0.027184
  40 C :   -0.011970
  41 C :    0.084368
  42 C :   -0.104634
  43 C :   -0.002152
  44 C :    0.108010
  45 C :   -0.047141
  46 C :   -0.002063
  47 C :    0.111896
  48 C :    0.009943
  49 C :   -0.144528
  50 C :    0.070174
  51 C :    0.024647
  52 C :    0.064917
  53 C :    0.027323
  54 C :   -0.083122
  55 C :    0.101389
  56 C :   -0.010104
  57 C :   -0.048565
  58 C :   -0.002164
  59 C :    0.013191
  60 C :    0.076933
  61 C :   -0.074709
  62 C :   -0.038156
  63 C :    0.176520
  64 O :   -0.182170
  65 N :   -0.098417
  66 C :    0.105342
  67 O :   -0.255595
  68 C :    0.229405
  69 O :   -0.157496
  70 H :    0.022179
  71 H :    0.134406
  72 H :   -0.013640
  73 H :   -0.034170
  74 H :   -0.013886
  75 H :    0.009497
  76 H :   -0.004486
  77 H :    0.017147
  78 H :    0.006542
  79 H :    0.016503
  80 H :    0.021463
  81 H :   -0.015259
  82 H :    0.025217
  83 H :    0.006077
  84 H :   -0.004485
  85 H :   -0.043590
  86 H :   -0.026932
  87 H :   -0.039446
  88 H :   -0.021789
  89 H :    0.017540
  90 H :   -0.018812
  91 H :   -0.011433
  92 H :   -0.013211
  93 H :   -0.014700
  94 H :   -0.013632
  95 H :   -0.015029
  96 H :   -0.004360
  97 H :   -0.035708
  98 H :   -0.029618
  99 H :    0.003534
 100 H :    0.002461
 101 H :    0.020115
 102 H :    0.010184
 103 H :    0.018593
 104 H :    0.000559
 105 H :    0.006791
 106 H :    0.017574
 107 H :    0.003229
 108 H :    0.022735
 109 H :   -0.028127
 110 H :   -0.026758
 111 H :   -0.033451
 112 H :   -0.026195
 113 H :    0.005126
 114 H :    0.131513
 115 H :    0.032417
Sum of atomic charges:    0.0000000

LOEWDIN ATOMIC CHARGES
----------------------
   0 C :    0.089292
   1 C :   -0.140765
   2 C :   -0.137781
   3 C :    0.071368
   4 O :   -0.209419
   5 N :    0.050301
   6 C :    0.124306
   7 O :   -0.055426
   8 C :    0.100173
   9 O :   -0.142466
  10 C :   -0.068331
  11 C :    0.005825
  12 C :    0.005921
  13 C :    0.016043
  14 C :   -0.028116
  15 C :    0.014758
  16 C :   -0.020004
  17 C :    0.015631
  18 C :   -0.032360
  19 C :   -0.016405
  20 C :   -0.057129
  21 C :   -0.009533
  22 C :   -0.059517
  23 C :   -0.021568
  24 C :   -0.019117
  25 C :   -0.018033
  26 C :   -0.013560
  27 C :   -0.012607
  28 C :   -0.037053
  29 C :   -0.050224
  30 C :   -0.140926
  31 C :   -0.034589
  32 C :   -0.032479
  33 C :   -0.177950
  34 S :    0.367303
  35 C :   -0.185389
  36 C :   -0.031035
  37 C :   -0.035025
  38 C :   -0.138495
  39 S :    0.391394
  40 C :   -0.052217
  41 C :   -0.025541
  42 C :   -0.038401
  43 C :    0.007657
  44 C :   -0.024269
  45 C :   -0.016456
  46 C :   -0.017933
  47 C :   -0.003310
  48 C :    0.007011
  49 C :   -0.036303
  50 C :   -0.010747
  51 C :   -0.057893
  52 C :   -0.010700
  53 C :   -0.058943
  54 C :   -0.007684
  55 C :   -0.037043
  56 C :   -0.010337
  57 C :   -0.021807
  58 C :    0.022405
  59 C :   -0.046052
  60 C :    0.086889
  61 C :   -0.133149
  62 C :   -0.120237
  63 C :    0.082638
  64 O :   -0.186555
  65 N :    0.040141
  66 C :    0.119435
  67 O :   -0.046844
  68 C :    0.105589
  69 O :   -0.154029
  70 H :    0.035750
  71 H :    0.092811
  72 H :    0.031589
  73 H :    0.026875
  74 H :    0.029878
  75 H :    0.021453
  76 H :    0.019453
  77 H :    0.024442
  78 H :    0.022840
  79 H :    0.023469
  80 H :    0.029585
  81 H :    0.014989
  82 H :    0.023591
  83 H :    0.026936
  84 H :    0.015942
  85 H :    0.023285
  86 H :    0.023577
  87 H :    0.026587
  88 H :    0.026399
  89 H :    0.015120
  90 H :    0.031165
  91 H :    0.033224
  92 H :    0.032313
  93 H :    0.032168
  94 H :    0.032098
  95 H :    0.031257
  96 H :    0.016698
  97 H :    0.026606
  98 H :    0.026457
  99 H :    0.022545
 100 H :    0.021964
 101 H :    0.024983
 102 H :    0.024588
 103 H :    0.024133
 104 H :    0.020587
 105 H :    0.019740
 106 H :    0.021698
 107 H :    0.021011
 108 H :    0.024416
 109 H :    0.028473
 110 H :    0.026735
 111 H :    0.028065
 112 H :    0.026771
 113 H :    0.041751
 114 H :    0.088865
 115 H :    0.034792

  Mayer bond orders larger than 0.100000
B(  0-C ,  1-C ) :   1.4990 B(  0-C ,  5-N ) :   1.2054 B(  0-C , 70-H ) :   0.9834
B(  1-C ,  2-C ) :   1.1440 B(  1-C ,  8-C ) :   0.9531 B(  2-C ,  3-C ) :   0.9810
B(  2-C ,  6-C ) :   1.4346 B(  3-C ,  4-O ) :   2.0466 B(  3-C ,  5-N ) :   1.1071
B(  5-N , 71-H ) :   0.9263 B(  6-C ,  7-O ) :   1.1520 B(  6-C , 10-C ) :   1.1167
B(  7-O ,  8-C ) :   0.9808 B(  8-C ,  9-O ) :   2.2707 B( 10-C , 11-C ) :   1.2365
B( 10-C , 15-C ) :   1.3469 B( 11-C , 12-C ) :   1.3781 B( 11-C , 72-H ) :   1.0152
B( 12-C , 13-C ) :   1.3622 B( 12-C , 18-C ) :   0.9168 B( 13-C , 14-C ) :   1.3093
B( 13-C , 16-C ) :   1.0163 B( 14-C , 15-C ) :   1.3906 B( 14-C , 73-H ) :   0.9962
B( 15-C , 74-H ) :   0.9587 B( 16-C , 17-C ) :   1.3741 B( 16-C , 26-C ) :   1.3166
B( 17-C , 18-C ) :   0.9266 B( 17-C , 23-C ) :   1.3821 B( 18-C , 19-C ) :   1.0337
B( 18-C , 21-C ) :   1.0102 B( 19-C , 20-C ) :   1.1041 B( 19-C , 75-H ) :   0.9383
B( 19-C , 76-H ) :   0.9390 B( 20-C , 77-H ) :   0.9648 B( 20-C , 78-H ) :   0.9649
B( 20-C , 79-H ) :   0.9626 B( 21-C , 22-C ) :   1.1158 B( 21-C , 80-H ) :   0.9294
B( 21-C , 81-H ) :   0.9353 B( 22-C , 82-H ) :   0.9564 B( 22-C , 83-H ) :   0.9572
B( 22-C , 84-H ) :   0.9617 B( 23-C , 24-C ) :   1.2879 B( 23-C , 85-H ) :   1.0089
B( 24-C , 25-C ) :   1.3341 B( 24-C , 27-C ) :   1.0635 B( 25-C , 26-C ) :   1.4062
B( 25-C , 86-H ) :   0.9761 B( 26-C , 87-H ) :   0.9888 B( 27-C , 28-C ) :   1.6576
B( 27-C , 88-H ) :   0.9899 B( 28-C , 29-C ) :   1.1407 B( 28-C , 89-H ) :   0.9518
B( 29-C , 30-C ) :   1.5747 B( 29-C , 90-H ) :   0.9888 B( 30-C , 31-C ) :   1.1378
B( 30-C , 34-S ) :   1.0287 B( 31-C , 32-C ) :   1.5930 B( 31-C , 91-H ) :   0.9974
B( 32-C , 33-C ) :   1.1870 B( 32-C , 92-H ) :   0.9952 B( 33-C , 34-S ) :   1.0467
B( 33-C , 35-C ) :   1.5075 B( 35-C , 36-C ) :   1.1787 B( 35-C , 39-S ) :   1.0361
B( 36-C , 37-C ) :   1.6115 B( 36-C , 93-H ) :   0.9952 B( 37-C , 38-C ) :   1.1264
B( 37-C , 94-H ) :   0.9945 B( 38-C , 39-S ) :   1.0252 B( 38-C , 40-C ) :   1.6457
B( 40-C , 41-C ) :   1.0515 B( 40-C , 95-H ) :   0.9708 B( 41-C , 42-C ) :   1.2893
B( 41-C , 46-C ) :   1.3442 B( 42-C , 43-C ) :   1.4250 B( 42-C , 96-H ) :   0.9673
B( 43-C , 44-C ) :   1.3692 B( 43-C , 49-C ) :   0.9164 B( 44-C , 45-C ) :   1.3291
B( 44-C , 47-C ) :   0.9927 B( 45-C , 46-C ) :   1.4033 B( 45-C , 97-H ) :   0.9902
B( 46-C , 98-H ) :   0.9879 B( 47-C , 48-C ) :   1.3480 B( 47-C , 57-C ) :   1.3393
B( 48-C , 49-C ) :   0.9171 B( 48-C , 54-C ) :   1.4234 B( 49-C , 50-C ) :   1.0364
B( 49-C , 52-C ) :   1.0410 B( 50-C , 51-C ) :   1.1007 B( 50-C , 99-H ) :   0.9400
B( 50-C ,100-H ) :   0.9391 B( 51-C ,101-H ) :   0.9641 B( 51-C ,102-H ) :   0.9641
B( 51-C ,103-H ) :   0.9644 B( 52-C , 53-C ) :   1.1035 B( 52-C ,104-H ) :   0.9371
B( 52-C ,105-H ) :   0.9350 B( 53-C ,106-H ) :   0.9592 B( 53-C ,107-H ) :   0.9641
B( 53-C ,108-H ) :   0.9537 B( 54-C , 55-C ) :   1.2825 B( 54-C ,109-H ) :   0.9995
B( 55-C , 56-C ) :   1.3294 B( 55-C , 58-C ) :   1.0756 B( 56-C , 57-C ) :   1.3805
B( 56-C ,110-H ) :   0.9926 B( 57-C ,111-H ) :   0.9916 B( 58-C , 59-C ) :   1.5911
B( 58-C ,112-H ) :   0.9933 B( 59-C , 60-C ) :   1.1784 B( 59-C ,113-H ) :   0.9440
B( 60-C , 61-C ) :   1.3605 B( 60-C , 65-N ) :   1.1972 B( 61-C , 62-C ) :   1.1668
B( 61-C , 68-C ) :   1.0287 B( 62-C , 63-C ) :   0.9158 B( 62-C , 66-C ) :   1.5493
B( 63-C , 64-O ) :   2.1930 B( 63-C , 65-N ) :   1.0799 B( 65-N ,114-H ) :   0.9159
B( 66-C , 67-O ) :   1.1279 B( 66-C ,115-H ) :   1.0027 B( 67-O , 68-C ) :   0.9743
B( 68-C , 69-O ) :   2.1353

-----------------------------------------------------------------------------
         ABSORPTION SPECTRUM VIA TRANSITION ELECTRIC DIPOLE MOMENTS
-----------------------------------------------------------------------------
State   Energy  Wavelength   fosc         T2         TX        TY        TZ
        (cm-1)    (nm)                  (au**2)     (au)      (au)      (au)
-----------------------------------------------------------------------------
   0   14097.4    709.4   0.382436682   8.93091   1.53448  -1.05978   2.33520
   1   17616.3    567.7   0.138728110   2.59254   0.37219   0.67922   1.41162
   2   19757.6    506.1   1.015215180  16.91604   0.65505   1.60411   3.73012
   3   21251.7    470.6   0.153338169   2.37538   0.13434   0.56078   1.42929
   4   22145.5    451.6   0.573042871   8.51879  -1.93520   2.10091   0.59996
   5   23821.2    419.8   0.710781835   9.82310   1.23237  -2.50420  -1.42596
   6   24682.3    405.1   0.692179162   9.23228  -2.56612   0.19731  -1.61505
   7   26565.0    376.4   0.054811889   0.67927  -0.59721   0.46418  -0.32733
   8   26895.5    371.8   0.256473058   3.13934   0.52436  -1.26472  -1.12466
   9   27288.0    366.5   0.034324993   0.41411   0.11947  -0.28233  -0.56580
  10   28941.6    345.5   0.296339161   3.37087   0.39658  -1.18901  -1.34158
  11   29770.9    335.9   0.190530335   2.10692   0.04883  -0.98522  -1.06484
  12   30164.7    331.5   0.046306919   0.50539   0.25288   0.29912   0.59327
  13   30974.0    322.9   0.035719029   0.37965   0.44031  -0.42387   0.07815
  14   31522.4    317.2   0.128374369   1.34071   0.09253   0.68488   0.92902
  15   31929.5    313.2   0.020560377   0.21199  -0.25336   0.35711   0.14239
  16   31940.8    313.1   0.021905040   0.22577  -0.22413   0.38002   0.17642
  17   32714.9    305.7   0.005561826   0.05597   0.12684   0.14703   0.13513
  18   32893.8    304.0   0.014767577   0.14780  -0.29689  -0.04594  -0.23988
  19   33094.3    302.2   0.058225139   0.57921   0.22995  -0.41927  -0.59207
  20   33346.8    299.9   0.132817315   1.31122  -0.26194   0.66348   0.89577
  21   33640.5    297.3   0.020865670   0.20420   0.17089  -0.38262  -0.16910
  22   33778.9    296.0   0.009021105   0.08792   0.28832   0.03443   0.06005
  23   34078.8    293.4   0.019659017   0.18991  -0.36775   0.20464   0.11312
  24   34293.3    291.6   0.073743000   0.70792   0.75792  -0.01733   0.36494
  25   34710.8    288.1   0.022550744   0.21388   0.01383  -0.25739  -0.38398
  26   34799.4    287.4   0.005478223   0.05183  -0.01120   0.01415  -0.22694
  27   35207.0    284.0   0.055884498   0.52256   0.40867  -0.42937  -0.41376
  28   36230.7    276.0   0.014899400   0.13538   0.06572   0.19173   0.30709
  29   36342.5    275.2   0.006346380   0.05749  -0.22711   0.04870   0.05949
  30   36595.3    273.3   0.023910930   0.21510  -0.08492   0.18755   0.41559
  31   36760.1    272.0   0.108121187   0.96830  -0.45980   0.69725   0.52031
  32   36949.3    270.6   0.000495693   0.00442  -0.06118  -0.02461  -0.00824
  33   37293.2    268.1   0.010327480   0.09117  -0.09387   0.21240   0.19298
  34   37770.9    264.8   0.007316187   0.06377   0.24123  -0.07215  -0.01923
  35   37937.1    263.6   0.036410719   0.31597  -0.44553   0.29863  -0.16819
  36   38087.9    262.6   0.010818558   0.09351   0.19169  -0.14657   0.18784
  37   38217.7    261.7   0.256435418   2.20897   0.57645   0.19744   1.35561
  38   38650.0    258.7   0.006467306   0.05509  -0.12021  -0.07317  -0.18783
  39   38838.6    257.5   0.019721447   0.16717   0.10177   0.08017   0.38779
  40   39039.0    256.2   0.008540255   0.07202   0.14961   0.22279   0.00104
  41   39272.3    254.6   0.033734797   0.28279   0.51937  -0.07804   0.08339
  42   39530.8    253.0   0.021341098   0.17773  -0.01192  -0.27266  -0.32131
  43   39670.5    252.1   0.152417261   1.26486  -0.32779   0.71252   0.80606
  44   39779.6    251.4   0.017037157   0.14100  -0.13889  -0.19150  -0.29160
  45   40083.1    249.5   0.007830657   0.06431  -0.13868  -0.11083  -0.18111
  46   40221.0    248.6   0.020407454   0.16704  -0.01365  -0.26310  -0.31246

FINAL SINGLE POINT ENERGY     -3667.454399623010

DIPOLE MOMENT
-------------
                                X             Y             Z
Electronic contribution:    -18.16149      22.03177      21.01479
Nuclear contribution   :     16.82756     -23.14341     -23.73271
                        -----------------------------------------
Total Dipole Moment    :     -1.33393      -1.11164      -2.71792
                        -----------------------------------------
Magnitude (a.u.)       :      3.22525
Magnitude (Debye)      :      8.19793

Rotational constants in cm-1:     0.001741     0.000579     0.000463
Rotational constants in MHz :    52.183638    17.345373    13.881233

                             ****ORCA TERMINATED NORMALLY****
TOTAL RUN TIME: 0 days 0 hours 12 minutes 47 seconds 159 msec
