                         Program Version 4.2.0 -  RELEASE  -
|  1> # ORCA input file
|  2> # SCF done       -161.387267565484          0.000652277962
|  3> ! CAM-B3LYP def2-SVP def2/J RIJCOSX Grid4 TightSCF
|  4> %maxcore 5000
|  5> %tddft
|  6>     Mode sTDDFT
|  7>     Ethresh 5.0
|  8>     maxcore 5000
|  9> end
| 10>
| 11> %pal
| 12>   nprocs 6
| 13>   end
| 14> * xyz 0 1
| 15>    C        9.39216        -7.60432        -8.91894
| 16>    S        8.43474        -7.86595       -10.31231
| 17>    C        7.35795        -6.59156        -9.92574
| 18>    C        7.71856        -5.97831        -8.75634
| 19>    C        8.89451        -6.57319        -8.16558
| 20>    N        9.36896        -6.12707        -6.97970
| 21>    C        8.72893        -5.15793        -6.38711
| 22>    C        7.61664        -4.47440        -7.04945
| 23>    N        7.06574        -3.33768        -6.51144
| 24>    C        6.26453        -2.49274        -7.37695
| 25>    N        7.14332        -4.89346        -8.18729
| 26>    N        9.21009        -4.72935        -5.16605
| 27>    C       10.60676        -4.96644        -4.86042
| 28>    C        8.36787        -4.27002        -4.17905
| 29>    C        8.79227        -3.63998        -3.07114
| 30>    C        8.02933        -3.20149        -1.92341
| 31>    C        8.70129        -3.00689        -0.74712
| 32>    F       10.01100        -3.20461        -0.56657
| 33>    S        7.74617        -2.48863         0.59125
| 34>    C        6.38018        -2.50729        -0.46545
| 35>    F        5.20635        -2.14960         0.06353
| 36>    C        6.62426        -2.88382        -1.76262
| 37>    C        5.63489        -2.91154        -2.80936
| 38>    C        4.34695        -2.52391        -2.67424
| 39>    C        3.35412        -2.58688        -3.68582
| 40>    S        1.80974        -1.82066        -3.39053
| 41>    C        1.12114        -2.30505        -4.91137
| 42>    C        2.05978        -3.03772        -5.62459
| 43>    C        3.30134        -3.19455        -4.93033
| 44>    N        4.07600        -3.97513        -5.72342
| 45>    N        3.43149        -4.31068        -6.85470
| 46>    C        2.24074        -3.78014        -6.82505
| 47>    C       -0.19644        -1.89607        -5.30907
| 48>    C       -0.56850        -1.70192        -6.61180
| 49>    F        0.20305        -1.84375        -7.68802
| 50>    S       -2.19717        -1.16223        -6.83514
| 51>    C       -2.38699        -1.17248        -5.11941
| 52>    F       -3.57379        -0.85638        -4.61300
| 53>    C       -1.28764        -1.58064        -4.41532
| 54>    C       -1.24256        -1.75612        -2.98556
| 55>    C       -2.01867        -1.09589        -2.11228
| 56>    C       -1.97717        -1.28416        -0.68162
| 57>    C       -2.18234        -0.19891         0.19880
| 58>    C       -2.39464         1.19155        -0.24173
| 59>    O       -2.40641         1.63165        -1.35329
| 60>    S       -2.63261         2.24176         1.20327
| 61>    C       -2.40416         0.89054         2.35648
| 62>    O       -2.44537         1.01273         3.54307
| 63>    C       -2.16831        -0.34888         1.58860
| 64>    C       -1.95526        -1.57567         2.20156
| 65>    C       -1.76674        -2.64669         1.34716
| 66>    C       -1.77212        -2.52181        -0.04582
| 67>    C       -1.62691        -3.89522        -0.58980
| 68>    O       -1.61406        -4.29668        -1.71324
| 69>    O       -1.51125        -4.75237         0.48086
| 70>    C       -1.57735        -4.07860         1.67591
| 71>    O       -1.49545        -4.61713         2.73433
| 72>    H       10.24114        -8.22400        -8.71611
| 73>    H        6.52904        -6.36542       -10.56373
| 74>    H        7.66851        -2.83076        -5.87586
| 75>    H        5.54887        -3.12086        -7.90319
| 76>    H        6.87579        -1.97111        -8.11874
| 77>    H        5.74117        -1.76232        -6.76283
| 78>    H       11.16356        -4.02643        -4.85750
| 79>    H       11.00951        -5.62451        -5.62607
| 80>    H       10.70263        -5.44424        -3.88557
| 81>    H        7.32961        -4.51690        -4.33411
| 82>    H        9.85354        -3.47578        -2.95040
| 83>    H        5.97375        -3.24458        -3.77512
| 84>    H        3.99275        -2.11869        -1.73951
| 85>    H        5.02955        -4.27004        -5.60057
| 86>    H        1.55763        -3.93294        -7.63379
| 87>    H       -0.50952        -2.46479        -2.63276
| 88>    H       -2.67714        -0.31272        -2.45762
| 89>    H       -1.94954        -1.68127         3.27425
| 90> *
| 91>
| 92>                          ****END OF INPUT****

CARTESIAN COORDINATES (ANGSTROEM)
---------------------------------
  C      9.392160   -7.604320   -8.918940
  S      8.434740   -7.865950  -10.312310
  C      7.357950   -6.591560   -9.925740
  C      7.718560   -5.978310   -8.756340
  C      8.894510   -6.573190   -8.165580
  N      9.368960   -6.127070   -6.979700
  C      8.728930   -5.157930   -6.387110
  C      7.616640   -4.474400   -7.049450
  N      7.065740   -3.337680   -6.511440
  C      6.264530   -2.492740   -7.376950
  N      7.143320   -4.893460   -8.187290
  N      9.210090   -4.729350   -5.166050
  C     10.606760   -4.966440   -4.860420
  C      8.367870   -4.270020   -4.179050
  C      8.792270   -3.639980   -3.071140
  C      8.029330   -3.201490   -1.923410
  C      8.701290   -3.006890   -0.747120
  F     10.011000   -3.204610   -0.566570
  S      7.746170   -2.488630    0.591250
  C      6.380180   -2.507290   -0.465450
  F      5.206350   -2.149600    0.063530
  C      6.624260   -2.883820   -1.762620
  C      5.634890   -2.911540   -2.809360
  C      4.346950   -2.523910   -2.674240
  C      3.354120   -2.586880   -3.685820
  S      1.809740   -1.820660   -3.390530
  C      1.121140   -2.305050   -4.911370
  C      2.059780   -3.037720   -5.624590
  C      3.301340   -3.194550   -4.930330
  N      4.076000   -3.975130   -5.723420
  N      3.431490   -4.310680   -6.854700
  C      2.240740   -3.780140   -6.825050
  C     -0.196440   -1.896070   -5.309070
  C     -0.568500   -1.701920   -6.611800
  F      0.203050   -1.843750   -7.688020
  S     -2.197170   -1.162230   -6.835140
  C     -2.386990   -1.172480   -5.119410
  F     -3.573790   -0.856380   -4.613000
  C     -1.287640   -1.580640   -4.415320
  C     -1.242560   -1.756120   -2.985560
  C     -2.018670   -1.095890   -2.112280
  C     -1.977170   -1.284160   -0.681620
  C     -2.182340   -0.198910    0.198800
  C     -2.394640    1.191550   -0.241730
  O     -2.406410    1.631650   -1.353290
  S     -2.632610    2.241760    1.203270
  C     -2.404160    0.890540    2.356480
  O     -2.445370    1.012730    3.543070
  C     -2.168310   -0.348880    1.588600
  C     -1.955260   -1.575670    2.201560
  C     -1.766740   -2.646690    1.347160
  C     -1.772120   -2.521810   -0.045820
  C     -1.626910   -3.895220   -0.589800
  O     -1.614060   -4.296680   -1.713240
  O     -1.511250   -4.752370    0.480860
  C     -1.577350   -4.078600    1.675910
  O     -1.495450   -4.617130    2.734330
  H     10.241140   -8.224000   -8.716110
  H      6.529040   -6.365420  -10.563730
  H      7.668510   -2.830760   -5.875860
  H      5.548870   -3.120860   -7.903190
  H      6.875790   -1.971110   -8.118740
  H      5.741170   -1.762320   -6.762830
  H     11.163560   -4.026430   -4.857500
  H     11.009510   -5.624510   -5.626070
  H     10.702630   -5.444240   -3.885570
  H      7.329610   -4.516900   -4.334110
  H      9.853540   -3.475780   -2.950400
  H      5.973750   -3.244580   -3.775120
  H      3.992750   -2.118690   -1.739510
  H      5.029550   -4.270040   -5.600570
  H      1.557630   -3.932940   -7.633790
  H     -0.509520   -2.464790   -2.632760
  H     -2.677140   -0.312720   -2.457620
  H     -1.949540   -1.681270    3.274250

 Total Charge           Charge          ....    0
 Multiplicity           Mult            ....    1
 Number of Electrons    NEL             ....  438
 Basis Dimension        Dim             ....  908

ORBITAL ENERGIES
----------------

  NO   OCC          E(Eh)            E(eV)
   0   2.0000     -88.988407     -2421.4977
   1   2.0000     -88.974073     -2421.1076
   2   2.0000     -88.969565     -2420.9850
   3   2.0000     -88.958935     -2420.6957
   4   2.0000     -88.954428     -2420.5731
   5   2.0000     -24.818504      -675.3458
   6   2.0000     -24.815251      -675.2573
   7   2.0000     -24.807193      -675.0380
   8   2.0000     -24.801132      -674.8731
   9   2.0000     -19.297903      -525.1226
  10   2.0000     -19.252189      -523.8787
  11   2.0000     -19.251489      -523.8597
  12   2.0000     -19.245582      -523.6989
  13   2.0000     -19.244499      -523.6694
  14   2.0000     -14.475173      -393.8895
  15   2.0000     -14.453006      -393.2863
  16   2.0000     -14.435681      -392.8149
  17   2.0000     -14.435093      -392.7989
  18   2.0000     -14.407062      -392.0361
  19   2.0000     -14.398153      -391.7937
  20   2.0000     -10.440650      -284.1045
  21   2.0000     -10.438297      -284.0405
  22   2.0000     -10.414769      -283.4003
  23   2.0000     -10.412801      -283.3467
  24   2.0000     -10.396293      -282.8975
  25   2.0000     -10.391529      -282.7679
  26   2.0000     -10.378265      -282.4070
  27   2.0000     -10.373988      -282.2906
  28   2.0000     -10.356822      -281.8235
  29   2.0000     -10.353317      -281.7281
  30   2.0000     -10.346666      -281.5471
  31   2.0000     -10.336929      -281.2821
  32   2.0000     -10.336190      -281.2620
  33   2.0000     -10.335508      -281.2435
  34   2.0000     -10.334895      -281.2268
  35   2.0000     -10.330960      -281.1197
  36   2.0000     -10.320294      -280.8295
  37   2.0000     -10.317194      -280.7451
  38   2.0000     -10.315023      -280.6860
  39   2.0000     -10.310488      -280.5626
  40   2.0000     -10.305493      -280.4267
  41   2.0000     -10.305269      -280.4206
  42   2.0000     -10.303390      -280.3695
  43   2.0000     -10.296223      -280.1745
  44   2.0000     -10.294884      -280.1380
  45   2.0000     -10.293247      -280.0935
  46   2.0000     -10.293109      -280.0897
  47   2.0000     -10.292378      -280.0699
  48   2.0000     -10.292087      -280.0619
  49   2.0000     -10.290697      -280.0241
  50   2.0000     -10.289181      -279.9829
  51   2.0000     -10.287518      -279.9376
  52   2.0000     -10.283316      -279.8233
  53   2.0000     -10.281601      -279.7766
  54   2.0000     -10.280373      -279.7432
  55   2.0000     -10.277305      -279.6597
  56   2.0000     -10.274890      -279.5940
  57   2.0000      -8.085630      -220.0212
  58   2.0000      -8.071441      -219.6351
  59   2.0000      -8.063959      -219.4315
  60   2.0000      -8.058130      -219.2729
  61   2.0000      -8.049936      -219.0499
  62   2.0000      -6.054749      -164.7581
  63   2.0000      -6.051168      -164.6607
  64   2.0000      -6.047077      -164.5493
  65   2.0000      -6.040574      -164.3724
  66   2.0000      -6.037075      -164.2772
  67   2.0000      -6.033287      -164.1741
  68   2.0000      -6.032789      -164.1605
  69   2.0000      -6.028998      -164.0574
  70   2.0000      -6.026989      -164.0027
  71   2.0000      -6.026368      -163.9858
  72   2.0000      -6.023707      -163.9134
  73   2.0000      -6.019204      -163.7909
  74   2.0000      -6.018910      -163.7829
  75   2.0000      -6.014604      -163.6657
  76   2.0000      -6.012988      -163.6217
  77   2.0000      -1.335052       -36.3286
  78   2.0000      -1.330625       -36.2081
  79   2.0000      -1.321678       -35.9647
  80   2.0000      -1.315401       -35.7939
  81   2.0000      -1.247210       -33.9383
  82   2.0000      -1.176457       -32.0130
  83   2.0000      -1.172677       -31.9102
  84   2.0000      -1.172221       -31.8977
  85   2.0000      -1.139486       -31.0070
  86   2.0000      -1.134661       -30.8757
  87   2.0000      -1.098996       -29.9052
  88   2.0000      -1.053448       -28.6658
  89   2.0000      -1.025677       -27.9101
  90   2.0000      -1.023232       -27.8436
  91   2.0000      -1.012805       -27.5598
  92   2.0000      -0.994841       -27.0710
  93   2.0000      -0.984410       -26.7872
  94   2.0000      -0.971858       -26.4456
  95   2.0000      -0.959911       -26.1205
  96   2.0000      -0.955108       -25.9898
  97   2.0000      -0.934229       -25.4217
  98   2.0000      -0.922472       -25.1017
  99   2.0000      -0.902285       -24.5524
 100   2.0000      -0.897440       -24.4206
 101   2.0000      -0.887670       -24.1547
 102   2.0000      -0.886520       -24.1234
 103   2.0000      -0.869246       -23.6534
 104   2.0000      -0.852277       -23.1916
 105   2.0000      -0.841830       -22.9074
 106   2.0000      -0.834481       -22.7074
 107   2.0000      -0.825729       -22.4692
 108   2.0000      -0.819280       -22.2937
 109   2.0000      -0.806459       -21.9449
 110   2.0000      -0.806295       -21.9404
 111   2.0000      -0.788233       -21.4489
 112   2.0000      -0.782340       -21.2885
 113   2.0000      -0.780656       -21.2427
 114   2.0000      -0.774208       -21.0673
 115   2.0000      -0.767083       -20.8734
 116   2.0000      -0.739267       -20.1165
 117   2.0000      -0.727137       -19.7864
 118   2.0000      -0.720859       -19.6156
 119   2.0000      -0.710897       -19.3445
 120   2.0000      -0.700711       -19.0673
 121   2.0000      -0.699055       -19.0223
 122   2.0000      -0.697973       -18.9928
 123   2.0000      -0.694991       -18.9117
 124   2.0000      -0.689783       -18.7699
 125   2.0000      -0.683501       -18.5990
 126   2.0000      -0.680992       -18.5307
 127   2.0000      -0.670040       -18.2327
 128   2.0000      -0.663946       -18.0669
 129   2.0000      -0.652603       -17.7582
 130   2.0000      -0.644324       -17.5330
 131   2.0000      -0.642823       -17.4921
 132   2.0000      -0.635978       -17.3059
 133   2.0000      -0.634137       -17.2558
 134   2.0000      -0.626612       -17.0510
 135   2.0000      -0.620023       -16.8717
 136   2.0000      -0.611253       -16.6330
 137   2.0000      -0.610508       -16.6128
 138   2.0000      -0.607469       -16.5301
 139   2.0000      -0.601775       -16.3751
 140   2.0000      -0.596903       -16.2426
 141   2.0000      -0.596490       -16.2313
 142   2.0000      -0.592961       -16.1353
 143   2.0000      -0.586958       -15.9719
 144   2.0000      -0.584055       -15.8930
 145   2.0000      -0.578381       -15.7385
 146   2.0000      -0.577032       -15.7018
 147   2.0000      -0.575378       -15.6568
 148   2.0000      -0.571878       -15.5616
 149   2.0000      -0.563725       -15.3397
 150   2.0000      -0.563533       -15.3345
 151   2.0000      -0.558204       -15.1895
 152   2.0000      -0.556851       -15.1527
 153   2.0000      -0.555320       -15.1110
 154   2.0000      -0.554155       -15.0793
 155   2.0000      -0.547619       -14.9015
 156   2.0000      -0.546564       -14.8727
 157   2.0000      -0.545690       -14.8490
 158   2.0000      -0.543195       -14.7811
 159   2.0000      -0.540254       -14.7011
 160   2.0000      -0.536798       -14.6070
 161   2.0000      -0.532862       -14.4999
 162   2.0000      -0.532706       -14.4957
 163   2.0000      -0.524975       -14.2853
 164   2.0000      -0.519210       -14.1284
 165   2.0000      -0.518486       -14.1087
 166   2.0000      -0.513785       -13.9808
 167   2.0000      -0.512406       -13.9433
 168   2.0000      -0.510042       -13.8790
 169   2.0000      -0.505700       -13.7608
 170   2.0000      -0.504852       -13.7377
 171   2.0000      -0.502157       -13.6644
 172   2.0000      -0.499207       -13.5841
 173   2.0000      -0.494566       -13.4578
 174   2.0000      -0.492573       -13.4036
 175   2.0000      -0.488469       -13.2919
 176   2.0000      -0.483807       -13.1651
 177   2.0000      -0.477750       -13.0002
 178   2.0000      -0.475952       -12.9513
 179   2.0000      -0.474013       -12.8986
 180   2.0000      -0.469318       -12.7708
 181   2.0000      -0.466899       -12.7050
 182   2.0000      -0.465642       -12.6708
 183   2.0000      -0.463302       -12.6071
 184   2.0000      -0.455505       -12.3949
 185   2.0000      -0.449517       -12.2320
 186   2.0000      -0.448973       -12.2172
 187   2.0000      -0.447456       -12.1759
 188   2.0000      -0.442849       -12.0505
 189   2.0000      -0.442250       -12.0342
 190   2.0000      -0.437699       -11.9104
 191   2.0000      -0.427251       -11.6261
 192   2.0000      -0.423815       -11.5326
 193   2.0000      -0.419356       -11.4113
 194   2.0000      -0.418833       -11.3970
 195   2.0000      -0.412949       -11.2369
 196   2.0000      -0.407955       -11.1010
 197   2.0000      -0.402277       -10.9465
 198   2.0000      -0.400706       -10.9038
 199   2.0000      -0.382281       -10.4024
 200   2.0000      -0.378888       -10.3101
 201   2.0000      -0.376006       -10.2316
 202   2.0000      -0.373242       -10.1564
 203   2.0000      -0.372173       -10.1274
 204   2.0000      -0.366557        -9.9745
 205   2.0000      -0.363034        -9.8787
 206   2.0000      -0.356903        -9.7118
 207   2.0000      -0.355412        -9.6713
 208   2.0000      -0.353680        -9.6241
 209   2.0000      -0.347409        -9.4535
 210   2.0000      -0.332861        -9.0576
 211   2.0000      -0.317884        -8.6501
 212   2.0000      -0.316641        -8.6162
 213   2.0000      -0.307292        -8.3618
 214   2.0000      -0.293537        -7.9876
 215   2.0000      -0.290670        -7.9095
 216   2.0000      -0.267040        -7.2665
 217   2.0000      -0.249088        -6.7780
 218   2.0000      -0.238260        -6.4834
 219   0.0000      -0.102307        -2.7839
 220   0.0000      -0.072406        -1.9703
 221   0.0000      -0.050266        -1.3678
 222   0.0000      -0.032645        -0.8883
 223   0.0000      -0.031765        -0.8644

MULLIKEN ATOMIC CHARGES
-----------------------
   0 C :   -0.167171
   1 S :    0.132402
   2 C :   -0.170167
   3 C :    0.068911
   4 C :    0.054949
   5 N :   -0.016777
   6 C :    0.038346
   7 C :   -0.090050
   8 N :   -0.197499
   9 C :    0.106011
  10 N :   -0.022441
  11 N :   -0.237310
  12 C :    0.131297
  13 C :    0.063995
  14 C :   -0.054696
  15 C :    0.059786
  16 C :    0.054913
  17 F :   -0.169989
  18 S :    0.109278
  19 C :    0.027173
  20 F :   -0.167842
  21 C :    0.114729
  22 C :   -0.045574
  23 C :    0.088378
  24 C :   -0.213967
  25 S :    0.134770
  26 C :   -0.174978
  27 C :    0.032965
  28 C :    0.161649
  29 N :   -0.060511
  30 N :   -0.045482
  31 C :   -0.008676
  32 C :    0.128092
  33 C :    0.032709
  34 F :   -0.152670
  35 S :    0.118929
  36 C :    0.061070
  37 F :   -0.150287
  38 C :    0.048396
  39 C :    0.029506
  40 C :   -0.048913
  41 C :    0.058971
  42 C :    0.044583
  43 C :    0.035946
  44 O :   -0.123865
  45 S :    0.018315
  46 C :    0.052188
  47 O :   -0.116816
  48 C :    0.044048
  49 C :   -0.067132
  50 C :   -0.019676
  51 C :   -0.084518
  52 C :    0.237633
  53 O :   -0.098828
  54 O :   -0.227888
  55 C :    0.234088
  56 O :   -0.093449
  57 H :    0.007888
  58 H :    0.011431
  59 H :    0.145734
  60 H :    0.058464
  61 H :    0.019355
  62 H :    0.020126
  63 H :    0.025238
  64 H :    0.056458
  65 H :    0.029086
  66 H :    0.012547
  67 H :   -0.004568
  68 H :   -0.081900
  69 H :   -0.019204
  70 H :    0.149386
  71 H :   -0.002012
  72 H :    0.023265
  73 H :    0.026359
  74 H :    0.025491
Sum of atomic charges:   -0.0000000

LOEWDIN ATOMIC CHARGES
----------------------
   0 C :   -0.211460
   1 S :    0.474473
   2 C :   -0.212212
   3 C :   -0.057885
   4 C :   -0.064768
   5 N :   -0.076868
   6 C :    0.022699
   7 C :    0.011527
   8 N :   -0.041537
   9 C :    0.016080
  10 N :   -0.089430
  11 N :   -0.019992
  12 C :    0.034157
  13 C :    0.016428
  14 C :   -0.088520
  15 C :   -0.083311
  16 C :   -0.094487
  17 F :   -0.058991
  18 S :    0.420172
  19 C :   -0.086387
  20 F :   -0.052951
  21 C :   -0.086115
  22 C :   -0.050773
  23 C :   -0.031660
  24 C :   -0.215125
  25 S :    0.476483
  26 C :   -0.174393
  27 C :   -0.087148
  28 C :   -0.017527
  29 N :    0.090898
  30 N :   -0.041430
  31 C :   -0.037849
  32 C :   -0.096135
  33 C :   -0.084360
  34 F :   -0.041000
  35 S :    0.437018
  36 C :   -0.068294
  37 F :   -0.037929
  38 C :   -0.092789
  39 C :    0.017823
  40 C :   -0.040457
  41 C :    0.042472
  42 C :   -0.058735
  43 C :   -0.040629
  44 O :   -0.106923
  45 S :    0.305764
  46 C :   -0.047697
  47 O :   -0.107865
  48 C :   -0.047081
  49 C :    0.037302
  50 C :   -0.039511
  51 C :   -0.052374
  52 C :    0.108418
  53 O :   -0.093527
  54 O :   -0.055528
  55 C :    0.102849
  56 O :   -0.092453
  57 H :    0.023449
  58 H :    0.024978
  59 H :    0.075905
  60 H :    0.031975
  61 H :    0.017736
  62 H :    0.021604
  63 H :    0.021390
  64 H :    0.034371
  65 H :    0.026992
  66 H :    0.019671
  67 H :    0.030881
  68 H :    0.015919
  69 H :    0.024158
  70 H :    0.073581
  71 H :    0.020594
  72 H :    0.019142
  73 H :    0.033452
  74 H :    0.053743

  Mayer bond orders larger than 0.100000
B(  0-C ,  1-S ) :   1.2002 B(  0-C ,  2-C ) :   0.1076 B(  0-C ,  4-C ) :   1.4237
B(  0-C , 57-H ) :   0.9771 B(  1-S ,  2-C ) :   1.1896 B(  2-C ,  3-C ) :   1.4341
B(  2-C , 58-H ) :   0.9755 B(  3-C ,  4-C ) :   1.1965 B(  3-C , 10-N ) :   1.3115
B(  4-C ,  5-N ) :   1.3051 B(  5-N ,  6-C ) :   1.7430 B(  6-C ,  7-C ) :   1.0452
B(  6-C , 11-N ) :   1.0912 B(  7-C ,  8-N ) :   1.2230 B(  7-C , 10-N ) :   1.7245
B(  8-N ,  9-C ) :   0.9901 B(  8-N , 59-H ) :   0.8943 B(  9-C , 60-H ) :   0.9568
B(  9-C , 61-H ) :   0.9709 B(  9-C , 62-H ) :   0.9729 B( 11-N , 12-C ) :   0.9692
B( 11-N , 13-C ) :   1.0967 B( 12-C , 63-H ) :   0.9673 B( 12-C , 64-H ) :   0.9478
B( 12-C , 65-H ) :   0.9678 B( 13-C , 14-C ) :   1.6942 B( 13-C , 66-H ) :   0.9696
B( 14-C , 15-C ) :   1.0928 B( 14-C , 67-H ) :   0.9538 B( 15-C , 16-C ) :   1.4901
B( 15-C , 21-C ) :   1.1338 B( 16-C , 17-F ) :   1.1070 B( 16-C , 18-S ) :   1.1065
B( 18-S , 19-C ) :   1.1186 B( 19-C , 20-F ) :   1.0832 B( 19-C , 21-C ) :   1.4436
B( 21-C , 22-C ) :   1.1144 B( 22-C , 23-C ) :   1.7001 B( 22-C , 68-H ) :   0.9572
B( 23-C , 24-C ) :   1.1312 B( 23-C , 69-H ) :   0.9415 B( 24-C , 25-S ) :   1.1000
B( 24-C , 26-C ) :   0.1297 B( 24-C , 28-C ) :   1.3823 B( 25-S , 26-C ) :   1.1608
B( 26-C , 27-C ) :   1.3952 B( 26-C , 32-C ) :   1.0506 B( 27-C , 28-C ) :   1.2346
B( 27-C , 31-C ) :   1.1366 B( 28-C , 29-N ) :   1.1532 B( 29-N , 30-N ) :   1.1358
B( 29-N , 70-H ) :   0.9341 B( 30-N , 31-C ) :   1.7373 B( 31-C , 71-H ) :   0.9983
B( 32-C , 33-C ) :   1.4670 B( 32-C , 38-C ) :   1.1559 B( 33-C , 34-F ) :   1.1263
B( 33-C , 35-S ) :   1.1090 B( 35-S , 36-C ) :   1.1315 B( 36-C , 37-F ) :   1.1206
B( 36-C , 38-C ) :   1.4575 B( 38-C , 39-C ) :   1.1012 B( 39-C , 40-C ) :   1.7405
B( 39-C , 72-H ) :   0.9270 B( 40-C , 41-C ) :   1.1080 B( 40-C , 73-H ) :   0.9456
B( 41-C , 42-C ) :   1.3612 B( 41-C , 51-C ) :   1.3254 B( 42-C , 43-C ) :   0.8609
B( 42-C , 48-C ) :   1.3360 B( 43-C , 44-O ) :   2.1632 B( 43-C , 45-S ) :   1.0273
B( 44-O , 45-S ) :   0.1049 B( 45-S , 46-C ) :   1.0293 B( 45-S , 47-O ) :   0.1099
B( 46-C , 47-O ) :   2.2229 B( 46-C , 48-C ) :   0.8393 B( 48-C , 49-C ) :   1.3498
B( 49-C , 50-C ) :   1.3218 B( 49-C , 74-H ) :   1.0275 B( 50-C , 51-C ) :   1.3705
B( 50-C , 55-C ) :   0.8870 B( 51-C , 52-C ) :   0.9112 B( 52-C , 53-O ) :   2.2414
B( 52-C , 54-O ) :   1.0576 B( 54-O , 55-C ) :   1.0453 B( 55-C , 56-O ) :   2.3083

-----------------------------------------------------------------------------
         ABSORPTION SPECTRUM VIA TRANSITION ELECTRIC DIPOLE MOMENTS
-----------------------------------------------------------------------------
State   Energy  Wavelength   fosc         T2         TX        TY        TZ
        (cm-1)    (nm)                  (au**2)     (au)      (au)      (au)
-----------------------------------------------------------------------------
   0   16528.3    605.0   0.000255773   0.00509   0.03950  -0.05853  -0.01044
   1   21075.8    474.5   0.031803591   0.49678  -0.65711   0.16890   0.19096
   2   22763.8    439.3   0.038207446   0.55256  -0.16746   0.71336   0.12503
   3   23350.9    428.2   0.000027354   0.00039   0.01482  -0.01274  -0.00189
   4   24519.9    407.8   0.852904128  11.45138   3.15496  -0.67057   1.02369
   5   27966.6    357.6   0.101089121   1.18998   0.03358  -0.56683  -0.93143
   6   28210.0    354.5   0.000021405   0.00025   0.00139  -0.00367  -0.01531
   7   28422.5    351.8   0.013414943   0.15538  -0.08600   0.26777  -0.27620
   8   28846.3    346.7   0.411942650   4.70135  -0.21036  -1.21901  -1.78076
   9   29587.0    338.0   0.136796592   1.52213  -0.13728  -0.07998  -1.22347
  10   29613.4    337.7   0.677090961   7.52723  -0.39108  -0.31856  -2.69681
  11   30373.3    329.2   0.004338514   0.04702  -0.01702   0.20488   0.06897
  12   30550.1    327.3   0.006180935   0.06661  -0.01912   0.19775   0.16473
  13   31370.1    318.8   0.031362157   0.32913   0.40132  -0.02285   0.40933
  14   32356.4    309.1   0.003067821   0.03121   0.09708  -0.04667  -0.14004
  15   32476.2    307.9   0.003227092   0.03271  -0.02374   0.06454   0.16728
  16   33026.0    302.8   0.009798951   0.09768  -0.00106  -0.05805  -0.30710
  17   33142.2    301.7   0.002463238   0.02447   0.01004  -0.00184   0.15609
  18   33228.2    300.9   0.000648143   0.00642  -0.02039  -0.05605   0.05352
  19   33491.5    298.6   0.004430878   0.04355   0.05634  -0.19606  -0.04403
  20   34148.3    292.8   0.057823539   0.55746  -0.17025  -0.41519  -0.59673
  21   34211.1    292.3   0.055602534   0.53506   0.16562   0.43901   0.56116
  22   34228.8    292.2   0.008812425   0.08476  -0.01823  -0.18457   0.22441
  23   34576.5    289.2   0.008653068   0.08239  -0.16205  -0.09234  -0.21818
  24   35466.5    282.0   0.021824187   0.20258   0.28213   0.16435   0.30979
  25   35754.7    279.7   0.063455131   0.58426   0.26989  -0.09118  -0.70930
  26   35839.2    279.0   0.026974276   0.24778   0.07612  -0.46665  -0.15563
  27   36238.6    275.9   0.003119059   0.02834  -0.14429  -0.04251  -0.07555
  28   36828.5    271.5   0.024748781   0.22123   0.02114  -0.14101  -0.44822
  29   37657.1    265.6   0.051967405   0.45432  -0.33479   0.28181   0.51266
  30   38076.2    262.6   0.030828701   0.26655  -0.31706   0.23300   0.33426
  31   38418.8    260.3   0.008855297   0.07588   0.15748  -0.15885   0.16077
  32   38883.6    257.2   0.002027865   0.01717   0.05334  -0.02725  -0.11654
  33   39034.6    256.2   0.087340992   0.73662  -0.26640   0.70396   0.41242
  34   39202.7    255.1   0.000014340   0.00012   0.00333   0.00415  -0.00960
  35   39220.7    255.0   0.011987957   0.10062  -0.16043   0.03910   0.27085
  36   39368.5    254.0   0.011465383   0.09588   0.10687  -0.15089  -0.24837
  37   39535.2    252.9   0.024288405   0.20225   0.12537  -0.07283  -0.42571
  38   40173.4    248.9   0.037822874   0.30995   0.52123  -0.07768  -0.17954
  39   40217.9    248.6   0.014393333   0.11782   0.25793  -0.14407  -0.17474

FINAL SINGLE POINT ENERGY     -4512.035096680543

DIPOLE MOMENT
-------------
                                X             Y             Z
Electronic contribution:    -48.26048      17.92285      27.37625
Nuclear contribution   :     48.86876     -16.95421     -27.93984
                        -----------------------------------------
Total Dipole Moment    :      0.60828       0.96864      -0.56359
                        -----------------------------------------
Magnitude (a.u.)       :      1.27511
Magnitude (Debye)      :      3.24107

Rotational constants in cm-1:     0.001763     0.000619     0.000506
Rotational constants in MHz :    52.839498    18.564548    15.179871

                             ****ORCA TERMINATED NORMALLY****
TOTAL RUN TIME: 0 days 0 hours 6 minutes 2 seconds 932 msec
