                         Program Version 4.2.0 -  RELEASE  -
|  1> # ORCA input file
|  2> # SCF done       -165.179353029804          0.000366517710
|  3> ! CAM-B3LYP def2-SVP def2/J RIJCOSX Grid4 TightSCF
|  4> %maxcore 5000
|  5> %tddft
|  6>     Mode sTDDFT
|  7>     Ethresh 5.0
|  8>     maxcore 5000
|  9> end
| 10>
| 11> %pal
| 12>   nprocs 6
| 13>   end
| 14> * xyz 0 1
| 15>    C        3.15924        -3.21784         7.65051
| 16>    S        2.80815        -4.40771         8.83239
| 17>    C        3.55113        -5.65724         7.92404
| 18>    C        4.05151        -5.17799         6.74334
| 19>    C        3.83843        -3.75975         6.59127
| 20>    N        4.35266        -3.09146         5.52978
| 21>    C        4.99614        -3.79227         4.63170
| 22>    C        5.01754        -5.25192         4.68166
| 23>    N        5.49758        -6.03298         3.65651
| 24>    C        5.10107        -5.84554         2.27818
| 25>    N        4.60394        -5.90181         5.73597
| 26>    N        5.59257        -3.08246         3.61378
| 27>    C        5.18736        -1.69922         3.46433
| 28>    C        6.83634        -3.42241         3.09154
| 29>    C        7.72515        -4.22286         3.69775
| 30>    C        9.00468        -4.67735         3.23202
| 31>    N        9.45022        -4.77979         1.93929
| 32>    C        8.73732        -4.44328         0.73524
| 33>    C        9.08794        -3.03576         0.25161
| 34>    C       10.73649        -5.25180         1.94583
| 35>    C       11.11490        -5.45884         3.25706
| 36>    C       10.02663        -5.11557         4.06103
| 37>    C       11.49344        -5.48994         0.72821
| 38>    N       12.64445        -4.81649         0.43531
| 39>    C       13.29068        -3.86405         1.30245
| 40>    C       14.53918        -4.45856         1.95018
| 41>    C       13.14012        -5.27695        -0.75430
| 42>    C       12.27487        -6.24505        -1.23231
| 43>    C       11.23994        -6.37558        -0.30139
| 44>    C       14.34089        -4.75777        -1.38088
| 45>    C       15.28560        -5.54508        -1.95884
| 46>    O       16.37868        -5.02657        -2.64436
| 47>    C       16.46496        -3.66998        -2.64663
| 48>    C       15.49230        -2.84425        -2.00885
| 49>    C       15.76769        -1.52187        -2.11860
| 50>    S       17.22249        -1.25702        -3.00805
| 51>    C       17.45753        -2.95317        -3.22766
| 52>    O       14.40800        -3.36625        -1.37200
| 53>    C       15.26904        -6.97572        -1.86870
| 54>    C       16.14983        -7.77940        -2.49763
| 55>    C       16.17750        -9.21949        -2.42945
| 56>    C       15.19671        -9.95905        -1.81099
| 57>    C       15.26804       -11.36709        -1.78585
| 58>    C       14.40784       -12.31411        -1.24504
| 59>    C       13.05392       -11.94913        -0.70590
| 60>    C       12.17307       -11.36542        -1.83796
| 61>    N       12.14816       -12.23302        -3.00107
| 62>    C       12.29191       -13.03867         0.06082
| 63>    N       11.69363       -14.03715        -0.81323
| 64>    C       15.06443       -13.59442        -1.39641
| 65>    C       14.83014       -14.82286        -0.89393
| 66>    C       15.72099       -15.99137        -1.16380
| 67>    C       16.89362       -15.69700        -2.03577
| 68>    C       17.16172       -14.45784        -2.48128
| 69>    C       16.31069       -13.37462        -2.15882
| 70>    C       16.43021       -12.02018        -2.36826
| 71>    C       17.42486       -11.23945        -3.00586
| 72>    C       17.28647        -9.89294        -3.04803
| 73>    C       16.11290       -16.57828         0.17827
| 74>    C       17.30500       -16.45512         0.72780
| 75>    H        2.87251        -2.19844         7.80676
| 76>    H        3.56528        -6.66094         8.29565
| 77>    H        5.47313        -7.00752         3.93786
| 78>    H        5.01049        -4.78754         2.05065
| 79>    H        4.13917        -6.32544         2.06340
| 80>    H        5.86141        -6.28696         1.63272
| 81>    H        4.11103        -1.62920         3.60708
| 82>    H        5.45387        -1.35679         2.46472
| 83>    H        5.67133        -1.05898         4.20615
| 84>    H        7.03693        -2.92816         2.15255
| 85>    H        7.49632        -4.56699         4.69799
| 86>    H        7.66728        -4.53588         0.92930
| 87>    H        9.01162        -5.16173        -0.04109
| 88>    H        8.92819        -2.30449         1.04100
| 89>    H        8.47618        -2.77059        -0.60674
| 90>    H       10.13372        -2.99541        -0.04359
| 91>    H       12.06089        -5.84097         3.58714
| 92>    H        9.98175        -5.16287         5.13121
| 93>    H       12.57117        -3.57906         2.07439
| 94>    H       13.55960        -2.97688         0.72347
| 95>    H       14.99050        -3.73253         2.62087
| 96>    H       15.26913        -4.73486         1.19268
| 97>    H       14.28306        -5.34963         2.51807
| 98>    H       12.37145        -6.76981        -2.16201
| 99>    H       10.41504        -7.05920        -0.35930
|100>    H       15.20564        -0.69554        -1.73685
|101>    H       18.30481        -3.31778        -3.76908
|102>    H       14.50102        -7.37938        -1.22984
|103>    H       16.90968        -7.31853        -3.11483
|104>    H       14.36989        -9.46337        -1.32676
|105>    H       13.20635       -11.13261         0.01452
|106>    H       12.59350       -10.41000        -2.15872
|107>    H       11.17105       -11.17211        -1.41593
|108>    H       11.66472       -13.09150        -2.75839
|109>    H       11.63469       -11.78414        -3.75207
|110>    H       11.46354       -12.55812         0.59356
|111>    H       12.96505       -13.46272         0.82607
|112>    H       12.41172       -14.50254        -1.35771
|113>    H       11.20413       -14.73464        -0.26236
|114>    H       14.02012       -15.03696        -0.21262
|115>    H       15.10520       -16.75550        -1.66763
|116>    H       17.52835       -16.53650        -2.27672
|117>    H       18.03304       -14.26731        -3.09174
|118>    H       18.27988       -11.72657        -3.45237
|119>    H       18.03367        -9.28370        -3.53707
|120>    H       15.31772       -17.09647         0.69929
|121>    H       18.10678       -15.93217         0.23462
|122>    H       17.52533       -16.87515         1.69467
|123> *
|124>
|125>                          ****END OF INPUT****

CARTESIAN COORDINATES (ANGSTROEM)
---------------------------------
  C      3.159240   -3.217840    7.650510
  S      2.808150   -4.407710    8.832390
  C      3.551130   -5.657240    7.924040
  C      4.051510   -5.177990    6.743340
  C      3.838430   -3.759750    6.591270
  N      4.352660   -3.091460    5.529780
  C      4.996140   -3.792270    4.631700
  C      5.017540   -5.251920    4.681660
  N      5.497580   -6.032980    3.656510
  C      5.101070   -5.845540    2.278180
  N      4.603940   -5.901810    5.735970
  N      5.592570   -3.082460    3.613780
  C      5.187360   -1.699220    3.464330
  C      6.836340   -3.422410    3.091540
  C      7.725150   -4.222860    3.697750
  C      9.004680   -4.677350    3.232020
  N      9.450220   -4.779790    1.939290
  C      8.737320   -4.443280    0.735240
  C      9.087940   -3.035760    0.251610
  C     10.736490   -5.251800    1.945830
  C     11.114900   -5.458840    3.257060
  C     10.026630   -5.115570    4.061030
  C     11.493440   -5.489940    0.728210
  N     12.644450   -4.816490    0.435310
  C     13.290680   -3.864050    1.302450
  C     14.539180   -4.458560    1.950180
  C     13.140120   -5.276950   -0.754300
  C     12.274870   -6.245050   -1.232310
  C     11.239940   -6.375580   -0.301390
  C     14.340890   -4.757770   -1.380880
  C     15.285600   -5.545080   -1.958840
  O     16.378680   -5.026570   -2.644360
  C     16.464960   -3.669980   -2.646630
  C     15.492300   -2.844250   -2.008850
  C     15.767690   -1.521870   -2.118600
  S     17.222490   -1.257020   -3.008050
  C     17.457530   -2.953170   -3.227660
  O     14.408000   -3.366250   -1.372000
  C     15.269040   -6.975720   -1.868700
  C     16.149830   -7.779400   -2.497630
  C     16.177500   -9.219490   -2.429450
  C     15.196710   -9.959050   -1.810990
  C     15.268040  -11.367090   -1.785850
  C     14.407840  -12.314110   -1.245040
  C     13.053920  -11.949130   -0.705900
  C     12.173070  -11.365420   -1.837960
  N     12.148160  -12.233020   -3.001070
  C     12.291910  -13.038670    0.060820
  N     11.693630  -14.037150   -0.813230
  C     15.064430  -13.594420   -1.396410
  C     14.830140  -14.822860   -0.893930
  C     15.720990  -15.991370   -1.163800
  C     16.893620  -15.697000   -2.035770
  C     17.161720  -14.457840   -2.481280
  C     16.310690  -13.374620   -2.158820
  C     16.430210  -12.020180   -2.368260
  C     17.424860  -11.239450   -3.005860
  C     17.286470   -9.892940   -3.048030
  C     16.112900  -16.578280    0.178270
  C     17.305000  -16.455120    0.727800
  H      2.872510   -2.198440    7.806760
  H      3.565280   -6.660940    8.295650
  H      5.473130   -7.007520    3.937860
  H      5.010490   -4.787540    2.050650
  H      4.139170   -6.325440    2.063400
  H      5.861410   -6.286960    1.632720
  H      4.111030   -1.629200    3.607080
  H      5.453870   -1.356790    2.464720
  H      5.671330   -1.058980    4.206150
  H      7.036930   -2.928160    2.152550
  H      7.496320   -4.566990    4.697990
  H      7.667280   -4.535880    0.929300
  H      9.011620   -5.161730   -0.041090
  H      8.928190   -2.304490    1.041000
  H      8.476180   -2.770590   -0.606740
  H     10.133720   -2.995410   -0.043590
  H     12.060890   -5.840970    3.587140
  H      9.981750   -5.162870    5.131210
  H     12.571170   -3.579060    2.074390
  H     13.559600   -2.976880    0.723470
  H     14.990500   -3.732530    2.620870
  H     15.269130   -4.734860    1.192680
  H     14.283060   -5.349630    2.518070
  H     12.371450   -6.769810   -2.162010
  H     10.415040   -7.059200   -0.359300
  H     15.205640   -0.695540   -1.736850
  H     18.304810   -3.317780   -3.769080
  H     14.501020   -7.379380   -1.229840
  H     16.909680   -7.318530   -3.114830
  H     14.369890   -9.463370   -1.326760
  H     13.206350  -11.132610    0.014520
  H     12.593500  -10.410000   -2.158720
  H     11.171050  -11.172110   -1.415930
  H     11.664720  -13.091500   -2.758390
  H     11.634690  -11.784140   -3.752070
  H     11.463540  -12.558120    0.593560
  H     12.965050  -13.462720    0.826070
  H     12.411720  -14.502540   -1.357710
  H     11.204130  -14.734640   -0.262360
  H     14.020120  -15.036960   -0.212620
  H     15.105200  -16.755500   -1.667630
  H     17.528350  -16.536500   -2.276720
  H     18.033040  -14.267310   -3.091740
  H     18.279880  -11.726570   -3.452370
  H     18.033670   -9.283700   -3.537070
  H     15.317720  -17.096470    0.699290
  H     18.106780  -15.932170    0.234620
  H     17.525330  -16.875150    1.694670

 Total Charge           Charge          ....    0
 Multiplicity           Mult            ....    1
 Number of Electrons    NEL             ....  440
 Basis Dimension        Dim             .... 1088

ORBITAL ENERGIES
----------------

  NO   OCC          E(Eh)            E(eV)
   0   2.0000     -88.949349     -2420.4348
   1   2.0000     -88.947674     -2420.3893
   2   2.0000     -19.266157      -524.2588
   3   2.0000     -19.260530      -524.1057
   4   2.0000     -14.451456      -393.2441
   5   2.0000     -14.447368      -393.1329
   6   2.0000     -14.437389      -392.8613
   7   2.0000     -14.410843      -392.1390
   8   2.0000     -14.395040      -391.7090
   9   2.0000     -14.391331      -391.6080
  10   2.0000     -14.383286      -391.3891
  11   2.0000     -14.349085      -390.4585
  12   2.0000     -10.342911      -281.4449
  13   2.0000     -10.341378      -281.4032
  14   2.0000     -10.333248      -281.1820
  15   2.0000     -10.331994      -281.1479
  16   2.0000     -10.331306      -281.1291
  17   2.0000     -10.328959      -281.0653
  18   2.0000     -10.302194      -280.3369
  19   2.0000     -10.294632      -280.1312
  20   2.0000     -10.294544      -280.1288
  21   2.0000     -10.293225      -280.0929
  22   2.0000     -10.290661      -280.0231
  23   2.0000     -10.288612      -279.9674
  24   2.0000     -10.287521      -279.9377
  25   2.0000     -10.287058      -279.9251
  26   2.0000     -10.286271      -279.9037
  27   2.0000     -10.285263      -279.8762
  28   2.0000     -10.284785      -279.8632
  29   2.0000     -10.284505      -279.8556
  30   2.0000     -10.282390      -279.7980
  31   2.0000     -10.282000      -279.7874
  32   2.0000     -10.281020      -279.7608
  33   2.0000     -10.279985      -279.7326
  34   2.0000     -10.273132      -279.5461
  35   2.0000     -10.272830      -279.5379
  36   2.0000     -10.271472      -279.5010
  37   2.0000     -10.263839      -279.2933
  38   2.0000     -10.263426      -279.2820
  39   2.0000     -10.262106      -279.2461
  40   2.0000     -10.260938      -279.2143
  41   2.0000     -10.260128      -279.1923
  42   2.0000     -10.260035      -279.1897
  43   2.0000     -10.258515      -279.1484
  44   2.0000     -10.256700      -279.0990
  45   2.0000     -10.256481      -279.0930
  46   2.0000     -10.256380      -279.0903
  47   2.0000     -10.254768      -279.0464
  48   2.0000     -10.254133      -279.0291
  49   2.0000     -10.253770      -279.0193
  50   2.0000     -10.251404      -278.9549
  51   2.0000     -10.249600      -278.9058
  52   2.0000     -10.246485      -278.8210
  53   2.0000     -10.246374      -278.8180
  54   2.0000     -10.245210      -278.7864
  55   2.0000     -10.244679      -278.7719
  56   2.0000     -10.244199      -278.7588
  57   2.0000     -10.242952      -278.7249
  58   2.0000     -10.239437      -278.6293
  59   2.0000     -10.235852      -278.5317
  60   2.0000      -8.045095      -218.9182
  61   2.0000      -8.043167      -218.8657
  62   2.0000      -6.014621      -163.6662
  63   2.0000      -6.012130      -163.5984
  64   2.0000      -6.010480      -163.5535
  65   2.0000      -6.007909      -163.4835
  66   2.0000      -6.006733      -163.4515
  67   2.0000      -6.006172      -163.4363
  68   2.0000      -1.187718       -32.3194
  69   2.0000      -1.150930       -31.3184
  70   2.0000      -1.085047       -29.5256
  71   2.0000      -1.079926       -29.3863
  72   2.0000      -1.066722       -29.0270
  73   2.0000      -1.039451       -28.2849
  74   2.0000      -1.010376       -27.4937
  75   2.0000      -0.976160       -26.5627
  76   2.0000      -0.973125       -26.4801
  77   2.0000      -0.959644       -26.1133
  78   2.0000      -0.959447       -26.1079
  79   2.0000      -0.946431       -25.7537
  80   2.0000      -0.932100       -25.3637
  81   2.0000      -0.927349       -25.2345
  82   2.0000      -0.908222       -24.7140
  83   2.0000      -0.899255       -24.4700
  84   2.0000      -0.895709       -24.3735
  85   2.0000      -0.890682       -24.2367
  86   2.0000      -0.872565       -23.7437
  87   2.0000      -0.859954       -23.4005
  88   2.0000      -0.856429       -23.3046
  89   2.0000      -0.837487       -22.7892
  90   2.0000      -0.829454       -22.5706
  91   2.0000      -0.827600       -22.5202
  92   2.0000      -0.822621       -22.3847
  93   2.0000      -0.818439       -22.2709
  94   2.0000      -0.811192       -22.0737
  95   2.0000      -0.810361       -22.0510
  96   2.0000      -0.807022       -21.9602
  97   2.0000      -0.803862       -21.8742
  98   2.0000      -0.801241       -21.8029
  99   2.0000      -0.786102       -21.3909
 100   2.0000      -0.773428       -21.0460
 101   2.0000      -0.761607       -20.7244
 102   2.0000      -0.758193       -20.6315
 103   2.0000      -0.744691       -20.2641
 104   2.0000      -0.734593       -19.9893
 105   2.0000      -0.720288       -19.6000
 106   2.0000      -0.717364       -19.5205
 107   2.0000      -0.714735       -19.4489
 108   2.0000      -0.712901       -19.3990
 109   2.0000      -0.706880       -19.2352
 110   2.0000      -0.700402       -19.0589
 111   2.0000      -0.680324       -18.5126
 112   2.0000      -0.676361       -18.4047
 113   2.0000      -0.675039       -18.3687
 114   2.0000      -0.662950       -18.0398
 115   2.0000      -0.657088       -17.8803
 116   2.0000      -0.652419       -17.7532
 117   2.0000      -0.649567       -17.6756
 118   2.0000      -0.645577       -17.5671
 119   2.0000      -0.636222       -17.3125
 120   2.0000      -0.632792       -17.2191
 121   2.0000      -0.628733       -17.1087
 122   2.0000      -0.624439       -16.9919
 123   2.0000      -0.623444       -16.9648
 124   2.0000      -0.609249       -16.5785
 125   2.0000      -0.604308       -16.4441
 126   2.0000      -0.603349       -16.4180
 127   2.0000      -0.590562       -16.0700
 128   2.0000      -0.588576       -16.0160
 129   2.0000      -0.579142       -15.7593
 130   2.0000      -0.577022       -15.7016
 131   2.0000      -0.575002       -15.6466
 132   2.0000      -0.571158       -15.5420
 133   2.0000      -0.559529       -15.2256
 134   2.0000      -0.558444       -15.1960
 135   2.0000      -0.557566       -15.1721
 136   2.0000      -0.554020       -15.0757
 137   2.0000      -0.548035       -14.9128
 138   2.0000      -0.544035       -14.8039
 139   2.0000      -0.538536       -14.6543
 140   2.0000      -0.536966       -14.6116
 141   2.0000      -0.535576       -14.5738
 142   2.0000      -0.534428       -14.5425
 143   2.0000      -0.529161       -14.3992
 144   2.0000      -0.527835       -14.3631
 145   2.0000      -0.525681       -14.3045
 146   2.0000      -0.522368       -14.2144
 147   2.0000      -0.518266       -14.1027
 148   2.0000      -0.515201       -14.0193
 149   2.0000      -0.511859       -13.9284
 150   2.0000      -0.506722       -13.7886
 151   2.0000      -0.504091       -13.7170
 152   2.0000      -0.503533       -13.7018
 153   2.0000      -0.501837       -13.6557
 154   2.0000      -0.499113       -13.5816
 155   2.0000      -0.498357       -13.5610
 156   2.0000      -0.496561       -13.5121
 157   2.0000      -0.493846       -13.4382
 158   2.0000      -0.492938       -13.4135
 159   2.0000      -0.490857       -13.3569
 160   2.0000      -0.489080       -13.3086
 161   2.0000      -0.482864       -13.1394
 162   2.0000      -0.482485       -13.1291
 163   2.0000      -0.477165       -12.9843
 164   2.0000      -0.472819       -12.8661
 165   2.0000      -0.471889       -12.8407
 166   2.0000      -0.467739       -12.7278
 167   2.0000      -0.465280       -12.6609
 168   2.0000      -0.462807       -12.5936
 169   2.0000      -0.462207       -12.5773
 170   2.0000      -0.462167       -12.5762
 171   2.0000      -0.460299       -12.5254
 172   2.0000      -0.456675       -12.4267
 173   2.0000      -0.453993       -12.3538
 174   2.0000      -0.453508       -12.3406
 175   2.0000      -0.451053       -12.2738
 176   2.0000      -0.448473       -12.2036
 177   2.0000      -0.446606       -12.1528
 178   2.0000      -0.445905       -12.1337
 179   2.0000      -0.440941       -11.9986
 180   2.0000      -0.435570       -11.8525
 181   2.0000      -0.432082       -11.7575
 182   2.0000      -0.431274       -11.7356
 183   2.0000      -0.428400       -11.6574
 184   2.0000      -0.426302       -11.6003
 185   2.0000      -0.424744       -11.5579
 186   2.0000      -0.421552       -11.4710
 187   2.0000      -0.420773       -11.4498
 188   2.0000      -0.419390       -11.4122
 189   2.0000      -0.416179       -11.3248
 190   2.0000      -0.413291       -11.2462
 191   2.0000      -0.410832       -11.1793
 192   2.0000      -0.410189       -11.1618
 193   2.0000      -0.405756       -11.0412
 194   2.0000      -0.402243       -10.9456
 195   2.0000      -0.394573       -10.7369
 196   2.0000      -0.381718       -10.3871
 197   2.0000      -0.378780       -10.3071
 198   2.0000      -0.371929       -10.1207
 199   2.0000      -0.366895        -9.9837
 200   2.0000      -0.365481        -9.9452
 201   2.0000      -0.353569        -9.6211
 202   2.0000      -0.346229        -9.4214
 203   2.0000      -0.332893        -9.0585
 204   2.0000      -0.330057        -8.9813
 205   2.0000      -0.320278        -8.7152
 206   2.0000      -0.310924        -8.4607
 207   2.0000      -0.309828        -8.4308
 208   2.0000      -0.304689        -8.2910
 209   2.0000      -0.303637        -8.2624
 210   2.0000      -0.300253        -8.1703
 211   2.0000      -0.297752        -8.1022
 212   2.0000      -0.283802        -7.7227
 213   2.0000      -0.277655        -7.5554
 214   2.0000      -0.275788        -7.5046
 215   2.0000      -0.269911        -7.3447
 216   2.0000      -0.256284        -6.9738
 217   2.0000      -0.237513        -6.4631
 218   2.0000      -0.223748        -6.0885
 219   2.0000      -0.202587        -5.5127
 220   0.0000      -0.056678        -1.5423
 221   0.0000      -0.025047        -0.6816
 222   0.0000       0.000288         0.0078
 223   0.0000       0.030832         0.8390
 224   0.0000       0.032335         0.8799

MULLIKEN ATOMIC CHARGES
-----------------------
   0 C :   -0.164799
   1 S :    0.123575
   2 C :   -0.174676
   3 C :    0.067198
   4 C :    0.056642
   5 N :   -0.039867
   6 C :   -0.004658
   7 C :   -0.080172
   8 N :   -0.129770
   9 C :    0.109033
  10 N :   -0.024043
  11 N :   -0.221086
  12 C :    0.171044
  13 C :   -0.025225
  14 C :    0.063996
  15 C :    0.079173
  16 N :   -0.161469
  17 C :    0.106278
  18 C :    0.006002
  19 C :    0.034104
  20 C :   -0.027266
  21 C :   -0.044500
  22 C :    0.054817
  23 N :   -0.154944
  24 C :    0.099524
  25 C :    0.001201
  26 C :    0.038138
  27 C :   -0.041235
  28 C :   -0.042596
  29 C :    0.095122
  30 C :    0.197029
  31 O :   -0.262467
  32 C :    0.226090
  33 C :    0.229583
  34 C :   -0.179101
  35 S :    0.100714
  36 C :   -0.180228
  37 O :   -0.267207
  38 C :   -0.061908
  39 C :   -0.010001
  40 C :    0.128242
  41 C :   -0.097849
  42 C :    0.052091
  43 C :    0.023163
  44 C :   -0.080128
  45 C :    0.155487
  46 N :   -0.225421
  47 C :    0.135339
  48 N :   -0.229039
  49 C :    0.096684
  50 C :   -0.160771
  51 C :    0.185704
  52 C :   -0.077848
  53 C :    0.016896
  54 C :   -0.003556
  55 C :    0.031029
  56 C :   -0.000407
  57 C :   -0.013155
  58 C :   -0.093686
  59 C :    0.008669
  60 H :    0.005017
  61 H :    0.005637
  62 H :    0.117986
  63 H :    0.037682
  64 H :    0.012960
  65 H :    0.027845
  66 H :    0.030591
  67 H :    0.014000
  68 H :    0.020267
  69 H :   -0.016584
  70 H :    0.006718
  71 H :    0.012777
  72 H :    0.016884
  73 H :    0.023988
  74 H :    0.017219
  75 H :    0.028715
  76 H :   -0.044241
  77 H :   -0.037356
  78 H :    0.041519
  79 H :    0.030704
  80 H :    0.020122
  81 H :    0.030213
  82 H :    0.017516
  83 H :   -0.023904
  84 H :   -0.034830
  85 H :    0.019429
  86 H :    0.021999
  87 H :    0.018152
  88 H :   -0.017758
  89 H :   -0.040318
  90 H :    0.002166
  91 H :   -0.016134
  92 H :   -0.025890
  93 H :    0.076352
  94 H :    0.082601
  95 H :   -0.008154
  96 H :   -0.008313
  97 H :    0.099624
  98 H :    0.096968
  99 H :   -0.020526
 100 H :    0.028383
 101 H :   -0.013620
 102 H :   -0.039232
 103 H :   -0.043181
 104 H :   -0.033711
 105 H :   -0.001016
 106 H :    0.028218
 107 H :    0.019021
Sum of atomic charges:   -0.0000000

LOEWDIN ATOMIC CHARGES
----------------------
   0 C :   -0.214247
   1 S :    0.465710
   2 C :   -0.217149
   3 C :   -0.060856
   4 C :   -0.063843
   5 N :   -0.087078
   6 C :    0.016981
   7 C :    0.018025
   8 N :   -0.033391
   9 C :    0.017709
  10 N :   -0.099394
  11 N :   -0.024119
  12 C :    0.037093
  13 C :   -0.012308
  14 C :   -0.054443
  15 C :   -0.018007
  16 N :    0.069635
  17 C :    0.035322
  18 C :   -0.061991
  19 C :   -0.035743
  20 C :   -0.072635
  21 C :   -0.075101
  22 C :   -0.023189
  23 N :    0.082162
  24 C :    0.033503
  25 C :   -0.059193
  26 C :   -0.039295
  27 C :   -0.063127
  28 C :   -0.083114
  29 C :    0.008576
  30 C :    0.026552
  31 O :   -0.059958
  32 C :   -0.005640
  33 C :   -0.009191
  34 C :   -0.215289
  35 S :    0.427242
  36 C :   -0.213157
  37 O :   -0.060468
  38 C :   -0.035821
  39 C :   -0.016923
  40 C :   -0.028293
  41 C :   -0.014282
  42 C :   -0.010235
  43 C :   -0.034384
  44 C :   -0.043254
  45 C :    0.029404
  46 N :   -0.125908
  47 C :    0.021309
  48 N :   -0.105018
  49 C :   -0.011419
  50 C :    0.047146
  51 C :   -0.032916
  52 C :   -0.039523
  53 C :   -0.017431
  54 C :   -0.035648
  55 C :   -0.025291
  56 C :   -0.012168
  57 C :   -0.026336
  58 C :   -0.015668
  59 C :   -0.043638
  60 H :    0.021885
  61 H :    0.022068
  62 H :    0.074993
  63 H :    0.024334
  64 H :    0.014745
  65 H :    0.022798
  66 H :    0.028903
  67 H :    0.019806
  68 H :    0.021799
  69 H :    0.015414
  70 H :    0.038683
  71 H :    0.021998
  72 H :    0.030118
  73 H :    0.023300
  74 H :    0.028636
  75 H :    0.030790
  76 H :    0.019955
  77 H :    0.020800
  78 H :    0.031804
  79 H :    0.024328
  80 H :    0.030048
  81 H :    0.027400
  82 H :    0.024412
  83 H :    0.024614
  84 H :    0.020709
  85 H :    0.026753
  86 H :    0.027845
  87 H :    0.034445
  88 H :    0.026213
  89 H :    0.020185
  90 H :    0.033544
  91 H :    0.012715
  92 H :   -0.003441
  93 H :    0.035134
  94 H :    0.051142
  95 H :    0.019053
  96 H :   -0.002372
  97 H :    0.047543
  98 H :    0.056851
  99 H :    0.021428
 100 H :    0.056085
 101 H :    0.022795
 102 H :    0.028378
 103 H :    0.024615
 104 H :    0.023594
 105 H :    0.021988
 106 H :    0.026006
 107 H :    0.024871

  Mayer bond orders larger than 0.100000
B(  0-C ,  1-S ) :   1.1933 B(  0-C ,  2-C ) :   0.1107 B(  0-C ,  4-C ) :   1.4286
B(  0-C , 60-H ) :   0.9750 B(  1-S ,  2-C ) :   1.1892 B(  2-C ,  3-C ) :   1.4299
B(  2-C , 61-H ) :   0.9767 B(  3-C ,  4-C ) :   1.1948 B(  3-C , 10-N ) :   1.3028
B(  4-C ,  5-N ) :   1.3126 B(  5-N ,  6-C ) :   1.7031 B(  6-C ,  7-C ) :   1.0572
B(  6-C , 11-N ) :   1.1105 B(  7-C ,  8-N ) :   1.2161 B(  7-C , 10-N ) :   1.7481
B(  8-N ,  9-C ) :   1.0075 B(  8-N , 62-H ) :   0.9150 B(  9-C , 63-H ) :   0.9616
B(  9-C , 64-H ) :   0.9638 B(  9-C , 65-H ) :   0.9749 B( 11-N , 12-C ) :   0.9756
B( 11-N , 13-C ) :   1.0380 B( 12-C , 66-H ) :   0.9655 B( 12-C , 67-H ) :   0.9658
B( 12-C , 68-H ) :   0.9684 B( 13-C , 14-C ) :   1.7103 B( 13-C , 69-H ) :   0.9743
B( 14-C , 15-C ) :   1.1156 B( 14-C , 70-H ) :   0.9385 B( 15-C , 16-N ) :   1.1869
B( 15-C , 19-C ) :   0.1135 B( 15-C , 21-C ) :   1.4240 B( 16-N , 17-C ) :   0.9695
B( 16-N , 19-C ) :   1.2227 B( 17-C , 18-C ) :   1.1151 B( 17-C , 71-H ) :   0.9360
B( 17-C , 72-H ) :   0.9323 B( 18-C , 73-H ) :   0.9628 B( 18-C , 74-H ) :   0.9653
B( 18-C , 75-H ) :   0.9617 B( 19-C , 20-C ) :   1.4854 B( 19-C , 22-C ) :   0.8956
B( 20-C , 21-C ) :   1.2831 B( 20-C , 76-H ) :   1.0198 B( 21-C , 77-H ) :   1.0103
B( 22-C , 23-N ) :   1.2369 B( 22-C , 26-C ) :   0.1252 B( 22-C , 28-C ) :   1.4925
B( 23-N , 24-C ) :   0.9621 B( 23-N , 26-C ) :   1.2025 B( 24-C , 25-C ) :   1.1145
B( 24-C , 78-H ) :   0.9368 B( 24-C , 79-H ) :   0.9357 B( 25-C , 80-H ) :   0.9645
B( 25-C , 81-H ) :   0.9655 B( 25-C , 82-H ) :   0.9642 B( 26-C , 27-C ) :   1.4816
B( 26-C , 29-C ) :   0.9813 B( 27-C , 28-C ) :   1.2785 B( 27-C , 83-H ) :   1.0134
B( 28-C , 84-H ) :   1.0101 B( 29-C , 30-C ) :   1.5660 B( 29-C , 37-O ) :   1.0326
B( 30-C , 31-O ) :   1.0409 B( 30-C , 38-C ) :   1.1507 B( 31-O , 32-C ) :   1.0665
B( 32-C , 33-C ) :   1.1997 B( 32-C , 36-C ) :   1.5720 B( 33-C , 34-C ) :   1.5702
B( 33-C , 37-O ) :   1.0422 B( 34-C , 35-S ) :   1.1369 B( 34-C , 85-H ) :   0.9722
B( 35-S , 36-C ) :   1.1367 B( 36-C , 86-H ) :   0.9722 B( 38-C , 39-C ) :   1.6911
B( 38-C , 87-H ) :   0.9471 B( 39-C , 40-C ) :   1.0402 B( 39-C , 88-H ) :   0.9881
B( 40-C , 41-C ) :   1.5376 B( 40-C , 57-C ) :   1.1145 B( 41-C , 42-C ) :   1.1412
B( 41-C , 89-H ) :   0.9768 B( 42-C , 43-C ) :   1.4909 B( 42-C , 55-C ) :   1.1239
B( 43-C , 44-C ) :   1.0164 B( 43-C , 49-C ) :   1.0897 B( 44-C , 45-C ) :   1.0455
B( 44-C , 47-C ) :   1.0752 B( 44-C , 90-H ) :   0.8825 B( 45-C , 46-N ) :   1.0881
B( 45-C , 91-H ) :   0.9379 B( 45-C , 92-H ) :   0.9355 B( 46-N , 93-H ) :   0.9498
B( 46-N , 94-H ) :   0.9671 B( 47-C , 48-N ) :   1.0888 B( 47-C , 95-H ) :   0.9299
B( 47-C , 96-H ) :   0.9352 B( 48-N , 97-H ) :   0.9608 B( 48-N , 98-H ) :   0.9679
B( 49-C , 50-C ) :   1.6583 B( 49-C , 54-C ) :   1.0504 B( 50-C , 51-C ) :   0.9698
B( 50-C , 99-H ) :   0.9555 B( 51-C , 52-C ) :   1.0069 B( 51-C , 58-C ) :   0.9491
B( 51-C ,100-H ) :   0.8541 B( 52-C , 53-C ) :   1.7057 B( 52-C ,101-H ) :   0.9738
B( 53-C , 54-C ) :   1.1293 B( 53-C ,102-H ) :   0.9897 B( 54-C , 55-C ) :   1.4483
B( 55-C , 56-C ) :   1.1408 B( 56-C , 57-C ) :   1.6034 B( 56-C ,103-H ) :   0.9884
B( 57-C ,104-H ) :   0.9899 B( 58-C , 59-C ) :   2.0484 B( 58-C ,105-H ) :   0.9637
B( 59-C ,106-H ) :   0.9364 B( 59-C ,107-H ) :   0.9546

-----------------------------------------------------------------------------
         ABSORPTION SPECTRUM VIA TRANSITION ELECTRIC DIPOLE MOMENTS
-----------------------------------------------------------------------------
State   Energy  Wavelength   fosc         T2         TX        TY        TZ
        (cm-1)    (nm)                  (au**2)     (au)      (au)      (au)
-----------------------------------------------------------------------------
   0   13541.6    738.5   0.028129298   0.68385   0.74457   0.06384  -0.35411
   1   22517.7    444.1   0.405810616   5.93300   0.80148  -2.27201  -0.35862
   2   25972.7    385.0   0.629529686   7.97950  -2.15540   0.97728   1.54229
   3   26581.8    376.2   0.084383384   1.04508   0.01964   1.00165  -0.20345
   4   27176.8    368.0   0.031957112   0.38712   0.10393   0.60571   0.09710
   5   27691.0    361.1   0.367438655   4.36839  -0.21825   2.07724  -0.07645
   6   30552.1    327.3   0.249716409   2.69080   0.83382   0.51890  -1.31388
   7   31213.0    320.4   0.028573008   0.30137   0.34123   0.18238  -0.38945
   8   31557.8    316.9   0.167799800   1.75049   0.63912   1.06640  -0.45257
   9   33351.2    299.8   0.025168582   0.24844  -0.36801   0.21915   0.25492
  10   34058.4    293.6   0.376956073   3.64370   1.49498  -0.94240  -0.72153
  11   34365.6    291.0   0.030864736   0.29567  -0.41111  -0.28320   0.21554
  12   34881.3    286.7   0.107832651   1.01773   0.10887  -1.00053  -0.06935
  13   35100.1    284.9   0.118585278   1.11224  -0.49471   0.28989   0.88514
  14   36357.6    275.0   0.001398709   0.01267  -0.08931   0.03829   0.05677
  15   36843.0    271.4   0.406795565   3.63493  -0.60269  -1.69046   0.64347
  16   37062.6    269.8   0.152667024   1.35608   0.58151  -0.98534  -0.21684
  17   37238.6    268.5   0.095853862   0.84741  -0.28138  -0.69399   0.53536
  18   37550.9    266.3   0.247416854   2.16913  -0.29578   1.44274  -0.01137
  19   38231.0    261.6   0.041636375   0.35854  -0.56009  -0.20530   0.05183
  20   38916.8    257.0   0.017529769   0.14829   0.21511   0.30184   0.10445
  21   39149.8    255.4   0.297491078   2.50161  -1.43599   0.18728   0.63598
  22   39259.3    254.7   0.061488633   0.51562   0.65975  -0.09047  -0.26863
  23   39380.8    253.9   0.030234261   0.25275   0.43813  -0.24655  -0.00301
  24   39818.5    251.1   0.046808858   0.38701  -0.33462   0.51878  -0.07684

FINAL SINGLE POINT ENERGY     -3239.341672628581

DIPOLE MOMENT
-------------
                                X             Y             Z
Electronic contribution:      2.10701      38.74267       9.54303
Nuclear contribution   :     -2.66774     -39.09592      -9.84410
                        -----------------------------------------
Total Dipole Moment    :     -0.56073      -0.35325      -0.30107
                        -----------------------------------------
Magnitude (a.u.)       :      0.72791
Magnitude (Debye)      :      1.85019

Rotational constants in cm-1:     0.001348     0.000505     0.000386
Rotational constants in MHz :    40.399132    15.139559    11.567375

                             ****ORCA TERMINATED NORMALLY****
TOTAL RUN TIME: 0 days 0 hours 16 minutes 55 seconds 983 msec
