                         Program Version 4.2.0 -  RELEASE  -
|  1> # ORCA input file
|  2> # SCF done       -183.790502718283          0.000963448956
|  3> ! CAM-B3LYP def2-SVP def2/J RIJCOSX Grid4 TightSCF
|  4> %maxcore 5000
|  5> %tddft
|  6>     Mode sTDDFT
|  7>     Ethresh 5.0
|  8>     maxcore 5000
|  9> end
| 10>
| 11> %pal
| 12>   nprocs 6
| 13>   end
| 14> * xyz 0 1
| 15>    C        7.30802        -5.66377         5.21744
| 16>    S        7.77498        -6.82167         6.38778
| 17>    C        7.06594        -8.11887         5.52335
| 18>    C        6.47800        -7.67790         4.36758
| 19>    C        6.63310        -6.25550         4.18104
| 20>    N        6.21392        -5.66016         3.03900
| 21>    C        5.60714        -6.40776         2.15443
| 22>    C        5.25927        -7.79110         2.44816
| 23>    N        4.44648        -8.54255         1.62509
| 24>    C        3.14796        -8.04592         1.20388
| 25>    N        5.73573        -8.40526         3.49645
| 26>    N        5.31964        -5.81507         0.93319
| 27>    C        5.47775        -6.55780        -0.29978
| 28>    C        5.33060        -4.44205         0.87034
| 29>    C        5.37963        -3.71284        -0.25549
| 30>    N        5.35976        -2.33150        -0.22306
| 31>    C        5.55695        -1.52700        -1.27964
| 32>    S        5.78986        -2.17554        -2.87229
| 33>    C        6.03281        -0.56153        -3.48241
| 34>    N        6.27569        -0.42995        -4.84169
| 35>    O        6.45645         0.69264        -5.28888
| 36>    O        6.29396        -1.46354        -5.50001
| 37>    C        5.94304         0.40191        -2.51261
| 38>    C        5.66110        -0.11967        -1.23792
| 39>    C        5.48650         0.64840        -0.04448
| 40>    C        5.94554         1.91627         0.12396
| 41>    C        5.76791         2.72519         1.26727
| 42>    C        4.88039         2.58230         2.30283
| 43>    C        4.78534         3.46350         3.41176
| 44>    C        3.76217         3.19578         4.26626
| 45>    C        2.96932         2.08937         3.88436
| 46>    S        3.61264         1.36630         2.42608
| 47>    C        1.81975         1.63120         4.49589
| 48>    C        1.22429         2.12849         5.67692
| 49>    C        0.04401         1.53438         6.00303
| 50>    C       -0.37457         0.53186         5.09334
| 51>    S        0.83433         0.34600         3.82810
| 52>    C       -1.52214        -0.21921         5.04457
| 53>    C       -2.62750        -0.19098         5.91236
| 54>    C       -3.80763        -0.91823         5.70953
| 55>    C       -4.00405        -1.67962         4.55089
| 56>    N       -4.13534        -2.25411         3.56534
| 57>    C       -4.77418        -0.69928         6.72398
| 58>    C       -4.31767         0.20870         7.67254
| 59>    S       -2.71958         0.77809         7.37531
| 60>    S       -5.45860         0.62383         8.90921
| 61>    C       -6.58945        -0.44817         8.14247
| 62>    C       -6.10848        -1.10539         7.01939
| 63>    C       -7.07950        -1.99833         6.48356
| 64>    C       -6.79952        -2.98330         5.52814
| 65>    N       -6.51191        -3.84930         4.83090
| 66>    C       -8.28345        -1.94078         7.17019
| 67>    S       -8.22044        -0.84341         8.53535
| 68>    C       -9.48119        -2.61770         6.83433
| 69>    S      -10.71584        -2.97396         8.00613
| 70>    C      -11.73439        -3.70020         6.83698
| 71>    C      -11.17428        -3.66836         5.58645
| 72>    C       -9.88976        -3.02743         5.56962
| 73>    N       -9.26210        -2.75481         4.40791
| 74>    C       -9.82875        -3.17237         3.30367
| 75>    C      -11.00649        -4.04121         3.35368
| 76>    N      -11.42421        -4.68835         2.22889
| 77>    C      -12.45493        -5.69549         2.32277
| 78>    N      -11.67719        -4.22964         4.45755
| 79>    N       -9.25509        -2.81234         2.11011
| 80>    C      -10.06680        -2.45655         0.96572
| 81>    C       -7.90771        -2.47559         2.08564
| 82>    C       -7.26364        -1.89897         1.07901
| 83>    H        7.56860        -4.63279         5.33957
| 84>    H        7.10466        -9.11526         5.91205
| 85>    H        4.39393        -9.49070         1.98456
| 86>    H        2.38232        -8.22302         1.96597
| 87>    H        2.85462        -8.55998         0.28864
| 88>    H        3.19613        -6.97744         1.01368
| 89>    H        4.64504        -6.35067        -0.97340
| 90>    H        5.51198        -7.62228        -0.08967
| 91>    H        6.40927        -6.26565        -0.79288
| 92>    H        5.28776        -3.96382         1.83770
| 93>    H        5.44885        -4.13407        -1.24427
| 94>    H        5.27102        -1.89441         0.68575
| 95>    H        6.05381         1.44650        -2.73778
| 96>    H        4.97884         0.16330         0.77718
| 97>    H        6.54741         2.35151        -0.66205
| 98>    H        6.39529         3.60620         1.32482
| 99>    H        5.47712         4.27869         3.53188
|100>    H        3.54005         3.77694         5.14281
|101>    H        1.67830         2.91379         6.25419
|102>    H       -0.53433         1.80303         6.86733
|103>    H       -1.62299        -0.90954         4.21585
|104>    H      -12.67606        -4.11704         7.13017
|105>    H      -10.71654        -4.85223         1.52879
|106>    H      -12.88247        -5.85428         1.33438
|107>    H      -13.21962        -5.33252         3.00515
|108>    H      -12.07111        -6.64419         2.70942
|109>    H      -11.11998        -2.61930         1.17740
|110>    H       -9.77231        -3.03651         0.08744
|111>    H       -9.92275        -1.39641         0.73917
|112>    H       -7.38063        -2.78070         2.97531
|113>    H       -7.73046        -1.56664         0.16848
|114>    H       -6.20486        -1.74019         1.16226
|115> *
|116>
|117>                          ****END OF INPUT****

CARTESIAN COORDINATES (ANGSTROEM)
---------------------------------
  C      7.308020   -5.663770    5.217440
  S      7.774980   -6.821670    6.387780
  C      7.065940   -8.118870    5.523350
  C      6.478000   -7.677900    4.367580
  C      6.633100   -6.255500    4.181040
  N      6.213920   -5.660160    3.039000
  C      5.607140   -6.407760    2.154430
  C      5.259270   -7.791100    2.448160
  N      4.446480   -8.542550    1.625090
  C      3.147960   -8.045920    1.203880
  N      5.735730   -8.405260    3.496450
  N      5.319640   -5.815070    0.933190
  C      5.477750   -6.557800   -0.299780
  C      5.330600   -4.442050    0.870340
  C      5.379630   -3.712840   -0.255490
  N      5.359760   -2.331500   -0.223060
  C      5.556950   -1.527000   -1.279640
  S      5.789860   -2.175540   -2.872290
  C      6.032810   -0.561530   -3.482410
  N      6.275690   -0.429950   -4.841690
  O      6.456450    0.692640   -5.288880
  O      6.293960   -1.463540   -5.500010
  C      5.943040    0.401910   -2.512610
  C      5.661100   -0.119670   -1.237920
  C      5.486500    0.648400   -0.044480
  C      5.945540    1.916270    0.123960
  C      5.767910    2.725190    1.267270
  C      4.880390    2.582300    2.302830
  C      4.785340    3.463500    3.411760
  C      3.762170    3.195780    4.266260
  C      2.969320    2.089370    3.884360
  S      3.612640    1.366300    2.426080
  C      1.819750    1.631200    4.495890
  C      1.224290    2.128490    5.676920
  C      0.044010    1.534380    6.003030
  C     -0.374570    0.531860    5.093340
  S      0.834330    0.346000    3.828100
  C     -1.522140   -0.219210    5.044570
  C     -2.627500   -0.190980    5.912360
  C     -3.807630   -0.918230    5.709530
  C     -4.004050   -1.679620    4.550890
  N     -4.135340   -2.254110    3.565340
  C     -4.774180   -0.699280    6.723980
  C     -4.317670    0.208700    7.672540
  S     -2.719580    0.778090    7.375310
  S     -5.458600    0.623830    8.909210
  C     -6.589450   -0.448170    8.142470
  C     -6.108480   -1.105390    7.019390
  C     -7.079500   -1.998330    6.483560
  C     -6.799520   -2.983300    5.528140
  N     -6.511910   -3.849300    4.830900
  C     -8.283450   -1.940780    7.170190
  S     -8.220440   -0.843410    8.535350
  C     -9.481190   -2.617700    6.834330
  S    -10.715840   -2.973960    8.006130
  C    -11.734390   -3.700200    6.836980
  C    -11.174280   -3.668360    5.586450
  C     -9.889760   -3.027430    5.569620
  N     -9.262100   -2.754810    4.407910
  C     -9.828750   -3.172370    3.303670
  C    -11.006490   -4.041210    3.353680
  N    -11.424210   -4.688350    2.228890
  C    -12.454930   -5.695490    2.322770
  N    -11.677190   -4.229640    4.457550
  N     -9.255090   -2.812340    2.110110
  C    -10.066800   -2.456550    0.965720
  C     -7.907710   -2.475590    2.085640
  C     -7.263640   -1.898970    1.079010
  H      7.568600   -4.632790    5.339570
  H      7.104660   -9.115260    5.912050
  H      4.393930   -9.490700    1.984560
  H      2.382320   -8.223020    1.965970
  H      2.854620   -8.559980    0.288640
  H      3.196130   -6.977440    1.013680
  H      4.645040   -6.350670   -0.973400
  H      5.511980   -7.622280   -0.089670
  H      6.409270   -6.265650   -0.792880
  H      5.287760   -3.963820    1.837700
  H      5.448850   -4.134070   -1.244270
  H      5.271020   -1.894410    0.685750
  H      6.053810    1.446500   -2.737780
  H      4.978840    0.163300    0.777180
  H      6.547410    2.351510   -0.662050
  H      6.395290    3.606200    1.324820
  H      5.477120    4.278690    3.531880
  H      3.540050    3.776940    5.142810
  H      1.678300    2.913790    6.254190
  H     -0.534330    1.803030    6.867330
  H     -1.622990   -0.909540    4.215850
  H    -12.676060   -4.117040    7.130170
  H    -10.716540   -4.852230    1.528790
  H    -12.882470   -5.854280    1.334380
  H    -13.219620   -5.332520    3.005150
  H    -12.071110   -6.644190    2.709420
  H    -11.119980   -2.619300    1.177400
  H     -9.772310   -3.036510    0.087440
  H     -9.922750   -1.396410    0.739170
  H     -7.380630   -2.780700    2.975310
  H     -7.730460   -1.566640    0.168480
  H     -6.204860   -1.740190    1.162260

 Total Charge           Charge          ....    0
 Multiplicity           Mult            ....    1
 Number of Electrons    NEL             ....  536
 Basis Dimension        Dim             .... 1144

ORBITAL ENERGIES
----------------

  NO   OCC          E(Eh)            E(eV)
   0   2.0000     -88.976107     -2421.1630
   1   2.0000     -88.974968     -2421.1320
   2   2.0000     -88.971725     -2421.0437
   3   2.0000     -88.971278     -2421.0316
   4   2.0000     -88.959216     -2420.7033
   5   2.0000     -88.958880     -2420.6942
   6   2.0000     -88.953511     -2420.5481
   7   2.0000     -88.947234     -2420.3773
   8   2.0000     -19.217931      -522.9465
   9   2.0000     -19.217229      -522.9274
  10   2.0000     -14.629811      -398.0974
  11   2.0000     -14.474142      -393.8614
  12   2.0000     -14.456969      -393.3941
  13   2.0000     -14.440426      -392.9440
  14   2.0000     -14.431024      -392.6881
  15   2.0000     -14.426041      -392.5525
  16   2.0000     -14.410459      -392.1285
  17   2.0000     -14.405530      -391.9944
  18   2.0000     -14.400570      -391.8594
  19   2.0000     -14.394851      -391.7038
  20   2.0000     -14.392615      -391.6430
  21   2.0000     -14.382461      -391.3667
  22   2.0000     -10.361798      -281.9589
  23   2.0000     -10.358973      -281.8820
  24   2.0000     -10.354380      -281.7570
  25   2.0000     -10.352472      -281.7051
  26   2.0000     -10.350854      -281.6611
  27   2.0000     -10.325710      -280.9769
  28   2.0000     -10.324917      -280.9553
  29   2.0000     -10.324272      -280.9377
  30   2.0000     -10.324001      -280.9304
  31   2.0000     -10.323658      -280.9210
  32   2.0000     -10.318617      -280.7838
  33   2.0000     -10.316684      -280.7312
  34   2.0000     -10.313863      -280.6545
  35   2.0000     -10.313460      -280.6435
  36   2.0000     -10.310694      -280.5682
  37   2.0000     -10.310023      -280.5500
  38   2.0000     -10.307300      -280.4759
  39   2.0000     -10.307077      -280.4698
  40   2.0000     -10.304072      -280.3880
  41   2.0000     -10.303219      -280.3648
  42   2.0000     -10.300067      -280.2791
  43   2.0000     -10.299138      -280.2538
  44   2.0000     -10.297922      -280.2207
  45   2.0000     -10.297717      -280.2151
  46   2.0000     -10.297639      -280.2130
  47   2.0000     -10.297028      -280.1964
  48   2.0000     -10.296699      -280.1874
  49   2.0000     -10.296540      -280.1831
  50   2.0000     -10.295893      -280.1655
  51   2.0000     -10.295708      -280.1604
  52   2.0000     -10.293054      -280.0882
  53   2.0000     -10.292615      -280.0763
  54   2.0000     -10.290919      -280.0302
  55   2.0000     -10.289771      -279.9989
  56   2.0000     -10.289155      -279.9821
  57   2.0000     -10.288003      -279.9508
  58   2.0000     -10.287014      -279.9239
  59   2.0000     -10.286529      -279.9107
  60   2.0000     -10.286149      -279.9003
  61   2.0000     -10.286072      -279.8982
  62   2.0000     -10.284933      -279.8673
  63   2.0000     -10.284245      -279.8485
  64   2.0000     -10.282874      -279.8112
  65   2.0000     -10.277828      -279.6739
  66   2.0000     -10.275787      -279.6184
  67   2.0000     -10.229428      -278.3569
  68   2.0000      -8.071117      -219.6263
  69   2.0000      -8.069803      -219.5905
  70   2.0000      -8.067100      -219.5170
  71   2.0000      -8.066725      -219.5067
  72   2.0000      -8.054754      -219.1810
  73   2.0000      -8.054219      -219.1664
  74   2.0000      -8.049157      -219.0287
  75   2.0000      -8.043657      -218.8790
  76   2.0000      -6.041117      -164.3871
  77   2.0000      -6.039438      -164.3415
  78   2.0000      -6.036887      -164.2721
  79   2.0000      -6.036748      -164.2683
  80   2.0000      -6.036530      -164.2623
  81   2.0000      -6.035256      -164.2277
  82   2.0000      -6.032527      -164.1534
  83   2.0000      -6.032104      -164.1419
  84   2.0000      -6.031936      -164.1373
  85   2.0000      -6.031338      -164.1210
  86   2.0000      -6.028550      -164.0452
  87   2.0000      -6.027932      -164.0284
  88   2.0000      -6.023687      -163.9129
  89   2.0000      -6.023421      -163.9056
  90   2.0000      -6.019414      -163.7966
  91   2.0000      -6.019216      -163.7912
  92   2.0000      -6.018869      -163.7817
  93   2.0000      -6.017830      -163.7535
  94   2.0000      -6.016687      -163.7224
  95   2.0000      -6.014865      -163.6728
  96   2.0000      -6.013500      -163.6356
  97   2.0000      -6.010213      -163.5462
  98   2.0000      -6.009429      -163.5249
  99   2.0000      -6.004358      -163.3869
 100   2.0000      -1.296342       -35.2753
 101   2.0000      -1.115091       -30.3432
 102   2.0000      -1.100976       -29.9591
 103   2.0000      -1.092585       -29.7307
 104   2.0000      -1.080746       -29.4086
 105   2.0000      -1.055124       -28.7114
 106   2.0000      -1.045025       -28.4366
 107   2.0000      -1.029411       -28.0117
 108   2.0000      -1.024318       -27.8731
 109   2.0000      -1.023053       -27.8387
 110   2.0000      -1.000604       -27.2278
 111   2.0000      -0.994817       -27.0704
 112   2.0000      -0.989230       -26.9183
 113   2.0000      -0.977484       -26.5987
 114   2.0000      -0.976462       -26.5709
 115   2.0000      -0.973829       -26.4992
 116   2.0000      -0.969013       -26.3682
 117   2.0000      -0.963549       -26.2195
 118   2.0000      -0.959618       -26.1125
 119   2.0000      -0.958899       -26.0930
 120   2.0000      -0.932487       -25.3743
 121   2.0000      -0.917736       -24.9729
 122   2.0000      -0.895211       -24.3599
 123   2.0000      -0.885462       -24.0947
 124   2.0000      -0.879297       -23.9269
 125   2.0000      -0.867724       -23.6120
 126   2.0000      -0.858162       -23.3518
 127   2.0000      -0.853785       -23.2327
 128   2.0000      -0.850689       -23.1484
 129   2.0000      -0.846505       -23.0346
 130   2.0000      -0.838203       -22.8087
 131   2.0000      -0.837738       -22.7960
 132   2.0000      -0.830893       -22.6098
 133   2.0000      -0.828715       -22.5505
 134   2.0000      -0.822331       -22.3768
 135   2.0000      -0.819833       -22.3088
 136   2.0000      -0.808381       -21.9972
 137   2.0000      -0.797037       -21.6885
 138   2.0000      -0.794596       -21.6221
 139   2.0000      -0.785514       -21.3749
 140   2.0000      -0.778430       -21.1821
 141   2.0000      -0.772919       -21.0322
 142   2.0000      -0.770608       -20.9693
 143   2.0000      -0.763674       -20.7806
 144   2.0000      -0.748659       -20.3721
 145   2.0000      -0.730503       -19.8780
 146   2.0000      -0.717463       -19.5232
 147   2.0000      -0.713340       -19.4110
 148   2.0000      -0.710258       -19.3271
 149   2.0000      -0.701118       -19.0784
 150   2.0000      -0.692291       -18.8382
 151   2.0000      -0.689177       -18.7535
 152   2.0000      -0.685455       -18.6522
 153   2.0000      -0.672594       -18.3022
 154   2.0000      -0.668264       -18.1844
 155   2.0000      -0.661399       -17.9976
 156   2.0000      -0.655421       -17.8349
 157   2.0000      -0.652161       -17.7462
 158   2.0000      -0.645525       -17.5656
 159   2.0000      -0.641976       -17.4691
 160   2.0000      -0.640577       -17.4310
 161   2.0000      -0.635411       -17.2904
 162   2.0000      -0.633610       -17.2414
 163   2.0000      -0.628323       -17.0975
 164   2.0000      -0.623601       -16.9691
 165   2.0000      -0.619520       -16.8580
 166   2.0000      -0.613698       -16.6996
 167   2.0000      -0.611032       -16.6270
 168   2.0000      -0.606398       -16.5009
 169   2.0000      -0.603552       -16.4235
 170   2.0000      -0.602847       -16.4043
 171   2.0000      -0.595241       -16.1973
 172   2.0000      -0.593428       -16.1480
 173   2.0000      -0.585223       -15.9247
 174   2.0000      -0.583222       -15.8703
 175   2.0000      -0.573133       -15.5957
 176   2.0000      -0.567378       -15.4391
 177   2.0000      -0.563247       -15.3267
 178   2.0000      -0.560238       -15.2448
 179   2.0000      -0.556893       -15.1538
 180   2.0000      -0.553292       -15.0558
 181   2.0000      -0.550183       -14.9713
 182   2.0000      -0.543810       -14.7978
 183   2.0000      -0.541655       -14.7392
 184   2.0000      -0.540892       -14.7184
 185   2.0000      -0.537876       -14.6363
 186   2.0000      -0.535256       -14.5651
 187   2.0000      -0.530261       -14.4291
 188   2.0000      -0.528313       -14.3761
 189   2.0000      -0.527563       -14.3557
 190   2.0000      -0.523910       -14.2563
 191   2.0000      -0.518087       -14.0979
 192   2.0000      -0.517885       -14.0924
 193   2.0000      -0.514787       -14.0081
 194   2.0000      -0.512220       -13.9382
 195   2.0000      -0.511199       -13.9104
 196   2.0000      -0.510599       -13.8941
 197   2.0000      -0.507256       -13.8032
 198   2.0000      -0.504355       -13.7242
 199   2.0000      -0.504119       -13.7178
 200   2.0000      -0.500880       -13.6296
 201   2.0000      -0.495201       -13.4751
 202   2.0000      -0.490423       -13.3451
 203   2.0000      -0.488558       -13.2943
 204   2.0000      -0.484319       -13.1790
 205   2.0000      -0.483062       -13.1448
 206   2.0000      -0.481026       -13.0894
 207   2.0000      -0.480288       -13.0693
 208   2.0000      -0.475926       -12.9506
 209   2.0000      -0.473458       -12.8834
 210   2.0000      -0.471681       -12.8351
 211   2.0000      -0.471184       -12.8216
 212   2.0000      -0.470767       -12.8102
 213   2.0000      -0.467043       -12.7089
 214   2.0000      -0.463765       -12.6197
 215   2.0000      -0.463042       -12.6000
 216   2.0000      -0.455865       -12.4047
 217   2.0000      -0.453717       -12.3463
 218   2.0000      -0.448715       -12.2102
 219   2.0000      -0.448155       -12.1949
 220   2.0000      -0.446739       -12.1564
 221   2.0000      -0.443854       -12.0779
 222   2.0000      -0.442436       -12.0393
 223   2.0000      -0.435605       -11.8534
 224   2.0000      -0.433278       -11.7901
 225   2.0000      -0.432664       -11.7734
 226   2.0000      -0.431182       -11.7331
 227   2.0000      -0.427783       -11.6406
 228   2.0000      -0.426358       -11.6018
 229   2.0000      -0.424630       -11.5548
 230   2.0000      -0.422962       -11.5094
 231   2.0000      -0.422250       -11.4900
 232   2.0000      -0.419740       -11.4217
 233   2.0000      -0.416981       -11.3466
 234   2.0000      -0.414126       -11.2689
 235   2.0000      -0.409796       -11.1511
 236   2.0000      -0.406015       -11.0482
 237   2.0000      -0.402923       -10.9641
 238   2.0000      -0.396950       -10.8016
 239   2.0000      -0.394599       -10.7376
 240   2.0000      -0.387495       -10.5443
 241   2.0000      -0.377770       -10.2796
 242   2.0000      -0.376874       -10.2553
 243   2.0000      -0.373642       -10.1673
 244   2.0000      -0.367499       -10.0002
 245   2.0000      -0.363730        -9.8976
 246   2.0000      -0.361057        -9.8249
 247   2.0000      -0.359888        -9.7930
 248   2.0000      -0.355355        -9.6697
 249   2.0000      -0.352108        -9.5813
 250   2.0000      -0.347291        -9.4503
 251   2.0000      -0.346820        -9.4374
 252   2.0000      -0.342285        -9.3140
 253   2.0000      -0.331132        -9.0106
 254   2.0000      -0.329542        -8.9673
 255   2.0000      -0.325489        -8.8570
 256   2.0000      -0.321832        -8.7575
 257   2.0000      -0.317910        -8.6508
 258   2.0000      -0.310515        -8.4495
 259   2.0000      -0.302758        -8.2385
 260   2.0000      -0.290808        -7.9133
 261   2.0000      -0.288220        -7.8429
 262   2.0000      -0.271752        -7.3947
 263   2.0000      -0.270226        -7.3532
 264   2.0000      -0.254388        -6.9223
 265   2.0000      -0.243991        -6.6393
 266   2.0000      -0.240951        -6.5566
 267   2.0000      -0.210357        -5.7241
 268   0.0000      -0.087627        -2.3845
 269   0.0000      -0.046439        -1.2637
 270   0.0000      -0.044095        -1.1999
 271   0.0000      -0.033429        -0.9096
 272   0.0000      -0.024920        -0.6781

MULLIKEN ATOMIC CHARGES
-----------------------
   0 C :   -0.159799
   1 S :    0.136466
   2 C :   -0.169659
   3 C :    0.064523
   4 C :    0.053889
   5 N :   -0.035864
   6 C :    0.006883
   7 C :   -0.066897
   8 N :   -0.159422
   9 C :    0.087387
  10 N :   -0.011335
  11 N :   -0.240416
  12 C :    0.112821
  13 C :    0.104417
  14 C :    0.008284
  15 N :   -0.025918
  16 C :   -0.103422
  17 S :    0.130530
  18 C :   -0.012206
  19 N :    0.281597
  20 O :   -0.268124
  21 O :   -0.283150
  22 C :    0.007856
  23 C :    0.111046
  24 C :   -0.049782
  25 C :   -0.000087
  26 C :    0.002906
  27 C :   -0.033716
  28 C :    0.041492
  29 C :    0.023584
  30 C :   -0.035236
  31 S :    0.061875
  32 C :   -0.049924
  33 C :    0.017445
  34 C :    0.017952
  35 C :   -0.065894
  36 S :    0.097327
  37 C :   -0.008553
  38 C :   -0.063793
  39 C :   -0.036597
  40 C :   -0.298132
  41 N :    0.179901
  42 C :    0.159499
  43 C :   -0.222785
  44 S :    0.114653
  45 S :    0.176653
  46 C :   -0.230334
  47 C :    0.115233
  48 C :   -0.000246
  49 C :   -0.253368
  50 N :    0.144823
  51 C :   -0.095763
  52 S :    0.162113
  53 C :   -0.210573
  54 S :    0.145028
  55 C :   -0.160750
  56 C :    0.072146
  57 C :    0.071415
  58 N :   -0.034856
  59 C :    0.045252
  60 C :   -0.040526
  61 N :   -0.171602
  62 C :    0.121063
  63 N :   -0.045553
  64 N :   -0.234585
  65 C :    0.101877
  66 C :    0.103250
  67 C :   -0.081797
  68 H :    0.009061
  69 H :    0.010548
  70 H :    0.123952
  71 H :    0.028254
  72 H :    0.029198
  73 H :    0.043980
  74 H :    0.025589
  75 H :    0.060864
  76 H :    0.030249
  77 H :    0.018760
  78 H :    0.022969
  79 H :    0.135241
  80 H :    0.007577
  81 H :   -0.014028
  82 H :   -0.011224
  83 H :   -0.008642
  84 H :   -0.008855
  85 H :   -0.013338
  86 H :   -0.010403
  87 H :   -0.002060
  88 H :    0.009897
  89 H :    0.009176
  90 H :    0.132921
  91 H :    0.016275
  92 H :    0.044717
  93 H :    0.022350
  94 H :    0.044051
  95 H :    0.027994
  96 H :    0.036319
  97 H :    0.030504
  98 H :   -0.003791
  99 H :    0.031371
Sum of atomic charges:   -0.0000000

LOEWDIN ATOMIC CHARGES
----------------------
   0 C :   -0.212003
   1 S :    0.478560
   2 C :   -0.212417
   3 C :   -0.060113
   4 C :   -0.062502
   5 N :   -0.082145
   6 C :    0.022962
   7 C :    0.015311
   8 N :   -0.046122
   9 C :    0.019082
  10 N :   -0.089999
  11 N :   -0.017490
  12 C :    0.028497
  13 C :    0.004907
  14 C :   -0.051880
  15 N :    0.045141
  16 C :   -0.085537
  17 S :    0.440518
  18 C :   -0.222045
  19 N :    0.274330
  20 O :   -0.233717
  21 O :   -0.249906
  22 C :    0.008782
  23 C :   -0.120725
  24 C :   -0.023233
  25 C :   -0.046502
  26 C :   -0.045740
  27 C :   -0.152148
  28 C :   -0.022544
  29 C :   -0.043409
  30 C :   -0.167566
  31 S :    0.377043
  32 C :   -0.188045
  33 C :   -0.013601
  34 C :   -0.058297
  35 C :   -0.134457
  36 S :    0.376326
  37 C :   -0.086681
  38 C :   -0.122472
  39 C :   -0.107761
  40 C :   -0.033639
  41 N :   -0.052089
  42 C :   -0.059301
  43 C :   -0.339151
  44 S :    0.436651
  45 S :    0.414713
  46 C :   -0.338358
  47 C :   -0.060313
  48 C :   -0.101164
  49 C :   -0.021122
  50 N :   -0.062175
  51 C :   -0.134914
  52 S :    0.432925
  53 C :   -0.231251
  54 S :    0.454690
  55 C :   -0.197525
  56 C :   -0.054093
  57 C :   -0.038269
  58 N :   -0.072483
  59 C :    0.038282
  60 C :    0.026626
  61 N :   -0.020612
  62 C :    0.023865
  63 N :   -0.109287
  64 N :   -0.019877
  65 C :    0.027428
  66 C :    0.037654
  67 C :   -0.116404
  68 H :    0.023522
  69 H :    0.024419
  70 H :    0.077102
  71 H :    0.020656
  72 H :    0.025098
  73 H :    0.027793
  74 H :    0.022405
  75 H :    0.033547
  76 H :    0.023286
  77 H :    0.030066
  78 H :    0.018108
  79 H :    0.095638
  80 H :    0.043688
  81 H :    0.006154
  82 H :    0.030487
  83 H :    0.036596
  84 H :    0.034869
  85 H :    0.031593
  86 H :    0.033669
  87 H :    0.018035
  88 H :    0.044100
  89 H :    0.025783
  90 H :    0.078816
  91 H :    0.022173
  92 H :    0.033520
  93 H :    0.019788
  94 H :    0.027519
  95 H :    0.021009
  96 H :    0.027544
  97 H :    0.034867
  98 H :    0.011605
  99 H :    0.033338

  Mayer bond orders larger than 0.100000
B(  0-C ,  1-S ) :   1.1996 B(  0-C ,  2-C ) :   0.1100 B(  0-C ,  4-C ) :   1.4270
B(  0-C , 68-H ) :   0.9753 B(  1-S ,  2-C ) :   1.1968 B(  2-C ,  3-C ) :   1.4280
B(  2-C , 69-H ) :   0.9774 B(  3-C ,  4-C ) :   1.1941 B(  3-C , 10-N ) :   1.3036
B(  4-C ,  5-N ) :   1.3140 B(  5-N ,  6-C ) :   1.7137 B(  6-C ,  7-C ) :   1.0606
B(  6-C , 11-N ) :   1.0986 B(  7-C ,  8-N ) :   1.1769 B(  7-C , 10-N ) :   1.7571
B(  8-N ,  9-C ) :   0.9916 B(  8-N , 70-H ) :   0.9154 B(  9-C , 71-H ) :   0.9693
B(  9-C , 72-H ) :   0.9792 B(  9-C , 73-H ) :   0.9698 B( 11-N , 12-C ) :   0.9770
B( 11-N , 13-C ) :   1.1037 B( 12-C , 74-H ) :   0.9626 B( 12-C , 75-H ) :   0.9485
B( 12-C , 76-H ) :   0.9586 B( 13-C , 14-C ) :   1.6972 B( 13-C , 77-H ) :   0.9667
B( 14-C , 15-N ) :   1.0450 B( 14-C , 78-H ) :   0.9595 B( 15-N , 16-C ) :   1.3037
B( 15-N , 79-H ) :   0.9147 B( 16-C , 17-S ) :   1.1328 B( 16-C , 23-C ) :   1.2875
B( 17-S , 18-C ) :   1.0423 B( 18-C , 19-N ) :   1.0018 B( 18-C , 22-C ) :   1.4712
B( 19-N , 20-O ) :   1.5147 B( 19-N , 21-O ) :   1.4913 B( 20-O , 21-O ) :   0.2447
B( 22-C , 23-C ) :   1.2477 B( 22-C , 80-H ) :   1.0019 B( 23-C , 24-C ) :   1.1110
B( 24-C , 25-C ) :   1.6652 B( 24-C , 81-H ) :   0.9426 B( 25-C , 26-C ) :   1.1857
B( 25-C , 82-H ) :   0.9663 B( 26-C , 27-C ) :   1.5872 B( 26-C , 83-H ) :   0.9606
B( 27-C , 28-C ) :   1.1471 B( 27-C , 31-S ) :   1.0238 B( 28-C , 29-C ) :   1.5916
B( 28-C , 84-H ) :   0.9981 B( 29-C , 30-C ) :   1.1857 B( 29-C , 85-H ) :   0.9927
B( 30-C , 31-S ) :   1.0473 B( 30-C , 32-C ) :   1.4991 B( 32-C , 33-C ) :   1.1993
B( 32-C , 36-S ) :   1.0408 B( 33-C , 34-C ) :   1.6072 B( 33-C , 86-H ) :   0.9925
B( 34-C , 35-C ) :   1.1525 B( 34-C , 87-H ) :   0.9763 B( 35-C , 36-S ) :   1.0531
B( 35-C , 37-C ) :   1.5431 B( 37-C , 38-C ) :   1.2621 B( 37-C , 88-H ) :   0.9402
B( 38-C , 39-C ) :   1.4526 B( 38-C , 44-S ) :   1.0984 B( 39-C , 40-C ) :   1.1787
B( 39-C , 42-C ) :   1.2469 B( 40-C , 41-N ) :   2.9694 B( 42-C , 43-C ) :   1.4129
B( 42-C , 47-C ) :   1.0762 B( 43-C , 44-S ) :   1.0772 B( 43-C , 45-S ) :   1.0833
B( 45-S , 46-C ) :   1.0764 B( 46-C , 47-C ) :   1.4368 B( 46-C , 52-S ) :   1.0701
B( 47-C , 48-C ) :   1.2332 B( 48-C , 49-C ) :   1.1995 B( 48-C , 51-C ) :   1.5230
B( 49-C , 50-N ) :   2.8610 B( 51-C , 52-S ) :   1.1346 B( 51-C , 53-C ) :   1.1612
B( 53-C , 54-S ) :   1.1517 B( 53-C , 55-C ) :   0.1255 B( 53-C , 57-C ) :   1.3867
B( 54-S , 55-C ) :   1.1557 B( 55-C , 56-C ) :   1.4492 B( 55-C , 89-H ) :   0.9779
B( 56-C , 57-C ) :   1.1972 B( 56-C , 63-N ) :   1.3110 B( 57-C , 58-N ) :   1.3412
B( 58-N , 59-C ) :   1.6977 B( 59-C , 60-C ) :   1.0251 B( 59-C , 64-N ) :   1.1500
B( 60-C , 61-N ) :   1.2352 B( 60-C , 63-N ) :   1.6978 B( 61-N , 62-C ) :   1.0047
B( 61-N , 90-H ) :   0.9140 B( 62-C , 91-H ) :   0.9742 B( 62-C , 92-H ) :   0.9635
B( 62-C , 93-H ) :   0.9745 B( 64-N , 65-C ) :   0.9730 B( 64-N , 66-C ) :   1.0526
B( 65-C , 94-H ) :   0.9625 B( 65-C , 95-H ) :   0.9681 B( 65-C , 96-H ) :   0.9594
B( 66-C , 67-C ) :   1.9346 B( 66-C , 97-H ) :   0.9489 B( 67-C , 98-H ) :   0.9556
B( 67-C , 99-H ) :   0.9386

-----------------------------------------------------------------------------
         ABSORPTION SPECTRUM VIA TRANSITION ELECTRIC DIPOLE MOMENTS
-----------------------------------------------------------------------------
State   Energy  Wavelength   fosc         T2         TX        TY        TZ
        (cm-1)    (nm)                  (au**2)     (au)      (au)      (au)
-----------------------------------------------------------------------------
   0   13067.9    765.2   1.251642521  31.53194   4.71385  -0.01668  -3.05144
   1   20169.1    495.8   0.466938082   7.62164   2.00397   1.87353  -0.30926
   2   22695.5    440.6   0.527048107   7.64513  -0.01949  -1.40751   2.37985
   3   22941.3    435.9   0.026433928   0.37933  -0.29177  -0.11909  -0.52917
   4   23728.8    421.4   0.204600255   2.83861   0.97252   1.35423   0.24266
   5   24699.9    404.9   0.408768324   5.44827   0.97112   0.34342   2.09458
   6   25505.5    392.1   0.053669292   0.69273  -0.14852  -0.29059  -0.76566
   7   26126.0    382.8   0.034953822   0.44045  -0.21505   0.48519  -0.39850
   8   26742.3    373.9   0.023429795   0.28843  -0.46559  -0.25624   0.07747
   9   27494.5    363.7   0.293064870   3.50908  -1.33786  -1.19568  -0.53810
  10   27616.1    362.1   0.422848533   5.04078   0.10016  -0.89386   2.05713
  11   27830.1    359.3   0.307573399   3.63840   1.06857   0.13525  -1.57425
  12   29677.0    337.0   0.004971706   0.05515  -0.11062   0.14442  -0.14852
  13   30317.3    329.8   0.007010299   0.07612  -0.03405   0.10933   0.25102
  14   30732.7    325.4   0.053077289   0.56857  -0.64133  -0.32558  -0.22640
  15   31527.1    317.2   0.076171946   0.79540  -0.23362   0.58625  -0.63019
  16   32196.1    310.6   0.036356956   0.37176   0.27344  -0.14366  -0.52569
  17   32466.3    308.0   0.045712905   0.46353   0.50785   0.25146  -0.37735
  18   32590.3    306.8   0.090421061   0.91339   0.29248   0.90844   0.05075
  19   32932.3    303.7   0.037729518   0.37717   0.02618   0.61155  -0.04989
  20   33113.4    302.0   0.022936350   0.22803  -0.31503   0.15479  -0.32378
  21   33582.2    297.8   0.021847608   0.21418   0.34023   0.21517   0.22830
  22   33716.8    296.6   0.007210933   0.07041  -0.26300  -0.02589   0.02382
  23   34083.9    293.4   0.044053738   0.42551  -0.55289  -0.00770  -0.34606
  24   34264.3    291.8   0.014778065   0.14199   0.34240   0.15696  -0.01071
  25   34551.0    289.4   0.078298150   0.74605   0.30349  -0.51154  -0.62631
  26   35122.0    284.7   0.029148234   0.27322   0.46042   0.22579   0.10125
  27   35607.9    280.8   0.034447774   0.31849  -0.29912  -0.36713  -0.30696
  28   35821.2    279.2   0.199862439   1.83682  -0.89527  -0.69040  -0.74744
  29   35849.6    278.9   0.088331619   0.81116  -0.80302  -0.39254  -0.11058
  30   36297.1    275.5   0.070445782   0.63894   0.00187   0.09317   0.79388
  31   36528.5    273.8   0.022890155   0.20630   0.26361   0.22493  -0.29363
  32   36880.7    271.1   0.000668873   0.00597  -0.04588  -0.05852  -0.02099
  33   37326.2    267.9   0.048608462   0.42872   0.47002   0.22258   0.39782
  34   37559.5    266.2   0.351669290   3.08241   0.57933   1.34408   0.96967
  35   37759.1    264.8   0.003056862   0.02665   0.05984  -0.02184  -0.15031
  36   38046.2    262.8   0.059420674   0.51416   0.34075   0.58581  -0.23427
  37   38456.9    260.0   0.022745916   0.19472   0.29953   0.29751  -0.12839
  38   39175.5    255.3   0.005642938   0.04742   0.00965   0.21750  -0.00462
  39   39326.3    254.3   0.006167629   0.05163  -0.00301  -0.06199  -0.21858
  40   39466.4    253.4   0.025922735   0.21624   0.22785  -0.02762   0.40442
  41   39535.5    252.9   0.002558556   0.02131   0.05277   0.12853   0.04472
  42   39705.6    251.9   0.036111473   0.29941  -0.26145  -0.44498   0.18178
  43   39918.1    250.5   0.017712520   0.14608  -0.02287  -0.37309   0.07975
  44   40128.9    249.2   0.058210809   0.47755  -0.25042   0.41770   0.49027
  45   40162.6    249.0   0.070546582   0.57827  -0.14549   0.12359   0.73609
  46   40308.5    248.1   0.005052440   0.04126  -0.13180   0.11289   0.10560

FINAL SINGLE POINT ENERGY     -5760.725126176669

DIPOLE MOMENT
-------------
                                X             Y             Z
Electronic contribution:     -5.54248      28.28816      46.76255
Nuclear contribution   :      4.90538     -28.19600     -44.41368
                        -----------------------------------------
Total Dipole Moment    :     -0.63710       0.09217       2.34886
                        -----------------------------------------
Magnitude (a.u.)       :      2.43548
Magnitude (Debye)      :      6.19049

Rotational constants in cm-1:     0.000911     0.000281     0.000275
Rotational constants in MHz :    27.326006     8.425170     8.248770

                             ****ORCA TERMINATED NORMALLY****
TOTAL RUN TIME: 0 days 0 hours 9 minutes 5 seconds 710 msec
