                         Program Version 4.2.0 -  RELEASE  -
|  1> # ORCA input file
|  2> # SCF done       -178.918421959292          0.000991475409
|  3> ! CAM-B3LYP def2-SVP def2/J RIJCOSX Grid4 TightSCF
|  4> %maxcore 5000
|  5> %tddft
|  6>     Mode sTDDFT
|  7>     Ethresh 5.0
|  8>     maxcore 5000
|  9> end
| 10>
| 11> %pal
| 12>   nprocs 6
| 13>   end
| 14> * xyz 0 1
| 15>    C        1.01406        -3.32048        -2.91818
| 16>    C       -0.30515        -3.16387        -3.24925
| 17>    C       -0.94709        -2.23170        -4.17000
| 18>    O       -2.14698        -2.23225        -4.34123
| 19>    C       -0.02167        -1.27753        -4.88868
| 20>    S       -1.31253        -4.29756        -2.39551
| 21>    C        0.05254        -4.95713        -1.61882
| 22>    C        1.23952        -4.35368        -1.97545
| 23>    C        2.51201        -4.76788        -1.43651
| 24>    C        3.69057        -4.17740        -1.69014
| 25>    C        4.98275        -4.57626        -1.17405
| 26>    C        6.08500        -3.74329        -1.42276
| 27>    C        7.32559        -4.08692        -0.94496
| 28>    C        7.50243        -5.27640        -0.21906
| 29>    C        6.42420        -6.11666         0.02549
| 30>    C        5.18021        -5.76033        -0.45111
| 31>    C        8.88769        -5.37471         0.17364
| 32>    C        9.57528        -4.24196        -0.30640
| 33>    C        8.64657        -3.36573        -1.11861
| 34>    C        8.59658        -1.92443        -0.59156
| 35>    C        8.11788        -1.85322         0.85418
| 36>    C        8.98785        -3.41220        -2.62680
| 37>    C       10.36483        -2.88941        -3.01423
| 38>    C       10.89629        -4.05594         0.01133
| 39>    C       11.58200        -5.02189         0.77696
| 40>    C       10.88379        -6.16386         1.21396
| 41>    C        9.54847        -6.33742         0.92722
| 42>    C       12.96414        -4.80275         1.07898
| 43>    C       13.75898        -5.65230         1.78905
| 44>    C       15.11570        -5.44392         2.07475
| 45>    C       15.84907        -6.36524         2.79158
| 46>    C       17.21102        -6.34111         3.16483
| 47>    C       17.61450        -7.44062         3.87228
| 48>    C       16.58742        -8.37949         4.08957
| 49>    S       15.09793        -7.83854         3.37924
| 50>    C       16.59464        -9.60603         4.74619
| 51>    C       17.63318       -10.29765         5.38351
| 52>    C       17.22529       -11.49881         5.89784
| 53>    C       15.85937       -11.80198         5.68891
| 54>    S       15.09127       -10.50707         4.81774
| 55>    C       15.28002       -12.98081         6.12993
| 56>    C       13.97896       -13.48142         6.03789
| 57>    C       12.85645       -12.85046         5.42334
| 58>    C       11.55051       -13.47627         5.39716
| 59>    N       10.50290       -12.80555         4.87372
| 60>    C       10.70770       -11.64491         4.30888
| 61>    C       12.00804       -11.05706         4.26057
| 62>    N       13.02435       -11.66828         4.84999
| 63>    C       12.18530        -9.82121         3.61347
| 64>    N       12.24251        -8.81020         3.06966
| 65>    C        9.61185       -10.95571         3.73115
| 66>    N        8.75293       -10.38006         3.23670
| 67>    C       11.32679       -14.75600         5.91172
| 68>    C       12.42408       -15.40342         6.50496
| 69>    C       13.71979       -14.77557         6.57877
| 70>    N       14.61729       -15.55717         7.16760
| 71>    S       13.91383       -16.95092         7.57601
| 72>    N       12.43327       -16.62916         7.03086
| 73>    C       10.02525       -15.39224         5.80272
| 74>    C        9.29680       -15.41425         4.63033
| 75>    C        9.70880       -14.93961         3.30834
| 76>    O       10.87539       -14.83173         2.99129
| 77>    C        8.57819       -14.59607         2.37264
| 78>    S        7.76687       -16.19870         4.86296
| 79>    C        8.12714       -16.50615         6.50483
| 80>    C        9.34779       -16.02406         6.88925
| 81>    C        9.86798       -16.07886         8.24574
| 82>    C        9.55773       -17.01120         9.13572
| 83>    H        1.79973        -2.72056        -3.33897
| 84>    H        0.50997        -0.66227        -4.16625
| 85>    H       -0.60490        -0.64043        -5.54769
| 86>    H        0.70630        -1.83544        -5.47307
| 87>    H       -0.07281        -5.76586        -0.92469
| 88>    H        2.46069        -5.62111        -0.77485
| 89>    H        3.71178        -3.30587        -2.33183
| 90>    H        5.94173        -2.82904        -1.98199
| 91>    H        6.55780        -7.03393         0.57845
| 92>    H        4.34373        -6.41647        -0.26826
| 93>    H        7.92792        -1.33840        -1.22593
| 94>    H        9.59259        -1.48452        -0.65768
| 95>    H        7.11170        -2.25575         0.94719
| 96>    H        8.10896        -0.82077         1.19658
| 97>    H        8.77603        -2.42641         1.50367
| 98>    H        8.22592        -2.83584        -3.15677
| 99>    H        8.90287        -4.45118        -2.95621
|100>    H       10.50188        -1.85830        -2.69891
|101>    H       10.47167        -2.92695        -4.09641
|102>    H       11.14860        -3.50211        -2.57764
|103>    H       11.42705        -3.16926        -0.30431
|104>    H       11.38826        -6.91810         1.79505
|105>    H        9.02507        -7.20893         1.28982
|106>    H       13.39822        -3.88440         0.69940
|107>    H       13.33623        -6.57144         2.17042
|108>    H       15.60900        -4.54608         1.72586
|109>    H       17.85513        -5.52009         2.90184
|110>    H       18.61473        -7.59503         4.23682
|111>    H       18.63813        -9.91862         5.45095
|112>    H       17.87190       -12.18110         6.42202
|113>    H       15.95994       -13.65341         6.64161
|114>    H        8.02939       -13.74798         2.77953
|115>    H        7.89102       -15.43436         2.28042
|116>    H        8.97561       -14.33245         1.39604
|117>    H        7.40096       -17.00459         7.11611
|118>    H       10.55298       -15.28358         8.50796
|119>    H        8.90300       -17.83178         8.89669
|120>    H        9.96484       -16.99716        10.13176
|121> *
|122>
|123>                          ****END OF INPUT****

CARTESIAN COORDINATES (ANGSTROEM)
---------------------------------
  C      1.014060   -3.320480   -2.918180
  C     -0.305150   -3.163870   -3.249250
  C     -0.947090   -2.231700   -4.170000
  O     -2.146980   -2.232250   -4.341230
  C     -0.021670   -1.277530   -4.888680
  S     -1.312530   -4.297560   -2.395510
  C      0.052540   -4.957130   -1.618820
  C      1.239520   -4.353680   -1.975450
  C      2.512010   -4.767880   -1.436510
  C      3.690570   -4.177400   -1.690140
  C      4.982750   -4.576260   -1.174050
  C      6.085000   -3.743290   -1.422760
  C      7.325590   -4.086920   -0.944960
  C      7.502430   -5.276400   -0.219060
  C      6.424200   -6.116660    0.025490
  C      5.180210   -5.760330   -0.451110
  C      8.887690   -5.374710    0.173640
  C      9.575280   -4.241960   -0.306400
  C      8.646570   -3.365730   -1.118610
  C      8.596580   -1.924430   -0.591560
  C      8.117880   -1.853220    0.854180
  C      8.987850   -3.412200   -2.626800
  C     10.364830   -2.889410   -3.014230
  C     10.896290   -4.055940    0.011330
  C     11.582000   -5.021890    0.776960
  C     10.883790   -6.163860    1.213960
  C      9.548470   -6.337420    0.927220
  C     12.964140   -4.802750    1.078980
  C     13.758980   -5.652300    1.789050
  C     15.115700   -5.443920    2.074750
  C     15.849070   -6.365240    2.791580
  C     17.211020   -6.341110    3.164830
  C     17.614500   -7.440620    3.872280
  C     16.587420   -8.379490    4.089570
  S     15.097930   -7.838540    3.379240
  C     16.594640   -9.606030    4.746190
  C     17.633180  -10.297650    5.383510
  C     17.225290  -11.498810    5.897840
  C     15.859370  -11.801980    5.688910
  S     15.091270  -10.507070    4.817740
  C     15.280020  -12.980810    6.129930
  C     13.978960  -13.481420    6.037890
  C     12.856450  -12.850460    5.423340
  C     11.550510  -13.476270    5.397160
  N     10.502900  -12.805550    4.873720
  C     10.707700  -11.644910    4.308880
  C     12.008040  -11.057060    4.260570
  N     13.024350  -11.668280    4.849990
  C     12.185300   -9.821210    3.613470
  N     12.242510   -8.810200    3.069660
  C      9.611850  -10.955710    3.731150
  N      8.752930  -10.380060    3.236700
  C     11.326790  -14.756000    5.911720
  C     12.424080  -15.403420    6.504960
  C     13.719790  -14.775570    6.578770
  N     14.617290  -15.557170    7.167600
  S     13.913830  -16.950920    7.576010
  N     12.433270  -16.629160    7.030860
  C     10.025250  -15.392240    5.802720
  C      9.296800  -15.414250    4.630330
  C      9.708800  -14.939610    3.308340
  O     10.875390  -14.831730    2.991290
  C      8.578190  -14.596070    2.372640
  S      7.766870  -16.198700    4.862960
  C      8.127140  -16.506150    6.504830
  C      9.347790  -16.024060    6.889250
  C      9.867980  -16.078860    8.245740
  C      9.557730  -17.011200    9.135720
  H      1.799730   -2.720560   -3.338970
  H      0.509970   -0.662270   -4.166250
  H     -0.604900   -0.640430   -5.547690
  H      0.706300   -1.835440   -5.473070
  H     -0.072810   -5.765860   -0.924690
  H      2.460690   -5.621110   -0.774850
  H      3.711780   -3.305870   -2.331830
  H      5.941730   -2.829040   -1.981990
  H      6.557800   -7.033930    0.578450
  H      4.343730   -6.416470   -0.268260
  H      7.927920   -1.338400   -1.225930
  H      9.592590   -1.484520   -0.657680
  H      7.111700   -2.255750    0.947190
  H      8.108960   -0.820770    1.196580
  H      8.776030   -2.426410    1.503670
  H      8.225920   -2.835840   -3.156770
  H      8.902870   -4.451180   -2.956210
  H     10.501880   -1.858300   -2.698910
  H     10.471670   -2.926950   -4.096410
  H     11.148600   -3.502110   -2.577640
  H     11.427050   -3.169260   -0.304310
  H     11.388260   -6.918100    1.795050
  H      9.025070   -7.208930    1.289820
  H     13.398220   -3.884400    0.699400
  H     13.336230   -6.571440    2.170420
  H     15.609000   -4.546080    1.725860
  H     17.855130   -5.520090    2.901840
  H     18.614730   -7.595030    4.236820
  H     18.638130   -9.918620    5.450950
  H     17.871900  -12.181100    6.422020
  H     15.959940  -13.653410    6.641610
  H      8.029390  -13.747980    2.779530
  H      7.891020  -15.434360    2.280420
  H      8.975610  -14.332450    1.396040
  H      7.400960  -17.004590    7.116110
  H     10.552980  -15.283580    8.507960
  H      8.903000  -17.831780    8.896690
  H      9.964840  -16.997160   10.131760

 Total Charge           Charge          ....    0
 Multiplicity           Mult            ....    1
 Number of Electrons    NEL             ....  506
 Basis Dimension        Dim             .... 1162

ORBITAL ENERGIES
----------------

  NO   OCC          E(Eh)            E(eV)
   0   2.0000     -89.009736     -2422.0781
   1   2.0000     -88.955695     -2420.6075
   2   2.0000     -88.953636     -2420.5515
   3   2.0000     -88.952756     -2420.5276
   4   2.0000     -88.947524     -2420.3852
   5   2.0000     -19.197244      -522.3836
   6   2.0000     -19.183486      -522.0092
   7   2.0000     -14.443548      -393.0289
   8   2.0000     -14.428823      -392.6282
   9   2.0000     -14.426572      -392.5670
  10   2.0000     -14.418600      -392.3501
  11   2.0000     -14.416688      -392.2980
  12   2.0000     -14.416190      -392.2845
  13   2.0000     -10.357820      -281.8506
  14   2.0000     -10.355809      -281.7959
  15   2.0000     -10.344661      -281.4925
  16   2.0000     -10.343805      -281.4693
  17   2.0000     -10.327302      -281.0202
  18   2.0000     -10.326180      -280.9897
  19   2.0000     -10.318663      -280.7851
  20   2.0000     -10.316169      -280.7172
  21   2.0000     -10.314736      -280.6782
  22   2.0000     -10.314534      -280.6727
  23   2.0000     -10.312375      -280.6140
  24   2.0000     -10.312348      -280.6133
  25   2.0000     -10.310780      -280.5706
  26   2.0000     -10.304571      -280.4016
  27   2.0000     -10.302553      -280.3467
  28   2.0000     -10.299687      -280.2687
  29   2.0000     -10.296375      -280.1786
  30   2.0000     -10.296175      -280.1732
  31   2.0000     -10.295390      -280.1518
  32   2.0000     -10.293390      -280.0974
  33   2.0000     -10.293167      -280.0913
  34   2.0000     -10.290228      -280.0113
  35   2.0000     -10.283459      -279.8271
  36   2.0000     -10.283204      -279.8202
  37   2.0000     -10.281151      -279.7644
  38   2.0000     -10.280944      -279.7587
  39   2.0000     -10.279879      -279.7297
  40   2.0000     -10.278616      -279.6954
  41   2.0000     -10.277998      -279.6786
  42   2.0000     -10.277859      -279.6748
  43   2.0000     -10.277714      -279.6708
  44   2.0000     -10.276531      -279.6386
  45   2.0000     -10.274830      -279.5923
  46   2.0000     -10.274140      -279.5736
  47   2.0000     -10.273156      -279.5468
  48   2.0000     -10.272527      -279.5297
  49   2.0000     -10.271674      -279.5065
  50   2.0000     -10.270444      -279.4730
  51   2.0000     -10.268330      -279.4155
  52   2.0000     -10.267822      -279.4016
  53   2.0000     -10.266978      -279.3787
  54   2.0000     -10.266848      -279.3751
  55   2.0000     -10.266620      -279.3689
  56   2.0000     -10.266245      -279.3587
  57   2.0000     -10.266195      -279.3574
  58   2.0000     -10.265727      -279.3446
  59   2.0000     -10.265684      -279.3435
  60   2.0000     -10.265110      -279.3278
  61   2.0000     -10.263948      -279.2962
  62   2.0000     -10.263291      -279.2784
  63   2.0000     -10.259979      -279.1882
  64   2.0000     -10.253034      -278.9992
  65   2.0000     -10.252005      -278.9712
  66   2.0000     -10.247160      -278.8394
  67   2.0000     -10.246273      -278.8153
  68   2.0000      -8.101459      -220.4519
  69   2.0000      -8.051305      -219.0872
  70   2.0000      -8.048664      -219.0153
  71   2.0000      -8.046308      -218.9512
  72   2.0000      -8.043230      -218.8674
  73   2.0000      -6.072690      -165.2463
  74   2.0000      -6.065087      -165.0394
  75   2.0000      -6.063727      -165.0024
  76   2.0000      -6.020419      -163.8239
  77   2.0000      -6.018186      -163.7632
  78   2.0000      -6.016160      -163.7080
  79   2.0000      -6.016088      -163.7061
  80   2.0000      -6.013995      -163.6491
  81   2.0000      -6.013927      -163.6473
  82   2.0000      -6.012386      -163.6053
  83   2.0000      -6.011490      -163.5810
  84   2.0000      -6.010002      -163.5405
  85   2.0000      -6.008129      -163.4895
  86   2.0000      -6.007980      -163.4854
  87   2.0000      -6.005777      -163.4255
  88   2.0000      -1.115877       -30.3646
  89   2.0000      -1.110272       -30.2120
  90   2.0000      -1.102774       -30.0080
  91   2.0000      -1.093255       -29.7490
  92   2.0000      -1.023038       -27.8383
  93   2.0000      -1.003035       -27.2940
  94   2.0000      -1.000501       -27.2250
  95   2.0000      -0.990732       -26.9592
  96   2.0000      -0.985851       -26.8264
  97   2.0000      -0.982727       -26.7414
  98   2.0000      -0.978007       -26.6129
  99   2.0000      -0.976070       -26.5602
 100   2.0000      -0.965311       -26.2674
 101   2.0000      -0.948107       -25.7993
 102   2.0000      -0.946043       -25.7431
 103   2.0000      -0.925015       -25.1709
 104   2.0000      -0.909632       -24.7523
 105   2.0000      -0.892790       -24.2940
 106   2.0000      -0.890006       -24.2183
 107   2.0000      -0.882901       -24.0250
 108   2.0000      -0.876090       -23.8396
 109   2.0000      -0.870252       -23.6808
 110   2.0000      -0.863198       -23.4888
 111   2.0000      -0.854039       -23.2396
 112   2.0000      -0.849225       -23.1086
 113   2.0000      -0.844260       -22.9735
 114   2.0000      -0.836909       -22.7735
 115   2.0000      -0.831956       -22.6387
 116   2.0000      -0.830873       -22.6092
 117   2.0000      -0.828454       -22.5434
 118   2.0000      -0.825027       -22.4501
 119   2.0000      -0.821501       -22.3542
 120   2.0000      -0.810445       -22.0533
 121   2.0000      -0.803748       -21.8711
 122   2.0000      -0.801206       -21.8019
 123   2.0000      -0.792999       -21.5786
 124   2.0000      -0.780190       -21.2300
 125   2.0000      -0.777528       -21.1576
 126   2.0000      -0.763876       -20.7861
 127   2.0000      -0.761383       -20.7183
 128   2.0000      -0.739665       -20.1273
 129   2.0000      -0.722887       -19.6707
 130   2.0000      -0.714173       -19.4336
 131   2.0000      -0.712005       -19.3746
 132   2.0000      -0.702600       -19.1187
 133   2.0000      -0.692693       -18.8491
 134   2.0000      -0.691773       -18.8241
 135   2.0000      -0.684185       -18.6176
 136   2.0000      -0.682579       -18.5739
 137   2.0000      -0.681755       -18.5515
 138   2.0000      -0.673791       -18.3348
 139   2.0000      -0.669317       -18.2130
 140   2.0000      -0.663708       -18.0604
 141   2.0000      -0.659508       -17.9461
 142   2.0000      -0.655156       -17.8277
 143   2.0000      -0.646647       -17.5962
 144   2.0000      -0.638060       -17.3625
 145   2.0000      -0.633950       -17.2507
 146   2.0000      -0.628271       -17.0961
 147   2.0000      -0.621938       -16.9238
 148   2.0000      -0.619040       -16.8449
 149   2.0000      -0.612297       -16.6615
 150   2.0000      -0.610312       -16.6074
 151   2.0000      -0.604778       -16.4569
 152   2.0000      -0.598461       -16.2849
 153   2.0000      -0.590577       -16.0704
 154   2.0000      -0.589011       -16.0278
 155   2.0000      -0.576616       -15.6905
 156   2.0000      -0.575721       -15.6662
 157   2.0000      -0.569470       -15.4961
 158   2.0000      -0.567111       -15.4319
 159   2.0000      -0.562606       -15.3093
 160   2.0000      -0.560473       -15.2512
 161   2.0000      -0.551852       -15.0167
 162   2.0000      -0.550878       -14.9902
 163   2.0000      -0.541270       -14.7287
 164   2.0000      -0.538570       -14.6552
 165   2.0000      -0.536826       -14.6078
 166   2.0000      -0.532091       -14.4789
 167   2.0000      -0.530627       -14.4391
 168   2.0000      -0.527330       -14.3494
 169   2.0000      -0.526492       -14.3266
 170   2.0000      -0.523072       -14.2335
 171   2.0000      -0.520989       -14.1768
 172   2.0000      -0.517294       -14.0763
 173   2.0000      -0.514441       -13.9986
 174   2.0000      -0.512773       -13.9533
 175   2.0000      -0.512399       -13.9431
 176   2.0000      -0.510656       -13.8957
 177   2.0000      -0.505675       -13.7601
 178   2.0000      -0.505105       -13.7446
 179   2.0000      -0.504255       -13.7215
 180   2.0000      -0.503365       -13.6972
 181   2.0000      -0.500500       -13.6193
 182   2.0000      -0.496886       -13.5210
 183   2.0000      -0.493602       -13.4316
 184   2.0000      -0.491030       -13.3616
 185   2.0000      -0.482493       -13.1293
 186   2.0000      -0.480879       -13.0854
 187   2.0000      -0.478737       -13.0271
 188   2.0000      -0.477527       -12.9942
 189   2.0000      -0.476226       -12.9588
 190   2.0000      -0.475578       -12.9411
 191   2.0000      -0.471774       -12.8376
 192   2.0000      -0.469086       -12.7645
 193   2.0000      -0.466481       -12.6936
 194   2.0000      -0.465380       -12.6636
 195   2.0000      -0.464933       -12.6515
 196   2.0000      -0.460461       -12.5298
 197   2.0000      -0.458284       -12.4705
 198   2.0000      -0.455603       -12.3976
 199   2.0000      -0.455328       -12.3901
 200   2.0000      -0.454574       -12.3696
 201   2.0000      -0.452226       -12.3057
 202   2.0000      -0.451044       -12.2735
 203   2.0000      -0.450329       -12.2541
 204   2.0000      -0.447743       -12.1837
 205   2.0000      -0.444702       -12.1010
 206   2.0000      -0.444193       -12.0871
 207   2.0000      -0.442384       -12.0379
 208   2.0000      -0.440582       -11.9888
 209   2.0000      -0.439953       -11.9717
 210   2.0000      -0.436324       -11.8730
 211   2.0000      -0.433784       -11.8039
 212   2.0000      -0.431723       -11.7478
 213   2.0000      -0.430059       -11.7025
 214   2.0000      -0.428686       -11.6651
 215   2.0000      -0.423254       -11.5173
 216   2.0000      -0.422415       -11.4945
 217   2.0000      -0.419857       -11.4249
 218   2.0000      -0.418146       -11.3783
 219   2.0000      -0.415949       -11.3185
 220   2.0000      -0.414749       -11.2859
 221   2.0000      -0.411394       -11.1946
 222   2.0000      -0.409679       -11.1479
 223   2.0000      -0.402189       -10.9441
 224   2.0000      -0.401777       -10.9329
 225   2.0000      -0.399118       -10.8605
 226   2.0000      -0.394728       -10.7411
 227   2.0000      -0.390505       -10.6262
 228   2.0000      -0.388660       -10.5760
 229   2.0000      -0.384765       -10.4700
 230   2.0000      -0.383416       -10.4333
 231   2.0000      -0.378699       -10.3049
 232   2.0000      -0.372089       -10.1250
 233   2.0000      -0.367933       -10.0120
 234   2.0000      -0.362869        -9.8742
 235   2.0000      -0.350762        -9.5447
 236   2.0000      -0.342576        -9.3220
 237   2.0000      -0.340519        -9.2660
 238   2.0000      -0.328080        -8.9275
 239   2.0000      -0.326281        -8.8786
 240   2.0000      -0.323688        -8.8080
 241   2.0000      -0.323114        -8.7924
 242   2.0000      -0.320994        -8.7347
 243   2.0000      -0.318974        -8.6797
 244   2.0000      -0.318302        -8.6614
 245   2.0000      -0.312064        -8.4917
 246   2.0000      -0.309773        -8.4293
 247   2.0000      -0.301918        -8.2156
 248   2.0000      -0.291779        -7.9397
 249   2.0000      -0.275543        -7.4979
 250   2.0000      -0.266376        -7.2485
 251   2.0000      -0.245973        -6.6933
 252   2.0000      -0.206812        -5.6276
 253   0.0000      -0.111544        -3.0353
 254   0.0000      -0.064898        -1.7660
 255   0.0000      -0.032704        -0.8899
 256   0.0000      -0.030048        -0.8176
 257   0.0000      -0.021123        -0.5748

MULLIKEN ATOMIC CHARGES
-----------------------
   0 C :    0.009311
   1 C :   -0.162022
   2 C :    0.023754
   3 O :   -0.182279
   4 C :    0.038224
   5 S :    0.179637
   6 C :   -0.121180
   7 C :    0.105975
   8 C :    0.028683
   9 C :   -0.005094
  10 C :    0.135037
  11 C :   -0.115652
  12 C :    0.027189
  13 C :    0.091431
  14 C :   -0.038073
  15 C :   -0.020114
  16 C :    0.112311
  17 C :    0.023904
  18 C :   -0.128368
  19 C :    0.051508
  20 C :    0.025654
  21 C :    0.077970
  22 C :    0.028303
  23 C :   -0.109971
  24 C :    0.120680
  25 C :    0.000837
  26 C :   -0.052697
  27 C :    0.011577
  28 C :   -0.013286
  29 C :    0.041396
  30 C :   -0.039767
  31 C :    0.056298
  32 C :    0.014231
  33 C :   -0.018597
  34 S :    0.100711
  35 C :   -0.031138
  36 C :    0.041383
  37 C :    0.010429
  38 C :    0.042108
  39 S :    0.116458
  40 C :   -0.139985
  41 C :    0.108447
  42 C :   -0.016907
  43 C :   -0.025115
  44 N :    0.037255
  45 C :   -0.126426
  46 C :   -0.085906
  47 N :   -0.026304
  48 C :   -0.219431
  49 N :    0.192277
  50 C :   -0.230853
  51 N :    0.220968
  52 C :    0.010359
  53 C :   -0.013405
  54 C :   -0.014994
  55 N :   -0.277499
  56 S :    0.492579
  57 N :   -0.260223
  58 C :    0.057080
  59 C :   -0.168229
  60 C :    0.032985
  61 O :   -0.201629
  62 C :    0.015896
  63 S :    0.115973
  64 C :   -0.138791
  65 C :    0.099282
  66 C :    0.021445
  67 C :   -0.024088
  68 H :   -0.014006
  69 H :    0.037667
  70 H :    0.032823
  71 H :    0.038500
  72 H :    0.024596
  73 H :   -0.025630
  74 H :   -0.035134
  75 H :   -0.046108
  76 H :   -0.023677
  77 H :   -0.029385
  78 H :   -0.003413
  79 H :    0.003647
  80 H :    0.022396
  81 H :    0.007483
  82 H :    0.020855
  83 H :   -0.005132
  84 H :    0.007094
  85 H :    0.002472
  86 H :    0.013860
  87 H :    0.018341
  88 H :   -0.038939
  89 H :   -0.025619
  90 H :   -0.017522
  91 H :   -0.022121
  92 H :    0.042702
  93 H :   -0.008254
  94 H :   -0.005594
  95 H :   -0.010427
  96 H :   -0.016907
  97 H :   -0.009451
  98 H :   -0.001857
  99 H :    0.051808
 100 H :    0.036476
 101 H :    0.028358
 102 H :    0.019730
 103 H :   -0.001730
 104 H :    0.007199
 105 H :    0.013377
Sum of atomic charges:   -0.0000000

LOEWDIN ATOMIC CHARGES
----------------------
   0 C :   -0.028524
   1 C :   -0.220311
   2 C :    0.056606
   3 O :   -0.156364
   4 C :   -0.076010
   5 S :    0.484717
   6 C :   -0.171673
   7 C :   -0.069948
   8 C :   -0.016504
   9 C :   -0.023122
  10 C :   -0.019056
  11 C :   -0.025411
  12 C :    0.007923
  13 C :   -0.022635
  14 C :   -0.009336
  15 C :   -0.015941
  16 C :    0.000400
  17 C :   -0.003218
  18 C :   -0.034108
  19 C :   -0.015929
  20 C :   -0.056352
  21 C :   -0.009506
  22 C :   -0.060037
  23 C :   -0.013823
  24 C :   -0.040060
  25 C :    0.008137
  26 C :   -0.013842
  27 C :    0.030495
  28 C :   -0.047862
  29 C :    0.004232
  30 C :   -0.167339
  31 C :   -0.007426
  32 C :   -0.046837
  33 C :   -0.139380
  34 S :    0.442468
  35 C :   -0.219310
  36 C :   -0.020697
  37 C :   -0.046796
  38 C :   -0.123766
  39 S :    0.475365
  40 C :   -0.046130
  41 C :   -0.020015
  42 C :   -0.004165
  43 C :    0.013346
  44 N :   -0.019276
  45 C :   -0.021024
  46 C :   -0.078250
  47 N :   -0.028763
  48 C :   -0.024411
  49 N :   -0.062054
  50 C :   -0.025291
  51 N :   -0.033010
  52 C :   -0.070436
  53 C :   -0.038549
  54 C :   -0.048601
  55 N :   -0.283879
  56 S :    0.627712
  57 N :   -0.287596
  58 C :   -0.010190
  59 C :   -0.214529
  60 C :    0.066320
  61 O :   -0.162990
  62 C :   -0.082687
  63 S :    0.453073
  64 C :   -0.172710
  65 C :   -0.051558
  66 C :   -0.010215
  67 C :   -0.049840
  68 H :    0.028016
  69 H :    0.041631
  70 H :    0.039953
  71 H :    0.041645
  72 H :    0.024215
  73 H :    0.027529
  74 H :    0.022830
  75 H :    0.021407
  76 H :    0.031866
  77 H :    0.025535
  78 H :    0.019510
  79 H :    0.018650
  80 H :    0.025906
  81 H :    0.023204
  82 H :    0.025783
  83 H :    0.019298
  84 H :    0.027532
  85 H :    0.019303
  86 H :    0.027892
  87 H :    0.023522
  88 H :    0.022600
  89 H :    0.029952
  90 H :    0.034905
  91 H :    0.028604
  92 H :    0.027303
  93 H :    0.036071
  94 H :    0.036216
  95 H :    0.033260
  96 H :    0.030173
  97 H :    0.033156
  98 H :    0.041907
  99 H :    0.047216
 100 H :    0.032424
 101 H :    0.036505
 102 H :    0.022677
 103 H :    0.028257
 104 H :    0.018285
 105 H :    0.021761

  Mayer bond orders larger than 0.100000
B(  0-C ,  1-C ) :   1.5397 B(  0-C ,  7-C ) :   1.2388 B(  0-C , 68-H ) :   0.9837
B(  1-C ,  2-C ) :   0.9574 B(  1-C ,  5-S ) :   1.1362 B(  2-C ,  3-O ) :   2.2095
B(  2-C ,  4-C ) :   1.0688 B(  4-C , 69-H ) :   0.9451 B(  4-C , 70-H ) :   0.9483
B(  4-C , 71-H ) :   0.9452 B(  5-S ,  6-C ) :   1.1966 B(  6-C ,  7-C ) :   1.4905
B(  6-C , 72-H ) :   0.9703 B(  7-C ,  8-C ) :   1.0770 B(  8-C ,  9-C ) :   1.7152
B(  8-C , 73-H ) :   0.9764 B(  9-C , 10-C ) :   1.0625 B(  9-C , 74-H ) :   0.9795
B( 10-C , 11-C ) :   1.2904 B( 10-C , 15-C ) :   1.3456 B( 11-C , 12-C ) :   1.3729
B( 11-C , 75-H ) :   1.0100 B( 12-C , 13-C ) :   1.3801 B( 12-C , 18-C ) :   0.9245
B( 13-C , 14-C ) :   1.3261 B( 13-C , 16-C ) :   1.0066 B( 14-C , 15-C ) :   1.4030
B( 14-C , 76-H ) :   0.9903 B( 15-C , 77-H ) :   0.9851 B( 16-C , 17-C ) :   1.3706
B( 16-C , 26-C ) :   1.3049 B( 17-C , 18-C ) :   0.9186 B( 17-C , 23-C ) :   1.3969
B( 18-C , 19-C ) :   1.0298 B( 18-C , 21-C ) :   1.0142 B( 19-C , 20-C ) :   1.1055
B( 19-C , 78-H ) :   0.9391 B( 19-C , 79-H ) :   0.9385 B( 20-C , 80-H ) :   0.9628
B( 20-C , 81-H ) :   0.9646 B( 20-C , 82-H ) :   0.9652 B( 21-C , 22-C ) :   1.1150
B( 21-C , 83-H ) :   0.9365 B( 21-C , 84-H ) :   0.9391 B( 22-C , 85-H ) :   0.9630
B( 22-C , 86-H ) :   0.9598 B( 22-C , 87-H ) :   0.9605 B( 23-C , 24-C ) :   1.2527
B( 23-C , 88-H ) :   1.0055 B( 24-C , 25-C ) :   1.3098 B( 24-C , 27-C ) :   1.0987
B( 25-C , 26-C ) :   1.4272 B( 25-C , 89-H ) :   0.9784 B( 26-C , 90-H ) :   0.9940
B( 27-C , 28-C ) :   1.5889 B( 27-C , 91-H ) :   0.9929 B( 28-C , 29-C ) :   1.1860
B( 28-C , 92-H ) :   0.9566 B( 29-C , 30-C ) :   1.4983 B( 29-C , 93-H ) :   0.9896
B( 30-C , 31-C ) :   1.1756 B( 30-C , 34-S ) :   1.0392 B( 31-C , 32-C ) :   1.5363
B( 31-C , 94-H ) :   0.9982 B( 32-C , 33-C ) :   1.2314 B( 32-C , 95-H ) :   0.9965
B( 33-C , 34-S ) :   1.1177 B( 33-C , 35-C ) :   1.3798 B( 35-C , 36-C ) :   1.2643
B( 35-C , 39-S ) :   1.0057 B( 36-C , 37-C ) :   1.4876 B( 36-C , 96-H ) :   0.9950
B( 37-C , 38-C ) :   1.2290 B( 37-C , 97-H ) :   1.0020 B( 38-C , 39-S ) :   1.1108
B( 38-C , 40-C ) :   1.3395 B( 39-S , 47-N ) :   0.1112 B( 40-C , 41-C ) :   1.3907
B( 40-C , 98-H ) :   0.9551 B( 41-C , 42-C ) :   1.1159 B( 41-C , 52-C ) :   0.1065
B( 41-C , 54-C ) :   1.1191 B( 42-C , 43-C ) :   1.0733 B( 42-C , 47-N ) :   1.4903
B( 43-C , 44-N ) :   1.4173 B( 43-C , 52-C ) :   1.4011 B( 44-N , 45-C ) :   1.7133
B( 45-C , 46-C ) :   1.2530 B( 45-C , 50-C ) :   1.1744 B( 46-C , 47-N ) :   1.5301
B( 46-C , 48-C ) :   1.1512 B( 48-C , 49-N ) :   2.9234 B( 50-C , 51-N ) :   3.0366
B( 52-C , 53-C ) :   1.2380 B( 52-C , 58-C ) :   0.9555 B( 53-C , 54-C ) :   1.1042
B( 53-C , 57-N ) :   1.5626 B( 54-C , 55-N ) :   1.5847 B( 55-N , 56-S ) :   1.2491
B( 55-N , 57-N ) :   0.1378 B( 56-S , 57-N ) :   1.2385 B( 58-C , 59-C ) :   1.5469
B( 58-C , 65-C ) :   1.2847 B( 59-C , 60-C ) :   0.9544 B( 59-C , 63-S ) :   1.1147
B( 60-C , 61-O ) :   2.1589 B( 60-C , 62-C ) :   1.0461 B( 62-C , 99-H ) :   0.9509
B( 62-C ,100-H ) :   0.9451 B( 62-C ,101-H ) :   0.9497 B( 63-S , 64-C ) :   1.1797
B( 64-C , 65-C ) :   1.5115 B( 64-C ,102-H ) :   0.9638 B( 65-C , 66-C ) :   1.0525
B( 66-C , 67-C ) :   1.9831 B( 66-C ,103-H ) :   0.9463 B( 67-C ,104-H ) :   0.9564
B( 67-C ,105-H ) :   0.9482

-----------------------------------------------------------------------------
         ABSORPTION SPECTRUM VIA TRANSITION ELECTRIC DIPOLE MOMENTS
-----------------------------------------------------------------------------
State   Energy  Wavelength   fosc         T2         TX        TY        TZ
        (cm-1)    (nm)                  (au**2)     (au)      (au)      (au)
-----------------------------------------------------------------------------
   0    6701.1   1492.3   0.392626236  19.28910   0.60248   3.92869  -1.86855
   1   15910.9    628.5   0.023203616   0.48010  -0.20748   0.56387  -0.34512
   2   16546.3    604.4   0.984598830  19.58999   3.70133  -1.54087   1.87507
   3   21335.6    468.7   0.181722683   2.80401  -1.62804   0.11552  -0.37439
   4   21660.5    461.7   0.206326805   3.13590  -0.44896  -1.58893   0.64004
   5   22074.2    453.0   0.031312295   0.46699  -0.28780  -0.60415   0.13843
   6   22476.9    444.9   0.222355345   3.25677  -1.65778  -0.59353  -0.39529
   7   24674.7    405.3   0.005753281   0.07676   0.20199  -0.16702  -0.08981
   8   25452.9    392.9   0.009532118   0.12329  -0.31768   0.04551  -0.14247
   9   26174.9    382.0   0.415598096   5.22714   2.15964  -0.16763   0.73142
  10   26344.5    379.6   0.293681315   3.66996   1.84731   0.43985   0.25289
  11   26759.0    373.7   0.158610416   1.95136   1.30518  -0.31388   0.38645
  12   27243.8    367.1   0.038414628   0.46420  -0.42963   0.19208  -0.49267
  13   28146.1    355.3   0.217386901   2.54267  -1.56204  -0.09088  -0.30732
  14   29325.4    341.0   0.137824338   1.54724  -0.23736  -1.13156   0.45877
  15   30080.2    332.4   0.030185823   0.33037   0.44275  -0.23398   0.28212
  16   30509.9    327.8   0.276357160   2.98199  -1.35354   0.78060  -0.73525
  17   31018.0    322.4   0.010337127   0.10971   0.28341   0.14775  -0.08696
  18   31031.2    322.3   0.008998436   0.09546  -0.16750  -0.21544   0.14489
  19   32025.3    312.3   0.005395976   0.05547  -0.18805   0.07987  -0.11716
  20   32432.7    308.3   0.072928114   0.74027  -0.84640  -0.07054  -0.13748
  21   32727.1    305.6   0.028420946   0.28590  -0.50502  -0.17520   0.01231
  22   32912.7    303.8   0.057885989   0.57901   0.25700  -0.58575   0.41213
  23   33060.1    302.5   0.010022440   0.09980   0.20103   0.20914   0.12510
  24   33210.7    301.1   0.354408797   3.51320   0.42907   1.66966  -0.73576
  25   33847.2    295.4   0.147005826   1.42984  -0.30624   1.08462  -0.39957
  26   34048.2    293.7   0.132964388   1.28563  -1.06651  -0.37998  -0.06166
  27   34530.2    289.6   0.074260755   0.70800   0.57275  -0.51200   0.34324
  28   34892.7    286.6   0.000260597   0.00246   0.01826  -0.03703  -0.02746
  29   34996.0    285.7   0.064132666   0.60330   0.54898  -0.53419   0.12873
  30   35444.5    282.1   0.041956080   0.38969  -0.16289   0.48671  -0.35535
  31   35700.1    280.1   0.151585994   1.39786  -0.76967   0.65977  -0.60843
  32   35726.2    279.9   0.021098595   0.19442   0.31182  -0.23691   0.20264
  33   35785.2    279.4   0.128020075   1.17774  -0.79795   0.52988  -0.51014
  34   35884.9    278.7   0.054895734   0.50362   0.46861   0.38775  -0.36561
  35   36011.6    277.7   0.166913577   1.52590  -1.18661   0.19618  -0.28173
  36   36346.6    275.1   0.090567702   0.82032   0.56176  -0.46873   0.53389
  37   36942.9    270.7   0.033977906   0.30279   0.43534  -0.26000   0.21370
  38   37092.1    269.6   0.009438800   0.08377   0.28686   0.03792  -0.00711
  39   37531.7    266.4   0.003602762   0.03160   0.07654   0.16036   0.00535
  40   37720.3    265.1   0.075552936   0.65940  -0.03181   0.73061  -0.35300
  41   38110.1    262.4   0.009813267   0.08477   0.16044   0.19103  -0.15013
  42   38404.6    260.4   0.018794873   0.16111   0.21822  -0.32964   0.06954
  43   38608.9    259.0   0.002951285   0.02517  -0.15723  -0.00011  -0.02105
  44   39028.5    256.2   0.037799655   0.31885   0.47473   0.30569   0.00510
  45   39164.7    255.3   0.061100975   0.51360  -0.42786  -0.56819   0.08774
  46   39294.4    254.5   0.005847260   0.04899  -0.20985  -0.03415  -0.06155
  47   39398.4    253.8   0.075094055   0.62748   0.68501   0.39125  -0.07192
  48   39512.0    253.1   0.000322182   0.00268  -0.04796  -0.01951  -0.00176
  49   39709.9    251.8   0.042399076   0.35151   0.46937  -0.28652   0.22161
  50   40063.6    249.6   0.025475312   0.20934   0.21640  -0.36051   0.18038
  51   40235.5    248.5   0.025769411   0.21085   0.06576   0.45432   0.01099

FINAL SINGLE POINT ENERGY     -4584.617034869171

DIPOLE MOMENT
-------------
                                X             Y             Z
Electronic contribution:     32.85775     -85.54730      54.56478
Nuclear contribution   :    -29.77211      87.55305     -54.35413
                        -----------------------------------------
Total Dipole Moment    :      3.08564       2.00575       0.21064
                        -----------------------------------------
Magnitude (a.u.)       :      3.68627
Magnitude (Debye)      :      9.36975

Rotational constants in cm-1:     0.001158     0.000348     0.000273
Rotational constants in MHz :    34.704497    10.421091     8.170406

                             ****ORCA TERMINATED NORMALLY****
TOTAL RUN TIME: 0 days 0 hours 10 minutes 34 seconds 348 msec
