                         Program Version 4.2.0 -  RELEASE  -
|  1> # ORCA input file
|  2> # SCF done       -204.578174355402          0.000394486567
|  3> ! CAM-B3LYP def2-SVP def2/J RIJCOSX Grid4 TightSCF
|  4> %maxcore 5000
|  5> %tddft
|  6>     Mode sTDDFT
|  7>     Ethresh 5.0
|  8>     maxcore 5000
|  9> end
| 10>
| 11> %pal
| 12>   nprocs 6
| 13>   end
| 14> * xyz 0 1
| 15>    C        0.50084         9.95396        -6.59830
| 16>    S        0.74795         9.84968        -4.90642
| 17>    C        2.37434         9.25364        -5.14906
| 18>    C        2.66853         9.16021        -6.49753
| 19>    C        1.58930         9.55923        -7.32010
| 20>    C        1.66989         9.56508        -8.81492
| 21>    C        2.83094         8.69504        -9.29411
| 22>    C        4.12710         9.02332        -8.52853
| 23>    N        4.55521        10.40791        -8.62179
| 24>    C        3.96213         8.65598        -7.05011
| 25>    C        3.22217         8.92220        -4.06312
| 26>    C        2.87792         9.00261        -2.75638
| 27>    C        3.78018         8.65357        -1.71896
| 28>    O        3.38158         8.74019        -0.41944
| 29>    C        5.08838         8.20707        -1.74130
| 30>    C        6.20627         7.84575        -2.60560
| 31>    O        6.31463         7.84258        -3.80869
| 32>    N        7.20822         7.46872        -1.71417
| 33>    C        6.86405         7.54211        -0.36430
| 34>    O        7.59189         7.25536         0.55178
| 35>    C        5.48367         8.02341        -0.38936
| 36>    C        4.40461         8.35931         0.39820
| 37>    C        4.25639         8.34101         1.81420
| 38>    C        3.11089         8.67209         2.44211
| 39>    C        2.91997         8.58997         3.87194
| 40>    C        3.60937         7.64843         4.58511
| 41>    S        3.23142         7.58150         6.25236
| 42>    C        2.10595         8.88534         6.04115
| 43>    C        2.02248         9.35219         4.71884
| 44>    C        1.14131        10.42933         4.43862
| 45>    C        1.11438        11.01153         3.04896
| 46>    C        2.41894        11.74748         2.73369
| 47>    C        0.34945        10.97005         5.44696
| 48>    C       -0.68390        12.02902         5.15751
| 49>    C       -0.09488        13.44157         5.17437
| 50>    C        0.46894        10.50956         6.78063
| 51>    C       -0.22697        10.90388         7.98745
| 52>    C        0.11930        10.10902         9.04863
| 53>    S        1.30437         8.92411         8.70564
| 54>    C        1.34124         9.44632         7.04884
| 55>    C       -1.12634        12.01064         8.19169
| 56>    C       -2.16958        11.96783         9.05963
| 57>    C       -3.00560        13.06718         9.33497
| 58>    C       -4.08120        13.01713        10.18277
| 59>    C       -4.95700        14.07642        10.52671
| 60>    C       -5.94238        13.72648        11.39849
| 61>    C       -5.90480        12.36789        11.78932
| 62>    S       -4.57091        11.54935        11.02298
| 63>    C       -6.77258        11.70805        12.64349
| 64>    C       -7.88734        12.23672        13.32509
| 65>    C       -8.55182        11.31764        14.08483
| 66>    C       -7.99802        10.01982        14.03627
| 67>    S       -6.58946        10.00485        13.00669
| 68>    C       -8.46928         8.90094        14.70051
| 69>    C       -7.90376         7.64012        14.57679
| 70>    C       -8.28270         6.46805        15.20237
| 71>    C       -7.87517         5.17732        14.61000
| 72>    O       -7.06224         5.00070        13.72687
| 73>    C       -8.70745         4.15558        15.28311
| 74>    C       -8.79294         2.81735        15.03586
| 75>    C       -9.70076         2.03628        15.78756
| 76>    C      -10.50464         2.66495        16.78098
| 77>    C      -11.41445         1.88384        17.52047
| 78>    C      -11.51965         0.54132        17.28625
| 79>    C      -10.72342        -0.07923        16.30491
| 80>    C       -9.83181         0.65137        15.57034
| 81>    F      -10.84809        -1.39908        16.09432
| 82>    F      -12.38718        -0.20002        17.99220
| 83>    C      -10.38590         4.05463        17.02035
| 84>    C       -9.49597         4.78855        16.28504
| 85>    C       -9.14188         6.21016        16.32179
| 86>    C       -9.43468         7.06011        17.36535
| 87>    C       -8.85368         8.32933        17.54862
| 88>    N       -8.38080         9.35040        17.78134
| 89>    C      -10.27277         6.71870        18.44330
| 90>    N      -10.96733         6.50569        19.33369
| 91>    H       -0.44203        10.30251        -6.97219
| 92>    H        1.80907        10.59513        -9.16214
| 93>    H        0.72886         9.21132        -9.24192
| 94>    H        2.98345         8.84661       -10.36529
| 95>    H        2.59091         7.64231        -9.13444
| 96>    H        4.94077         8.41899        -8.94884
| 97>    H        3.89055        11.01757        -8.15865
| 98>    H        4.63270        10.69651        -9.59044
| 99>    H        4.80477         9.06636        -6.49168
|100>    H        3.99512         7.56833        -6.94016
|101>    H        4.21385         8.57720        -4.32301
|102>    H        1.89436         9.33519        -2.45566
|103>    H        8.11880         7.16071        -2.02376
|104>    H        5.14599         8.05203         2.35329
|105>    H        2.27650         8.97274         1.82931
|106>    H        4.30811         6.93732         4.19038
|107>    H        0.94054        10.22261         2.31784
|108>    H        0.29678        11.71889         2.94047
|109>    H        3.27467        11.08055         2.79147
|110>    H        2.57369        12.55776         3.44288
|111>    H        2.37764        12.16729         1.73112
|112>    H       -1.47462        11.94928         5.90467
|113>    H       -1.15662        11.84449         4.19187
|114>    H        0.47201        13.61344         6.08713
|115>    H       -0.88841        14.18329         5.10871
|116>    H        0.57944        13.58913         4.33540
|117>    H       -0.22758        10.21257        10.05837
|118>    H       -0.92198        12.93584         7.67424
|119>    H       -2.40725        11.03842         9.56070
|120>    H       -2.78946        14.01269         8.85441
|121>    H       -4.82758        15.06348        10.11889
|122>    H       -6.69238        14.40235        11.76750
|123>    H       -8.17242        13.26992        13.24083
|124>    H       -9.41992        11.53271        14.68176
|125>    H       -9.34633         9.04307        15.31454
|126>    H       -7.12305         7.51767        13.83101
|127>    H       -8.17813         2.35875        14.27636
|128>    H      -12.02992         2.34312        18.27820
|129>    H       -9.22907         0.16135        14.82176
|130>    H      -11.01148         4.50256        17.77563
|131> *
|132>
|133>                          ****END OF INPUT****

CARTESIAN COORDINATES (ANGSTROEM)
---------------------------------
  C      0.500840    9.953960   -6.598300
  S      0.747950    9.849680   -4.906420
  C      2.374340    9.253640   -5.149060
  C      2.668530    9.160210   -6.497530
  C      1.589300    9.559230   -7.320100
  C      1.669890    9.565080   -8.814920
  C      2.830940    8.695040   -9.294110
  C      4.127100    9.023320   -8.528530
  N      4.555210   10.407910   -8.621790
  C      3.962130    8.655980   -7.050110
  C      3.222170    8.922200   -4.063120
  C      2.877920    9.002610   -2.756380
  C      3.780180    8.653570   -1.718960
  O      3.381580    8.740190   -0.419440
  C      5.088380    8.207070   -1.741300
  C      6.206270    7.845750   -2.605600
  O      6.314630    7.842580   -3.808690
  N      7.208220    7.468720   -1.714170
  C      6.864050    7.542110   -0.364300
  O      7.591890    7.255360    0.551780
  C      5.483670    8.023410   -0.389360
  C      4.404610    8.359310    0.398200
  C      4.256390    8.341010    1.814200
  C      3.110890    8.672090    2.442110
  C      2.919970    8.589970    3.871940
  C      3.609370    7.648430    4.585110
  S      3.231420    7.581500    6.252360
  C      2.105950    8.885340    6.041150
  C      2.022480    9.352190    4.718840
  C      1.141310   10.429330    4.438620
  C      1.114380   11.011530    3.048960
  C      2.418940   11.747480    2.733690
  C      0.349450   10.970050    5.446960
  C     -0.683900   12.029020    5.157510
  C     -0.094880   13.441570    5.174370
  C      0.468940   10.509560    6.780630
  C     -0.226970   10.903880    7.987450
  C      0.119300   10.109020    9.048630
  S      1.304370    8.924110    8.705640
  C      1.341240    9.446320    7.048840
  C     -1.126340   12.010640    8.191690
  C     -2.169580   11.967830    9.059630
  C     -3.005600   13.067180    9.334970
  C     -4.081200   13.017130   10.182770
  C     -4.957000   14.076420   10.526710
  C     -5.942380   13.726480   11.398490
  C     -5.904800   12.367890   11.789320
  S     -4.570910   11.549350   11.022980
  C     -6.772580   11.708050   12.643490
  C     -7.887340   12.236720   13.325090
  C     -8.551820   11.317640   14.084830
  C     -7.998020   10.019820   14.036270
  S     -6.589460   10.004850   13.006690
  C     -8.469280    8.900940   14.700510
  C     -7.903760    7.640120   14.576790
  C     -8.282700    6.468050   15.202370
  C     -7.875170    5.177320   14.610000
  O     -7.062240    5.000700   13.726870
  C     -8.707450    4.155580   15.283110
  C     -8.792940    2.817350   15.035860
  C     -9.700760    2.036280   15.787560
  C    -10.504640    2.664950   16.780980
  C    -11.414450    1.883840   17.520470
  C    -11.519650    0.541320   17.286250
  C    -10.723420   -0.079230   16.304910
  C     -9.831810    0.651370   15.570340
  F    -10.848090   -1.399080   16.094320
  F    -12.387180   -0.200020   17.992200
  C    -10.385900    4.054630   17.020350
  C     -9.495970    4.788550   16.285040
  C     -9.141880    6.210160   16.321790
  C     -9.434680    7.060110   17.365350
  C     -8.853680    8.329330   17.548620
  N     -8.380800    9.350400   17.781340
  C    -10.272770    6.718700   18.443300
  N    -10.967330    6.505690   19.333690
  H     -0.442030   10.302510   -6.972190
  H      1.809070   10.595130   -9.162140
  H      0.728860    9.211320   -9.241920
  H      2.983450    8.846610  -10.365290
  H      2.590910    7.642310   -9.134440
  H      4.940770    8.418990   -8.948840
  H      3.890550   11.017570   -8.158650
  H      4.632700   10.696510   -9.590440
  H      4.804770    9.066360   -6.491680
  H      3.995120    7.568330   -6.940160
  H      4.213850    8.577200   -4.323010
  H      1.894360    9.335190   -2.455660
  H      8.118800    7.160710   -2.023760
  H      5.145990    8.052030    2.353290
  H      2.276500    8.972740    1.829310
  H      4.308110    6.937320    4.190380
  H      0.940540   10.222610    2.317840
  H      0.296780   11.718890    2.940470
  H      3.274670   11.080550    2.791470
  H      2.573690   12.557760    3.442880
  H      2.377640   12.167290    1.731120
  H     -1.474620   11.949280    5.904670
  H     -1.156620   11.844490    4.191870
  H      0.472010   13.613440    6.087130
  H     -0.888410   14.183290    5.108710
  H      0.579440   13.589130    4.335400
  H     -0.227580   10.212570   10.058370
  H     -0.921980   12.935840    7.674240
  H     -2.407250   11.038420    9.560700
  H     -2.789460   14.012690    8.854410
  H     -4.827580   15.063480   10.118890
  H     -6.692380   14.402350   11.767500
  H     -8.172420   13.269920   13.240830
  H     -9.419920   11.532710   14.681760
  H     -9.346330    9.043070   15.314540
  H     -7.123050    7.517670   13.831010
  H     -8.178130    2.358750   14.276360
  H    -12.029920    2.343120   18.278200
  H     -9.229070    0.161350   14.821760
  H    -11.011480    4.502560   17.775630

 Total Charge           Charge          ....    0
 Multiplicity           Mult            ....    1
 Number of Electrons    NEL             ....  564
 Basis Dimension        Dim             .... 1284

ORBITAL ENERGIES
----------------

  NO   OCC          E(Eh)            E(eV)
   0   2.0000     -88.965411     -2420.8719
   1   2.0000     -88.963003     -2420.8064
   2   2.0000     -88.960685     -2420.7433
   3   2.0000     -88.959653     -2420.7152
   4   2.0000     -88.950940     -2420.4781
   5   2.0000     -24.785540      -674.4488
   6   2.0000     -24.784656      -674.4248
   7   2.0000     -19.303650      -525.2790
   8   2.0000     -19.205849      -522.6177
   9   2.0000     -19.202833      -522.5357
  10   2.0000     -19.194083      -522.2976
  11   2.0000     -14.447737      -393.1429
  12   2.0000     -14.397786      -391.7837
  13   2.0000     -14.395709      -391.7272
  14   2.0000     -14.378500      -391.2589
  15   2.0000     -10.393480      -282.8210
  16   2.0000     -10.392224      -282.7868
  17   2.0000     -10.367261      -282.1075
  18   2.0000     -10.366695      -282.0921
  19   2.0000     -10.355971      -281.8003
  20   2.0000     -10.352005      -281.6924
  21   2.0000     -10.345450      -281.5140
  22   2.0000     -10.338500      -281.3249
  23   2.0000     -10.327976      -281.0385
  24   2.0000     -10.324114      -280.9334
  25   2.0000     -10.322327      -280.8848
  26   2.0000     -10.322035      -280.8769
  27   2.0000     -10.321340      -280.8579
  28   2.0000     -10.309080      -280.5243
  29   2.0000     -10.307367      -280.4777
  30   2.0000     -10.307072      -280.4697
  31   2.0000     -10.306445      -280.4526
  32   2.0000     -10.305820      -280.4356
  33   2.0000     -10.305413      -280.4246
  34   2.0000     -10.305112      -280.4164
  35   2.0000     -10.302426      -280.3433
  36   2.0000     -10.301810      -280.3265
  37   2.0000     -10.301556      -280.3196
  38   2.0000     -10.299399      -280.2609
  39   2.0000     -10.297571      -280.2112
  40   2.0000     -10.294891      -280.1382
  41   2.0000     -10.294626      -280.1310
  42   2.0000     -10.294345      -280.1234
  43   2.0000     -10.292712      -280.0789
  44   2.0000     -10.291821      -280.0547
  45   2.0000     -10.291499      -280.0459
  46   2.0000     -10.291210      -280.0381
  47   2.0000     -10.290648      -280.0228
  48   2.0000     -10.290329      -280.0141
  49   2.0000     -10.290188      -280.0103
  50   2.0000     -10.288948      -279.9765
  51   2.0000     -10.288769      -279.9716
  52   2.0000     -10.288172      -279.9554
  53   2.0000     -10.287847      -279.9465
  54   2.0000     -10.287483      -279.9367
  55   2.0000     -10.286523      -279.9105
  56   2.0000     -10.286491      -279.9096
  57   2.0000     -10.285620      -279.8860
  58   2.0000     -10.284733      -279.8618
  59   2.0000     -10.283937      -279.8402
  60   2.0000     -10.283035      -279.8156
  61   2.0000     -10.282126      -279.7909
  62   2.0000     -10.280794      -279.7546
  63   2.0000     -10.278861      -279.7020
  64   2.0000     -10.277539      -279.6660
  65   2.0000     -10.277162      -279.6558
  66   2.0000     -10.275977      -279.6236
  67   2.0000     -10.274251      -279.5766
  68   2.0000     -10.273252      -279.5494
  69   2.0000     -10.272972      -279.5418
  70   2.0000     -10.271944      -279.5138
  71   2.0000     -10.271346      -279.4975
  72   2.0000     -10.268729      -279.4263
  73   2.0000     -10.262265      -279.2504
  74   2.0000     -10.260599      -279.2051
  75   2.0000     -10.259187      -279.1667
  76   2.0000      -8.061760      -219.3716
  77   2.0000      -8.059240      -219.3031
  78   2.0000      -8.056910      -219.2397
  79   2.0000      -8.055919      -219.2127
  80   2.0000      -8.046761      -218.9635
  81   2.0000      -6.031391      -164.1225
  82   2.0000      -6.028651      -164.0479
  83   2.0000      -6.027440      -164.0150
  84   2.0000      -6.026498      -163.9894
  85   2.0000      -6.025375      -163.9588
  86   2.0000      -6.024444      -163.9335
  87   2.0000      -6.022738      -163.8870
  88   2.0000      -6.022505      -163.8807
  89   2.0000      -6.021125      -163.8431
  90   2.0000      -6.021029      -163.8405
  91   2.0000      -6.018053      -163.7596
  92   2.0000      -6.017681      -163.7494
  93   2.0000      -6.015868      -163.7001
  94   2.0000      -6.011890      -163.5918
  95   2.0000      -6.009104      -163.5160
  96   2.0000      -1.307198       -35.5707
  97   2.0000      -1.292437       -35.1690
  98   2.0000      -1.218114       -33.1466
  99   2.0000      -1.147983       -31.2382
 100   2.0000      -1.127302       -30.6754
 101   2.0000      -1.108406       -30.1613
 102   2.0000      -1.035176       -28.1686
 103   2.0000      -1.013920       -27.5902
 104   2.0000      -1.011075       -27.5127
 105   2.0000      -1.001135       -27.2423
 106   2.0000      -0.990842       -26.9622
 107   2.0000      -0.989582       -26.9279
 108   2.0000      -0.987328       -26.8666
 109   2.0000      -0.981570       -26.7099
 110   2.0000      -0.975670       -26.5493
 111   2.0000      -0.966677       -26.3046
 112   2.0000      -0.964066       -26.2336
 113   2.0000      -0.934196       -25.4208
 114   2.0000      -0.930743       -25.3268
 115   2.0000      -0.926153       -25.2019
 116   2.0000      -0.917895       -24.9772
 117   2.0000      -0.916497       -24.9392
 118   2.0000      -0.904493       -24.6125
 119   2.0000      -0.900444       -24.5023
 120   2.0000      -0.887911       -24.1613
 121   2.0000      -0.882090       -24.0029
 122   2.0000      -0.879744       -23.9390
 123   2.0000      -0.874740       -23.8029
 124   2.0000      -0.872960       -23.7545
 125   2.0000      -0.867897       -23.6167
 126   2.0000      -0.861841       -23.4519
 127   2.0000      -0.858317       -23.3560
 128   2.0000      -0.847033       -23.0489
 129   2.0000      -0.842208       -22.9176
 130   2.0000      -0.837960       -22.8021
 131   2.0000      -0.826414       -22.4879
 132   2.0000      -0.824548       -22.4371
 133   2.0000      -0.820318       -22.3220
 134   2.0000      -0.807851       -21.9827
 135   2.0000      -0.804347       -21.8874
 136   2.0000      -0.793776       -21.5998
 137   2.0000      -0.790652       -21.5147
 138   2.0000      -0.775564       -21.1042
 139   2.0000      -0.767366       -20.8811
 140   2.0000      -0.758317       -20.6349
 141   2.0000      -0.754802       -20.5392
 142   2.0000      -0.748862       -20.3776
 143   2.0000      -0.740181       -20.1413
 144   2.0000      -0.728002       -19.8099
 145   2.0000      -0.725034       -19.7292
 146   2.0000      -0.720845       -19.6152
 147   2.0000      -0.712633       -19.3917
 148   2.0000      -0.709912       -19.3177
 149   2.0000      -0.704281       -19.1645
 150   2.0000      -0.700846       -19.0710
 151   2.0000      -0.700045       -19.0492
 152   2.0000      -0.689621       -18.7655
 153   2.0000      -0.688606       -18.7379
 154   2.0000      -0.681126       -18.5344
 155   2.0000      -0.675269       -18.3750
 156   2.0000      -0.664976       -18.0949
 157   2.0000      -0.661589       -18.0028
 158   2.0000      -0.654966       -17.8225
 159   2.0000      -0.651554       -17.7297
 160   2.0000      -0.643395       -17.5077
 161   2.0000      -0.641054       -17.4440
 162   2.0000      -0.636219       -17.3124
 163   2.0000      -0.629564       -17.1313
 164   2.0000      -0.628743       -17.1090
 165   2.0000      -0.626627       -17.0514
 166   2.0000      -0.622813       -16.9476
 167   2.0000      -0.613768       -16.7015
 168   2.0000      -0.613350       -16.6901
 169   2.0000      -0.608402       -16.5555
 170   2.0000      -0.602110       -16.3842
 171   2.0000      -0.596818       -16.2402
 172   2.0000      -0.591462       -16.0945
 173   2.0000      -0.586635       -15.9632
 174   2.0000      -0.585925       -15.9438
 175   2.0000      -0.579365       -15.7653
 176   2.0000      -0.576857       -15.6971
 177   2.0000      -0.576057       -15.6753
 178   2.0000      -0.574091       -15.6218
 179   2.0000      -0.572157       -15.5692
 180   2.0000      -0.565774       -15.3955
 181   2.0000      -0.563812       -15.3421
 182   2.0000      -0.561617       -15.2824
 183   2.0000      -0.559462       -15.2237
 184   2.0000      -0.553499       -15.0615
 185   2.0000      -0.547504       -14.8983
 186   2.0000      -0.546092       -14.8599
 187   2.0000      -0.541813       -14.7435
 188   2.0000      -0.539752       -14.6874
 189   2.0000      -0.538233       -14.6461
 190   2.0000      -0.536398       -14.5961
 191   2.0000      -0.535450       -14.5703
 192   2.0000      -0.534163       -14.5353
 193   2.0000      -0.531088       -14.4516
 194   2.0000      -0.524161       -14.2631
 195   2.0000      -0.521362       -14.1870
 196   2.0000      -0.520937       -14.1754
 197   2.0000      -0.518021       -14.0961
 198   2.0000      -0.516470       -14.0539
 199   2.0000      -0.514953       -14.0126
 200   2.0000      -0.513622       -13.9764
 201   2.0000      -0.513242       -13.9660
 202   2.0000      -0.511770       -13.9260
 203   2.0000      -0.511568       -13.9205
 204   2.0000      -0.510416       -13.8891
 205   2.0000      -0.501725       -13.6526
 206   2.0000      -0.500660       -13.6237
 207   2.0000      -0.500178       -13.6105
 208   2.0000      -0.498829       -13.5738
 209   2.0000      -0.494192       -13.4476
 210   2.0000      -0.493307       -13.4236
 211   2.0000      -0.492889       -13.4122
 212   2.0000      -0.490566       -13.3490
 213   2.0000      -0.486437       -13.2366
 214   2.0000      -0.484867       -13.1939
 215   2.0000      -0.484091       -13.1728
 216   2.0000      -0.481985       -13.1155
 217   2.0000      -0.480187       -13.0666
 218   2.0000      -0.477440       -12.9918
 219   2.0000      -0.476075       -12.9547
 220   2.0000      -0.475660       -12.9434
 221   2.0000      -0.471642       -12.8340
 222   2.0000      -0.471337       -12.8257
 223   2.0000      -0.469977       -12.7887
 224   2.0000      -0.469094       -12.7647
 225   2.0000      -0.467152       -12.7119
 226   2.0000      -0.464914       -12.6509
 227   2.0000      -0.464554       -12.6411
 228   2.0000      -0.455550       -12.3962
 229   2.0000      -0.454041       -12.3551
 230   2.0000      -0.453088       -12.3292
 231   2.0000      -0.449839       -12.2407
 232   2.0000      -0.449330       -12.2269
 233   2.0000      -0.447896       -12.1879
 234   2.0000      -0.447703       -12.1826
 235   2.0000      -0.443029       -12.0554
 236   2.0000      -0.439371       -11.9559
 237   2.0000      -0.436901       -11.8887
 238   2.0000      -0.434908       -11.8345
 239   2.0000      -0.434568       -11.8252
 240   2.0000      -0.432832       -11.7780
 241   2.0000      -0.430609       -11.7175
 242   2.0000      -0.430512       -11.7148
 243   2.0000      -0.428935       -11.6719
 244   2.0000      -0.426090       -11.5945
 245   2.0000      -0.422133       -11.4868
 246   2.0000      -0.414736       -11.2855
 247   2.0000      -0.414096       -11.2681
 248   2.0000      -0.412569       -11.2266
 249   2.0000      -0.410374       -11.1669
 250   2.0000      -0.409074       -11.1315
 251   2.0000      -0.406913       -11.0727
 252   2.0000      -0.405259       -11.0276
 253   2.0000      -0.400194       -10.8898
 254   2.0000      -0.396191       -10.7809
 255   2.0000      -0.395780       -10.7697
 256   2.0000      -0.391643       -10.6571
 257   2.0000      -0.389614       -10.6019
 258   2.0000      -0.386831       -10.5262
 259   2.0000      -0.382887       -10.4189
 260   2.0000      -0.376612       -10.2481
 261   2.0000      -0.369490       -10.0543
 262   2.0000      -0.365665        -9.9502
 263   2.0000      -0.361981        -9.8500
 264   2.0000      -0.356804        -9.7091
 265   2.0000      -0.353922        -9.6307
 266   2.0000      -0.352124        -9.5818
 267   2.0000      -0.341694        -9.2980
 268   2.0000      -0.339504        -9.2384
 269   2.0000      -0.337428        -9.1819
 270   2.0000      -0.329982        -8.9793
 271   2.0000      -0.318608        -8.6698
 272   2.0000      -0.310645        -8.4531
 273   2.0000      -0.307649        -8.3715
 274   2.0000      -0.303019        -8.2456
 275   2.0000      -0.299382        -8.1466
 276   2.0000      -0.297417        -8.0931
 277   2.0000      -0.285099        -7.7579
 278   2.0000      -0.275519        -7.4973
 279   2.0000      -0.272015        -7.4019
 280   2.0000      -0.242809        -6.6072
 281   2.0000      -0.226213        -6.1556
 282   0.0000      -0.108957        -2.9649
 283   0.0000      -0.057973        -1.5775
 284   0.0000      -0.052583        -1.4309
 285   0.0000      -0.041643        -1.1332
 286   0.0000      -0.039957        -1.0873

MULLIKEN ATOMIC CHARGES
-----------------------
   0 C :   -0.115869
   1 S :    0.103967
   2 C :   -0.125406
   3 C :   -0.077499
   4 C :   -0.064331
   5 C :    0.124465
   6 C :    0.046413
   7 C :   -0.026227
   8 N :   -0.182687
   9 C :    0.159683
  10 C :   -0.005574
  11 C :   -0.017784
  12 C :    0.137510
  13 O :   -0.217394
  14 C :   -0.088170
  15 C :    0.186691
  16 O :   -0.169689
  17 N :   -0.163797
  18 C :    0.158979
  19 O :   -0.150187
  20 C :   -0.021667
  21 C :    0.073679
  22 C :   -0.030928
  23 C :   -0.015320
  24 C :    0.070241
  25 C :   -0.112887
  26 S :    0.140994
  27 C :   -0.154805
  28 C :    0.131922
  29 C :   -0.115580
  30 C :    0.041791
  31 C :    0.019536
  32 C :   -0.120500
  33 C :    0.003149
  34 C :    0.033924
  35 C :    0.116436
  36 C :    0.064170
  37 C :   -0.111374
  38 S :    0.146726
  39 C :   -0.144066
  40 C :   -0.012650
  41 C :   -0.016229
  42 C :    0.008889
  43 C :   -0.031003
  44 C :    0.055407
  45 C :    0.019679
  46 C :   -0.026672
  47 S :    0.096547
  48 C :   -0.061974
  49 C :    0.040440
  50 C :    0.033527
  51 C :   -0.016276
  52 S :    0.111306
  53 C :   -0.000450
  54 C :    0.020316
  55 C :   -0.133394
  56 C :    0.138588
  57 O :   -0.158855
  58 C :    0.008088
  59 C :   -0.089550
  60 C :    0.115346
  61 C :    0.112104
  62 C :   -0.111096
  63 C :    0.239920
  64 C :    0.236437
  65 C :   -0.106948
  66 F :   -0.178429
  67 F :   -0.176630
  68 C :   -0.088396
  69 C :    0.040560
  70 C :    0.295065
  71 C :   -0.353736
  72 C :   -0.220410
  73 N :    0.156164
  74 C :   -0.173106
  75 N :    0.127595
  76 H :    0.010683
  77 H :    0.001734
  78 H :    0.007070
  79 H :   -0.006755
  80 H :    0.001150
  81 H :   -0.006451
  82 H :    0.092956
  83 H :    0.088058
  84 H :    0.037994
  85 H :    0.023533
  86 H :    0.016103
  87 H :   -0.016469
  88 H :    0.134950
  89 H :    0.008188
  90 H :    0.006919
  91 H :    0.029964
  92 H :    0.009201
  93 H :   -0.009617
  94 H :    0.029743
  95 H :    0.010546
  96 H :    0.015523
  97 H :    0.009209
  98 H :    0.014019
  99 H :    0.018244
 100 H :    0.015073
 101 H :    0.011089
 102 H :    0.028555
 103 H :    0.001604
 104 H :    0.009936
 105 H :   -0.006160
 106 H :   -0.003536
 107 H :   -0.005347
 108 H :   -0.004883
 109 H :    0.001728
 110 H :    0.006788
 111 H :    0.014626
 112 H :   -0.015222
 113 H :    0.003207
 114 H :   -0.004744
 115 H :   -0.007917
Sum of atomic charges:   -0.0000000

LOEWDIN ATOMIC CHARGES
----------------------
   0 C :   -0.180295
   1 S :    0.426572
   2 C :   -0.187911
   3 C :   -0.042100
   4 C :   -0.072824
   5 C :   -0.029513
   6 C :   -0.041908
   7 C :    0.014132
   8 N :   -0.101050
   9 C :   -0.025810
  10 C :    0.010261
  11 C :   -0.069806
  12 C :    0.077525
  13 O :    0.007630
  14 C :   -0.116280
  15 C :    0.088012
  16 O :   -0.173496
  17 N :   -0.005369
  18 C :    0.084163
  19 O :   -0.167312
  20 C :   -0.100510
  21 C :    0.064835
  22 C :   -0.042938
  23 C :    0.003558
  24 C :   -0.067175
  25 C :   -0.157640
  26 S :    0.426913
  27 C :   -0.176712
  28 C :   -0.037612
  29 C :   -0.016836
  30 C :   -0.029994
  31 C :   -0.049673
  32 C :   -0.022036
  33 C :   -0.032167
  34 C :   -0.053288
  35 C :   -0.042323
  36 C :   -0.068189
  37 C :   -0.157684
  38 S :    0.431412
  39 C :   -0.177740
  40 C :    0.011028
  41 C :   -0.044282
  42 C :   -0.019130
  43 C :   -0.157622
  44 C :   -0.009835
  45 C :   -0.038948
  46 C :   -0.145178
  47 S :    0.391150
  48 C :   -0.196444
  49 C :   -0.006216
  50 C :   -0.039500
  51 C :   -0.098569
  52 S :    0.405056
  53 C :   -0.071387
  54 C :    0.052450
  55 C :   -0.111001
  56 C :    0.076467
  57 O :   -0.160379
  58 C :   -0.049832
  59 C :    0.022798
  60 C :   -0.011374
  61 C :   -0.007786
  62 C :   -0.031645
  63 C :    0.063415
  64 C :    0.063644
  65 C :   -0.035034
  66 F :   -0.055282
  67 F :   -0.054276
  68 C :    0.008104
  69 C :   -0.016853
  70 C :    0.067799
  71 C :   -0.156665
  72 C :   -0.024518
  73 N :   -0.065211
  74 C :   -0.018861
  75 N :   -0.069076
  76 H :    0.021340
  77 H :    0.023855
  78 H :    0.032055
  79 H :    0.019243
  80 H :    0.023256
  81 H :    0.021732
  82 H :    0.049639
  83 H :    0.052240
  84 H :    0.041000
  85 H :    0.039073
  86 H :    0.039693
  87 H :    0.027896
  88 H :    0.093008
  89 H :    0.042411
  90 H :    0.030250
  91 H :    0.026624
  92 H :    0.025724
  93 H :    0.024992
  94 H :    0.026179
  95 H :    0.023008
  96 H :    0.026090
  97 H :    0.028399
  98 H :    0.028367
  99 H :    0.021961
 100 H :    0.024734
 101 H :    0.025364
 102 H :    0.025798
 103 H :    0.033065
 104 H :    0.024419
 105 H :    0.037008
 106 H :    0.037835
 107 H :    0.035042
 108 H :    0.035567
 109 H :    0.040033
 110 H :    0.037797
 111 H :    0.034078
 112 H :    0.038041
 113 H :    0.046034
 114 H :    0.042989
 115 H :    0.038332

  Mayer bond orders larger than 0.100000
B(  0-C ,  1-S ) :   1.1640 B(  0-C ,  4-C ) :   1.5632 B(  0-C , 76-H ) :   0.9708
B(  1-S ,  2-C ) :   1.1095 B(  2-C ,  3-C ) :   1.4829 B(  2-C , 10-C ) :   1.1775
B(  3-C ,  4-C ) :   1.2976 B(  3-C ,  9-C ) :   1.0527 B(  4-C ,  5-C ) :   1.0217
B(  5-C ,  6-C ) :   1.0742 B(  5-C , 77-H ) :   0.9167 B(  5-C , 78-H ) :   0.9237
B(  6-C ,  7-C ) :   1.0231 B(  6-C , 79-H ) :   0.9319 B(  6-C , 80-H ) :   0.9376
B(  7-C ,  8-N ) :   1.1011 B(  7-C ,  9-C ) :   1.0517 B(  7-C , 81-H ) :   0.9190
B(  8-N , 82-H ) :   0.9740 B(  8-N , 83-H ) :   0.9735 B(  9-C , 84-H ) :   0.9027
B(  9-C , 85-H ) :   0.9114 B( 10-C , 11-C ) :   1.6079 B( 10-C , 86-H ) :   0.9496
B( 11-C , 12-C ) :   1.1678 B( 11-C , 87-H ) :   0.9675 B( 12-C , 13-O ) :   1.1383
B( 12-C , 14-C ) :   1.4216 B( 13-O , 21-C ) :   1.1321 B( 14-C , 15-C ) :   0.8996
B( 14-C , 20-C ) :   1.2502 B( 15-C , 16-O ) :   2.1544 B( 15-C , 17-N ) :   1.0963
B( 17-N , 18-C ) :   1.0771 B( 17-N , 88-H ) :   0.9158 B( 18-C , 19-O ) :   2.2605
B( 18-C , 20-C ) :   0.8819 B( 20-C , 21-C ) :   1.4187 B( 21-C , 22-C ) :   1.1589
B( 22-C , 23-C ) :   1.6904 B( 22-C , 89-H ) :   0.9615 B( 23-C , 24-C ) :   1.0059
B( 23-C , 90-H ) :   0.9741 B( 24-C , 25-C ) :   1.6045 B( 24-C , 28-C ) :   1.1418
B( 25-C , 26-S ) :   1.1259 B( 25-C , 91-H ) :   0.9615 B( 26-S , 27-C ) :   1.0830
B( 27-C , 28-C ) :   1.3731 B( 27-C , 39-C ) :   1.3800 B( 28-C , 29-C ) :   1.2429
B( 29-C , 30-C ) :   1.0702 B( 29-C , 32-C ) :   1.5189 B( 30-C , 31-C ) :   1.1049
B( 30-C , 92-H ) :   0.9240 B( 30-C , 93-H ) :   0.9095 B( 31-C , 94-H ) :   0.9645
B( 31-C , 95-H ) :   0.9550 B( 31-C , 96-H ) :   0.9659 B( 32-C , 33-C ) :   1.0514
B( 32-C , 35-C ) :   1.2706 B( 33-C , 34-C ) :   1.1018 B( 33-C , 97-H ) :   0.9213
B( 33-C , 98-H ) :   0.9208 B( 34-C , 99-H ) :   0.9582 B( 34-C ,100-H ) :   0.9644
B( 34-C ,101-H ) :   0.9618 B( 35-C , 36-C ) :   1.1383 B( 35-C , 39-C ) :   1.3769
B( 36-C , 37-C ) :   1.5875 B( 36-C , 40-C ) :   1.0248 B( 37-C , 38-S ) :   1.1368
B( 37-C ,102-H ) :   0.9626 B( 38-S , 39-C ) :   1.0752 B( 40-C , 41-C ) :   1.6827
B( 40-C ,103-H ) :   0.9649 B( 41-C , 42-C ) :   1.1376 B( 41-C ,104-H ) :   0.9745
B( 42-C , 43-C ) :   1.5726 B( 42-C ,105-H ) :   0.9832 B( 43-C , 44-C ) :   1.1434
B( 43-C , 47-S ) :   1.0197 B( 44-C , 45-C ) :   1.5839 B( 44-C ,106-H ) :   0.9993
B( 45-C , 46-C ) :   1.1962 B( 45-C ,107-H ) :   0.9943 B( 46-C , 47-S ) :   1.0830
B( 46-C , 48-C ) :   1.4647 B( 48-C , 49-C ) :   1.2233 B( 48-C , 52-S ) :   1.0406
B( 49-C , 50-C ) :   1.5368 B( 49-C ,108-H ) :   0.9943 B( 50-C , 51-C ) :   1.1897
B( 50-C ,109-H ) :   1.0013 B( 51-C , 52-S ) :   1.0912 B( 51-C , 53-C ) :   1.4783
B( 53-C , 54-C ) :   1.2442 B( 53-C ,110-H ) :   0.9628 B( 54-C , 55-C ) :   1.5006
B( 54-C ,111-H ) :   0.9405 B( 55-C , 56-C ) :   0.9715 B( 55-C , 70-C ) :   1.0997
B( 56-C , 57-O ) :   2.2448 B( 56-C , 58-C ) :   0.9147 B( 58-C , 59-C ) :   1.4859
B( 58-C , 69-C ) :   1.2218 B( 59-C , 60-C ) :   1.1827 B( 59-C ,112-H ) :   1.0162
B( 60-C , 61-C ) :   1.2647 B( 60-C , 65-C ) :   1.1944 B( 61-C , 62-C ) :   1.1923
B( 61-C , 68-C ) :   1.2037 B( 62-C , 63-C ) :   1.4372 B( 62-C , 65-C ) :   0.1094
B( 62-C ,113-H ) :   1.0077 B( 63-C , 64-C ) :   1.1974 B( 63-C , 67-F ) :   1.1292
B( 64-C , 65-C ) :   1.4394 B( 64-C , 66-F ) :   1.1265 B( 65-C ,114-H ) :   1.0075
B( 68-C , 69-C ) :   1.4660 B( 68-C ,115-H ) :   0.9921 B( 69-C , 70-C ) :   0.9866
B( 70-C , 71-C ) :   1.5884 B( 71-C , 72-C ) :   1.1694 B( 71-C , 74-C ) :   1.1371
B( 72-C , 73-N ) :   3.0093 B( 74-C , 75-N ) :   2.9661

-----------------------------------------------------------------------------
         ABSORPTION SPECTRUM VIA TRANSITION ELECTRIC DIPOLE MOMENTS
-----------------------------------------------------------------------------
State   Energy  Wavelength   fosc         T2         TX        TY        TZ
        (cm-1)    (nm)                  (au**2)     (au)      (au)      (au)
-----------------------------------------------------------------------------
   0   11986.3    834.3   1.540506350  42.31116   3.93026   3.15264  -4.11401
   1   21578.5    463.4   0.012039972   0.18369   0.02537  -0.37173   0.21181
   2   21838.5    457.9   0.010134107   0.15277   0.11723   0.36985  -0.04727
   3   22491.3    444.6   0.337643594   4.94220   1.45136  -1.59607  -0.53693
   4   24754.5    404.0   0.134001493   1.78209  -0.69898   0.20757   1.11823
   5   25123.7    398.0   1.137086562  14.89997   1.16159  -0.24773   3.67278
   6   25612.3    390.4   0.306920453   3.94505  -0.63291   1.87191  -0.20111
   7   26722.4    374.2   0.018036979   0.22221  -0.18462   0.43363   0.00930
   8   26762.7    373.7   0.010061305   0.12377  -0.20174   0.28819   0.00335
   9   27399.6    365.0   0.411955334   4.94973  -1.64290   0.35076   1.45862
  10   28069.8    356.3   0.020563157   0.24117  -0.48926   0.04150   0.00873
  11   28697.5    348.5   0.129307697   1.48339   0.51344  -1.04806  -0.34834
  12   30342.2    329.6   0.018720361   0.20312  -0.01052   0.43253  -0.12619
  13   30521.6    327.6   0.003118144   0.03363   0.05402  -0.07646  -0.15770
  14   31464.8    317.8   0.141198737   1.47734   0.27734  -1.16615   0.20128
  15   32605.5    306.7   0.366027485   3.69571   0.23797  -1.83531  -0.52030
  16   32874.6    304.2   0.019014745   0.19042  -0.32540  -0.28949  -0.02691
  17   33022.6    302.8   0.103056234   1.02740  -0.93342   0.27210   0.28652
  18   33141.5    301.7   0.053912562   0.53554   0.08863   0.71062   0.15068
  19   33332.6    300.0   0.016182841   0.15983  -0.16434   0.36157  -0.04575
  20   33543.0    298.1   0.274407152   2.69320   0.30321   1.60737   0.13279
  21   34277.7    291.7   0.040346506   0.38750  -0.14063   0.60640   0.00104
  22   34337.4    291.2   0.145142396   1.39156  -0.96857   0.29922   0.60324
  23   34831.4    287.1   0.007426853   0.07020   0.17732  -0.13030  -0.14756
  24   34949.2    286.1   0.015006453   0.14136   0.12442  -0.01542  -0.35446
  25   34999.2    285.7   0.093228921   0.87694  -0.27650   0.24881  -0.85940
  26   35237.0    283.8   0.011898713   0.11117  -0.21444   0.25427   0.02301
  27   35854.8    278.9   0.068962238   0.63320   0.08405   0.29687   0.73349
  28   35858.3    278.9   0.044218038   0.40596  -0.61074  -0.12721  -0.12953
  29   36239.3    275.9   0.112335681   1.02050  -0.25069  -0.97752  -0.04597
  30   36537.0    273.7   0.000021109   0.00019  -0.00569   0.01247   0.00153
  31   36934.5    270.7   0.055392680   0.49374   0.38251  -0.52981  -0.25831
  32   37015.4    270.2   0.001719613   0.01529   0.06883   0.09969   0.02486
  33   37501.9    266.7   0.078767187   0.69146  -0.38162   0.18105   0.71627
  34   37923.7    263.7   0.007304497   0.06341   0.17682   0.11569   0.13697
  35   38281.0    261.2   0.037032728   0.31848  -0.26308   0.18239   0.46476
  36   38538.1    259.5   0.010423134   0.08904  -0.04406   0.28415   0.07974
  37   38643.6    258.8   0.185625173   1.58138   0.41416  -1.00443  -0.63322
  38   38921.3    256.9   0.122119175   1.03293   0.56892  -0.29008  -0.79065
  39   38958.5    256.7   0.030403053   0.25692   0.13070  -0.29423  -0.39149
  40   39238.8    254.9   0.162405647   1.36258  -0.38516   0.78469   0.77362
  41   39521.4    253.0   0.067034762   0.55840   0.40454  -0.33271  -0.53296
  42   39711.5    251.8   0.021659563   0.17956   0.05955  -0.34501   0.23871
  43   40174.0    248.9   0.018868268   0.15462   0.08458  -0.30736   0.23021
  44   40310.9    248.1   0.076858599   0.62769   0.55953  -0.14324  -0.54231

FINAL SINGLE POINT ENERGY     -5054.625620798363

DIPOLE MOMENT
-------------
                                X             Y             Z
Electronic contribution:    -71.13414     -70.92148     146.47039
Nuclear contribution   :     71.82994      74.49806    -151.73701
                        -----------------------------------------
Total Dipole Moment    :      0.69581       3.57658      -5.26662
                        -----------------------------------------
Magnitude (a.u.)       :      6.40416
Magnitude (Debye)      :     16.27809

Rotational constants in cm-1:     0.001015     0.000145     0.000138
Rotational constants in MHz :    30.417286     4.337825     4.151105

                             ****ORCA TERMINATED NORMALLY****
TOTAL RUN TIME: 0 days 0 hours 10 minutes 39 seconds 732 msec
