                         Program Version 4.2.0 -  RELEASE  -
|  1> # ORCA input file
|  2> # SCF done       -157.276226079409          0.000479136965
|  3> ! CAM-B3LYP def2-SVP def2/J RIJCOSX Grid4 TightSCF
|  4> %maxcore 5000
|  5> %tddft
|  6>     Mode sTDDFT
|  7>     Ethresh 5.0
|  8>     maxcore 5000
|  9> end
| 10>
| 11> %pal
| 12>   nprocs 6
| 13>   end
| 14> * xyz 0 1
| 15>    C       -7.42085       -15.28990        -7.84118
| 16>    O       -6.80631       -14.95276        -6.69401
| 17>    C       -8.59444       -15.92215        -7.56891
| 18>    C       -9.78877       -16.55966        -8.15142
| 19>    O      -10.11267       -16.73380        -9.29551
| 20>    N      -10.52299       -16.94822        -7.03815
| 21>    C       -9.95375       -16.64252        -5.79695
| 22>    O      -10.44589       -16.90403        -4.72968
| 23>    C       -8.70409       -15.97620        -6.14931
| 24>    C       -7.57505       -15.36275        -5.63820
| 25>    C       -7.17779       -15.12546        -4.30150
| 26>    C       -6.03424       -14.47201        -3.96030
| 27>    C       -5.65034       -14.24533        -2.61374
| 28>    C       -4.54607       -13.58301        -2.06548
| 29>    C       -3.49956       -12.83519        -2.79199
| 30>    O       -2.34156       -12.82015        -2.49446
| 31>    O       -3.94070       -12.14902        -3.86963
| 32>    C       -4.69400       -13.79617        -0.66707
| 33>    N       -5.78869       -14.48930        -0.42748
| 34>    O       -6.37979       -14.77290        -1.60877
| 35>    C       -3.83994       -13.41121         0.43027
| 36>    C       -4.03506       -13.40892         1.80277
| 37>    C       -5.23361       -13.56253         2.66706
| 38>    O       -5.25693       -13.08546         3.77481
| 39>    O       -6.27451       -14.22955         2.18870
| 40>    C       -2.73392       -13.05794         2.30314
| 41>    N       -1.90863       -12.85547         1.30201
| 42>    O       -2.57747       -13.06231         0.16121
| 43>    C       -2.31062       -12.87115         3.66714
| 44>    S       -1.37812       -11.44650         3.98883
| 45>    C       -1.44337       -11.71929         5.66560
| 46>    C       -2.12255       -12.86930         5.98918
| 47>    C       -2.58138       -13.58342         4.82897
| 48>    C       -3.21556       -14.85428         4.92315
| 49>    S       -3.57421       -15.56828         6.44692
| 50>    O       -2.11677       -16.47166         6.85266
| 51>    C       -1.66134       -17.44440         5.95679
| 52>    C       -3.18386       -14.32599         7.64235
| 53>    C       -2.46408       -13.23465         7.32004
| 54>    O       -3.65344       -14.49951         8.89615
| 55>    C       -4.04367       -15.79739         9.29511
| 56>    C       -3.57657       -15.63613         3.80583
| 57>    C       -4.49937       -16.65219         3.78023
| 58>    C       -4.96098       -17.31753         2.63900
| 59>    C       -4.52607       -17.23711         1.33075
| 60>    C       -5.23562       -17.72757         0.21169
| 61>    C       -4.66186       -17.45333        -0.99549
| 62>    C       -3.43761       -16.75941        -0.90224
| 63>    S       -3.03231       -16.48879         0.78100
| 64>    C       -2.63508       -16.27793        -1.91760
| 65>    C       -2.90893       -16.30443        -3.31233
| 66>    C       -1.95751       -15.71398        -4.07169
| 67>    C       -0.85344       -15.18340        -3.32717
| 68>    S       -1.10825       -15.49064        -1.60710
| 69>    C        0.22637       -14.54692        -3.80188
| 70>    H       -6.92923       -15.02806        -8.75718
| 71>    H      -11.41249       -17.42038        -7.11832
| 72>    H       -7.85368       -15.48561        -3.54048
| 73>    H       -5.36096       -14.13040        -4.73252
| 74>    H       -4.90158       -12.16158        -3.96840
| 75>    H       -6.18193       -14.51355         1.24825
| 76>    H       -1.00498       -11.01731         6.34654
| 77>    H       -0.66758       -17.73463         6.29848
| 78>    H       -1.58677       -17.04150         4.94079
| 79>    H       -2.31630       -18.32136         5.94927
| 80>    H       -2.19265       -12.55808         8.11717
| 81>    H       -4.19810       -15.73931        10.37095
| 82>    H       -3.26598       -16.53153         9.07105
| 83>    H       -4.98012       -16.09283         8.81104
| 84>    H       -3.09128       -15.36518         2.88188
| 85>    H       -5.00797       -16.89572         4.70482
| 86>    H       -5.83688       -17.93864         2.77937
| 87>    H       -6.17534       -18.23771         0.32826
| 88>    H       -5.08784       -17.73197        -1.94286
| 89>    H       -3.81067       -16.74747        -3.69947
| 90>    H       -1.99422       -15.62117        -5.14274
| 91>    H        0.34219       -14.37427        -4.85728
| 92>    H        0.99161       -14.17292        -3.14767
| 93> *
| 94>
| 95>                          ****END OF INPUT****

CARTESIAN COORDINATES (ANGSTROEM)
---------------------------------
  C     -7.420850  -15.289900   -7.841180
  O     -6.806310  -14.952760   -6.694010
  C     -8.594440  -15.922150   -7.568910
  C     -9.788770  -16.559660   -8.151420
  O    -10.112670  -16.733800   -9.295510
  N    -10.522990  -16.948220   -7.038150
  C     -9.953750  -16.642520   -5.796950
  O    -10.445890  -16.904030   -4.729680
  C     -8.704090  -15.976200   -6.149310
  C     -7.575050  -15.362750   -5.638200
  C     -7.177790  -15.125460   -4.301500
  C     -6.034240  -14.472010   -3.960300
  C     -5.650340  -14.245330   -2.613740
  C     -4.546070  -13.583010   -2.065480
  C     -3.499560  -12.835190   -2.791990
  O     -2.341560  -12.820150   -2.494460
  O     -3.940700  -12.149020   -3.869630
  C     -4.694000  -13.796170   -0.667070
  N     -5.788690  -14.489300   -0.427480
  O     -6.379790  -14.772900   -1.608770
  C     -3.839940  -13.411210    0.430270
  C     -4.035060  -13.408920    1.802770
  C     -5.233610  -13.562530    2.667060
  O     -5.256930  -13.085460    3.774810
  O     -6.274510  -14.229550    2.188700
  C     -2.733920  -13.057940    2.303140
  N     -1.908630  -12.855470    1.302010
  O     -2.577470  -13.062310    0.161210
  C     -2.310620  -12.871150    3.667140
  S     -1.378120  -11.446500    3.988830
  C     -1.443370  -11.719290    5.665600
  C     -2.122550  -12.869300    5.989180
  C     -2.581380  -13.583420    4.828970
  C     -3.215560  -14.854280    4.923150
  S     -3.574210  -15.568280    6.446920
  O     -2.116770  -16.471660    6.852660
  C     -1.661340  -17.444400    5.956790
  C     -3.183860  -14.325990    7.642350
  C     -2.464080  -13.234650    7.320040
  O     -3.653440  -14.499510    8.896150
  C     -4.043670  -15.797390    9.295110
  C     -3.576570  -15.636130    3.805830
  C     -4.499370  -16.652190    3.780230
  C     -4.960980  -17.317530    2.639000
  C     -4.526070  -17.237110    1.330750
  C     -5.235620  -17.727570    0.211690
  C     -4.661860  -17.453330   -0.995490
  C     -3.437610  -16.759410   -0.902240
  S     -3.032310  -16.488790    0.781000
  C     -2.635080  -16.277930   -1.917600
  C     -2.908930  -16.304430   -3.312330
  C     -1.957510  -15.713980   -4.071690
  C     -0.853440  -15.183400   -3.327170
  S     -1.108250  -15.490640   -1.607100
  C      0.226370  -14.546920   -3.801880
  H     -6.929230  -15.028060   -8.757180
  H    -11.412490  -17.420380   -7.118320
  H     -7.853680  -15.485610   -3.540480
  H     -5.360960  -14.130400   -4.732520
  H     -4.901580  -12.161580   -3.968400
  H     -6.181930  -14.513550    1.248250
  H     -1.004980  -11.017310    6.346540
  H     -0.667580  -17.734630    6.298480
  H     -1.586770  -17.041500    4.940790
  H     -2.316300  -18.321360    5.949270
  H     -2.192650  -12.558080    8.117170
  H     -4.198100  -15.739310   10.370950
  H     -3.265980  -16.531530    9.071050
  H     -4.980120  -16.092830    8.811040
  H     -3.091280  -15.365180    2.881880
  H     -5.007970  -16.895720    4.704820
  H     -5.836880  -17.938640    2.779370
  H     -6.175340  -18.237710    0.328260
  H     -5.087840  -17.731970   -1.942860
  H     -3.810670  -16.747470   -3.699470
  H     -1.994220  -15.621170   -5.142740
  H      0.342190  -14.374270   -4.857280
  H      0.991610  -14.172920   -3.147670

 Total Charge           Charge          ....    0
 Multiplicity           Mult            ....    1
 Number of Electrons    NEL             ....  418
 Basis Dimension        Dim             ....  901

ORBITAL ENERGIES
----------------

  NO   OCC          E(Eh)            E(eV)
   0   2.0000     -89.047001     -2423.0921
   1   2.0000     -88.948054     -2420.3996
   2   2.0000     -88.932571     -2419.9783
   3   2.0000     -88.917988     -2419.5815
   4   2.0000     -19.349760      -526.5337
   5   2.0000     -19.339229      -526.2472
   6   2.0000     -19.313651      -525.5512
   7   2.0000     -19.272599      -524.4341
   8   2.0000     -19.253945      -523.9265
   9   2.0000     -19.228980      -523.2472
  10   2.0000     -19.224829      -523.1342
  11   2.0000     -19.223102      -523.0872
  12   2.0000     -19.216827      -522.9165
  13   2.0000     -19.208378      -522.6865
  14   2.0000     -19.172581      -521.7124
  15   2.0000     -14.498272      -394.5180
  16   2.0000     -14.470695      -393.7676
  17   2.0000     -14.451491      -393.2451
  18   2.0000     -10.418840      -283.5110
  19   2.0000     -10.418737      -283.5082
  20   2.0000     -10.416282      -283.4414
  21   2.0000     -10.389281      -282.7067
  22   2.0000     -10.386429      -282.6291
  23   2.0000     -10.384975      -282.5895
  24   2.0000     -10.381288      -282.4892
  25   2.0000     -10.361118      -281.9404
  26   2.0000     -10.360281      -281.9176
  27   2.0000     -10.356400      -281.8120
  28   2.0000     -10.335603      -281.2461
  29   2.0000     -10.330787      -281.1150
  30   2.0000     -10.324481      -280.9434
  31   2.0000     -10.323843      -280.9260
  32   2.0000     -10.317675      -280.7582
  33   2.0000     -10.314856      -280.6815
  34   2.0000     -10.313101      -280.6337
  35   2.0000     -10.304280      -280.3937
  36   2.0000     -10.294574      -280.1296
  37   2.0000     -10.292119      -280.0628
  38   2.0000     -10.291222      -280.0384
  39   2.0000     -10.287439      -279.9354
  40   2.0000     -10.286046      -279.8975
  41   2.0000     -10.284528      -279.8562
  42   2.0000     -10.283443      -279.8267
  43   2.0000     -10.283407      -279.8257
  44   2.0000     -10.282602      -279.8038
  45   2.0000     -10.280799      -279.7548
  46   2.0000     -10.278282      -279.6863
  47   2.0000     -10.273671      -279.5608
  48   2.0000     -10.273144      -279.5465
  49   2.0000     -10.272240      -279.5219
  50   2.0000     -10.270525      -279.4752
  51   2.0000     -10.268152      -279.4106
  52   2.0000     -10.267137      -279.3830
  53   2.0000     -10.253562      -279.0136
  54   2.0000     -10.251038      -278.9449
  55   2.0000      -8.130617      -221.2453
  56   2.0000      -8.043538      -218.8758
  57   2.0000      -8.027285      -218.4335
  58   2.0000      -8.014587      -218.0880
  59   2.0000      -6.100624      -166.0064
  60   2.0000      -6.097875      -165.9316
  61   2.0000      -6.092130      -165.7753
  62   2.0000      -6.012705      -163.6140
  63   2.0000      -6.008313      -163.4945
  64   2.0000      -6.006166      -163.4361
  65   2.0000      -5.997109      -163.1896
  66   2.0000      -5.993092      -163.0803
  67   2.0000      -5.988315      -162.9503
  68   2.0000      -5.984460      -162.8454
  69   2.0000      -5.980522      -162.7383
  70   2.0000      -5.974996      -162.5879
  71   2.0000      -1.286367       -35.0038
  72   2.0000      -1.257260       -34.2118
  73   2.0000      -1.253594       -34.1120
  74   2.0000      -1.193675       -32.4815
  75   2.0000      -1.171715       -31.8840
  76   2.0000      -1.163154       -31.6510
  77   2.0000      -1.155364       -31.4391
  78   2.0000      -1.150810       -31.3151
  79   2.0000      -1.108417       -30.1616
  80   2.0000      -1.104127       -30.0448
  81   2.0000      -1.068585       -29.0777
  82   2.0000      -1.059507       -28.8306
  83   2.0000      -1.012844       -27.5609
  84   2.0000      -0.990494       -26.9527
  85   2.0000      -0.977400       -26.5964
  86   2.0000      -0.968954       -26.3666
  87   2.0000      -0.958742       -26.0887
  88   2.0000      -0.953926       -25.9576
  89   2.0000      -0.944624       -25.7045
  90   2.0000      -0.940996       -25.6058
  91   2.0000      -0.927922       -25.2500
  92   2.0000      -0.903342       -24.5812
  93   2.0000      -0.895875       -24.3780
  94   2.0000      -0.875434       -23.8218
  95   2.0000      -0.865719       -23.5574
  96   2.0000      -0.855935       -23.2912
  97   2.0000      -0.844808       -22.9884
  98   2.0000      -0.830408       -22.5965
  99   2.0000      -0.822537       -22.3824
 100   2.0000      -0.814648       -22.1677
 101   2.0000      -0.804495       -21.8914
 102   2.0000      -0.798020       -21.7152
 103   2.0000      -0.786687       -21.4069
 104   2.0000      -0.783340       -21.3158
 105   2.0000      -0.781272       -21.2595
 106   2.0000      -0.772245       -21.0138
 107   2.0000      -0.764887       -20.8136
 108   2.0000      -0.749842       -20.4042
 109   2.0000      -0.745597       -20.2887
 110   2.0000      -0.727843       -19.8056
 111   2.0000      -0.726006       -19.7556
 112   2.0000      -0.718170       -19.5424
 113   2.0000      -0.709219       -19.2988
 114   2.0000      -0.703563       -19.1449
 115   2.0000      -0.692363       -18.8402
 116   2.0000      -0.682148       -18.5622
 117   2.0000      -0.676115       -18.3980
 118   2.0000      -0.666723       -18.1424
 119   2.0000      -0.662777       -18.0351
 120   2.0000      -0.650026       -17.6881
 121   2.0000      -0.644408       -17.5352
 122   2.0000      -0.635532       -17.2937
 123   2.0000      -0.632551       -17.2126
 124   2.0000      -0.620568       -16.8865
 125   2.0000      -0.614515       -16.7218
 126   2.0000      -0.613169       -16.6852
 127   2.0000      -0.611838       -16.6490
 128   2.0000      -0.606911       -16.5149
 129   2.0000      -0.605362       -16.4727
 130   2.0000      -0.604733       -16.4556
 131   2.0000      -0.602391       -16.3919
 132   2.0000      -0.597675       -16.2636
 133   2.0000      -0.589895       -16.0519
 134   2.0000      -0.584404       -15.9024
 135   2.0000      -0.578631       -15.7454
 136   2.0000      -0.576483       -15.6869
 137   2.0000      -0.572868       -15.5885
 138   2.0000      -0.571173       -15.5424
 139   2.0000      -0.563846       -15.3430
 140   2.0000      -0.561473       -15.2784
 141   2.0000      -0.557585       -15.1727
 142   2.0000      -0.545239       -14.8367
 143   2.0000      -0.544659       -14.8209
 144   2.0000      -0.542071       -14.7505
 145   2.0000      -0.540530       -14.7086
 146   2.0000      -0.534588       -14.5469
 147   2.0000      -0.531659       -14.4672
 148   2.0000      -0.528867       -14.3912
 149   2.0000      -0.523393       -14.2423
 150   2.0000      -0.521777       -14.1983
 151   2.0000      -0.518202       -14.1010
 152   2.0000      -0.512665       -13.9503
 153   2.0000      -0.510346       -13.8872
 154   2.0000      -0.509540       -13.8653
 155   2.0000      -0.507963       -13.8224
 156   2.0000      -0.505838       -13.7646
 157   2.0000      -0.498547       -13.5661
 158   2.0000      -0.498011       -13.5516
 159   2.0000      -0.494751       -13.4629
 160   2.0000      -0.492092       -13.3905
 161   2.0000      -0.489944       -13.3321
 162   2.0000      -0.482729       -13.1357
 163   2.0000      -0.480689       -13.0802
 164   2.0000      -0.478574       -13.0227
 165   2.0000      -0.475002       -12.9255
 166   2.0000      -0.472476       -12.8567
 167   2.0000      -0.469887       -12.7863
 168   2.0000      -0.465081       -12.6555
 169   2.0000      -0.457439       -12.4476
 170   2.0000      -0.455787       -12.4026
 171   2.0000      -0.453173       -12.3315
 172   2.0000      -0.448238       -12.1972
 173   2.0000      -0.443920       -12.0797
 174   2.0000      -0.439891       -11.9700
 175   2.0000      -0.434862       -11.8332
 176   2.0000      -0.430027       -11.7016
 177   2.0000      -0.426912       -11.6169
 178   2.0000      -0.415121       -11.2960
 179   2.0000      -0.414456       -11.2779
 180   2.0000      -0.409838       -11.1522
 181   2.0000      -0.407449       -11.0872
 182   2.0000      -0.405505       -11.0344
 183   2.0000      -0.403388       -10.9768
 184   2.0000      -0.400173       -10.8893
 185   2.0000      -0.398904       -10.8547
 186   2.0000      -0.390938       -10.6380
 187   2.0000      -0.386207       -10.5092
 188   2.0000      -0.384018       -10.4497
 189   2.0000      -0.379566       -10.3285
 190   2.0000      -0.377844       -10.2817
 191   2.0000      -0.376760       -10.2522
 192   2.0000      -0.374467       -10.1898
 193   2.0000      -0.367559       -10.0018
 194   2.0000      -0.361779        -9.8445
 195   2.0000      -0.361261        -9.8304
 196   2.0000      -0.357665        -9.7326
 197   2.0000      -0.346876        -9.4390
 198   2.0000      -0.337245        -9.1769
 199   2.0000      -0.335888        -9.1400
 200   2.0000      -0.332639        -9.0516
 201   2.0000      -0.322460        -8.7746
 202   2.0000      -0.316606        -8.6153
 203   2.0000      -0.308876        -8.4049
 204   2.0000      -0.303822        -8.2674
 205   2.0000      -0.283978        -7.7274
 206   2.0000      -0.263824        -7.1790
 207   2.0000      -0.238836        -6.4990
 208   2.0000      -0.186881        -5.0853
 209   0.0000      -0.095450        -2.5973
 210   0.0000      -0.057510        -1.5649
 211   0.0000      -0.038690        -1.0528
 212   0.0000      -0.032245        -0.8774
 213   0.0000      -0.023386        -0.6364

MULLIKEN ATOMIC CHARGES
-----------------------
   0 C :    0.093585
   1 O :   -0.195082
   2 C :   -0.032234
   3 C :    0.185792
   4 O :   -0.131395
   5 N :   -0.170793
   6 C :    0.176760
   7 O :   -0.132017
   8 C :   -0.043845
   9 C :    0.087529
  10 C :    0.004447
  11 C :   -0.078222
  12 C :    0.170873
  13 C :   -0.101269
  14 C :    0.174927
  15 O :   -0.120821
  16 O :   -0.164167
  17 C :    0.085974
  18 N :   -0.045698
  19 O :   -0.160788
  20 C :    0.165210
  21 C :   -0.172405
  22 C :    0.178528
  23 O :   -0.182658
  24 O :   -0.160362
  25 C :   -0.066117
  26 N :    0.025125
  27 O :   -0.135046
  28 C :   -0.249085
  29 S :    0.190288
  30 C :   -0.113286
  31 C :    0.024868
  32 C :    0.337625
  33 C :   -0.205206
  34 S :    0.392269
  35 O :   -0.484510
  36 C :    0.173551
  37 C :    0.068972
  38 C :    0.061504
  39 O :   -0.297423
  40 C :    0.162559
  41 C :   -0.030844
  42 C :   -0.016366
  43 C :    0.011197
  44 C :   -0.066708
  45 C :    0.050860
  46 C :    0.005764
  47 C :   -0.064930
  48 S :    0.031656
  49 C :   -0.071429
  50 C :   -0.000613
  51 C :    0.041962
  52 C :   -0.050177
  53 S :    0.105281
  54 C :   -0.017055
  55 H :    0.040435
  56 H :    0.145737
  57 H :    0.047064
  58 H :    0.026011
  59 H :    0.179088
  60 H :    0.182570
  61 H :    0.016351
  62 H :    0.035174
  63 H :    0.036462
  64 H :    0.008989
  65 H :   -0.008408
  66 H :    0.045901
  67 H :    0.037664
  68 H :    0.029442
  69 H :    0.043622
  70 H :   -0.024245
  71 H :   -0.018503
  72 H :   -0.022175
  73 H :   -0.031287
  74 H :   -0.024555
  75 H :   -0.021790
  76 H :    0.009951
  77 H :    0.019944
Sum of atomic charges:   -0.0000000

LOEWDIN ATOMIC CHARGES
----------------------
   0 C :    0.098943
   1 O :    0.023366
   2 C :   -0.099446
   3 C :    0.085288
   4 O :   -0.146223
   5 N :   -0.003674
   6 C :    0.085987
   7 O :   -0.149237
   8 C :   -0.080663
   9 C :    0.052432
  10 C :    0.011640
  11 C :   -0.052101
  12 C :    0.057939
  13 C :   -0.116426
  14 C :    0.075518
  15 O :   -0.106963
  16 O :   -0.031284
  17 C :   -0.002141
  18 N :    0.000516
  19 O :    0.043575
  20 C :    0.020834
  21 C :   -0.121125
  22 C :    0.070050
  23 O :   -0.167055
  24 O :   -0.028087
  25 C :   -0.044005
  26 N :   -0.030837
  27 O :    0.064536
  28 C :   -0.219146
  29 S :    0.495315
  30 C :   -0.181925
  31 C :   -0.069750
  32 C :   -0.028649
  33 C :   -0.273909
  34 S :    0.867551
  35 O :   -0.360299
  36 C :    0.040395
  37 C :   -0.104347
  38 C :   -0.027894
  39 O :   -0.105940
  40 C :    0.060722
  41 C :   -0.028011
  42 C :   -0.089784
  43 C :   -0.044218
  44 C :   -0.177285
  45 C :   -0.027912
  46 C :   -0.068846
  47 C :   -0.189898
  48 S :    0.383383
  49 C :   -0.201910
  50 C :   -0.043624
  51 C :   -0.041497
  52 C :   -0.138666
  53 S :    0.373518
  54 C :   -0.072598
  55 H :    0.039624
  56 H :    0.098303
  57 H :    0.057104
  58 H :    0.040806
  59 H :    0.087122
  60 H :    0.038996
  61 H :    0.023589
  62 H :    0.028316
  63 H :    0.013764
  64 H :    0.005123
  65 H :    0.046538
  66 H :    0.032086
  67 H :    0.015662
  68 H :    0.012845
  69 H :    0.018866
  70 H :    0.013238
  71 H :    0.034063
  72 H :    0.030484
  73 H :    0.023407
  74 H :    0.024238
  75 H :    0.028288
  76 H :    0.024859
  77 H :    0.026546

  Mayer bond orders larger than 0.100000
B(  0-C ,  1-O ) :   1.1595 B(  0-C ,  2-C ) :   1.5311 B(  0-C , 55-H ) :   1.0048
B(  1-O ,  9-C ) :   1.1543 B(  2-C ,  3-C ) :   0.8555 B(  2-C ,  8-C ) :   1.2617
B(  3-C ,  4-O ) :   2.2837 B(  3-C ,  5-N ) :   1.0764 B(  5-N ,  6-C ) :   1.0710
B(  5-N , 56-H ) :   0.9136 B(  6-C ,  7-O ) :   2.2780 B(  6-C ,  8-C ) :   0.8849
B(  8-C ,  9-C ) :   1.4361 B(  9-C , 10-C ) :   1.1497 B( 10-C , 11-C ) :   1.6298
B( 10-C , 57-H ) :   0.9710 B( 11-C , 12-C ) :   1.1011 B( 11-C , 58-H ) :   0.9640
B( 12-C , 13-C ) :   1.4080 B( 12-C , 19-O ) :   1.1700 B( 13-C , 14-C ) :   0.8796
B( 13-C , 17-C ) :   1.2363 B( 14-C , 15-O ) :   2.2046 B( 14-C , 16-O ) :   1.2088
B( 16-O , 59-H ) :   0.9510 B( 17-C , 18-N ) :   1.6184 B( 17-C , 20-C ) :   0.9879
B( 18-N , 19-O ) :   1.0130 B( 18-N , 60-H ) :   0.1486 B( 20-C , 21-C ) :   1.4680
B( 20-C , 26-N ) :   0.1097 B( 20-C , 27-O ) :   1.2332 B( 21-C , 22-C ) :   0.8851
B( 21-C , 25-C ) :   1.2127 B( 22-C , 23-O ) :   2.1537 B( 22-C , 24-O ) :   1.3176
B( 24-O , 60-H ) :   0.8935 B( 25-C , 26-N ) :   1.7041 B( 25-C , 28-C ) :   1.0289
B( 26-N , 27-O ) :   1.0093 B( 28-C , 29-S ) :   1.1488 B( 28-C , 30-C ) :   0.1123
B( 28-C , 32-C ) :   1.4714 B( 29-S , 30-C ) :   1.2061 B( 30-C , 31-C ) :   1.4635
B( 30-C , 61-H ) :   0.9690 B( 31-C , 32-C ) :   1.1671 B( 31-C , 38-C ) :   1.1152
B( 32-C , 33-C ) :   1.1661 B( 33-C , 34-S ) :   1.1834 B( 33-C , 41-C ) :   1.2340
B( 34-S , 35-O ) :   0.6849 B( 34-S , 37-C ) :   0.9985 B( 35-O , 36-C ) :   0.9663
B( 36-C , 62-H ) :   0.9726 B( 36-C , 63-H ) :   0.9651 B( 36-C , 64-H ) :   0.9742
B( 37-C , 38-C ) :   1.6497 B( 37-C , 39-O ) :   1.1414 B( 38-C , 65-H ) :   0.9850
B( 39-O , 40-C ) :   0.9429 B( 40-C , 66-H ) :   0.9788 B( 40-C , 67-H ) :   0.9605
B( 40-C , 68-H ) :   0.9686 B( 41-C , 42-C ) :   1.5611 B( 41-C , 69-H ) :   0.9388
B( 42-C , 43-C ) :   1.2495 B( 42-C , 70-H ) :   0.9508 B( 43-C , 44-C ) :   1.5398
B( 43-C , 71-H ) :   0.9585 B( 44-C , 45-C ) :   1.1708 B( 44-C , 48-S ) :   1.0158
B( 45-C , 46-C ) :   1.5611 B( 45-C , 72-H ) :   0.9979 B( 46-C , 47-C ) :   1.1852
B( 46-C , 73-H ) :   0.9954 B( 47-C , 48-S ) :   1.0436 B( 47-C , 49-C ) :   1.5126
B( 49-C , 50-C ) :   1.1527 B( 49-C , 53-S ) :   1.0660 B( 50-C , 51-C ) :   1.6355
B( 50-C , 74-H ) :   0.9928 B( 51-C , 52-C ) :   1.0840 B( 51-C , 75-H ) :   0.9958
B( 52-C , 53-S ) :   1.0115 B( 52-C , 54-C ) :   1.8647 B( 54-C , 76-H ) :   0.9495
B( 54-C , 77-H ) :   0.9371

-----------------------------------------------------------------------------
         ABSORPTION SPECTRUM VIA TRANSITION ELECTRIC DIPOLE MOMENTS
-----------------------------------------------------------------------------
State   Energy  Wavelength   fosc         T2         TX        TY        TZ
        (cm-1)    (nm)                  (au**2)     (au)      (au)      (au)
-----------------------------------------------------------------------------
   0    4849.0   2062.3   0.017320078   1.17590   0.75178  -0.19866   0.75582
   1   12253.5    816.1   0.281244250   7.55614  -0.63586   0.47783   2.63125
   2   15409.4    649.0   0.470043000  10.04217  -0.31735   0.22024   3.14531
   3   17464.9    572.6   0.001530297   0.02885  -0.12794   0.07909   0.07888
   4   19617.7    509.7   0.029724404   0.49882   0.31539  -0.31693   0.54672
   5   21797.0    458.8   0.002980882   0.04502   0.15694   0.06165   0.12881
   6   22911.0    436.5   0.079550242   1.14307  -0.94937  -0.39254   0.29610
   7   24973.1    400.4   0.058874253   0.77612   0.48984   0.55882  -0.47318
   8   25791.4    387.7   0.026714217   0.34099   0.24226   0.34302  -0.40575
   9   26286.5    380.4   0.009049316   0.11333   0.15784  -0.01753   0.29684
  10   26896.9    371.8   0.160228628   1.96117  -1.00268  -0.94447   0.25250
  11   27159.0    368.2   0.061812921   0.74927   0.68163   0.51238   0.14877
  12   28241.6    354.1   0.019137378   0.22308   0.02862  -0.35641   0.30860
  13   28738.6    348.0   0.047364513   0.54258   0.37231   0.23505   0.59052
  14   29611.3    337.7   0.281103284   3.12525   0.25111   0.65465  -1.62285
  15   30019.1    333.1   1.090459200  11.95879  -2.02896  -1.01975  -2.60810
  16   30709.3    325.6   0.120364449   1.29034   0.74256   0.43856   0.73933
  17   30952.4    323.1   0.180582787   1.92069   0.76354   1.15294  -0.09175
  18   31396.9    318.5   0.002773065   0.02908  -0.16417  -0.04442   0.01236
  19   32303.9    309.6   0.005559966   0.05666  -0.06006  -0.16954   0.15592
  20   32727.4    305.6   0.017090266   0.17191  -0.31564  -0.26660   0.03486
  21   33363.1    299.7   0.015349220   0.15146   0.16698   0.02568   0.35060
  22   33803.5    295.8   0.030639332   0.29840   0.13062   0.50345  -0.16696
  23   34191.8    292.5   0.007634576   0.07351  -0.07785  -0.15648  -0.20727
  24   34320.1    291.4   0.072743629   0.69779  -0.33240  -0.74257  -0.18945
  25   34628.5    288.8   0.075299017   0.71586  -0.14813  -0.47681  -0.68306
  26   34743.0    287.8   0.120026659   1.13733  -0.44644  -0.96750   0.04424
  27   34977.9    285.9   0.000902990   0.00850  -0.04275   0.08119  -0.00887
  28   35754.0    279.7   0.037219707   0.34271  -0.35150  -0.14304  -0.44575
  29   35923.6    278.4   0.001580125   0.01448  -0.04908   0.08046   0.07482
  30   36279.7    275.6   0.080085131   0.72671  -0.24320  -0.29729   0.76105
  31   36995.9    270.3   0.006773472   0.06027  -0.03420   0.16767   0.17604
  32   37338.8    267.8   0.038429123   0.33883  -0.19241   0.23009  -0.49886
  33   37494.7    266.7   0.027331115   0.23997   0.10740   0.17938   0.44302
  34   37654.5    265.6   0.064283429   0.56203   0.33360   0.19803  -0.64150
  35   38052.7    262.8   0.004460707   0.03859  -0.18240   0.03957  -0.06129
  36   38594.4    259.1   0.038017344   0.32429   0.07759   0.52278   0.21207
  37   38832.2    257.5   0.045398145   0.38488  -0.41593  -0.27572   0.36859
  38   39063.8    256.0   0.006443255   0.05430  -0.09184  -0.06054   0.20543
  39   39141.9    255.5   0.159908305   1.34495   0.89413   0.67881  -0.29103
  40   39266.9    254.7   0.008782704   0.07363   0.25033   0.09563   0.04270
  41   40036.7    249.8   0.027402911   0.22533   0.31922   0.31799   0.14937

FINAL SINGLE POINT ENERGY     -4004.600035777095

DIPOLE MOMENT
-------------
                                X             Y             Z
Electronic contribution:     -7.86135      16.46813     -20.87704
Nuclear contribution   :      6.57243     -17.22329      19.83757
                        -----------------------------------------
Total Dipole Moment    :     -1.28891      -0.75516      -1.03947
                        -----------------------------------------
Magnitude (a.u.)       :      1.81990
Magnitude (Debye)      :      4.62583

Rotational constants in cm-1:     0.003096     0.000743     0.000684
Rotational constants in MHz :    92.809211    22.285130    20.515682

                             ****ORCA TERMINATED NORMALLY****
TOTAL RUN TIME: 0 days 0 hours 7 minutes 20 seconds 25 msec
