                         Program Version 4.2.0 -  RELEASE  -
|  1> # ORCA input file
|  2> # SCF done       -171.072479568677          0.000251446023
|  3> ! CAM-B3LYP def2-SVP def2/J RIJCOSX Grid4 TightSCF
|  4> %maxcore 5000
|  5> %tddft
|  6>     Mode sTDDFT
|  7>     Ethresh 5.0
|  8>     maxcore 5000
|  9> end
| 10>
| 11> %pal
| 12>   nprocs 6
| 13>   end
| 14> * xyz 0 1
| 15>    C      -10.88216        -8.55161        -9.18738
| 16>    O      -10.31677        -8.66018        -7.97066
| 17>    C      -10.36582        -9.49813       -10.01585
| 18>    C      -10.40073       -10.05998       -11.37561
| 19>    O      -11.04825        -9.75710       -12.34225
| 20>    N       -9.46961       -11.09056       -11.32441
| 21>    C       -8.83195       -11.26872       -10.09301
| 22>    O       -7.99963       -12.11010        -9.86785
| 23>    C       -9.41656       -10.23528        -9.24663
| 24>    C       -9.41622        -9.68410        -7.98044
| 25>    C       -8.69796        -9.98456        -6.79201
| 26>    C       -7.78543       -10.98222        -6.71840
| 27>    C       -7.04954       -11.30215        -5.54942
| 28>    O       -6.13725       -12.32126        -5.62593
| 29>    C       -5.58308       -12.41342        -4.41775
| 30>    C       -4.70850       -13.22587        -3.66142
| 31>    C       -4.08560       -14.46019        -4.20136
| 32>    O       -3.58562       -14.51045        -5.30154
| 33>    N       -4.25932       -15.55410        -3.41581
| 34>    C       -4.73945       -12.66901        -2.38129
| 35>    O       -5.59676       -11.59174        -2.32561
| 36>    C       -6.12548       -11.45842        -3.55281
| 37>    C       -7.08383       -10.74647        -4.27114
| 38>    C       -4.24066       -13.04767        -1.09955
| 39>    S       -5.20480       -12.44349         0.21299
| 40>    C       -4.39351       -13.41535         1.34387
| 41>    C       -3.38675       -14.17950         0.78365
| 42>    C       -3.25053       -13.91737        -0.63566
| 43>    C       -2.18356       -14.50031        -1.38080
| 44>    C       -1.43823       -15.47493        -0.74560
| 45>    C       -1.64103       -15.82328         0.58798
| 46>    C       -2.54929       -15.16591         1.38831
| 47>    O       -2.53274       -15.57056         2.68845
| 48>    C       -3.27489       -14.93973         3.69943
| 49>    C       -1.78020       -13.99902        -2.67707
| 50>    C       -1.16106       -14.76929        -3.59503
| 51>    C       -0.46803       -14.41300        -4.78475
| 52>    S        0.17595       -15.76061        -5.69077
| 53>    C        1.17486       -14.75200        -6.62698
| 54>    C        1.03790       -13.42754        -6.29010
| 55>    C        0.04415       -13.21196        -5.27674
| 56>    C       -0.30262       -11.89608        -4.86197
| 57>    S        0.78498       -10.60184        -5.02127
| 58>    O        1.95538       -10.63639        -3.69268
| 59>    C        2.27835       -11.87973        -3.15299
| 60>    C        1.86336       -11.13335        -6.32392
| 61>    C        1.82267       -12.37665        -6.84237
| 62>    O        2.64560       -10.18613        -6.89639
| 63>    C        2.73837        -8.92578        -6.26860
| 64>    C       -1.60461       -11.45516        -4.46023
| 65>    C       -1.78830       -10.38823        -3.64859
| 66>    C       -3.01095        -9.67586        -3.45482
| 67>    S       -3.37285        -8.97760        -1.91116
| 68>    C       -4.78065        -8.20726        -2.49799
| 69>    C       -4.97656        -8.44565        -3.84116
| 70>    C       -3.97048        -9.30830        -4.39694
| 71>    C       -3.99515        -9.61164        -5.77676
| 72>    C       -4.97031        -9.07153        -6.56011
| 73>    C       -5.96264        -8.22307        -6.02760
| 74>    C       -5.98855        -7.92013        -4.69607
| 75>    O       -6.98124        -7.12003        -4.20769
| 76>    H      -11.61481        -7.78139        -9.32413
| 77>    H       -9.26640       -11.67443       -12.12333
| 78>    H       -8.91801        -9.35998        -5.93994
| 79>    H       -7.57322       -11.58984        -7.58775
| 80>    H       -4.54896       -15.47152        -2.45819
| 81>    H       -3.82501       -16.41351        -3.70965
| 82>    H       -7.72225        -9.95778        -3.93632
| 83>    H       -4.72919       -13.36659         2.35728
| 84>    H       -0.62251       -15.94262        -1.27398
| 85>    H       -1.02650       -16.58106         1.04710
| 86>    H       -2.94471       -15.40809         4.62706
| 87>    H       -4.34907       -15.11261         3.58148
| 88>    H       -3.06651       -13.86743         3.74901
| 89>    H       -1.94081       -12.94703        -2.85002
| 90>    H       -1.13491       -15.83731        -3.40761
| 91>    H        1.83097       -15.17014        -7.36398
| 92>    H        2.91776       -12.45670        -3.83203
| 93>    H        1.37253       -12.46091        -2.93696
| 94>    H        2.81265       -11.69434        -2.22098
| 95>    H        2.46045       -12.59864        -7.68559
| 96>    H        3.53834        -8.39987        -6.78658
| 97>    H        2.98303        -9.02057        -5.20743
| 98>    H        1.80482        -8.36354        -6.37515
| 99>    H       -2.44368       -11.98701        -4.88894
|100>    H       -0.93548       -10.01333        -3.09289
|101>    H       -5.36828        -7.62542        -1.81410
|102>    H       -3.23231       -10.24843        -6.19394
|103>    H       -4.99548        -9.28681        -7.61709
|104>    H       -6.71812        -7.80475        -6.67245
|105>    H       -6.82123        -6.93666        -3.27551
|106> *
|107>
|108>                          ****END OF INPUT****

CARTESIAN COORDINATES (ANGSTROEM)
---------------------------------
  C    -10.882160   -8.551610   -9.187380
  O    -10.316770   -8.660180   -7.970660
  C    -10.365820   -9.498130  -10.015850
  C    -10.400730  -10.059980  -11.375610
  O    -11.048250   -9.757100  -12.342250
  N     -9.469610  -11.090560  -11.324410
  C     -8.831950  -11.268720  -10.093010
  O     -7.999630  -12.110100   -9.867850
  C     -9.416560  -10.235280   -9.246630
  C     -9.416220   -9.684100   -7.980440
  C     -8.697960   -9.984560   -6.792010
  C     -7.785430  -10.982220   -6.718400
  C     -7.049540  -11.302150   -5.549420
  O     -6.137250  -12.321260   -5.625930
  C     -5.583080  -12.413420   -4.417750
  C     -4.708500  -13.225870   -3.661420
  C     -4.085600  -14.460190   -4.201360
  O     -3.585620  -14.510450   -5.301540
  N     -4.259320  -15.554100   -3.415810
  C     -4.739450  -12.669010   -2.381290
  O     -5.596760  -11.591740   -2.325610
  C     -6.125480  -11.458420   -3.552810
  C     -7.083830  -10.746470   -4.271140
  C     -4.240660  -13.047670   -1.099550
  S     -5.204800  -12.443490    0.212990
  C     -4.393510  -13.415350    1.343870
  C     -3.386750  -14.179500    0.783650
  C     -3.250530  -13.917370   -0.635660
  C     -2.183560  -14.500310   -1.380800
  C     -1.438230  -15.474930   -0.745600
  C     -1.641030  -15.823280    0.587980
  C     -2.549290  -15.165910    1.388310
  O     -2.532740  -15.570560    2.688450
  C     -3.274890  -14.939730    3.699430
  C     -1.780200  -13.999020   -2.677070
  C     -1.161060  -14.769290   -3.595030
  C     -0.468030  -14.413000   -4.784750
  S      0.175950  -15.760610   -5.690770
  C      1.174860  -14.752000   -6.626980
  C      1.037900  -13.427540   -6.290100
  C      0.044150  -13.211960   -5.276740
  C     -0.302620  -11.896080   -4.861970
  S      0.784980  -10.601840   -5.021270
  O      1.955380  -10.636390   -3.692680
  C      2.278350  -11.879730   -3.152990
  C      1.863360  -11.133350   -6.323920
  C      1.822670  -12.376650   -6.842370
  O      2.645600  -10.186130   -6.896390
  C      2.738370   -8.925780   -6.268600
  C     -1.604610  -11.455160   -4.460230
  C     -1.788300  -10.388230   -3.648590
  C     -3.010950   -9.675860   -3.454820
  S     -3.372850   -8.977600   -1.911160
  C     -4.780650   -8.207260   -2.497990
  C     -4.976560   -8.445650   -3.841160
  C     -3.970480   -9.308300   -4.396940
  C     -3.995150   -9.611640   -5.776760
  C     -4.970310   -9.071530   -6.560110
  C     -5.962640   -8.223070   -6.027600
  C     -5.988550   -7.920130   -4.696070
  O     -6.981240   -7.120030   -4.207690
  H    -11.614810   -7.781390   -9.324130
  H     -9.266400  -11.674430  -12.123330
  H     -8.918010   -9.359980   -5.939940
  H     -7.573220  -11.589840   -7.587750
  H     -4.548960  -15.471520   -2.458190
  H     -3.825010  -16.413510   -3.709650
  H     -7.722250   -9.957780   -3.936320
  H     -4.729190  -13.366590    2.357280
  H     -0.622510  -15.942620   -1.273980
  H     -1.026500  -16.581060    1.047100
  H     -2.944710  -15.408090    4.627060
  H     -4.349070  -15.112610    3.581480
  H     -3.066510  -13.867430    3.749010
  H     -1.940810  -12.947030   -2.850020
  H     -1.134910  -15.837310   -3.407610
  H      1.830970  -15.170140   -7.363980
  H      2.917760  -12.456700   -3.832030
  H      1.372530  -12.460910   -2.936960
  H      2.812650  -11.694340   -2.220980
  H      2.460450  -12.598640   -7.685590
  H      3.538340   -8.399870   -6.786580
  H      2.983030   -9.020570   -5.207430
  H      1.804820   -8.363540   -6.375150
  H     -2.443680  -11.987010   -4.888940
  H     -0.935480  -10.013330   -3.092890
  H     -5.368280   -7.625420   -1.814100
  H     -3.232310  -10.248430   -6.193940
  H     -4.995480   -9.286810   -7.617090
  H     -6.718120   -7.804750   -6.672450
  H     -6.821230   -6.936660   -3.275510

 Total Charge           Charge          ....    0
 Multiplicity           Mult            ....    1
 Number of Electrons    NEL             ....  458
 Basis Dimension        Dim             .... 1020

ORBITAL ENERGIES
----------------

  NO   OCC          E(Eh)            E(eV)
   0   2.0000     -89.040890     -2422.9258
   1   2.0000     -88.968643     -2420.9599
   2   2.0000     -88.952351     -2420.5165
   3   2.0000     -88.943783     -2420.2834
   4   2.0000     -19.299610      -525.1691
   5   2.0000     -19.292515      -524.9760
   6   2.0000     -19.284202      -524.7498
   7   2.0000     -19.250758      -523.8398
   8   2.0000     -19.246440      -523.7222
   9   2.0000     -19.240719      -523.5666
  10   2.0000     -19.217580      -522.9369
  11   2.0000     -19.198839      -522.4270
  12   2.0000     -19.196100      -522.3524
  13   2.0000     -19.167129      -521.5641
  14   2.0000     -14.441497      -392.9731
  15   2.0000     -14.414903      -392.2494
  16   2.0000     -10.386863      -282.6409
  17   2.0000     -10.386747      -282.6378
  18   2.0000     -10.366444      -282.0853
  19   2.0000     -10.350830      -281.6604
  20   2.0000     -10.349197      -281.6160
  21   2.0000     -10.348198      -281.5888
  22   2.0000     -10.341145      -281.3969
  23   2.0000     -10.336290      -281.2648
  24   2.0000     -10.328399      -281.0500
  25   2.0000     -10.324983      -280.9571
  26   2.0000     -10.320945      -280.8472
  27   2.0000     -10.320484      -280.8346
  28   2.0000     -10.319677      -280.8127
  29   2.0000     -10.318431      -280.7788
  30   2.0000     -10.308510      -280.5088
  31   2.0000     -10.302076      -280.3337
  32   2.0000     -10.301308      -280.3128
  33   2.0000     -10.291834      -280.0551
  34   2.0000     -10.288597      -279.9670
  35   2.0000     -10.287046      -279.9248
  36   2.0000     -10.286387      -279.9068
  37   2.0000     -10.285309      -279.8775
  38   2.0000     -10.283663      -279.8327
  39   2.0000     -10.283037      -279.8157
  40   2.0000     -10.281110      -279.7632
  41   2.0000     -10.280371      -279.7431
  42   2.0000     -10.277347      -279.6608
  43   2.0000     -10.277164      -279.6559
  44   2.0000     -10.276968      -279.6505
  45   2.0000     -10.276698      -279.6432
  46   2.0000     -10.274377      -279.5800
  47   2.0000     -10.272259      -279.5224
  48   2.0000     -10.271979      -279.5148
  49   2.0000     -10.271047      -279.4894
  50   2.0000     -10.269062      -279.4354
  51   2.0000     -10.268514      -279.4205
  52   2.0000     -10.265849      -279.3480
  53   2.0000     -10.265137      -279.3286
  54   2.0000     -10.265098      -279.3275
  55   2.0000     -10.257918      -279.1321
  56   2.0000     -10.256554      -279.0950
  57   2.0000     -10.254614      -279.0422
  58   2.0000     -10.251524      -278.9582
  59   2.0000     -10.249132      -278.8931
  60   2.0000     -10.246052      -278.8092
  61   2.0000      -8.123804      -221.0600
  62   2.0000      -8.063918      -219.4304
  63   2.0000      -8.047690      -218.9888
  64   2.0000      -8.039661      -218.7703
  65   2.0000      -6.093691      -165.8178
  66   2.0000      -6.090985      -165.7441
  67   2.0000      -6.085628      -165.5984
  68   2.0000      -6.032878      -164.1630
  69   2.0000      -6.028494      -164.0437
  70   2.0000      -6.026965      -164.0021
  71   2.0000      -6.016715      -163.7231
  72   2.0000      -6.012424      -163.6064
  73   2.0000      -6.010644      -163.5579
  74   2.0000      -6.008713      -163.5054
  75   2.0000      -6.004611      -163.3938
  76   2.0000      -6.002264      -163.3299
  77   2.0000      -1.215669       -33.0800
  78   2.0000      -1.213666       -33.0255
  79   2.0000      -1.194639       -32.5078
  80   2.0000      -1.159023       -31.5386
  81   2.0000      -1.149370       -31.2759
  82   2.0000      -1.142347       -31.0848
  83   2.0000      -1.132903       -30.8279
  84   2.0000      -1.121909       -30.5287
  85   2.0000      -1.107626       -30.1400
  86   2.0000      -1.101798       -29.9814
  87   2.0000      -1.028832       -27.9960
  88   2.0000      -0.996898       -27.1270
  89   2.0000      -0.983396       -26.7596
  90   2.0000      -0.978034       -26.6137
  91   2.0000      -0.974920       -26.5289
  92   2.0000      -0.944695       -25.7065
  93   2.0000      -0.931337       -25.3430
  94   2.0000      -0.918923       -25.0052
  95   2.0000      -0.908866       -24.7315
  96   2.0000      -0.905260       -24.6334
  97   2.0000      -0.899906       -24.4877
  98   2.0000      -0.897949       -24.4344
  99   2.0000      -0.893665       -24.3179
 100   2.0000      -0.881053       -23.9747
 101   2.0000      -0.864889       -23.5348
 102   2.0000      -0.859833       -23.3972
 103   2.0000      -0.844429       -22.9781
 104   2.0000      -0.842197       -22.9173
 105   2.0000      -0.835058       -22.7231
 106   2.0000      -0.823404       -22.4060
 107   2.0000      -0.819690       -22.3049
 108   2.0000      -0.813996       -22.1499
 109   2.0000      -0.805397       -21.9160
 110   2.0000      -0.793075       -21.5807
 111   2.0000      -0.784401       -21.3446
 112   2.0000      -0.771224       -20.9861
 113   2.0000      -0.759636       -20.6707
 114   2.0000      -0.752793       -20.4845
 115   2.0000      -0.750077       -20.4106
 116   2.0000      -0.747183       -20.3319
 117   2.0000      -0.736177       -20.0324
 118   2.0000      -0.723088       -19.6762
 119   2.0000      -0.719136       -19.5687
 120   2.0000      -0.705696       -19.2030
 121   2.0000      -0.695841       -18.9348
 122   2.0000      -0.690487       -18.7891
 123   2.0000      -0.688152       -18.7256
 124   2.0000      -0.680451       -18.5160
 125   2.0000      -0.676823       -18.4173
 126   2.0000      -0.671443       -18.2709
 127   2.0000      -0.668044       -18.1784
 128   2.0000      -0.662506       -18.0277
 129   2.0000      -0.650868       -17.7110
 130   2.0000      -0.646645       -17.5961
 131   2.0000      -0.630827       -17.1657
 132   2.0000      -0.629718       -17.1355
 133   2.0000      -0.628512       -17.1027
 134   2.0000      -0.620847       -16.8941
 135   2.0000      -0.612766       -16.6742
 136   2.0000      -0.611226       -16.6323
 137   2.0000      -0.602491       -16.3946
 138   2.0000      -0.598252       -16.2793
 139   2.0000      -0.587707       -15.9923
 140   2.0000      -0.586880       -15.9698
 141   2.0000      -0.583432       -15.8760
 142   2.0000      -0.581250       -15.8166
 143   2.0000      -0.580807       -15.8046
 144   2.0000      -0.577803       -15.7228
 145   2.0000      -0.574460       -15.6319
 146   2.0000      -0.569224       -15.4894
 147   2.0000      -0.565290       -15.3823
 148   2.0000      -0.560312       -15.2469
 149   2.0000      -0.557904       -15.1813
 150   2.0000      -0.556038       -15.1306
 151   2.0000      -0.553318       -15.0566
 152   2.0000      -0.550095       -14.9688
 153   2.0000      -0.541745       -14.7416
 154   2.0000      -0.541289       -14.7292
 155   2.0000      -0.539795       -14.6886
 156   2.0000      -0.534198       -14.5363
 157   2.0000      -0.529774       -14.4159
 158   2.0000      -0.529588       -14.4108
 159   2.0000      -0.527884       -14.3645
 160   2.0000      -0.526337       -14.3224
 161   2.0000      -0.523624       -14.2485
 162   2.0000      -0.521810       -14.1992
 163   2.0000      -0.517325       -14.0771
 164   2.0000      -0.515279       -14.0215
 165   2.0000      -0.509035       -13.8516
 166   2.0000      -0.504537       -13.7291
 167   2.0000      -0.502724       -13.6798
 168   2.0000      -0.501049       -13.6342
 169   2.0000      -0.500488       -13.6190
 170   2.0000      -0.498895       -13.5756
 171   2.0000      -0.493510       -13.4291
 172   2.0000      -0.491200       -13.3662
 173   2.0000      -0.488111       -13.2822
 174   2.0000      -0.486626       -13.2418
 175   2.0000      -0.484380       -13.1807
 176   2.0000      -0.483423       -13.1546
 177   2.0000      -0.479693       -13.0531
 178   2.0000      -0.476695       -12.9715
 179   2.0000      -0.471718       -12.8361
 180   2.0000      -0.469481       -12.7752
 181   2.0000      -0.469289       -12.7700
 182   2.0000      -0.465462       -12.6659
 183   2.0000      -0.459474       -12.5029
 184   2.0000      -0.456922       -12.4335
 185   2.0000      -0.449550       -12.2329
 186   2.0000      -0.445988       -12.1360
 187   2.0000      -0.442525       -12.0417
 188   2.0000      -0.441902       -12.0248
 189   2.0000      -0.440699       -11.9920
 190   2.0000      -0.438808       -11.9406
 191   2.0000      -0.436830       -11.8868
 192   2.0000      -0.429983       -11.7004
 193   2.0000      -0.427717       -11.6388
 194   2.0000      -0.424209       -11.5433
 195   2.0000      -0.419792       -11.4231
 196   2.0000      -0.414703       -11.2846
 197   2.0000      -0.413795       -11.2599
 198   2.0000      -0.411603       -11.2003
 199   2.0000      -0.409475       -11.1424
 200   2.0000      -0.405517       -11.0347
 201   2.0000      -0.403080       -10.9684
 202   2.0000      -0.400712       -10.9039
 203   2.0000      -0.398797       -10.8518
 204   2.0000      -0.390536       -10.6270
 205   2.0000      -0.385514       -10.4904
 206   2.0000      -0.375053       -10.2057
 207   2.0000      -0.366736        -9.9794
 208   2.0000      -0.364734        -9.9249
 209   2.0000      -0.362020        -9.8511
 210   2.0000      -0.355617        -9.6768
 211   2.0000      -0.348602        -9.4859
 212   2.0000      -0.346828        -9.4377
 213   2.0000      -0.343096        -9.3361
 214   2.0000      -0.339339        -9.2339
 215   2.0000      -0.335298        -9.1239
 216   2.0000      -0.332702        -9.0533
 217   2.0000      -0.331558        -9.0222
 218   2.0000      -0.323646        -8.8068
 219   2.0000      -0.320319        -8.7163
 220   2.0000      -0.316025        -8.5995
 221   2.0000      -0.306820        -8.3490
 222   2.0000      -0.293109        -7.9759
 223   2.0000      -0.289966        -7.8904
 224   2.0000      -0.266831        -7.2608
 225   2.0000      -0.259206        -7.0534
 226   2.0000      -0.238453        -6.4886
 227   2.0000      -0.220737        -6.0066
 228   2.0000      -0.208985        -5.6868
 229   0.0000      -0.056994        -1.5509
 230   0.0000      -0.033540        -0.9127
 231   0.0000      -0.026257        -0.7145
 232   0.0000      -0.019317        -0.5256
 233   0.0000      -0.004065        -0.1106

MULLIKEN ATOMIC CHARGES
-----------------------
   0 C :    0.066211
   1 O :   -0.187730
   2 C :   -0.020920
   3 C :    0.171772
   4 O :   -0.146269
   5 N :   -0.166310
   6 C :    0.187997
   7 O :   -0.154161
   8 C :   -0.116397
   9 C :    0.127423
  10 C :   -0.015935
  11 C :    0.016076
  12 C :    0.165214
  13 O :   -0.175704
  14 C :    0.107033
  15 C :   -0.117579
  16 C :    0.055622
  17 O :   -0.197651
  18 N :   -0.058031
  19 C :    0.178018
  20 O :   -0.228083
  21 C :    0.236300
  22 C :   -0.137988
  23 C :   -0.285247
  24 S :    0.197759
  25 C :   -0.169421
  26 C :    0.045432
  27 C :    0.139345
  28 C :    0.006109
  29 C :   -0.038599
  30 C :   -0.038913
  31 C :    0.185346
  32 O :   -0.306762
  33 C :    0.173976
  34 C :   -0.025264
  35 C :    0.056576
  36 C :   -0.161994
  37 S :    0.124407
  38 C :   -0.123810
  39 C :    0.045281
  40 C :    0.231069
  41 C :   -0.324206
  42 S :    0.400020
  43 O :   -0.483092
  44 C :    0.165921
  45 C :    0.051826
  46 C :    0.057284
  47 O :   -0.304746
  48 C :    0.159585
  49 C :    0.017326
  50 C :   -0.037227
  51 C :   -0.177508
  52 S :    0.153638
  53 C :   -0.217798
  54 C :    0.077534
  55 C :    0.136131
  56 C :   -0.028397
  57 C :    0.041419
  58 C :   -0.068180
  59 C :    0.119052
  60 O :   -0.190369
  61 H :    0.024851
  62 H :    0.135937
  63 H :   -0.009480
  64 H :    0.020541
  65 H :    0.124731
  66 H :    0.123607
  67 H :   -0.007408
  68 H :    0.013157
  69 H :   -0.023175
  70 H :   -0.023629
  71 H :    0.035681
  72 H :    0.028427
  73 H :    0.030114
  74 H :    0.008086
  75 H :   -0.031264
  76 H :    0.014284
  77 H :    0.015171
  78 H :    0.037138
  79 H :    0.033619
  80 H :   -0.013250
  81 H :    0.043586
  82 H :    0.039739
  83 H :    0.030928
  84 H :    0.044048
  85 H :    0.002880
  86 H :    0.001705
  87 H :   -0.025123
  88 H :   -0.014296
  89 H :   -0.027269
  90 H :    0.174253
Sum of atomic charges:   -0.0000000

LOEWDIN ATOMIC CHARGES
----------------------
   0 C :    0.073404
   1 O :    0.021500
   2 C :   -0.101369
   3 C :    0.083619
   4 O :   -0.160992
   5 N :   -0.006955
   6 C :    0.086570
   7 O :   -0.163309
   8 C :   -0.118937
   9 C :    0.069526
  10 C :   -0.054573
  11 C :    0.009393
  12 C :    0.033747
  13 O :    0.029760
  14 C :    0.019272
  15 C :   -0.114453
  16 C :    0.063090
  17 O :   -0.201499
  18 N :    0.006641
  19 C :    0.032539
  20 O :   -0.007606
  21 C :    0.001269
  22 C :   -0.052576
  23 C :   -0.211121
  24 S :    0.510972
  25 C :   -0.203570
  26 C :   -0.073348
  27 C :   -0.042463
  28 C :   -0.052234
  29 C :   -0.012351
  30 C :   -0.067391
  31 C :    0.061876
  32 O :   -0.099846
  33 C :    0.075961
  34 C :   -0.045222
  35 C :   -0.034990
  36 C :   -0.175593
  37 S :    0.459075
  38 C :   -0.191712
  39 C :   -0.070086
  40 C :   -0.060752
  41 C :   -0.290099
  42 S :    0.866710
  43 O :   -0.363080
  44 C :    0.033868
  45 C :   -0.110329
  46 C :   -0.050986
  47 O :   -0.110869
  48 C :    0.057721
  49 C :   -0.025076
  50 C :   -0.106378
  51 C :   -0.181419
  52 S :    0.474960
  53 C :   -0.236084
  54 C :   -0.078067
  55 C :   -0.045843
  56 C :   -0.037654
  57 C :   -0.018244
  58 C :   -0.073041
  59 C :    0.050315
  60 O :   -0.058763
  61 H :    0.032135
  62 H :    0.092949
  63 H :    0.035338
  64 H :    0.044936
  65 H :    0.075302
  66 H :    0.076983
  67 H :    0.031703
  68 H :    0.018246
  69 H :    0.028311
  70 H :    0.031475
  71 H :    0.030228
  72 H :    0.014403
  73 H :    0.015958
  74 H :    0.030773
  75 H :    0.016898
  76 H :    0.022175
  77 H :    0.007049
  78 H :    0.013325
  79 H :    0.026128
  80 H :    0.043111
  81 H :    0.031037
  82 H :    0.014656
  83 H :    0.014028
  84 H :    0.036757
  85 H :    0.016661
  86 H :    0.011021
  87 H :    0.029586
  88 H :    0.030047
  89 H :    0.028387
  90 H :    0.087486

  Mayer bond orders larger than 0.100000
B(  0-C ,  1-O ) :   1.1453 B(  0-C ,  2-C ) :   1.5443 B(  0-C , 61-H ) :   1.0051
B(  1-O ,  9-C ) :   1.1611 B(  2-C ,  3-C ) :   0.8613 B(  2-C ,  8-C ) :   1.2484
B(  3-C ,  4-O ) :   2.2717 B(  3-C ,  5-N ) :   1.0823 B(  5-N ,  6-C ) :   1.0770
B(  5-N , 62-H ) :   0.9165 B(  6-C ,  7-O ) :   2.1906 B(  6-C ,  8-C ) :   0.9067
B(  8-C ,  9-C ) :   1.4405 B(  9-C , 10-C ) :   1.1661 B( 10-C , 11-C ) :   1.6064
B( 10-C , 63-H ) :   0.9614 B( 11-C , 12-C ) :   1.1584 B( 11-C , 64-H ) :   0.9540
B( 12-C , 13-O ) :   1.1013 B( 12-C , 22-C ) :   1.4375 B( 13-O , 14-C ) :   1.1804
B( 14-C , 15-C ) :   1.2591 B( 14-C , 21-C ) :   1.3599 B( 15-C , 16-C ) :   0.8491
B( 15-C , 19-C ) :   1.4922 B( 16-C , 17-O ) :   2.1697 B( 16-C , 18-N ) :   1.2873
B( 18-N , 65-H ) :   0.9382 B( 18-N , 66-H ) :   0.9400 B( 19-C , 20-O ) :   1.1199
B( 19-C , 23-C ) :   1.1158 B( 20-O , 21-C ) :   1.0976 B( 21-C , 22-C ) :   1.2369
B( 22-C , 67-H ) :   1.0058 B( 23-C , 24-S ) :   1.1792 B( 23-C , 25-C ) :   0.1197
B( 23-C , 27-C ) :   1.3897 B( 24-S , 25-C ) :   1.2054 B( 25-C , 26-C ) :   1.4158
B( 25-C , 68-H ) :   0.9626 B( 26-C , 27-C ) :   1.1857 B( 26-C , 31-C ) :   1.0953
B( 27-C , 28-C ) :   1.1654 B( 28-C , 29-C ) :   1.4881 B( 28-C , 34-C ) :   1.0768
B( 29-C , 30-C ) :   1.2092 B( 29-C , 69-H ) :   0.9875 B( 30-C , 31-C ) :   1.5125
B( 30-C , 70-H ) :   0.9888 B( 31-C , 32-O ) :   1.1763 B( 32-O , 33-C ) :   0.9612
B( 33-C , 71-H ) :   0.9747 B( 33-C , 72-H ) :   0.9679 B( 33-C , 73-H ) :   0.9678
B( 34-C , 35-C ) :   1.7044 B( 34-C , 74-H ) :   0.9514 B( 35-C , 36-C ) :   1.1509
B( 35-C , 75-H ) :   0.9373 B( 36-C , 37-S ) :   1.1267 B( 36-C , 40-C ) :   1.4331
B( 37-S , 38-C ) :   1.1876 B( 38-C , 39-C ) :   1.4586 B( 38-C , 76-H ) :   0.9704
B( 39-C , 40-C ) :   1.2176 B( 39-C , 46-C ) :   1.1088 B( 40-C , 41-C ) :   1.0643
B( 41-C , 42-S ) :   1.3146 B( 41-C , 49-C ) :   1.1588 B( 42-S , 43-O ) :   0.6662
B( 42-S , 45-C ) :   0.9634 B( 43-O , 44-C ) :   0.9723 B( 44-C , 77-H ) :   0.9705
B( 44-C , 78-H ) :   0.9599 B( 44-C , 79-H ) :   0.9735 B( 45-C , 46-C ) :   1.6557
B( 45-C , 47-O ) :   1.1377 B( 46-C , 80-H ) :   0.9855 B( 47-O , 48-C ) :   0.9444
B( 48-C , 81-H ) :   0.9784 B( 48-C , 82-H ) :   0.9591 B( 48-C , 83-H ) :   0.9685
B( 49-C , 50-C ) :   1.6687 B( 49-C , 84-H ) :   0.9649 B( 50-C , 51-C ) :   1.0935
B( 50-C , 85-H ) :   0.9447 B( 51-C , 52-S ) :   1.1836 B( 51-C , 53-C ) :   0.1103
B( 51-C , 55-C ) :   1.3843 B( 52-S , 53-C ) :   1.1794 B( 53-C , 54-C ) :   1.4063
B( 53-C , 86-H ) :   0.9719 B( 54-C , 55-C ) :   1.2044 B( 54-C , 59-C ) :   1.0891
B( 55-C , 56-C ) :   1.1883 B( 56-C , 57-C ) :   1.5432 B( 56-C , 87-H ) :   1.0001
B( 57-C , 58-C ) :   1.1722 B( 57-C , 88-H ) :   0.9870 B( 58-C , 59-C ) :   1.5576
B( 58-C , 89-H ) :   0.9863 B( 59-C , 60-O ) :   1.2238 B( 60-O , 90-H ) :   0.9656

-----------------------------------------------------------------------------
         ABSORPTION SPECTRUM VIA TRANSITION ELECTRIC DIPOLE MOMENTS
-----------------------------------------------------------------------------
State   Energy  Wavelength   fosc         T2         TX        TY        TZ
        (cm-1)    (nm)                  (au**2)     (au)      (au)      (au)
-----------------------------------------------------------------------------
   0   17473.4    572.3   0.143150996   2.69707  -0.76889   0.60180  -1.32050
   1   19824.7    504.4   0.891559519  14.80536   1.85710  -1.16126   3.16354
   2   21819.8    458.3   0.368210089   5.55547   2.26851   0.03339  -0.63893
   3   22605.7    442.4   0.165614026   2.41187   0.85792  -1.25255  -0.32708
   4   23331.2    428.6   0.407562726   5.75086  -0.26892   1.16337  -2.07969
   5   24865.6    402.2   0.065831675   0.87159  -0.84352   0.31958  -0.24070
   6   25517.2    391.9   0.145129301   1.87240  -1.21304   0.54296  -0.32577
   7   25683.0    389.4   0.074098058   0.94981  -0.58869   0.68955  -0.35747
   8   27339.3    365.8   0.029126594   0.35073  -0.39460  -0.04406  -0.43941
   9   28132.9    355.5   0.015962409   0.18679   0.16705  -0.13996   0.37323
  10   29088.3    343.8   0.165795387   1.87642   1.11238  -0.70970  -0.36791
  11   29658.6    337.2   0.057254864   0.63553  -0.28406   0.19392   0.71919
  12   30199.6    331.1   0.079701614   0.86884  -0.24362   0.13337   0.88978
  13   31626.1    316.2   0.202806038   2.11111  -0.83025   0.06893   1.19039
  14   31833.0    314.1   0.037743996   0.39034  -0.05083  -0.56335  -0.26533
  15   32011.4    312.4   0.131670020   1.35412   0.64795   0.94284  -0.21290
  16   32877.6    304.2   0.130480644   1.30654  -0.76210   0.84954   0.06344
  17   33642.4    297.2   0.004491712   0.04395  -0.06495   0.15573  -0.12443
  18   33994.2    294.2   0.101834648   0.98620  -0.23352   0.10572  -0.95943
  19   34404.6    290.7   0.077946829   0.74586   0.26910  -0.04787  -0.81924
  20   34506.5    289.8   0.051290660   0.48934   0.45756  -0.49385   0.18999
  21   34889.5    286.6   0.029318333   0.27664   0.40617   0.30901   0.12720
  22   35424.8    282.3   0.007159163   0.06653  -0.16892  -0.17586  -0.08408
  23   35610.7    280.8   0.046341709   0.42842  -0.52035   0.37597   0.12766
  24   36262.2    275.8   0.014867675   0.13498   0.35090   0.09355   0.05568
  25   36733.4    272.2   0.003825821   0.03429  -0.05632  -0.17368   0.03082
  26   37135.2    269.3   0.015511333   0.13751  -0.00362  -0.31465  -0.19621
  27   37673.9    265.4   0.010306368   0.09006  -0.11904  -0.27522  -0.01199
  28   37954.5    263.5   0.031917975   0.27685  -0.34606  -0.33090   0.21817
  29   38355.8    260.7   0.018687548   0.16040   0.11946   0.38224   0.00481
  30   38777.5    257.9   0.049444144   0.41977   0.17526  -0.51449  -0.35264
  31   39317.4    254.3   0.034091938   0.28546  -0.37489   0.35729   0.13137
  32   39531.1    253.0   0.049987478   0.41629   0.05561  -0.60119  -0.22754
  33   39952.6    250.3   0.120477741   0.99274  -0.52148  -0.30627  -0.79183
  34   40018.1    249.9   0.007291876   0.05999  -0.08960  -0.00327   0.22792

FINAL SINGLE POINT ENERGY     -4183.495777621807

DIPOLE MOMENT
-------------
                                X             Y             Z
Electronic contribution:    -28.32117       2.57819     -16.44543
Nuclear contribution   :     29.24157      -2.37719      19.72899
                        -----------------------------------------
Total Dipole Moment    :      0.92041       0.20101       3.28357
                        -----------------------------------------
Magnitude (a.u.)       :      3.41604
Magnitude (Debye)      :      8.68289

Rotational constants in cm-1:     0.001585     0.000811     0.000689
Rotational constants in MHz :    47.522795    24.323387    20.660657

                             ****ORCA TERMINATED NORMALLY****
TOTAL RUN TIME: 0 days 0 hours 9 minutes 14 seconds 286 msec
