                         Program Version 4.2.0 -  RELEASE  -
|  1> # ORCA input file
|  2> # SCF done       -177.837309413111          0.000625032446
|  3> ! CAM-B3LYP def2-SVP def2/J RIJCOSX Grid4 TightSCF
|  4> %maxcore 5000
|  5> %tddft
|  6>     Mode sTDDFT
|  7>     Ethresh 5.0
|  8>     maxcore 5000
|  9> end
| 10>
| 11> %pal
| 12>   nprocs 6
| 13>   end
| 14> * xyz 0 1
| 15>    C       -4.17114         2.26611        -0.54023
| 16>    S       -5.31100         1.02614        -0.28234
| 17>    C       -4.08030        -0.14177         0.09442
| 18>    C       -2.81109         0.47255         0.09977
| 19>    C       -2.88081         1.84872        -0.29938
| 20>    C       -1.68452         2.61570        -0.39930
| 21>    C       -1.74294         3.95848        -0.81787
| 22>    N       -1.77381         5.05788        -1.14841
| 23>    C       -0.47984         2.03831        -0.06431
| 24>    C       -0.43738         0.72652         0.42485
| 25>    C       -1.57060        -0.04012         0.51433
| 26>    C       -4.44996        -1.49941         0.29707
| 27>    C       -5.79679        -1.85401         0.56948
| 28>    C       -6.21759        -3.20321         0.86164
| 29>    N       -7.50277        -3.46332         1.09817
| 30>    C       -8.38395        -2.48283         1.06254
| 31>    C       -7.97015        -1.14332         0.79755
| 32>    N       -6.70759        -0.87268         0.56338
| 33>    C       -8.91869        -0.09152         0.77937
| 34>    N       -9.71544         0.73191         0.77378
| 35>    C       -9.74825        -2.78031         1.28827
| 36>    N      -10.85984        -2.99571         1.46814
| 37>    C       -5.28389        -4.28268         0.93727
| 38>    C       -3.98259        -3.95389         0.47213
| 39>    C       -3.57557        -2.60558         0.15094
| 40>    N       -2.34332        -2.58010        -0.35331
| 41>    S       -1.74740        -4.07093        -0.41139
| 42>    N       -3.02939        -4.83391         0.19356
| 43>    C       -5.69041        -5.52853         1.43187
| 44>    C       -4.90731        -6.54654         1.94574
| 45>    C       -5.39434        -7.71828         2.57396
| 46>    C       -4.44667        -8.44665         3.24179
| 47>    C       -3.16804        -7.86534         3.18675
| 48>    S       -3.17919        -6.46117         2.14394
| 49>    C       -1.98999        -8.13326         3.87126
| 50>    C       -1.60624        -9.17346         4.74455
| 51>    C       -0.38496        -8.98844         5.32553
| 52>    C        0.25103        -7.76447         4.98069
| 53>    S       -0.73459        -6.92916         3.78213
| 54>    C        1.42500        -7.22929         5.42666
| 55>    C        1.83129        -5.87825         5.12824
| 56>    C        0.86873        -4.85309         5.06656
| 57>    C        1.22850        -3.59202         4.67013
| 58>    C        2.57389        -3.29972         4.36749
| 59>    C        3.54675        -4.28417         4.50046
| 60>    C        3.17436        -5.55663         4.88604
| 61>    C        2.66707        -1.90638         3.98935
| 62>    C        1.38334        -1.34007         4.07714
| 63>    C        0.36230        -2.36239         4.52101
| 64>    C       -0.68834        -2.48214         3.39274
| 65>    C       -1.88414        -3.38355         3.66607
| 66>    C       -0.28727        -1.96434         5.85732
| 67>    C        0.74135        -1.64733         6.93696
| 68>    C        1.16202        -0.02775         3.75106
| 69>    C        2.23046         0.77227         3.31660
| 70>    C        3.51143         0.20131         3.25438
| 71>    C        3.73893        -1.12012         3.58408
| 72>    C        2.03582         2.14241         2.90962
| 73>    C        0.83196         2.74495         2.81121
| 74>    C        0.58568         4.07058         2.36913
| 75>    S        1.87043         5.16488         1.95820
| 76>    C        0.78904         6.41769         1.56280
| 77>    C       -0.52849         6.04297         1.72236
| 78>    C       -0.65347         4.68851         2.18302
| 79>    C       -1.96506         4.16025         2.35847
| 80>    C       -2.21652         2.83197         2.75802
| 81>    N       -2.49205         1.75994         3.06774
| 82>    C       -3.05954         4.96047         2.10537
| 83>    C       -2.91414         6.28912         1.67175
| 84>    C       -1.67747         6.82850         1.47553
| 85>    H       -4.48926         3.24621        -0.83833
| 86>    H        0.43215         2.61008        -0.15479
| 87>    H        0.51031         0.32032         0.74466
| 88>    H       -1.50709        -1.03901         0.90502
| 89>    H       -6.76186        -5.65148         1.53166
| 90>    H       -6.43947        -7.97278         2.54437
| 91>    H       -4.65152        -9.34540         3.79639
| 92>    H       -2.23690       -10.02743         4.91934
| 93>    H        0.06203        -9.67168         6.02635
| 94>    H        2.09144        -7.85209         6.00840
| 95>    H       -0.14032        -5.05643         5.38614
| 96>    H        4.58400        -4.05897         4.30118
| 97>    H        3.92048        -6.33403         4.96702
| 98>    H       -0.17353        -2.83533         2.49428
| 99>    H       -1.06005        -1.47504         3.19142
|100>    H       -1.58042        -4.41567         3.80368
|101>    H       -2.56104        -3.34919         2.81441
|102>    H       -2.43847        -3.05218         4.53949
|103>    H       -0.91905        -2.78381         6.20200
|104>    H       -0.92087        -1.09112         5.69086
|105>    H        1.38595        -2.50530         7.11760
|106>    H        0.23896        -1.39303         7.86748
|107>    H        1.36516        -0.80623         6.64296
|108>    H        0.16832         0.38342         3.83145
|109>    H        4.33781         0.81714         2.92831
|110>    H        4.73401        -1.53495         3.51907
|111>    H        2.92624         2.69763         2.63964
|112>    H       -0.06009         2.19522         3.06460
|113>    H        1.16466         7.36335         1.22747
|114>    H       -4.05020         4.54910         2.23565
|115>    H       -3.80145         6.87300         1.48298
|116>    H       -1.55381         7.84112         1.12539
|117> *
|118>
|119>                          ****END OF INPUT****

CARTESIAN COORDINATES (ANGSTROEM)
---------------------------------
  C     -4.171140    2.266110   -0.540230
  S     -5.311000    1.026140   -0.282340
  C     -4.080300   -0.141770    0.094420
  C     -2.811090    0.472550    0.099770
  C     -2.880810    1.848720   -0.299380
  C     -1.684520    2.615700   -0.399300
  C     -1.742940    3.958480   -0.817870
  N     -1.773810    5.057880   -1.148410
  C     -0.479840    2.038310   -0.064310
  C     -0.437380    0.726520    0.424850
  C     -1.570600   -0.040120    0.514330
  C     -4.449960   -1.499410    0.297070
  C     -5.796790   -1.854010    0.569480
  C     -6.217590   -3.203210    0.861640
  N     -7.502770   -3.463320    1.098170
  C     -8.383950   -2.482830    1.062540
  C     -7.970150   -1.143320    0.797550
  N     -6.707590   -0.872680    0.563380
  C     -8.918690   -0.091520    0.779370
  N     -9.715440    0.731910    0.773780
  C     -9.748250   -2.780310    1.288270
  N    -10.859840   -2.995710    1.468140
  C     -5.283890   -4.282680    0.937270
  C     -3.982590   -3.953890    0.472130
  C     -3.575570   -2.605580    0.150940
  N     -2.343320   -2.580100   -0.353310
  S     -1.747400   -4.070930   -0.411390
  N     -3.029390   -4.833910    0.193560
  C     -5.690410   -5.528530    1.431870
  C     -4.907310   -6.546540    1.945740
  C     -5.394340   -7.718280    2.573960
  C     -4.446670   -8.446650    3.241790
  C     -3.168040   -7.865340    3.186750
  S     -3.179190   -6.461170    2.143940
  C     -1.989990   -8.133260    3.871260
  C     -1.606240   -9.173460    4.744550
  C     -0.384960   -8.988440    5.325530
  C      0.251030   -7.764470    4.980690
  S     -0.734590   -6.929160    3.782130
  C      1.425000   -7.229290    5.426660
  C      1.831290   -5.878250    5.128240
  C      0.868730   -4.853090    5.066560
  C      1.228500   -3.592020    4.670130
  C      2.573890   -3.299720    4.367490
  C      3.546750   -4.284170    4.500460
  C      3.174360   -5.556630    4.886040
  C      2.667070   -1.906380    3.989350
  C      1.383340   -1.340070    4.077140
  C      0.362300   -2.362390    4.521010
  C     -0.688340   -2.482140    3.392740
  C     -1.884140   -3.383550    3.666070
  C     -0.287270   -1.964340    5.857320
  C      0.741350   -1.647330    6.936960
  C      1.162020   -0.027750    3.751060
  C      2.230460    0.772270    3.316600
  C      3.511430    0.201310    3.254380
  C      3.738930   -1.120120    3.584080
  C      2.035820    2.142410    2.909620
  C      0.831960    2.744950    2.811210
  C      0.585680    4.070580    2.369130
  S      1.870430    5.164880    1.958200
  C      0.789040    6.417690    1.562800
  C     -0.528490    6.042970    1.722360
  C     -0.653470    4.688510    2.183020
  C     -1.965060    4.160250    2.358470
  C     -2.216520    2.831970    2.758020
  N     -2.492050    1.759940    3.067740
  C     -3.059540    4.960470    2.105370
  C     -2.914140    6.289120    1.671750
  C     -1.677470    6.828500    1.475530
  H     -4.489260    3.246210   -0.838330
  H      0.432150    2.610080   -0.154790
  H      0.510310    0.320320    0.744660
  H     -1.507090   -1.039010    0.905020
  H     -6.761860   -5.651480    1.531660
  H     -6.439470   -7.972780    2.544370
  H     -4.651520   -9.345400    3.796390
  H     -2.236900  -10.027430    4.919340
  H      0.062030   -9.671680    6.026350
  H      2.091440   -7.852090    6.008400
  H     -0.140320   -5.056430    5.386140
  H      4.584000   -4.058970    4.301180
  H      3.920480   -6.334030    4.967020
  H     -0.173530   -2.835330    2.494280
  H     -1.060050   -1.475040    3.191420
  H     -1.580420   -4.415670    3.803680
  H     -2.561040   -3.349190    2.814410
  H     -2.438470   -3.052180    4.539490
  H     -0.919050   -2.783810    6.202000
  H     -0.920870   -1.091120    5.690860
  H      1.385950   -2.505300    7.117600
  H      0.238960   -1.393030    7.867480
  H      1.365160   -0.806230    6.642960
  H      0.168320    0.383420    3.831450
  H      4.337810    0.817140    2.928310
  H      4.734010   -1.534950    3.519070
  H      2.926240    2.697630    2.639640
  H     -0.060090    2.195220    3.064600
  H      1.164660    7.363350    1.227470
  H     -4.050200    4.549100    2.235650
  H     -3.801450    6.873000    1.482980
  H     -1.553810    7.841120    1.125390

 Total Charge           Charge          ....    0
 Multiplicity           Mult            ....    1
 Number of Electrons    NEL             ....  510
 Basis Dimension        Dim             .... 1160

ORBITAL ENERGIES
----------------

  NO   OCC          E(Eh)            E(eV)
   0   2.0000     -89.033481     -2422.7242
   1   2.0000     -88.968544     -2420.9572
   2   2.0000     -88.957413     -2420.6543
   3   2.0000     -88.955272     -2420.5960
   4   2.0000     -88.950355     -2420.4622
   5   2.0000     -14.450761      -393.2252
   6   2.0000     -14.448893      -393.1744
   7   2.0000     -14.445799      -393.0902
   8   2.0000     -14.440005      -392.9325
   9   2.0000     -14.420821      -392.4105
  10   2.0000     -14.415810      -392.2741
  11   2.0000     -14.402052      -391.8997
  12   2.0000     -14.392058      -391.6278
  13   2.0000     -10.371442      -282.2213
  14   2.0000     -10.364290      -282.0267
  15   2.0000     -10.337154      -281.2883
  16   2.0000     -10.335485      -281.2429
  17   2.0000     -10.334411      -281.2136
  18   2.0000     -10.334061      -281.2041
  19   2.0000     -10.326935      -281.0102
  20   2.0000     -10.319067      -280.7961
  21   2.0000     -10.318165      -280.7715
  22   2.0000     -10.314549      -280.6731
  23   2.0000     -10.310582      -280.5652
  24   2.0000     -10.310040      -280.5504
  25   2.0000     -10.306713      -280.4599
  26   2.0000     -10.306186      -280.4456
  27   2.0000     -10.303414      -280.3702
  28   2.0000     -10.303100      -280.3616
  29   2.0000     -10.303007      -280.3591
  30   2.0000     -10.301799      -280.3262
  31   2.0000     -10.301348      -280.3139
  32   2.0000     -10.301011      -280.3047
  33   2.0000     -10.299711      -280.2694
  34   2.0000     -10.298546      -280.2377
  35   2.0000     -10.296341      -280.1777
  36   2.0000     -10.295749      -280.1616
  37   2.0000     -10.292225      -280.0657
  38   2.0000     -10.290099      -280.0078
  39   2.0000     -10.290001      -280.0052
  40   2.0000     -10.288917      -279.9757
  41   2.0000     -10.287606      -279.9400
  42   2.0000     -10.286077      -279.8984
  43   2.0000     -10.283184      -279.8197
  44   2.0000     -10.283134      -279.8183
  45   2.0000     -10.282861      -279.8109
  46   2.0000     -10.279947      -279.7316
  47   2.0000     -10.279404      -279.7168
  48   2.0000     -10.278070      -279.6805
  49   2.0000     -10.278029      -279.6794
  50   2.0000     -10.277985      -279.6782
  51   2.0000     -10.277291      -279.6593
  52   2.0000     -10.277059      -279.6530
  53   2.0000     -10.276809      -279.6462
  54   2.0000     -10.276263      -279.6313
  55   2.0000     -10.274640      -279.5872
  56   2.0000     -10.273386      -279.5531
  57   2.0000     -10.272431      -279.5271
  58   2.0000     -10.272016      -279.5158
  59   2.0000     -10.271675      -279.5065
  60   2.0000     -10.270207      -279.4665
  61   2.0000     -10.269450      -279.4459
  62   2.0000     -10.268589      -279.4225
  63   2.0000     -10.266523      -279.3663
  64   2.0000     -10.264596      -279.3139
  65   2.0000     -10.263985      -279.2972
  66   2.0000     -10.260303      -279.1970
  67   2.0000     -10.260258      -279.1958
  68   2.0000     -10.246319      -278.8165
  69   2.0000     -10.244770      -278.7744
  70   2.0000      -8.124726      -221.0850
  71   2.0000      -8.063821      -219.4277
  72   2.0000      -8.050907      -219.0763
  73   2.0000      -8.050862      -219.0751
  74   2.0000      -8.045385      -218.9261
  75   2.0000      -6.095927      -165.8786
  76   2.0000      -6.088218      -165.6688
  77   2.0000      -6.087190      -165.6409
  78   2.0000      -6.032639      -164.1565
  79   2.0000      -6.028468      -164.0430
  80   2.0000      -6.027016      -164.0035
  81   2.0000      -6.020669      -163.8307
  82   2.0000      -6.019998      -163.8125
  83   2.0000      -6.016430      -163.7154
  84   2.0000      -6.015225      -163.6826
  85   2.0000      -6.015088      -163.6789
  86   2.0000      -6.014094      -163.6518
  87   2.0000      -6.011947      -163.5934
  88   2.0000      -6.010748      -163.5608
  89   2.0000      -6.006614      -163.4483
  90   2.0000      -1.132491       -30.8167
  91   2.0000      -1.109327       -30.1863
  92   2.0000      -1.036563       -28.2063
  93   2.0000      -1.007589       -27.4179
  94   2.0000      -1.004055       -27.3217
  95   2.0000      -1.002910       -27.2906
  96   2.0000      -0.995093       -27.0778
  97   2.0000      -0.991320       -26.9752
  98   2.0000      -0.990030       -26.9401
  99   2.0000      -0.987332       -26.8667
 100   2.0000      -0.984637       -26.7933
 101   2.0000      -0.979799       -26.6617
 102   2.0000      -0.974619       -26.5207
 103   2.0000      -0.961665       -26.1682
 104   2.0000      -0.949417       -25.8349
 105   2.0000      -0.936798       -25.4916
 106   2.0000      -0.926744       -25.2180
 107   2.0000      -0.922493       -25.1023
 108   2.0000      -0.903381       -24.5823
 109   2.0000      -0.896940       -24.4070
 110   2.0000      -0.895476       -24.3672
 111   2.0000      -0.890428       -24.2298
 112   2.0000      -0.875737       -23.8300
 113   2.0000      -0.868683       -23.6381
 114   2.0000      -0.861403       -23.4400
 115   2.0000      -0.851758       -23.1775
 116   2.0000      -0.848220       -23.0812
 117   2.0000      -0.835497       -22.7350
 118   2.0000      -0.833692       -22.6859
 119   2.0000      -0.833085       -22.6694
 120   2.0000      -0.829808       -22.5802
 121   2.0000      -0.829571       -22.5738
 122   2.0000      -0.826148       -22.4806
 123   2.0000      -0.822423       -22.3793
 124   2.0000      -0.815401       -22.1882
 125   2.0000      -0.799637       -21.7592
 126   2.0000      -0.795429       -21.6447
 127   2.0000      -0.781299       -21.2602
 128   2.0000      -0.766052       -20.8453
 129   2.0000      -0.763019       -20.7628
 130   2.0000      -0.747471       -20.3397
 131   2.0000      -0.732845       -19.9417
 132   2.0000      -0.728290       -19.8178
 133   2.0000      -0.725266       -19.7355
 134   2.0000      -0.721220       -19.6254
 135   2.0000      -0.708242       -19.2722
 136   2.0000      -0.704400       -19.1677
 137   2.0000      -0.694968       -18.9110
 138   2.0000      -0.690880       -18.7998
 139   2.0000      -0.688046       -18.7227
 140   2.0000      -0.684101       -18.6153
 141   2.0000      -0.682382       -18.5686
 142   2.0000      -0.675487       -18.3809
 143   2.0000      -0.672263       -18.2932
 144   2.0000      -0.661319       -17.9954
 145   2.0000      -0.660011       -17.9598
 146   2.0000      -0.655844       -17.8464
 147   2.0000      -0.648615       -17.6497
 148   2.0000      -0.644608       -17.5407
 149   2.0000      -0.640987       -17.4421
 150   2.0000      -0.632574       -17.2132
 151   2.0000      -0.622816       -16.9477
 152   2.0000      -0.619741       -16.8640
 153   2.0000      -0.614165       -16.7123
 154   2.0000      -0.611423       -16.6377
 155   2.0000      -0.604021       -16.4363
 156   2.0000      -0.598948       -16.2982
 157   2.0000      -0.593974       -16.1628
 158   2.0000      -0.583312       -15.8727
 159   2.0000      -0.579068       -15.7573
 160   2.0000      -0.573059       -15.5937
 161   2.0000      -0.570850       -15.5336
 162   2.0000      -0.567296       -15.4369
 163   2.0000      -0.563930       -15.3453
 164   2.0000      -0.560771       -15.2594
 165   2.0000      -0.555802       -15.1241
 166   2.0000      -0.551614       -15.0102
 167   2.0000      -0.546145       -14.8614
 168   2.0000      -0.543964       -14.8020
 169   2.0000      -0.540733       -14.7141
 170   2.0000      -0.536203       -14.5908
 171   2.0000      -0.532347       -14.4859
 172   2.0000      -0.529518       -14.4089
 173   2.0000      -0.527714       -14.3598
 174   2.0000      -0.523139       -14.2353
 175   2.0000      -0.521530       -14.1915
 176   2.0000      -0.517729       -14.0881
 177   2.0000      -0.516803       -14.0629
 178   2.0000      -0.514567       -14.0021
 179   2.0000      -0.512358       -13.9420
 180   2.0000      -0.511645       -13.9226
 181   2.0000      -0.506882       -13.7930
 182   2.0000      -0.505121       -13.7451
 183   2.0000      -0.500443       -13.6178
 184   2.0000      -0.497872       -13.5478
 185   2.0000      -0.495120       -13.4729
 186   2.0000      -0.493874       -13.4390
 187   2.0000      -0.492298       -13.3961
 188   2.0000      -0.487433       -13.2637
 189   2.0000      -0.485132       -13.2011
 190   2.0000      -0.479947       -13.0600
 191   2.0000      -0.476936       -12.9781
 192   2.0000      -0.475231       -12.9317
 193   2.0000      -0.471923       -12.8417
 194   2.0000      -0.470959       -12.8154
 195   2.0000      -0.467305       -12.7160
 196   2.0000      -0.465988       -12.6802
 197   2.0000      -0.462166       -12.5762
 198   2.0000      -0.455541       -12.3959
 199   2.0000      -0.453664       -12.3448
 200   2.0000      -0.452489       -12.3128
 201   2.0000      -0.450817       -12.2674
 202   2.0000      -0.449161       -12.2223
 203   2.0000      -0.448956       -12.2167
 204   2.0000      -0.446659       -12.1542
 205   2.0000      -0.445391       -12.1197
 206   2.0000      -0.444285       -12.0896
 207   2.0000      -0.442297       -12.0355
 208   2.0000      -0.441265       -12.0074
 209   2.0000      -0.439633       -11.9630
 210   2.0000      -0.438764       -11.9394
 211   2.0000      -0.438406       -11.9296
 212   2.0000      -0.434254       -11.8167
 213   2.0000      -0.433451       -11.7948
 214   2.0000      -0.432033       -11.7562
 215   2.0000      -0.431842       -11.7510
 216   2.0000      -0.431118       -11.7313
 217   2.0000      -0.424353       -11.5472
 218   2.0000      -0.422782       -11.5045
 219   2.0000      -0.420663       -11.4468
 220   2.0000      -0.418861       -11.3978
 221   2.0000      -0.418309       -11.3828
 222   2.0000      -0.415581       -11.3085
 223   2.0000      -0.412401       -11.2220
 224   2.0000      -0.408977       -11.1288
 225   2.0000      -0.407943       -11.1007
 226   2.0000      -0.404470       -11.0062
 227   2.0000      -0.399857       -10.8807
 228   2.0000      -0.398307       -10.8385
 229   2.0000      -0.395291       -10.7564
 230   2.0000      -0.393220       -10.7001
 231   2.0000      -0.390265       -10.6197
 232   2.0000      -0.384168       -10.4537
 233   2.0000      -0.383895       -10.4463
 234   2.0000      -0.382645       -10.4123
 235   2.0000      -0.382373       -10.4049
 236   2.0000      -0.377469       -10.2714
 237   2.0000      -0.364960        -9.9311
 238   2.0000      -0.357702        -9.7336
 239   2.0000      -0.353149        -9.6097
 240   2.0000      -0.345516        -9.4020
 241   2.0000      -0.340941        -9.2775
 242   2.0000      -0.338750        -9.2179
 243   2.0000      -0.337736        -9.1903
 244   2.0000      -0.330631        -8.9969
 245   2.0000      -0.322124        -8.7654
 246   2.0000      -0.319185        -8.6855
 247   2.0000      -0.318251        -8.6601
 248   2.0000      -0.313499        -8.5307
 249   2.0000      -0.305269        -8.3068
 250   2.0000      -0.296001        -8.0546
 251   2.0000      -0.284319        -7.7367
 252   2.0000      -0.255600        -6.9552
 253   2.0000      -0.237058        -6.4507
 254   2.0000      -0.208716        -5.6794
 255   0.0000      -0.120183        -3.2703
 256   0.0000      -0.072874        -1.9830
 257   0.0000      -0.056377        -1.5341
 258   0.0000      -0.044470        -1.2101
 259   0.0000      -0.030819        -0.8386

MULLIKEN ATOMIC CHARGES
-----------------------
   0 C :   -0.120458
   1 S :    0.202312
   2 C :   -0.232696
   3 C :    0.143985
   4 C :    0.093424
   5 C :   -0.099481
   6 C :   -0.191809
   7 N :    0.108839
   8 C :    0.038786
   9 C :   -0.004728
  10 C :    0.043814
  11 C :    0.152732
  12 C :   -0.062095
  13 C :   -0.059909
  14 N :    0.057634
  15 C :   -0.157369
  16 C :   -0.093472
  17 N :   -0.005027
  18 C :   -0.235378
  19 N :    0.241178
  20 C :   -0.219020
  21 N :    0.226529
  22 C :    0.113552
  23 C :   -0.012110
  24 C :   -0.007691
  25 N :   -0.297252
  26 S :    0.532268
  27 N :   -0.311878
  28 C :   -0.092991
  29 C :    0.007606
  30 C :    0.020105
  31 C :    0.046947
  32 C :   -0.044981
  33 S :    0.107063
  34 C :   -0.032519
  35 C :    0.030590
  36 C :    0.055715
  37 C :   -0.047467
  38 S :    0.067060
  39 C :    0.007977
  40 C :    0.063997
  41 C :   -0.100440
  42 C :    0.025468
  43 C :    0.103493
  44 C :   -0.055301
  45 C :    0.001977
  46 C :    0.093947
  47 C :    0.025180
  48 C :   -0.111379
  49 C :    0.031132
  50 C :    0.050766
  51 C :    0.043359
  52 C :    0.024568
  53 C :   -0.115478
  54 C :    0.131129
  55 C :   -0.025557
  56 C :   -0.046848
  57 C :   -0.040776
  58 C :    0.019408
  59 C :   -0.174098
  60 S :    0.154760
  61 C :   -0.116804
  62 C :    0.078480
  63 C :    0.195761
  64 C :   -0.119400
  65 C :   -0.181027
  66 N :    0.101047
  67 C :    0.023244
  68 C :    0.025479
  69 C :    0.056023
  70 H :    0.023907
  71 H :   -0.012337
  72 H :   -0.008395
  73 H :   -0.032666
  74 H :    0.003108
  75 H :   -0.003182
  76 H :   -0.011658
  77 H :   -0.007117
  78 H :   -0.003896
  79 H :    0.001979
  80 H :   -0.007895
  81 H :   -0.031434
  82 H :   -0.026446
  83 H :   -0.003471
  84 H :    0.023685
  85 H :    0.013120
  86 H :   -0.002037
  87 H :    0.009236
  88 H :    0.008347
  89 H :    0.014354
  90 H :    0.015521
  91 H :    0.009056
  92 H :    0.023762
  93 H :   -0.018984
  94 H :   -0.031089
  95 H :   -0.038672
  96 H :   -0.029480
  97 H :    0.000671
  98 H :    0.021222
  99 H :   -0.004753
 100 H :   -0.007584
 101 H :   -0.018768
Sum of atomic charges:   -0.0000000

LOEWDIN ATOMIC CHARGES
----------------------
   0 C :   -0.197061
   1 S :    0.535929
   2 C :   -0.169684
   3 C :   -0.032186
   4 C :   -0.042220
   5 C :   -0.079021
   6 C :   -0.021259
   7 N :   -0.075333
   8 C :    0.015506
   9 C :   -0.037424
  10 C :    0.025905
  11 C :   -0.063716
  12 C :   -0.010524
  13 C :   -0.005298
  14 N :    0.000870
  15 C :   -0.045649
  16 C :   -0.022338
  17 N :   -0.029201
  18 C :   -0.035461
  19 N :   -0.009979
  20 C :   -0.037892
  21 N :   -0.019825
  22 C :   -0.033610
  23 C :   -0.052734
  24 C :   -0.038394
  25 N :   -0.274294
  26 S :    0.655953
  27 N :   -0.288643
  28 C :   -0.044091
  29 C :   -0.128636
  30 C :   -0.038008
  31 C :   -0.023435
  32 C :   -0.198764
  33 S :    0.444834
  34 C :   -0.158079
  35 C :   -0.036631
  36 C :   -0.016002
  37 C :   -0.150810
  38 S :    0.420284
  39 C :   -0.016880
  40 C :   -0.044734
  41 C :   -0.028461
  42 C :    0.003314
  43 C :   -0.005134
  44 C :   -0.021509
  45 C :   -0.011586
  46 C :   -0.025702
  47 C :    0.009925
  48 C :   -0.033099
  49 C :   -0.015535
  50 C :   -0.065102
  51 C :   -0.012990
  52 C :   -0.056612
  53 C :   -0.017437
  54 C :   -0.020138
  55 C :   -0.023618
  56 C :   -0.018286
  57 C :   -0.034179
  58 C :   -0.033963
  59 C :   -0.185616
  60 S :    0.490388
  61 C :   -0.182535
  62 C :   -0.048556
  63 C :   -0.032471
  64 C :   -0.074216
  65 C :   -0.014807
  66 N :   -0.078047
  67 C :    0.024917
  68 C :   -0.030325
  69 C :    0.029839
  70 H :    0.026535
  71 H :    0.035189
  72 H :    0.032054
  73 H :    0.023709
  74 H :    0.040653
  75 H :    0.035541
  76 H :    0.032722
  77 H :    0.034876
  78 H :    0.036190
  79 H :    0.036195
  80 H :    0.020836
  81 H :    0.027922
  82 H :    0.027444
  83 H :    0.017568
  84 H :    0.025962
  85 H :    0.004649
  86 H :    0.019466
  87 H :    0.024107
  88 H :    0.020424
  89 H :    0.025934
  90 H :    0.023600
  91 H :    0.024315
  92 H :    0.025769
  93 H :    0.029123
  94 H :    0.025226
  95 H :    0.025898
  96 H :    0.017817
  97 H :    0.036469
  98 H :    0.026350
  99 H :    0.039300
 100 H :    0.033595
 101 H :    0.034636

  Mayer bond orders larger than 0.100000
B(  0-C ,  1-S ) :   1.1764 B(  0-C ,  4-C ) :   1.4320 B(  0-C , 70-H ) :   0.9510
B(  1-S ,  2-C ) :   1.1908 B(  2-C ,  3-C ) :   1.3053 B(  2-C , 11-C ) :   1.1826
B(  3-C ,  4-C ) :   1.2013 B(  3-C , 10-C ) :   1.2360 B(  4-C ,  5-C ) :   1.1827
B(  5-C ,  6-C ) :   1.0846 B(  5-C ,  8-C ) :   1.5471 B(  6-C ,  7-N ) :   2.9995
B(  8-C ,  9-C ) :   1.2017 B(  8-C , 71-H ) :   0.9892 B(  9-C , 10-C ) :   1.5165
B(  9-C , 72-H ) :   0.9849 B( 10-C , 73-H ) :   0.9645 B( 11-C , 12-C ) :   1.2564
B( 11-C , 24-C ) :   1.1903 B( 12-C , 13-C ) :   1.1132 B( 12-C , 17-N ) :   1.4000
B( 13-C , 14-N ) :   1.5174 B( 13-C , 22-C ) :   1.1831 B( 14-N , 15-C ) :   1.6759
B( 15-C , 16-C ) :   1.2436 B( 15-C , 20-C ) :   1.1666 B( 16-C , 17-N ) :   1.6863
B( 16-C , 18-C ) :   1.1589 B( 18-C , 19-N ) :   3.0447 B( 20-C , 21-N ) :   3.0446
B( 22-C , 23-C ) :   1.1310 B( 22-C , 28-C ) :   1.3251 B( 23-C , 24-C ) :   1.0923
B( 23-C , 27-N ) :   1.4989 B( 24-C , 25-N ) :   1.5149 B( 25-N , 26-S ) :   1.2556
B( 25-N , 27-N ) :   0.1400 B( 26-S , 27-N ) :   1.2575 B( 28-C , 29-C ) :   1.4190
B( 28-C , 74-H ) :   0.9471 B( 29-C , 30-C ) :   1.1938 B( 29-C , 33-S ) :   1.0882
B( 30-C , 31-C ) :   1.5359 B( 30-C , 75-H ) :   0.9988 B( 31-C , 32-C ) :   1.2239
B( 31-C , 76-H ) :   0.9953 B( 32-C , 33-S ) :   1.0475 B( 32-C , 34-C ) :   1.4343
B( 34-C , 35-C ) :   1.1987 B( 34-C , 38-S ) :   1.0779 B( 35-C , 36-C ) :   1.5868
B( 35-C , 77-H ) :   0.9965 B( 36-C , 37-C ) :   1.1337 B( 36-C , 78-H ) :   0.9962
B( 37-C , 38-S ) :   1.0278 B( 37-C , 39-C ) :   1.6349 B( 39-C , 40-C ) :   1.0461
B( 39-C , 79-H ) :   0.9712 B( 40-C , 41-C ) :   1.2801 B( 40-C , 45-C ) :   1.3439
B( 41-C , 42-C ) :   1.4310 B( 41-C , 80-H ) :   0.9796 B( 42-C , 43-C ) :   1.3690
B( 42-C , 48-C ) :   0.9181 B( 43-C , 44-C ) :   1.3316 B( 43-C , 46-C ) :   0.9929
B( 44-C , 45-C ) :   1.3891 B( 44-C , 81-H ) :   0.9923 B( 45-C , 82-H ) :   0.9929
B( 46-C , 47-C ) :   1.3658 B( 46-C , 56-C ) :   1.3350 B( 47-C , 48-C ) :   0.9260
B( 47-C , 53-C ) :   1.4062 B( 48-C , 49-C ) :   1.0127 B( 48-C , 51-C ) :   1.0247
B( 49-C , 50-C ) :   1.1141 B( 49-C , 83-H ) :   0.9374 B( 49-C , 84-H ) :   0.9280
B( 50-C , 85-H ) :   0.9599 B( 50-C , 86-H ) :   0.9580 B( 50-C , 87-H ) :   0.9485
B( 51-C , 52-C ) :   1.1027 B( 51-C , 88-H ) :   0.9384 B( 51-C , 89-H ) :   0.9413
B( 52-C , 90-H ) :   0.9658 B( 52-C , 91-H ) :   0.9644 B( 52-C , 92-H ) :   0.9622
B( 53-C , 54-C ) :   1.2928 B( 53-C , 93-H ) :   0.9979 B( 54-C , 55-C ) :   1.3317
B( 54-C , 57-C ) :   1.0676 B( 55-C , 56-C ) :   1.3817 B( 55-C , 94-H ) :   0.9933
B( 56-C , 95-H ) :   0.9909 B( 57-C , 58-C ) :   1.6686 B( 57-C , 96-H ) :   0.9899
B( 58-C , 59-C ) :   1.1620 B( 58-C , 97-H ) :   0.9471 B( 59-C , 60-S ) :   1.1371
B( 59-C , 61-C ) :   0.1088 B( 59-C , 63-C ) :   1.3706 B( 60-S , 61-C ) :   1.2104
B( 61-C , 62-C ) :   1.4125 B( 61-C , 98-H ) :   0.9683 B( 62-C , 63-C ) :   1.1895
B( 62-C , 69-C ) :   1.1783 B( 63-C , 64-C ) :   1.1978 B( 64-C , 65-C ) :   1.0984
B( 64-C , 67-C ) :   1.5645 B( 65-C , 66-N ) :   2.9546 B( 67-C , 68-C ) :   1.1921
B( 67-C , 99-H ) :   0.9921 B( 68-C , 69-C ) :   1.5392 B( 68-C ,100-H ) :   0.9873
B( 69-C ,101-H ) :   0.9957

-----------------------------------------------------------------------------
         ABSORPTION SPECTRUM VIA TRANSITION ELECTRIC DIPOLE MOMENTS
-----------------------------------------------------------------------------
State   Energy  Wavelength   fosc         T2         TX        TY        TZ
        (cm-1)    (nm)                  (au**2)     (au)      (au)      (au)
-----------------------------------------------------------------------------
   0    4358.5   2294.4   0.134330411  10.14644   1.34182  -2.38272   1.63358
   1   12945.8    772.5   0.187891577   4.77810  -1.46639  -1.60280  -0.24255
   2   14785.6    676.3   0.028875373   0.64293  -0.54196  -0.54884  -0.21906
   3   15473.7    646.3   0.426353150   9.07092  -2.72101   0.04592  -1.29033
   4   19924.6    501.9   0.195166427   3.22471   0.43579   1.67924  -0.46361
   5   20330.8    491.9   0.045094478   0.73020   0.41982  -0.73487   0.11796
   6   21084.0    474.3   0.078461567   1.22512  -0.97538   0.51190   0.10820
   7   21625.6    462.4   0.285063654   4.33960   0.83960   1.85417  -0.44356
   8   22942.4    435.9   0.948715771  13.61359  -0.96133   3.37775  -1.13147
   9   23337.6    428.5   0.151452153   2.13646  -0.72450  -1.26944   0.00921
  10   23607.2    423.6   0.037113098   0.51756  -0.21925  -0.66921   0.14712
  11   23942.8    417.7   0.005729264   0.07878   0.14227   0.22696  -0.08383
  12   24597.7    406.5   0.069485859   0.92999   0.81481   0.48218   0.18325
  13   25222.3    396.5   0.005977114   0.07802   0.02265   0.15822   0.22906
  14   26428.2    378.4   0.132579685   1.65152   0.43743   1.19121  -0.20295
  15   26621.0    375.6   0.037534965   0.46418   0.65081  -0.16272   0.11898
  16   26754.9    373.8   0.034523865   0.42481   0.51205  -0.19065   0.35534
  17   27270.2    366.7   0.031103376   0.37549   0.07419   0.53191  -0.29506
  18   28206.9    354.5   0.023393805   0.27304  -0.21778   0.43944  -0.18029
  19   29387.5    340.3   0.077993229   0.87372   0.30161   0.88431   0.02723
  20   29657.3    337.2   0.037022274   0.41097   0.26552   0.58307   0.02230
  21   29791.7    335.7   0.029573238   0.32680   0.53645  -0.07365   0.18329
  22   30038.5    332.9   0.058060040   0.63632   0.66596  -0.43676   0.04540
  23   30414.9    328.8   0.029849581   0.32309   0.10308  -0.55158   0.09068
  24   30661.6    326.1   0.282391568   3.03203   0.80812  -1.43912   0.55489
  25   30976.8    322.8   0.010218327   0.10860  -0.11372  -0.27183  -0.14756
  26   31298.0    319.5   0.245493961   2.58226  -1.51077   0.19992   0.50976
  27   31685.3    315.6   0.163266138   1.69634   0.97612   0.84336  -0.17965
  28   32107.8    311.5   0.099534881   1.02057   0.92944  -0.05202  -0.39243
  29   32401.3    308.6   0.048778122   0.49561  -0.62231   0.26983  -0.18850
  30   32580.0    306.9   0.030319265   0.30637   0.47988  -0.27551  -0.01351
  31   32604.4    306.7   0.003274297   0.03306   0.12616   0.09494   0.09016
  32   33166.9    301.5   0.010022385   0.09948  -0.28553  -0.05647  -0.12151
  33   33391.4    299.5   0.226650568   2.23459  -1.26165   0.80128  -0.02780
  34   34027.8    293.9   0.114816614   1.11083   0.73749  -0.71101   0.24778
  35   34163.2    292.7   0.004604496   0.04437   0.01506   0.20488   0.04658
  36   34376.1    290.9   0.005057168   0.04843   0.10852  -0.19133  -0.00683
  37   34711.5    288.1   0.003242877   0.03076  -0.13319  -0.02853  -0.11046
  38   35004.1    285.7   0.089878155   0.84530  -0.91167  -0.09647  -0.06964
  39   35383.8    282.6   0.107596604   1.00108   0.41549   0.84821   0.33014
  40   35794.5    279.4   0.008975959   0.08255  -0.12375  -0.25850   0.02042
  41   35921.9    278.4   0.010997649   0.10079   0.13316   0.23138   0.17182
  42   36230.4    276.0   0.007763313   0.07054  -0.01532  -0.16930   0.20407
  43   36444.8    274.4   0.015029873   0.13577   0.31944   0.09315   0.15827
  44   36883.8    271.1   0.064627786   0.57685  -0.39956  -0.64557   0.02102
  45   37041.9    270.0   0.062227565   0.55305  -0.40918   0.54315  -0.30101
  46   37130.2    269.3   0.005630966   0.04993  -0.15801  -0.15797  -0.00267
  47   37400.9    267.4   0.040872868   0.35977  -0.22188  -0.54440   0.11903
  48   37606.0    265.9   0.009909561   0.08675   0.06038   0.26785  -0.10658
  49   37964.6    263.4   0.032874965   0.28508   0.39147  -0.34054   0.12596
  50   38422.0    260.3   0.033933159   0.29075  -0.53585   0.03613   0.04811
  51   38635.9    258.8   0.076396068   0.65096  -0.65721   0.44025  -0.15880
  52   38857.5    257.4   0.094334037   0.79923   0.79786  -0.33681  -0.22183
  53   38980.8    256.5   0.006282755   0.05306  -0.03919   0.20075   0.10594
  54   39154.2    255.4   0.000184792   0.00155   0.02046   0.00526  -0.03328
  55   39427.4    253.6   0.027117675   0.22643  -0.28422   0.37588   0.06605
  56   39465.2    253.4   0.186007433   1.55164  -1.23925   0.10608   0.06813
  57   39833.2    251.0   0.060097556   0.49669  -0.60756  -0.35394  -0.04777
  58   40115.6    249.3   0.002365349   0.01941  -0.12779   0.04373   0.03418
  59   40288.8    248.2   0.103932807   0.84927   0.87219  -0.03546  -0.29545

FINAL SINGLE POINT ENERGY     -4616.190414958685

DIPOLE MOMENT
-------------
                                X             Y             Z
Electronic contribution:    -41.59727       2.99429     -39.58546
Nuclear contribution   :     45.53065      -5.43137      41.08424
                        -----------------------------------------
Total Dipole Moment    :      3.93338      -2.43708       1.49878
                        -----------------------------------------
Magnitude (a.u.)       :      4.86386
Magnitude (Debye)      :     12.36295

Rotational constants in cm-1:     0.001183     0.000834     0.000538
Rotational constants in MHz :    35.468002    25.002517    16.124088

                             ****ORCA TERMINATED NORMALLY****
TOTAL RUN TIME: 0 days 0 hours 13 minutes 14 seconds 603 msec
