                         Program Version 4.2.0 -  RELEASE  -
|  1> # ORCA input file
|  2> # SCF done       -159.127102140595          0.000988912025
|  3> ! CAM-B3LYP def2-SVP def2/J RIJCOSX Grid4 TightSCF
|  4> %maxcore 5000
|  5> %tddft
|  6>     Mode sTDDFT
|  7>     Ethresh 5.0
|  8>     maxcore 5000
|  9> end
| 10>
| 11> %pal
| 12>   nprocs 6
| 13>   end
| 14> * xyz 0 1
| 15>    C       10.32490        -1.71343       -10.79904
| 16>    S       10.68809        -2.92379        -9.64520
| 17>    C       10.86502        -1.74611        -8.37054
| 18>    C       10.64469        -0.46421        -8.86090
| 19>    C       10.33520        -0.45782       -10.25636
| 20>    C       10.07105         0.71364       -10.99267
| 21>    N        9.85851         1.66282       -11.59775
| 22>    C       10.71820         0.72155        -8.11659
| 23>    N       10.77257         1.70990        -7.53441
| 24>    C       11.20163        -2.19508        -7.06661
| 25>    C       11.32228        -1.39864        -5.97411
| 26>    C       11.69825        -1.89119        -4.69373
| 27>    C       11.78610        -1.10181        -3.56514
| 28>    O       12.18427        -1.61019        -2.35472
| 29>    C       12.27355        -2.96570        -2.27583
| 30>    C       12.15459        -3.78622        -3.43286
| 31>    C       12.26781        -5.10861        -3.15319
| 32>    S       12.52156        -5.36968        -1.46778
| 33>    C       12.46420        -3.68004        -1.13791
| 34>    O       11.94195        -3.25089        -4.66664
| 35>    C       11.52785         0.30568        -3.55127
| 36>    C       11.22651         1.05672        -2.46237
| 37>    C       10.83726         0.62375        -1.15742
| 38>    C       11.08213         1.45771        -0.04176
| 39>    C       10.78392         1.06244         1.31735
| 40>    N       11.15863         1.85835         2.32153
| 41>    C       11.75070         3.00371         2.07343
| 42>    C       11.97784         3.42735         0.72651
| 43>    N       11.65451         2.65059        -0.27618
| 44>    C       12.55077         4.69875         0.47307
| 45>    N       13.01119         5.73647         0.32036
| 46>    C       12.11579         3.81628         3.17350
| 47>    N       12.38828         4.48445         4.06415
| 48>    C       10.15279        -0.17522         1.61770
| 49>    C        9.84218        -0.96393         0.48264
| 50>    C       10.15209        -0.57438        -0.86920
| 51>    N        9.69334        -1.46757        -1.74986
| 52>    S        8.98939        -2.67846        -0.96914
| 53>    N        9.20869        -2.13445         0.52526
| 54>    C        9.87159        -0.68322         2.91358
| 55>    S        9.52015        -2.40023         3.03228
| 56>    C        9.40953        -2.34757         4.76219
| 57>    C        9.57627        -1.04996         5.20305
| 58>    C        9.83319        -0.09399         4.18590
| 59>    C        9.93224         1.20810         4.74491
| 60>    C        9.79482         1.23168         6.09388
| 61>    C        9.85018         2.41801         6.98239
| 62>    S        9.51132        -0.35634         6.78249
| 63>    C        9.15072        -3.46816         5.59310
| 64>    O        9.05137        -3.24959         6.91762
| 65>    C        8.81293        -4.42960         7.53183
| 66>    C        8.75570        -5.43533         6.59285
| 67>    C        8.97338        -4.82415         5.34224
| 68>    C        9.00476        -5.52083         4.03122
| 69>    F       10.17093        -5.35788         3.37645
| 70>    F        8.83287        -6.84299         4.16594
| 71>    F        8.04242        -5.10112         3.18735
| 72>    C        8.66295        -4.48292         8.96104
| 73>    C        8.74667        -3.41491         9.75124
| 74>    H       10.12176        -1.97623       -11.81846
| 75>    H       11.36668        -3.25830        -6.96312
| 76>    H       11.13258        -0.34320        -6.05669
| 77>    H       12.22514        -5.93337        -3.83298
| 78>    H       12.58689        -3.31575        -0.13915
| 79>    H       11.65612         0.82591        -4.48793
| 80>    H       11.28015         2.13242        -2.56916
| 81>    H       10.10697         2.09572         4.17155
| 82>    H        8.85010         2.68150         7.32971
| 83>    H       10.26972         3.26632         6.44651
| 84>    H       10.46196         2.21143         7.85910
| 85>    H        8.58267        -6.47712         6.76740
| 86>    H        8.47308        -5.46892         9.35937
| 87>    H        8.93461        -2.43533         9.34537
| 88>    H        8.62763        -3.49253        10.81695
| 89> *
| 90>
| 91>                          ****END OF INPUT****

CARTESIAN COORDINATES (ANGSTROEM)
---------------------------------
  C     10.324900   -1.713430  -10.799040
  S     10.688090   -2.923790   -9.645200
  C     10.865020   -1.746110   -8.370540
  C     10.644690   -0.464210   -8.860900
  C     10.335200   -0.457820  -10.256360
  C     10.071050    0.713640  -10.992670
  N      9.858510    1.662820  -11.597750
  C     10.718200    0.721550   -8.116590
  N     10.772570    1.709900   -7.534410
  C     11.201630   -2.195080   -7.066610
  C     11.322280   -1.398640   -5.974110
  C     11.698250   -1.891190   -4.693730
  C     11.786100   -1.101810   -3.565140
  O     12.184270   -1.610190   -2.354720
  C     12.273550   -2.965700   -2.275830
  C     12.154590   -3.786220   -3.432860
  C     12.267810   -5.108610   -3.153190
  S     12.521560   -5.369680   -1.467780
  C     12.464200   -3.680040   -1.137910
  O     11.941950   -3.250890   -4.666640
  C     11.527850    0.305680   -3.551270
  C     11.226510    1.056720   -2.462370
  C     10.837260    0.623750   -1.157420
  C     11.082130    1.457710   -0.041760
  C     10.783920    1.062440    1.317350
  N     11.158630    1.858350    2.321530
  C     11.750700    3.003710    2.073430
  C     11.977840    3.427350    0.726510
  N     11.654510    2.650590   -0.276180
  C     12.550770    4.698750    0.473070
  N     13.011190    5.736470    0.320360
  C     12.115790    3.816280    3.173500
  N     12.388280    4.484450    4.064150
  C     10.152790   -0.175220    1.617700
  C      9.842180   -0.963930    0.482640
  C     10.152090   -0.574380   -0.869200
  N      9.693340   -1.467570   -1.749860
  S      8.989390   -2.678460   -0.969140
  N      9.208690   -2.134450    0.525260
  C      9.871590   -0.683220    2.913580
  S      9.520150   -2.400230    3.032280
  C      9.409530   -2.347570    4.762190
  C      9.576270   -1.049960    5.203050
  C      9.833190   -0.093990    4.185900
  C      9.932240    1.208100    4.744910
  C      9.794820    1.231680    6.093880
  C      9.850180    2.418010    6.982390
  S      9.511320   -0.356340    6.782490
  C      9.150720   -3.468160    5.593100
  O      9.051370   -3.249590    6.917620
  C      8.812930   -4.429600    7.531830
  C      8.755700   -5.435330    6.592850
  C      8.973380   -4.824150    5.342240
  C      9.004760   -5.520830    4.031220
  F     10.170930   -5.357880    3.376450
  F      8.832870   -6.842990    4.165940
  F      8.042420   -5.101120    3.187350
  C      8.662950   -4.482920    8.961040
  C      8.746670   -3.414910    9.751240
  H     10.121760   -1.976230  -11.818460
  H     11.366680   -3.258300   -6.963120
  H     11.132580   -0.343200   -6.056690
  H     12.225140   -5.933370   -3.832980
  H     12.586890   -3.315750   -0.139150
  H     11.656120    0.825910   -4.487930
  H     11.280150    2.132420   -2.569160
  H     10.106970    2.095720    4.171550
  H      8.850100    2.681500    7.329710
  H     10.269720    3.266320    6.446510
  H     10.461960    2.211430    7.859100
  H      8.582670   -6.477120    6.767400
  H      8.473080   -5.468920    9.359370
  H      8.934610   -2.435330    9.345370
  H      8.627630   -3.492530   10.816950

 Total Charge           Charge          ....    0
 Multiplicity           Mult            ....    1
 Number of Electrons    NEL             ....  442
 Basis Dimension        Dim             ....  921

ORBITAL ENERGIES
----------------

  NO   OCC          E(Eh)            E(eV)
   0   2.0000     -89.045887     -2423.0618
   1   2.0000     -88.991191     -2421.5734
   2   2.0000     -88.968362     -2420.9522
   3   2.0000     -88.967016     -2420.9156
   4   2.0000     -88.954754     -2420.5819
   5   2.0000     -24.805083      -674.9806
   6   2.0000     -24.800276      -674.8498
   7   2.0000     -24.799914      -674.8400
   8   2.0000     -19.314042      -525.5618
   9   2.0000     -19.284774      -524.7654
  10   2.0000     -19.284266      -524.7516
  11   2.0000     -14.459317      -393.4580
  12   2.0000     -14.457671      -393.4132
  13   2.0000     -14.453606      -393.3026
  14   2.0000     -14.450148      -393.2085
  15   2.0000     -14.429712      -392.6524
  16   2.0000     -14.427712      -392.5980
  17   2.0000     -14.417310      -392.3150
  18   2.0000     -14.412066      -392.1722
  19   2.0000     -10.525669      -286.4180
  20   2.0000     -10.379686      -282.4456
  21   2.0000     -10.376172      -282.3500
  22   2.0000     -10.364568      -282.0342
  23   2.0000     -10.360708      -281.9292
  24   2.0000     -10.354596      -281.7629
  25   2.0000     -10.350180      -281.6427
  26   2.0000     -10.349915      -281.6355
  27   2.0000     -10.348308      -281.5918
  28   2.0000     -10.348118      -281.5866
  29   2.0000     -10.345907      -281.5264
  30   2.0000     -10.342843      -281.4431
  31   2.0000     -10.341828      -281.4154
  32   2.0000     -10.339910      -281.3633
  33   2.0000     -10.334339      -281.2117
  34   2.0000     -10.331816      -281.1430
  35   2.0000     -10.328851      -281.0623
  36   2.0000     -10.327095      -281.0145
  37   2.0000     -10.324055      -280.9318
  38   2.0000     -10.323088      -280.9055
  39   2.0000     -10.321854      -280.8719
  40   2.0000     -10.320810      -280.8435
  41   2.0000     -10.317964      -280.7661
  42   2.0000     -10.311820      -280.5989
  43   2.0000     -10.309252      -280.5290
  44   2.0000     -10.308268      -280.5022
  45   2.0000     -10.305989      -280.4402
  46   2.0000     -10.304518      -280.4002
  47   2.0000     -10.304401      -280.3970
  48   2.0000     -10.303683      -280.3775
  49   2.0000     -10.301795      -280.3261
  50   2.0000     -10.298918      -280.2478
  51   2.0000     -10.297818      -280.2179
  52   2.0000     -10.294131      -280.1176
  53   2.0000     -10.292764      -280.0804
  54   2.0000     -10.290905      -280.0298
  55   2.0000     -10.288900      -279.9752
  56   2.0000     -10.279436      -279.7177
  57   2.0000     -10.276654      -279.6420
  58   2.0000     -10.269400      -279.4446
  59   2.0000      -8.136463      -221.4044
  60   2.0000      -8.087136      -220.0622
  61   2.0000      -8.062798      -219.3999
  62   2.0000      -8.061741      -219.3711
  63   2.0000      -8.050442      -219.0637
  64   2.0000      -6.107537      -166.1945
  65   2.0000      -6.099841      -165.9851
  66   2.0000      -6.099302      -165.9704
  67   2.0000      -6.056315      -164.8007
  68   2.0000      -6.051982      -164.6828
  69   2.0000      -6.049548      -164.6166
  70   2.0000      -6.032300      -164.1472
  71   2.0000      -6.031578      -164.1276
  72   2.0000      -6.028147      -164.0342
  73   2.0000      -6.026650      -163.9935
  74   2.0000      -6.024438      -163.9333
  75   2.0000      -6.023491      -163.9075
  76   2.0000      -6.020152      -163.8167
  77   2.0000      -6.015814      -163.6986
  78   2.0000      -6.011797      -163.5893
  79   2.0000      -1.391843       -37.8740
  80   2.0000      -1.295564       -35.2541
  81   2.0000      -1.290957       -35.1287
  82   2.0000      -1.235197       -33.6114
  83   2.0000      -1.212982       -33.0069
  84   2.0000      -1.175586       -31.9893
  85   2.0000      -1.141529       -31.0626
  86   2.0000      -1.118436       -30.4342
  87   2.0000      -1.045077       -28.4380
  88   2.0000      -1.029112       -28.0036
  89   2.0000      -1.017757       -27.6946
  90   2.0000      -1.011881       -27.5347
  91   2.0000      -1.002820       -27.2881
  92   2.0000      -0.997354       -27.1394
  93   2.0000      -0.996868       -27.1262
  94   2.0000      -0.995139       -27.0791
  95   2.0000      -0.991238       -26.9729
  96   2.0000      -0.976856       -26.5816
  97   2.0000      -0.952830       -25.9278
  98   2.0000      -0.935726       -25.4624
  99   2.0000      -0.932768       -25.3819
 100   2.0000      -0.922679       -25.1074
 101   2.0000      -0.913573       -24.8596
 102   2.0000      -0.905321       -24.6350
 103   2.0000      -0.895003       -24.3543
 104   2.0000      -0.887564       -24.1518
 105   2.0000      -0.875039       -23.8110
 106   2.0000      -0.862343       -23.4655
 107   2.0000      -0.852039       -23.1852
 108   2.0000      -0.840231       -22.8639
 109   2.0000      -0.831658       -22.6306
 110   2.0000      -0.830868       -22.6091
 111   2.0000      -0.828447       -22.5432
 112   2.0000      -0.817238       -22.2382
 113   2.0000      -0.812713       -22.1150
 114   2.0000      -0.800610       -21.7857
 115   2.0000      -0.780612       -21.2415
 116   2.0000      -0.775801       -21.1106
 117   2.0000      -0.763012       -20.7626
 118   2.0000      -0.748204       -20.3597
 119   2.0000      -0.733556       -19.9611
 120   2.0000      -0.729753       -19.8576
 121   2.0000      -0.721405       -19.6304
 122   2.0000      -0.716596       -19.4996
 123   2.0000      -0.710703       -19.3392
 124   2.0000      -0.703484       -19.1428
 125   2.0000      -0.699968       -19.0471
 126   2.0000      -0.696542       -18.9539
 127   2.0000      -0.694968       -18.9110
 128   2.0000      -0.684841       -18.6355
 129   2.0000      -0.680629       -18.5208
 130   2.0000      -0.674274       -18.3479
 131   2.0000      -0.670730       -18.2515
 132   2.0000      -0.665277       -18.1031
 133   2.0000      -0.661579       -18.0025
 134   2.0000      -0.644572       -17.5397
 135   2.0000      -0.638942       -17.3865
 136   2.0000      -0.637984       -17.3604
 137   2.0000      -0.627842       -17.0845
 138   2.0000      -0.618922       -16.8417
 139   2.0000      -0.606340       -16.4993
 140   2.0000      -0.599742       -16.3198
 141   2.0000      -0.597601       -16.2616
 142   2.0000      -0.593339       -16.1456
 143   2.0000      -0.586670       -15.9641
 144   2.0000      -0.582792       -15.8586
 145   2.0000      -0.581616       -15.8266
 146   2.0000      -0.573634       -15.6094
 147   2.0000      -0.570563       -15.5258
 148   2.0000      -0.570299       -15.5186
 149   2.0000      -0.560021       -15.2390
 150   2.0000      -0.555801       -15.1241
 151   2.0000      -0.552638       -15.0381
 152   2.0000      -0.550750       -14.9867
 153   2.0000      -0.549624       -14.9560
 154   2.0000      -0.546312       -14.8659
 155   2.0000      -0.545923       -14.8553
 156   2.0000      -0.538355       -14.6494
 157   2.0000      -0.529221       -14.4008
 158   2.0000      -0.528577       -14.3833
 159   2.0000      -0.521574       -14.1928
 160   2.0000      -0.520805       -14.1718
 161   2.0000      -0.517743       -14.0885
 162   2.0000      -0.514397       -13.9975
 163   2.0000      -0.512284       -13.9400
 164   2.0000      -0.509449       -13.8628
 165   2.0000      -0.509097       -13.8532
 166   2.0000      -0.501841       -13.6558
 167   2.0000      -0.500327       -13.6146
 168   2.0000      -0.497882       -13.5481
 169   2.0000      -0.491582       -13.3766
 170   2.0000      -0.490854       -13.3568
 171   2.0000      -0.489717       -13.3259
 172   2.0000      -0.487562       -13.2672
 173   2.0000      -0.484121       -13.1736
 174   2.0000      -0.480216       -13.0673
 175   2.0000      -0.478122       -13.0104
 176   2.0000      -0.476209       -12.9583
 177   2.0000      -0.475140       -12.9292
 178   2.0000      -0.474296       -12.9062
 179   2.0000      -0.469257       -12.7691
 180   2.0000      -0.467149       -12.7118
 181   2.0000      -0.463216       -12.6047
 182   2.0000      -0.459664       -12.5081
 183   2.0000      -0.454826       -12.3764
 184   2.0000      -0.454344       -12.3633
 185   2.0000      -0.452406       -12.3106
 186   2.0000      -0.451592       -12.2884
 187   2.0000      -0.446908       -12.1610
 188   2.0000      -0.444681       -12.1004
 189   2.0000      -0.444240       -12.0884
 190   2.0000      -0.443080       -12.0568
 191   2.0000      -0.440536       -11.9876
 192   2.0000      -0.438670       -11.9368
 193   2.0000      -0.438516       -11.9326
 194   2.0000      -0.431559       -11.7433
 195   2.0000      -0.427090       -11.6217
 196   2.0000      -0.421831       -11.4786
 197   2.0000      -0.419902       -11.4261
 198   2.0000      -0.418601       -11.3907
 199   2.0000      -0.417999       -11.3743
 200   2.0000      -0.412963       -11.2373
 201   2.0000      -0.411072       -11.1858
 202   2.0000      -0.405698       -11.0396
 203   2.0000      -0.404708       -11.0127
 204   2.0000      -0.401853       -10.9350
 205   2.0000      -0.397673       -10.8212
 206   2.0000      -0.384598       -10.4655
 207   2.0000      -0.379761       -10.3338
 208   2.0000      -0.367019        -9.9871
 209   2.0000      -0.363726        -9.8975
 210   2.0000      -0.355866        -9.6836
 211   2.0000      -0.348629        -9.4867
 212   2.0000      -0.345556        -9.4030
 213   2.0000      -0.341288        -9.2869
 214   2.0000      -0.319115        -8.6836
 215   2.0000      -0.311014        -8.4631
 216   2.0000      -0.304259        -8.2793
 217   2.0000      -0.301894        -8.2150
 218   2.0000      -0.293117        -7.9761
 219   2.0000      -0.261473        -7.1151
 220   2.0000      -0.233238        -6.3467
 221   0.0000      -0.124112        -3.3773
 222   0.0000      -0.068040        -1.8515
 223   0.0000      -0.054763        -1.4902
 224   0.0000      -0.041486        -1.1289
 225   0.0000      -0.031275        -0.8510

MULLIKEN ATOMIC CHARGES
-----------------------
   0 C :   -0.083806
   1 S :    0.171112
   2 C :   -0.112470
   3 C :   -0.003640
   4 C :   -0.050156
   5 C :   -0.198090
   6 N :    0.189218
   7 C :   -0.242657
   8 N :    0.180831
   9 C :    0.054963
  10 C :   -0.058210
  11 C :    0.174115
  12 C :    0.175058
  13 O :   -0.249103
  14 C :    0.204960
  15 C :    0.230754
  16 C :   -0.177777
  17 S :    0.120738
  18 C :   -0.176972
  19 O :   -0.259741
  20 C :   -0.027206
  21 C :   -0.039806
  22 C :    0.076363
  23 C :   -0.050286
  24 C :   -0.099068
  25 N :    0.031519
  26 C :   -0.126977
  27 C :   -0.123906
  28 N :    0.057205
  29 C :   -0.215887
  30 N :    0.239669
  31 C :   -0.220598
  32 N :    0.228029
  33 C :    0.210805
  34 C :   -0.030340
  35 C :    0.028288
  36 N :   -0.286448
  37 S :    0.560826
  38 N :   -0.327409
  39 C :   -0.209672
  40 S :    0.180814
  41 C :   -0.156396
  42 C :   -0.038450
  43 C :    0.148696
  44 C :    0.011227
  45 C :   -0.194759
  46 C :    0.112415
  47 S :    0.132582
  48 C :    0.154736
  49 O :   -0.201158
  50 C :    0.171024
  51 C :   -0.059835
  52 C :   -0.152402
  53 C :    0.532790
  54 F :   -0.166966
  55 F :   -0.154908
  56 F :   -0.165640
  57 C :   -0.021603
  58 C :    0.002202
  59 H :    0.042673
  60 H :   -0.003869
  61 H :    0.013841
  62 H :    0.026673
  63 H :    0.029800
  64 H :    0.026864
  65 H :    0.020791
  66 H :   -0.029931
  67 H :    0.041908
  68 H :    0.040061
  69 H :    0.030803
  70 H :   -0.001871
  71 H :    0.000256
  72 H :    0.032130
  73 H :    0.031273
Sum of atomic charges:   -0.0000000

LOEWDIN ATOMIC CHARGES
----------------------
   0 C :   -0.148091
   1 S :    0.485431
   2 C :   -0.126039
   3 C :   -0.100765
   4 C :   -0.081620
   5 C :   -0.032445
   6 N :   -0.033204
   7 C :   -0.027181
   8 N :   -0.048194
   9 C :   -0.057905
  10 C :   -0.002189
  11 C :    0.024341
  12 C :    0.043721
  13 O :   -0.034270
  14 C :   -0.016863
  15 C :   -0.007109
  16 C :   -0.210325
  17 S :    0.445269
  18 C :   -0.216751
  19 O :   -0.054631
  20 C :   -0.029193
  21 C :    0.004171
  22 C :   -0.041399
  23 C :    0.002165
  24 C :   -0.015807
  25 N :    0.012512
  26 C :   -0.041365
  27 C :   -0.025227
  28 N :   -0.000494
  29 C :   -0.035432
  30 N :   -0.004596
  31 C :   -0.037309
  32 N :   -0.017794
  33 C :   -0.027794
  34 C :   -0.053149
  35 C :   -0.036598
  36 N :   -0.274803
  37 S :    0.688546
  38 N :   -0.301265
  39 C :   -0.167808
  40 S :    0.506071
  41 C :   -0.204328
  42 C :   -0.187686
  43 C :   -0.041810
  44 C :   -0.068316
  45 C :   -0.135686
  46 C :   -0.058595
  47 S :    0.401754
  48 C :    0.035166
  49 O :    0.027360
  50 C :    0.038755
  51 C :   -0.042111
  52 C :   -0.124841
  53 C :    0.163861
  54 F :   -0.067065
  55 F :   -0.055123
  56 F :   -0.066123
  57 C :   -0.041679
  58 C :   -0.022220
  59 H :    0.038150
  60 H :    0.031749
  61 H :    0.041066
  62 H :    0.029867
  63 H :    0.030033
  64 H :    0.045267
  65 H :    0.043569
  66 H :    0.025210
  67 H :    0.042356
  68 H :    0.045419
  69 H :    0.038052
  70 H :    0.038148
  71 H :    0.039488
  72 H :    0.025879
  73 H :    0.029821

  Mayer bond orders larger than 0.100000
B(  0-C ,  1-S ) :   1.1660 B(  0-C ,  4-C ) :   1.5632 B(  0-C , 59-H ) :   0.9737
B(  1-S ,  2-C ) :   1.1530 B(  2-C ,  3-C ) :   1.4725 B(  2-C ,  9-C ) :   1.1277
B(  3-C ,  4-C ) :   1.3095 B(  3-C ,  7-C ) :   1.1606 B(  4-C ,  5-C ) :   1.1210
B(  5-C ,  6-N ) :   3.0409 B(  7-C ,  8-N ) :   2.9524 B(  9-C , 10-C ) :   1.6518
B(  9-C , 60-H ) :   0.9529 B( 10-C , 11-C ) :   1.2075 B( 10-C , 61-H ) :   0.9355
B( 11-C , 12-C ) :   1.4653 B( 11-C , 19-O ) :   1.0593 B( 12-C , 13-O ) :   1.0620
B( 12-C , 20-C ) :   1.1338 B( 13-O , 14-C ) :   1.0356 B( 14-C , 15-C ) :   1.2078
B( 14-C , 18-C ) :   1.5605 B( 15-C , 16-C ) :   1.5678 B( 15-C , 19-O ) :   1.0520
B( 16-C , 17-S ) :   1.1438 B( 16-C , 62-H ) :   0.9730 B( 17-S , 18-C ) :   1.1456
B( 18-C , 63-H ) :   0.9750 B( 20-C , 21-C ) :   1.7066 B( 20-C , 64-H ) :   0.9467
B( 21-C , 22-C ) :   1.1336 B( 21-C , 65-H ) :   0.9381 B( 22-C , 23-C ) :   1.2841
B( 22-C , 33-C ) :   0.1132 B( 22-C , 35-C ) :   1.2065 B( 23-C , 24-C ) :   1.0851
B( 23-C , 28-N ) :   1.4560 B( 24-C , 25-N ) :   1.4936 B( 24-C , 33-C ) :   1.2149
B( 25-N , 26-C ) :   1.6870 B( 26-C , 27-C ) :   1.2104 B( 26-C , 31-C ) :   1.1530
B( 27-C , 28-N ) :   1.7439 B( 27-C , 29-C ) :   1.1595 B( 29-C , 30-N ) :   3.0465
B( 31-C , 32-N ) :   3.0191 B( 33-C , 34-C ) :   1.1809 B( 33-C , 39-C ) :   1.2208
B( 34-C , 35-C ) :   1.1153 B( 34-C , 38-N ) :   1.4660 B( 35-C , 36-N ) :   1.5000
B( 36-N , 37-S ) :   1.2902 B( 36-N , 38-N ) :   0.1473 B( 37-S , 38-N ) :   1.2754
B( 39-C , 40-S ) :   1.1045 B( 39-C , 41-C ) :   0.1097 B( 39-C , 43-C ) :   1.3186
B( 40-S , 41-C ) :   1.1309 B( 41-C , 42-C ) :   1.4690 B( 41-C , 48-C ) :   1.1377
B( 42-C , 43-C ) :   1.2532 B( 42-C , 47-S ) :   1.0534 B( 43-C , 44-C ) :   1.1774
B( 44-C , 45-C ) :   1.6211 B( 44-C , 66-H ) :   0.9952 B( 45-C , 46-C ) :   1.0706
B( 45-C , 47-S ) :   1.0701 B( 46-C , 67-H ) :   0.9473 B( 46-C , 68-H ) :   0.9553
B( 46-C , 69-H ) :   0.9469 B( 48-C , 49-O ) :   1.1861 B( 48-C , 50-C ) :   0.1029
B( 48-C , 52-C ) :   1.4666 B( 49-O , 50-C ) :   1.1246 B( 50-C , 51-C ) :   1.4494
B( 50-C , 57-C ) :   1.1199 B( 51-C , 52-C ) :   1.2480 B( 51-C , 70-H ) :   1.0178
B( 52-C , 53-C ) :   0.9523 B( 53-C , 54-F ) :   1.1653 B( 53-C , 55-F ) :   1.1811
B( 53-C , 56-F ) :   1.1691 B( 57-C , 58-C ) :   1.9132 B( 57-C , 71-H ) :   0.9597
B( 58-C , 72-H ) :   0.9579 B( 58-C , 73-H ) :   0.9470

-----------------------------------------------------------------------------
         ABSORPTION SPECTRUM VIA TRANSITION ELECTRIC DIPOLE MOMENTS
-----------------------------------------------------------------------------
State   Energy  Wavelength   fosc         T2         TX        TY        TZ
        (cm-1)    (nm)                  (au**2)     (au)      (au)      (au)
-----------------------------------------------------------------------------
   0    8278.2   1208.0   0.465356847  18.50655   0.82131   0.63592  -4.17464
   1   14163.3    706.1   0.090479996   2.10312  -0.23521  -1.39447   0.32135
   2   20459.8    488.8   0.216778637   3.48811  -0.05042  -0.52476   1.79170
   3   20901.4    478.4   0.514865897   8.10950  -0.08903  -0.72486  -2.75248
   4   21311.7    469.2   0.082198757   1.26976  -0.20795  -0.62050  -0.91733
   5   22759.4    439.4   0.189972361   2.74792   0.49709   1.17682  -1.05637
   6   23844.1    419.4   0.050237069   0.69362  -0.35826  -0.72794   0.18804
   7   24181.5    413.5   0.079534995   1.08281   0.06553  -0.17310   1.02399
   8   24482.9    408.4   0.023447118   0.31528  -0.08038  -0.53123   0.16315
   9   25685.4    389.3   0.026106017   0.33460  -0.12960   0.22675  -0.51613
  10   26690.8    374.7   0.069715950   0.85990  -0.70327  -0.57111   0.19784
  11   27149.9    368.3   0.071067324   0.86174   0.07018  -0.48379   0.78916
  12   27388.3    365.1   0.131550100   1.58126   0.01402   0.80017  -0.96994
  13   29698.3    336.7   0.004555940   0.05050  -0.11315  -0.06292   0.18369
  14   30339.8    329.6   0.003088546   0.03351  -0.07652  -0.16118  -0.04098
  15   31408.0    318.4   0.363421609   3.80931   0.75440   1.64863   0.72264
  16   31749.1    315.0   0.122212964   1.26725  -0.65673  -0.85061  -0.33530
  17   32226.6    310.3   0.137962849   1.40937  -0.17183  -1.16907  -0.11449
  18   33296.5    300.3   0.073429632   0.72602   0.47851  -0.60480   0.36230
  19   33949.7    294.6   0.309242695   2.99875  -0.50323  -0.14119  -1.65093
  20   34632.8    288.7   0.102257207   0.97203   0.05676   0.71793  -0.67335
  21   35002.4    285.7   0.117872580   1.10864  -0.01257  -1.00382  -0.31753
  22   35521.0    281.5   0.000897843   0.00832  -0.05475  -0.07296   0.00041
  23   35874.5    278.7   0.004576225   0.04199   0.05464   0.18213  -0.07642
  24   36185.8    276.4   0.051240454   0.46618  -0.36912   0.53369   0.21236
  25   36463.5    274.2   0.106350861   0.96019   0.17436   0.96171  -0.07008
  26   36819.1    271.6   0.066347466   0.59323  -0.09244  -0.75754   0.10402
  27   37114.1    269.4   0.136317663   1.20917   0.20242   0.82269   0.70098
  28   37307.2    268.0   0.005075196   0.04479  -0.12113  -0.08954   0.14864
  29   37711.4    265.2   0.073524024   0.64185  -0.46678  -0.63953   0.12235
  30   37967.5    263.4   0.014125946   0.12248  -0.12320  -0.12546   0.30260
  31   38120.8    262.3   0.074696571   0.64508   0.37861   0.68529   0.17921
  32   38461.7    260.0   0.039076427   0.33447  -0.17766  -0.54915  -0.03676
  33   38737.5    258.1   0.055908591   0.47514   0.08745   0.21348   0.64955
  34   39191.3    255.2   0.033322787   0.27992  -0.03217   0.19194   0.49198
  35   39638.0    252.3   0.004820633   0.04004  -0.11436  -0.10961  -0.12225
  36   40270.3    248.3   0.009502092   0.07768   0.05433  -0.10190   0.25366

FINAL SINGLE POINT ENERGY     -4483.635061365203

DIPOLE MOMENT
-------------
                                X             Y             Z
Electronic contribution:     -2.81976     -17.63536     -14.14457
Nuclear contribution   :      1.80141      13.22186      15.80983
                        -----------------------------------------
Total Dipole Moment    :     -1.01835      -4.41350       1.66527
                        -----------------------------------------
Magnitude (a.u.)       :      4.82588
Magnitude (Debye)      :     12.26641

Rotational constants in cm-1:     0.002027     0.000616     0.000499
Rotational constants in MHz :    60.762164    18.468962    14.970890

                             ****ORCA TERMINATED NORMALLY****
TOTAL RUN TIME: 0 days 0 hours 13 minutes 47 seconds 927 msec
