                         Program Version 4.2.0 -  RELEASE  -
|  1> # ORCA input file
|  2> # SCF done       -140.130965069805          0.001841127898
|  3> ! CAM-B3LYP def2-SVP def2/J RIJCOSX Grid4 TightSCF
|  4> %maxcore 5000
|  5> %tddft
|  6>     Mode sTDDFT
|  7>     Ethresh 5.0
|  8>     maxcore 5000
|  9> end
| 10>
| 11> %pal
| 12>   nprocs 6
| 13>   end
| 14> * xyz 0 1
| 15>    C       10.29420        -2.09588        -8.28223
| 16>    S       10.60021        -0.42833        -8.05507
| 17>    C       10.00469        -0.49085        -6.41973
| 18>    C        9.59177        -1.77510        -6.09518
| 19>    C        9.76129        -2.69503        -7.17248
| 20>    C        9.42189        -4.06028        -7.09902
| 21>    N        9.14692        -5.17050        -7.03765
| 22>    C        9.06620        -2.11951        -4.83972
| 23>    N        8.63958        -2.38452        -3.80888
| 24>    C        9.96794         0.63914        -5.55987
| 25>    C       10.38210         1.87822        -5.90804
| 26>    C       10.36359         2.99924        -5.03985
| 27>    S        9.79190         2.92050        -3.39844
| 28>    C       10.13626         4.59947        -3.13468
| 29>    C       10.68093         5.18673        -4.27711
| 30>    C       10.80235         4.28120        -5.35618
| 31>    C       11.30694         4.62632        -6.62177
| 32>    N       11.69571         4.89132        -7.66712
| 33>    C       11.11746         6.52091        -4.29669
| 34>    N       11.48826         7.60642        -4.25937
| 35>    C        9.98806         5.26206        -1.89567
| 36>    C        9.58868         4.70142        -0.72598
| 37>    C        9.67860         5.36605         0.53379
| 38>    C       10.64367         6.30790         0.82639
| 39>    O       10.64980         7.02911         1.99719
| 40>    C        9.69054         6.66950         2.90185
| 41>    C        8.75519         5.62766         2.63749
| 42>    C        7.90619         5.40862         3.67192
| 43>    S        8.23535         6.47329         4.98574
| 44>    C        9.53140         7.21995         4.13080
| 45>    O        8.73211         4.96180         1.44424
| 46>    C       11.75709         6.54399        -0.03120
| 47>    C       12.56218         7.63377         0.02074
| 48>    C       13.64794         7.85252        -0.86351
| 49>    S       14.61526         9.28488        -0.66539
| 50>    C       15.62497         8.88300        -2.02215
| 51>    C       15.21174         7.68977        -2.60153
| 52>    C       14.09654         7.10050        -1.95060
| 53>    C       13.56095         5.89117        -2.41262
| 54>    N       13.16291         4.89783        -2.83273
| 55>    C       15.85346         7.11674        -3.71305
| 56>    N       16.39927         6.65572        -4.60971
| 57>    C       16.72530         9.67414        -2.43672
| 58>    C       17.13840        10.79502        -1.80135
| 59>    C       18.25984        11.57015        -2.19241
| 60>    S       19.23558        11.20803        -3.58357
| 61>    C       20.29599        12.55004        -3.28070
| 62>    C       19.90309        13.24717        -2.14950
| 63>    C       18.74723        12.69197        -1.53401
| 64>    C       18.15342        13.21195        -0.37180
| 65>    N       17.65384        13.62011         0.57569
| 66>    C       20.53573        14.38398        -1.61591
| 67>    N       21.01721        15.31068        -1.14192
| 68>    C       21.39411        12.76932        -4.18152
| 69>    C       22.31524        13.72522        -4.07122
| 70>    H       10.51999        -2.56262        -9.22120
| 71>    H        9.58127         0.45790        -4.56389
| 72>    H       10.76969         2.06145        -6.90334
| 73>    H       10.25654         6.31041        -1.91909
| 74>    H        9.14155         3.71646        -0.71292
| 75>    H        7.11562         4.69059         3.73371
| 76>    H       10.09693         8.01156         4.57584
| 77>    H       11.96751         5.76940        -0.75052
| 78>    H       12.36377         8.41264         0.74343
| 79>    H       17.25615         9.31922        -3.31223
| 80>    H       16.60997        11.14452        -0.92212
| 81>    H       21.43827        12.06850        -5.00562
| 82>    H       22.31366        14.44106        -3.26838
| 83>    H       23.10556        13.81265        -4.79568
| 84> *
| 85>
| 86>                          ****END OF INPUT****

CARTESIAN COORDINATES (ANGSTROEM)
---------------------------------
  C     10.294200   -2.095880   -8.282230
  S     10.600210   -0.428330   -8.055070
  C     10.004690   -0.490850   -6.419730
  C      9.591770   -1.775100   -6.095180
  C      9.761290   -2.695030   -7.172480
  C      9.421890   -4.060280   -7.099020
  N      9.146920   -5.170500   -7.037650
  C      9.066200   -2.119510   -4.839720
  N      8.639580   -2.384520   -3.808880
  C      9.967940    0.639140   -5.559870
  C     10.382100    1.878220   -5.908040
  C     10.363590    2.999240   -5.039850
  S      9.791900    2.920500   -3.398440
  C     10.136260    4.599470   -3.134680
  C     10.680930    5.186730   -4.277110
  C     10.802350    4.281200   -5.356180
  C     11.306940    4.626320   -6.621770
  N     11.695710    4.891320   -7.667120
  C     11.117460    6.520910   -4.296690
  N     11.488260    7.606420   -4.259370
  C      9.988060    5.262060   -1.895670
  C      9.588680    4.701420   -0.725980
  C      9.678600    5.366050    0.533790
  C     10.643670    6.307900    0.826390
  O     10.649800    7.029110    1.997190
  C      9.690540    6.669500    2.901850
  C      8.755190    5.627660    2.637490
  C      7.906190    5.408620    3.671920
  S      8.235350    6.473290    4.985740
  C      9.531400    7.219950    4.130800
  O      8.732110    4.961800    1.444240
  C     11.757090    6.543990   -0.031200
  C     12.562180    7.633770    0.020740
  C     13.647940    7.852520   -0.863510
  S     14.615260    9.284880   -0.665390
  C     15.624970    8.883000   -2.022150
  C     15.211740    7.689770   -2.601530
  C     14.096540    7.100500   -1.950600
  C     13.560950    5.891170   -2.412620
  N     13.162910    4.897830   -2.832730
  C     15.853460    7.116740   -3.713050
  N     16.399270    6.655720   -4.609710
  C     16.725300    9.674140   -2.436720
  C     17.138400   10.795020   -1.801350
  C     18.259840   11.570150   -2.192410
  S     19.235580   11.208030   -3.583570
  C     20.295990   12.550040   -3.280700
  C     19.903090   13.247170   -2.149500
  C     18.747230   12.691970   -1.534010
  C     18.153420   13.211950   -0.371800
  N     17.653840   13.620110    0.575690
  C     20.535730   14.383980   -1.615910
  N     21.017210   15.310680   -1.141920
  C     21.394110   12.769320   -4.181520
  C     22.315240   13.725220   -4.071220
  H     10.519990   -2.562620   -9.221200
  H      9.581270    0.457900   -4.563890
  H     10.769690    2.061450   -6.903340
  H     10.256540    6.310410   -1.919090
  H      9.141550    3.716460   -0.712920
  H      7.115620    4.690590    3.733710
  H     10.096930    8.011560    4.575840
  H     11.967510    5.769400   -0.750520
  H     12.363770    8.412640    0.743430
  H     17.256150    9.319220   -3.312230
  H     16.609970   11.144520   -0.922120
  H     21.438270   12.068500   -5.005620
  H     22.313660   14.441060   -3.268380
  H     23.105560   13.812650   -4.795680

 Total Charge           Charge          ....    0
 Multiplicity           Mult            ....    1
 Number of Electrons    NEL             ....  406
 Basis Dimension        Dim             ....  860

ORBITAL ENERGIES
----------------

  NO   OCC          E(Eh)            E(eV)
   0   2.0000     -89.004408     -2421.9331
   1   2.0000     -88.999345     -2421.7953
   2   2.0000     -88.997606     -2421.7480
   3   2.0000     -88.996238     -2421.7107
   4   2.0000     -88.971358     -2421.0337
   5   2.0000     -19.294388      -525.0270
   6   2.0000     -19.294215      -525.0223
   7   2.0000     -14.428638      -392.6232
   8   2.0000     -14.425174      -392.5289
   9   2.0000     -14.424551      -392.5120
  10   2.0000     -14.423089      -392.4722
  11   2.0000     -14.422011      -392.4429
  12   2.0000     -14.421946      -392.4411
  13   2.0000     -14.421172      -392.4200
  14   2.0000     -14.420967      -392.4145
  15   2.0000     -10.372721      -282.2561
  16   2.0000     -10.370458      -282.1945
  17   2.0000     -10.355767      -281.7948
  18   2.0000     -10.355465      -281.7865
  19   2.0000     -10.354172      -281.7513
  20   2.0000     -10.352778      -281.7134
  21   2.0000     -10.352536      -281.7068
  22   2.0000     -10.350352      -281.6474
  23   2.0000     -10.350061      -281.6395
  24   2.0000     -10.348709      -281.6027
  25   2.0000     -10.347427      -281.5678
  26   2.0000     -10.346313      -281.5375
  27   2.0000     -10.345436      -281.5136
  28   2.0000     -10.344527      -281.4889
  29   2.0000     -10.343202      -281.4528
  30   2.0000     -10.341608      -281.4095
  31   2.0000     -10.341593      -281.4091
  32   2.0000     -10.341078      -281.3950
  33   2.0000     -10.338611      -281.3279
  34   2.0000     -10.338497      -281.3248
  35   2.0000     -10.330452      -281.1059
  36   2.0000     -10.325135      -280.9612
  37   2.0000     -10.324468      -280.9431
  38   2.0000     -10.324380      -280.9406
  39   2.0000     -10.324367      -280.9403
  40   2.0000     -10.322084      -280.8782
  41   2.0000     -10.321056      -280.8502
  42   2.0000     -10.320958      -280.8475
  43   2.0000     -10.320741      -280.8417
  44   2.0000     -10.320669      -280.8397
  45   2.0000     -10.320580      -280.8373
  46   2.0000     -10.319863      -280.8178
  47   2.0000     -10.318893      -280.7913
  48   2.0000     -10.318232      -280.7734
  49   2.0000     -10.311899      -280.6010
  50   2.0000     -10.309790      -280.5436
  51   2.0000     -10.308617      -280.5117
  52   2.0000     -10.308482      -280.5080
  53   2.0000     -10.307436      -280.4796
  54   2.0000     -10.294112      -280.1170
  55   2.0000      -8.100040      -220.4133
  56   2.0000      -8.094588      -220.2649
  57   2.0000      -8.093078      -220.2239
  58   2.0000      -8.091665      -220.1854
  59   2.0000      -8.067215      -219.5201
  60   2.0000      -6.069184      -165.1509
  61   2.0000      -6.064877      -165.0337
  62   2.0000      -6.063710      -165.0019
  63   2.0000      -6.062508      -164.9692
  64   2.0000      -6.062178      -164.9603
  65   2.0000      -6.060844      -164.9240
  66   2.0000      -6.059799      -164.8955
  67   2.0000      -6.058163      -164.8510
  68   2.0000      -6.056805      -164.8140
  69   2.0000      -6.056760      -164.8128
  70   2.0000      -6.055374      -164.7751
  71   2.0000      -6.053821      -164.7328
  72   2.0000      -6.036696      -164.2668
  73   2.0000      -6.032511      -164.1530
  74   2.0000      -6.028899      -164.0547
  75   2.0000      -1.220881       -33.2219
  76   2.0000      -1.184264       -32.2255
  77   2.0000      -1.043384       -28.3919
  78   2.0000      -1.041193       -28.3323
  79   2.0000      -1.039908       -28.2973
  80   2.0000      -1.037906       -28.2429
  81   2.0000      -1.010493       -27.4969
  82   2.0000      -1.004623       -27.3372
  83   2.0000      -1.004535       -27.3348
  84   2.0000      -1.003032       -27.2939
  85   2.0000      -1.002858       -27.2891
  86   2.0000      -1.001436       -27.2505
  87   2.0000      -1.000697       -27.2303
  88   2.0000      -1.000212       -27.2171
  89   2.0000      -0.999825       -27.2066
  90   2.0000      -0.959995       -26.1228
  91   2.0000      -0.949744       -25.8438
  92   2.0000      -0.942507       -25.6469
  93   2.0000      -0.927483       -25.2381
  94   2.0000      -0.913674       -24.8623
  95   2.0000      -0.904774       -24.6202
  96   2.0000      -0.899853       -24.4863
  97   2.0000      -0.897938       -24.4341
  98   2.0000      -0.897375       -24.4188
  99   2.0000      -0.887652       -24.1542
 100   2.0000      -0.873045       -23.7568
 101   2.0000      -0.861472       -23.4418
 102   2.0000      -0.848832       -23.0979
 103   2.0000      -0.841612       -22.9014
 104   2.0000      -0.832046       -22.6411
 105   2.0000      -0.821756       -22.3611
 106   2.0000      -0.788245       -21.4492
 107   2.0000      -0.774427       -21.0732
 108   2.0000      -0.770137       -20.9565
 109   2.0000      -0.752871       -20.4867
 110   2.0000      -0.751518       -20.4498
 111   2.0000      -0.735824       -20.0228
 112   2.0000      -0.726185       -19.7605
 113   2.0000      -0.722279       -19.6542
 114   2.0000      -0.721945       -19.6451
 115   2.0000      -0.716543       -19.4981
 116   2.0000      -0.711353       -19.3569
 117   2.0000      -0.707613       -19.2551
 118   2.0000      -0.695342       -18.9212
 119   2.0000      -0.684814       -18.6347
 120   2.0000      -0.677040       -18.4232
 121   2.0000      -0.663810       -18.0632
 122   2.0000      -0.661534       -18.0013
 123   2.0000      -0.648295       -17.6410
 124   2.0000      -0.639941       -17.4137
 125   2.0000      -0.632987       -17.2245
 126   2.0000      -0.619900       -16.8683
 127   2.0000      -0.608739       -16.5646
 128   2.0000      -0.598911       -16.2972
 129   2.0000      -0.597301       -16.2534
 130   2.0000      -0.587481       -15.9862
 131   2.0000      -0.580480       -15.7957
 132   2.0000      -0.576587       -15.6897
 133   2.0000      -0.572230       -15.5712
 134   2.0000      -0.565006       -15.3746
 135   2.0000      -0.564000       -15.3472
 136   2.0000      -0.561927       -15.2908
 137   2.0000      -0.558262       -15.1911
 138   2.0000      -0.549443       -14.9511
 139   2.0000      -0.543560       -14.7910
 140   2.0000      -0.541615       -14.7381
 141   2.0000      -0.540635       -14.7114
 142   2.0000      -0.538031       -14.6406
 143   2.0000      -0.536974       -14.6118
 144   2.0000      -0.535308       -14.5665
 145   2.0000      -0.532019       -14.4770
 146   2.0000      -0.528140       -14.3714
 147   2.0000      -0.524376       -14.2690
 148   2.0000      -0.517798       -14.0900
 149   2.0000      -0.509918       -13.8756
 150   2.0000      -0.502066       -13.6619
 151   2.0000      -0.499180       -13.5834
 152   2.0000      -0.493214       -13.4210
 153   2.0000      -0.492190       -13.3932
 154   2.0000      -0.490232       -13.3399
 155   2.0000      -0.482844       -13.1389
 156   2.0000      -0.478267       -13.0143
 157   2.0000      -0.477934       -13.0052
 158   2.0000      -0.472848       -12.8669
 159   2.0000      -0.470724       -12.8090
 160   2.0000      -0.468243       -12.7415
 161   2.0000      -0.462575       -12.5873
 162   2.0000      -0.462382       -12.5821
 163   2.0000      -0.461191       -12.5496
 164   2.0000      -0.458165       -12.4673
 165   2.0000      -0.457310       -12.4440
 166   2.0000      -0.454745       -12.3742
 167   2.0000      -0.453805       -12.3487
 168   2.0000      -0.452323       -12.3083
 169   2.0000      -0.451020       -12.2729
 170   2.0000      -0.450557       -12.2603
 171   2.0000      -0.448442       -12.2027
 172   2.0000      -0.447753       -12.1840
 173   2.0000      -0.447317       -12.1721
 174   2.0000      -0.446502       -12.1499
 175   2.0000      -0.445939       -12.1346
 176   2.0000      -0.444383       -12.0923
 177   2.0000      -0.443257       -12.0616
 178   2.0000      -0.436327       -11.8730
 179   2.0000      -0.432669       -11.7735
 180   2.0000      -0.432461       -11.7678
 181   2.0000      -0.430946       -11.7266
 182   2.0000      -0.428259       -11.6535
 183   2.0000      -0.426857       -11.6154
 184   2.0000      -0.426622       -11.6090
 185   2.0000      -0.424310       -11.5461
 186   2.0000      -0.422928       -11.5085
 187   2.0000      -0.421891       -11.4802
 188   2.0000      -0.416317       -11.3286
 189   2.0000      -0.411520       -11.1980
 190   2.0000      -0.400607       -10.9011
 191   2.0000      -0.385728       -10.4962
 192   2.0000      -0.362378        -9.8608
 193   2.0000      -0.353194        -9.6109
 194   2.0000      -0.352312        -9.5869
 195   2.0000      -0.348832        -9.4922
 196   2.0000      -0.347315        -9.4509
 197   2.0000      -0.340998        -9.2790
 198   2.0000      -0.322156        -8.7663
 199   2.0000      -0.316773        -8.6198
 200   2.0000      -0.293974        -7.9994
 201   2.0000      -0.284102        -7.7308
 202   2.0000      -0.257429        -7.0050
 203   0.0000      -0.106952        -2.9103
 204   0.0000      -0.089976        -2.4484
 205   0.0000      -0.064819        -1.7638
 206   0.0000      -0.048509        -1.3200
 207   0.0000      -0.040000        -1.0885

MULLIKEN ATOMIC CHARGES
-----------------------
   0 C :   -0.066182
   1 S :    0.180889
   2 C :   -0.105126
   3 C :    0.015274
   4 C :   -0.053402
   5 C :   -0.198524
   6 N :    0.194498
   7 C :   -0.259577
   8 N :    0.209965
   9 C :   -0.000791
  10 C :   -0.010546
  11 C :   -0.066243
  12 S :    0.166412
  13 C :   -0.048147
  14 C :    0.019918
  15 C :    0.008300
  16 C :   -0.270385
  17 N :    0.213634
  18 C :   -0.267180
  19 N :    0.199650
  20 C :   -0.055769
  21 C :    0.003837
  22 C :    0.154821
  23 C :    0.171002
  24 O :   -0.252104
  25 C :    0.218194
  26 C :    0.213720
  27 C :   -0.167801
  28 S :    0.124734
  29 C :   -0.169377
  30 O :   -0.242892
  31 C :   -0.110700
  32 C :    0.049335
  33 C :   -0.076165
  34 S :    0.175162
  35 C :   -0.080341
  36 C :    0.006302
  37 C :   -0.017223
  38 C :   -0.231551
  39 N :    0.168531
  40 C :   -0.269896
  41 N :    0.215839
  42 C :   -0.007944
  43 C :   -0.009376
  44 C :   -0.083561
  45 S :    0.175542
  46 C :   -0.105991
  47 C :   -0.007826
  48 C :   -0.003722
  49 C :   -0.265231
  50 N :    0.212440
  51 C :   -0.262134
  52 N :    0.196861
  53 C :    0.031381
  54 C :   -0.005798
  55 H :    0.049567
  56 H :    0.025037
  57 H :    0.025164
  58 H :    0.051511
  59 H :    0.022111
  60 H :    0.032955
  61 H :    0.031300
  62 H :    0.064196
  63 H :    0.000829
  64 H :    0.023342
  65 H :    0.023085
  66 H :    0.001172
  67 H :    0.052449
  68 H :    0.042543
Sum of atomic charges:   -0.0000000

LOEWDIN ATOMIC CHARGES
----------------------
   0 C :   -0.132067
   1 S :    0.498509
   2 C :   -0.136295
   3 C :   -0.082809
   4 C :   -0.083872
   5 C :   -0.033236
   6 N :   -0.027502
   7 C :   -0.034821
   8 N :   -0.031743
   9 C :   -0.028426
  10 C :   -0.024219
  11 C :   -0.129374
  12 S :    0.486628
  13 C :   -0.126339
  14 C :   -0.073462
  15 C :   -0.071381
  16 C :   -0.032632
  17 N :   -0.030429
  18 C :   -0.026935
  19 N :   -0.045966
  20 C :   -0.026868
  21 C :   -0.011698
  22 C :    0.030128
  23 C :    0.029274
  24 O :   -0.052065
  25 C :   -0.008322
  26 C :   -0.009074
  27 C :   -0.202941
  28 S :    0.449863
  29 C :   -0.204188
  30 O :   -0.051027
  31 C :   -0.008872
  32 C :   -0.051120
  33 C :   -0.117504
  34 S :    0.486499
  35 C :   -0.140544
  36 C :   -0.070425
  37 C :   -0.092840
  38 C :   -0.015370
  39 N :   -0.057890
  40 C :   -0.033108
  41 N :   -0.031407
  42 C :   -0.027366
  43 C :   -0.031389
  44 C :   -0.139870
  45 S :    0.489554
  46 C :   -0.125259
  47 C :   -0.088119
  48 C :   -0.078257
  49 C :   -0.034454
  50 N :   -0.032750
  51 C :   -0.029227
  52 N :   -0.034753
  53 C :   -0.054024
  54 C :    0.005946
  55 H :    0.041782
  56 H :    0.039485
  57 H :    0.040319
  58 H :    0.048371
  59 H :    0.037677
  60 H :    0.032526
  61 H :    0.031992
  62 H :    0.044260
  63 H :    0.035716
  64 H :    0.039399
  65 H :    0.038910
  66 H :    0.033917
  67 H :    0.035557
  68 H :    0.035926

  Mayer bond orders larger than 0.100000
B(  0-C ,  1-S ) :   1.1797 B(  0-C ,  4-C ) :   1.5596 B(  0-C , 55-H ) :   0.9736
B(  1-S ,  2-C ) :   1.1424 B(  2-C ,  3-C ) :   1.4733 B(  2-C ,  9-C ) :   1.1903
B(  3-C ,  4-C ) :   1.3018 B(  3-C ,  7-C ) :   1.1472 B(  4-C ,  5-C ) :   1.1228
B(  5-C ,  6-N ) :   3.0420 B(  7-C ,  8-N ) :   3.0057 B(  9-C , 10-C ) :   1.6317
B(  9-C , 56-H ) :   0.9617 B( 10-C , 11-C ) :   1.1996 B( 10-C , 57-H ) :   0.9634
B( 11-C , 12-S ) :   1.1170 B( 11-C , 15-C ) :   1.4713 B( 12-S , 13-C ) :   1.1153
B( 13-C , 14-C ) :   1.4554 B( 13-C , 20-C ) :   1.2153 B( 14-C , 15-C ) :   1.3245
B( 14-C , 18-C ) :   1.1592 B( 15-C , 16-C ) :   1.1438 B( 16-C , 17-N ) :   3.0057
B( 18-C , 19-N ) :   2.9716 B( 20-C , 21-C ) :   1.6212 B( 20-C , 58-H ) :   0.9513
B( 21-C , 22-C ) :   1.1539 B( 21-C , 59-H ) :   0.9548 B( 22-C , 23-C ) :   1.4628
B( 22-C , 30-O ) :   1.0652 B( 23-C , 24-O ) :   1.0851 B( 23-C , 31-C ) :   1.1748
B( 24-O , 25-C ) :   1.0380 B( 25-C , 26-C ) :   1.2004 B( 25-C , 29-C ) :   1.5755
B( 26-C , 27-C ) :   1.5775 B( 26-C , 30-O ) :   1.0417 B( 27-C , 28-S ) :   1.1491
B( 27-C , 60-H ) :   0.9718 B( 28-S , 29-C ) :   1.1481 B( 29-C , 61-H ) :   0.9727
B( 31-C , 32-C ) :   1.6366 B( 31-C , 62-H ) :   0.9406 B( 32-C , 33-C ) :   1.1504
B( 32-C , 63-H ) :   0.9576 B( 33-C , 34-S ) :   1.1297 B( 33-C , 37-C ) :   1.4463
B( 34-S , 35-C ) :   1.1083 B( 35-C , 36-C ) :   1.4768 B( 35-C , 42-C ) :   1.1961
B( 36-C , 37-C ) :   1.3310 B( 36-C , 40-C ) :   1.1470 B( 37-C , 38-C ) :   1.1833
B( 38-C , 39-N ) :   2.8744 B( 40-C , 41-N ) :   3.0045 B( 42-C , 43-C ) :   1.6271
B( 42-C , 64-H ) :   0.9633 B( 43-C , 44-C ) :   1.1921 B( 43-C , 65-H ) :   0.9630
B( 44-C , 45-S ) :   1.1188 B( 44-C , 48-C ) :   1.4758 B( 45-S , 46-C ) :   1.1404
B( 46-C , 47-C ) :   1.4932 B( 46-C , 53-C ) :   1.1158 B( 47-C , 48-C ) :   1.3184
B( 47-C , 51-C ) :   1.1601 B( 48-C , 49-C ) :   1.1464 B( 49-C , 50-N ) :   3.0049
B( 51-C , 52-N ) :   2.9634 B( 53-C , 54-C ) :   1.9281 B( 53-C , 66-H ) :   0.9435
B( 54-C , 67-H ) :   0.9495 B( 54-C , 68-H ) :   0.9451

-----------------------------------------------------------------------------
         ABSORPTION SPECTRUM VIA TRANSITION ELECTRIC DIPOLE MOMENTS
-----------------------------------------------------------------------------
State   Energy  Wavelength   fosc         T2         TX        TY        TZ
        (cm-1)    (nm)                  (au**2)     (au)      (au)      (au)
-----------------------------------------------------------------------------
   0   17179.8    582.1   0.983008593  18.83712  -2.61089  -3.20664  -1.31827
   1   22160.6    451.3   0.401107547   5.95875   1.96641   0.93652  -1.10222
   2   24415.4    409.6   0.480867962   6.48392   1.74602  -0.07075  -1.85212
   3   25297.4    395.3   0.578300520   7.52580   0.60803   2.44165   1.09290
   4   27309.8    366.2   0.086335798   1.04075   0.19777  -0.99140  -0.13701
   5   28894.4    346.1   0.272360122   3.10316   0.12808   1.27237   1.21154
   6   28964.3    345.3   0.320625581   3.64427   1.19479   1.34830  -0.63152
   7   31623.4    316.2   0.124925653   1.30053  -0.46955  -0.36448   0.97325
   8   31739.3    315.1   0.036012676   0.37354  -0.13150   0.57603  -0.15631
   9   32700.5    305.8   0.044931867   0.45235   0.31770  -0.57605   0.13994
  10   33318.1    300.1   0.017313832   0.17108  -0.31041  -0.15155   0.22750
  11   33962.8    294.4   0.016785831   0.16271  -0.20992   0.06883   0.33750
  12   35030.0    285.5   0.029663801   0.27878  -0.22932  -0.13738  -0.45532
  13   36104.8    277.0   0.017894844   0.16317   0.27358   0.28594  -0.08103
  14   36287.2    275.6   0.175333749   1.59070   0.44607   0.45189  -1.08973
  15   36882.4    271.1   0.016719593   0.14924  -0.11730   0.25470   0.26572
  16   37123.5    269.4   0.108224094   0.95973  -0.38850  -0.83549   0.33281
  17   37645.3    265.6   0.094472156   0.82617  -0.18520  -0.87930  -0.13672
  18   38180.7    261.9   0.063930660   0.55124   0.25507   0.08070  -0.69258
  19   38279.3    261.2   0.016891455   0.14527  -0.12594   0.33943   0.11914
  20   38708.0    258.3   0.095316299   0.81067  -0.18975  -0.78252  -0.40289
  21   39385.5    253.9   0.022573449   0.18868   0.08150   0.41050   0.11632
  22   39957.3    250.3   0.271655989   2.23820   0.69353   1.08992  -0.75452

FINAL SINGLE POINT ENERGY     -4108.577925693678

DIPOLE MOMENT
-------------
                                X             Y             Z
Electronic contribution:    -11.09726     -11.86062      -2.61748
Nuclear contribution   :     10.70010      12.01054       2.83570
                        -----------------------------------------
Total Dipole Moment    :     -0.39716       0.14992       0.21823
                        -----------------------------------------
Magnitude (a.u.)       :      0.47732
Magnitude (Debye)      :      1.21326

Rotational constants in cm-1:     0.001512     0.000541     0.000412
Rotational constants in MHz :    45.328516    16.207159    12.344778

                             ****ORCA TERMINATED NORMALLY****
TOTAL RUN TIME: 0 days 0 hours 5 minutes 6 seconds 152 msec
