                         Program Version 4.2.0 -  RELEASE  -
|  1> # ORCA input file
|  2> # SCF done       -152.271586416826          0.000520853471
|  3> ! CAM-B3LYP def2-SVP def2/J RIJCOSX Grid4 TightSCF
|  4> %maxcore 5000
|  5> %tddft
|  6>     Mode sTDDFT
|  7>     Ethresh 5.0
|  8>     maxcore 5000
|  9> end
| 10>
| 11> %pal
| 12>   nprocs 6
| 13>   end
| 14> * xyz 0 1
| 15>    C        3.35071         4.93625         7.84843
| 16>    S        2.37832         4.54768         6.49034
| 17>    C        3.77496         4.37320         5.45498
| 18>    C        4.94233         4.61730         6.17559
| 19>    C        4.68325         4.93841         7.54642
| 20>    C        5.70012         5.22437         8.47616
| 21>    N        6.52970         5.45644         9.23223
| 22>    C        6.25037         4.57629         5.68511
| 23>    N        7.34666         4.55825         5.33669
| 24>    C        3.57930         4.02707         4.09795
| 25>    C        4.58468         3.85495         3.19501
| 26>    C        4.37644         3.52045         1.83588
| 27>    C        5.39871         3.34699         0.91624
| 28>    O        5.15310         3.05974        -0.40690
| 29>    C        3.84327         2.94758        -0.76149
| 30>    C        2.79095         3.11080         0.18448
| 31>    C        1.56140         2.95660        -0.36615
| 32>    S        1.67122         2.60898        -2.05245
| 33>    C        3.39288         2.67318        -2.01085
| 34>    O        3.03744         3.39301         1.49126
| 35>    C        6.77633         3.45351         1.24148
| 36>    C        7.77173         3.32402         0.31875
| 37>    C        9.15807         3.44376         0.54577
| 38>    S       10.21942         3.02707        -0.77868
| 39>    C       11.63495         3.38606         0.16436
| 40>    C       11.27686         3.80483         1.44553
| 41>    C        9.89724         3.85651         1.65683
| 42>    C        9.30434         4.35156         2.93362
| 43>    C       10.32987         5.07661         3.80579
| 44>    C       10.59890         6.47731         3.27513
| 45>    O       10.15826         6.87299         2.22620
| 46>    C       11.45074         7.34486         4.16985
| 47>    C       11.61937         4.25329         3.87393
| 48>    C       12.27463         4.18528         2.49639
| 49>    C       12.93774         3.27472        -0.36456
| 50>    C       13.20899         2.87902        -1.63972
| 51>    C       14.47399         2.77956        -2.24498
| 52>    S       14.53503         2.35719        -3.94057
| 53>    C       16.28366         2.49160        -4.03676
| 54>    C       16.76427         2.81632        -2.77165
| 55>    C       15.77492         2.97259        -1.76754
| 56>    C       16.35265         3.25040        -0.49782
| 57>    C       17.70516         3.28310        -0.52409
| 58>    C       18.63987         3.53876         0.60124
| 59>    S       18.36257         2.97819        -2.12053
| 60>    C       16.86979         2.25024        -5.28709
| 61>    C       18.12933         2.53160        -5.75609
| 62>    C       18.58678         2.18516        -7.05509
| 63>    C       19.84881         2.59965        -7.34183
| 64>    C       20.46878         3.31304        -6.28813
| 65>    S       19.37946         3.42881        -4.91727
| 66>    C       21.72525         3.87108        -6.26280
| 67>    C       22.69566         3.86694        -7.30217
| 68>    C       23.84849         4.50141        -6.99230
| 69>    C       23.87956         5.06407        -5.67299
| 70>    S       22.34248         4.72340        -4.86101
| 71>    C       24.87829         5.74572        -5.09460
| 72>    H        2.89951         5.14353         8.79852
| 73>    H        2.55505         3.89630         3.78043
| 74>    H        5.60025         3.98806         3.52242
| 75>    H        0.60847         3.02603         0.11460
| 76>    H        3.96753         2.50767        -2.89776
| 77>    H        7.01741         3.63012         2.27063
| 78>    H        7.48862         3.09488        -0.70038
| 79>    H        8.88879         3.51577         3.50311
| 80>    H        8.49333         5.04676         2.70826
| 81>    H        9.90891         5.17920         4.81058
| 82>    H       11.40770         8.37662         3.83046
| 83>    H       12.48520         7.00958         4.12869
| 84>    H       11.11271         7.27912         5.20043
| 85>    H       11.36561         3.24434         4.20579
| 86>    H       12.31566         4.67810         4.59805
| 87>    H       13.09219         3.45969         2.51355
| 88>    H       12.70256         5.16004         2.23753
| 89>    H       13.74331         3.54952         0.29701
| 90>    H       12.36995         2.63071        -2.27873
| 91>    H       15.79064         3.40600         0.40404
| 92>    H       19.22526         4.43812         0.41080
| 93>    H       19.33673         2.70893         0.71384
| 94>    H       18.08812         3.66673         1.52940
| 95>    H       16.20060         1.80426        -6.01387
| 96>    H       17.96048         1.63176        -7.73287
| 97>    H       20.34951         2.41324        -8.27482
| 98>    H       22.50055         3.39045        -8.24670
| 99>    H       24.69396         4.59919        -7.64997
|100>    H       25.79625         5.92954        -5.62439
|101>    H       24.79768         6.12579        -4.09292
|102> *
|103>
|104>                          ****END OF INPUT****

CARTESIAN COORDINATES (ANGSTROEM)
---------------------------------
  C      3.350710    4.936250    7.848430
  S      2.378320    4.547680    6.490340
  C      3.774960    4.373200    5.454980
  C      4.942330    4.617300    6.175590
  C      4.683250    4.938410    7.546420
  C      5.700120    5.224370    8.476160
  N      6.529700    5.456440    9.232230
  C      6.250370    4.576290    5.685110
  N      7.346660    4.558250    5.336690
  C      3.579300    4.027070    4.097950
  C      4.584680    3.854950    3.195010
  C      4.376440    3.520450    1.835880
  C      5.398710    3.346990    0.916240
  O      5.153100    3.059740   -0.406900
  C      3.843270    2.947580   -0.761490
  C      2.790950    3.110800    0.184480
  C      1.561400    2.956600   -0.366150
  S      1.671220    2.608980   -2.052450
  C      3.392880    2.673180   -2.010850
  O      3.037440    3.393010    1.491260
  C      6.776330    3.453510    1.241480
  C      7.771730    3.324020    0.318750
  C      9.158070    3.443760    0.545770
  S     10.219420    3.027070   -0.778680
  C     11.634950    3.386060    0.164360
  C     11.276860    3.804830    1.445530
  C      9.897240    3.856510    1.656830
  C      9.304340    4.351560    2.933620
  C     10.329870    5.076610    3.805790
  C     10.598900    6.477310    3.275130
  O     10.158260    6.872990    2.226200
  C     11.450740    7.344860    4.169850
  C     11.619370    4.253290    3.873930
  C     12.274630    4.185280    2.496390
  C     12.937740    3.274720   -0.364560
  C     13.208990    2.879020   -1.639720
  C     14.473990    2.779560   -2.244980
  S     14.535030    2.357190   -3.940570
  C     16.283660    2.491600   -4.036760
  C     16.764270    2.816320   -2.771650
  C     15.774920    2.972590   -1.767540
  C     16.352650    3.250400   -0.497820
  C     17.705160    3.283100   -0.524090
  C     18.639870    3.538760    0.601240
  S     18.362570    2.978190   -2.120530
  C     16.869790    2.250240   -5.287090
  C     18.129330    2.531600   -5.756090
  C     18.586780    2.185160   -7.055090
  C     19.848810    2.599650   -7.341830
  C     20.468780    3.313040   -6.288130
  S     19.379460    3.428810   -4.917270
  C     21.725250    3.871080   -6.262800
  C     22.695660    3.866940   -7.302170
  C     23.848490    4.501410   -6.992300
  C     23.879560    5.064070   -5.672990
  S     22.342480    4.723400   -4.861010
  C     24.878290    5.745720   -5.094600
  H      2.899510    5.143530    8.798520
  H      2.555050    3.896300    3.780430
  H      5.600250    3.988060    3.522420
  H      0.608470    3.026030    0.114600
  H      3.967530    2.507670   -2.897760
  H      7.017410    3.630120    2.270630
  H      7.488620    3.094880   -0.700380
  H      8.888790    3.515770    3.503110
  H      8.493330    5.046760    2.708260
  H      9.908910    5.179200    4.810580
  H     11.407700    8.376620    3.830460
  H     12.485200    7.009580    4.128690
  H     11.112710    7.279120    5.200430
  H     11.365610    3.244340    4.205790
  H     12.315660    4.678100    4.598050
  H     13.092190    3.459690    2.513550
  H     12.702560    5.160040    2.237530
  H     13.743310    3.549520    0.297010
  H     12.369950    2.630710   -2.278730
  H     15.790640    3.406000    0.404040
  H     19.225260    4.438120    0.410800
  H     19.336730    2.708930    0.713840
  H     18.088120    3.666730    1.529400
  H     16.200600    1.804260   -6.013870
  H     17.960480    1.631760   -7.732870
  H     20.349510    2.413240   -8.274820
  H     22.500550    3.390450   -8.246700
  H     24.693960    4.599190   -7.649970
  H     25.796250    5.929540   -5.624390
  H     24.797680    6.125790   -4.092920

 Total Charge           Charge          ....    0
 Multiplicity           Mult            ....    1
 Number of Electrons    NEL             ....  450
 Basis Dimension        Dim             ....  976

ORBITAL ENERGIES
----------------

  NO   OCC          E(Eh)            E(eV)
   0   2.0000     -88.983939     -2421.3761
   1   2.0000     -88.956801     -2420.6376
   2   2.0000     -88.948074     -2420.4001
   3   2.0000     -88.940187     -2420.1855
   4   2.0000     -88.938668     -2420.1442
   5   2.0000     -88.936783     -2420.0929
   6   2.0000     -88.931535     -2419.9501
   7   2.0000     -19.279174      -524.6130
   8   2.0000     -19.271530      -524.4050
   9   2.0000     -19.193933      -522.2935
  10   2.0000     -14.417480      -392.3196
  11   2.0000     -14.409774      -392.1099
  12   2.0000     -10.355416      -281.7852
  13   2.0000     -10.341387      -281.4034
  14   2.0000     -10.341360      -281.4027
  15   2.0000     -10.340183      -281.3707
  16   2.0000     -10.339610      -281.3551
  17   2.0000     -10.337851      -281.3072
  18   2.0000     -10.329058      -281.0680
  19   2.0000     -10.325400      -280.9684
  20   2.0000     -10.320898      -280.8459
  21   2.0000     -10.319939      -280.8198
  22   2.0000     -10.309789      -280.5436
  23   2.0000     -10.302306      -280.3400
  24   2.0000     -10.302110      -280.3347
  25   2.0000     -10.301572      -280.3200
  26   2.0000     -10.301398      -280.3153
  27   2.0000     -10.300194      -280.2825
  28   2.0000     -10.298249      -280.2296
  29   2.0000     -10.297343      -280.2050
  30   2.0000     -10.294652      -280.1317
  31   2.0000     -10.293948      -280.1126
  32   2.0000     -10.293502      -280.1004
  33   2.0000     -10.292407      -280.0706
  34   2.0000     -10.290062      -280.0068
  35   2.0000     -10.286444      -279.9084
  36   2.0000     -10.285992      -279.8961
  37   2.0000     -10.283611      -279.8313
  38   2.0000     -10.283303      -279.8229
  39   2.0000     -10.280886      -279.7571
  40   2.0000     -10.279615      -279.7225
  41   2.0000     -10.277929      -279.6767
  42   2.0000     -10.277840      -279.6742
  43   2.0000     -10.277811      -279.6735
  44   2.0000     -10.276106      -279.6271
  45   2.0000     -10.273600      -279.5589
  46   2.0000     -10.273570      -279.5580
  47   2.0000     -10.272414      -279.5266
  48   2.0000     -10.268764      -279.4273
  49   2.0000     -10.268696      -279.4254
  50   2.0000     -10.267016      -279.3797
  51   2.0000     -10.265861      -279.3483
  52   2.0000     -10.265300      -279.3330
  53   2.0000     -10.263110      -279.2734
  54   2.0000     -10.261845      -279.2390
  55   2.0000     -10.258105      -279.1372
  56   2.0000     -10.254694      -279.0444
  57   2.0000      -8.079846      -219.8638
  58   2.0000      -8.052546      -219.1209
  59   2.0000      -8.043495      -218.8746
  60   2.0000      -8.035922      -218.6685
  61   2.0000      -8.034423      -218.6278
  62   2.0000      -8.032882      -218.5858
  63   2.0000      -8.028239      -218.4595
  64   2.0000      -6.049100      -164.6044
  65   2.0000      -6.044728      -164.4854
  66   2.0000      -6.042150      -164.4153
  67   2.0000      -6.022076      -163.8690
  68   2.0000      -6.017875      -163.7547
  69   2.0000      -6.014229      -163.6555
  70   2.0000      -6.012838      -163.6176
  71   2.0000      -6.008836      -163.5087
  72   2.0000      -6.005732      -163.4243
  73   2.0000      -6.005408      -163.4155
  74   2.0000      -6.003565      -163.3653
  75   2.0000      -6.002673      -163.3410
  76   2.0000      -6.001297      -163.3036
  77   2.0000      -5.999813      -163.2632
  78   2.0000      -5.998606      -163.2304
  79   2.0000      -5.998082      -163.2161
  80   2.0000      -5.997103      -163.1895
  81   2.0000      -5.996422      -163.1709
  82   2.0000      -5.994152      -163.1092
  83   2.0000      -5.993657      -163.0957
  84   2.0000      -5.988752      -162.9622
  85   2.0000      -1.201822       -32.7032
  86   2.0000      -1.164180       -31.6789
  87   2.0000      -1.112259       -30.2661
  88   2.0000      -1.023702       -27.8563
  89   2.0000      -0.996560       -27.1178
  90   2.0000      -0.996081       -27.1047
  91   2.0000      -0.988371       -26.8949
  92   2.0000      -0.985844       -26.8262
  93   2.0000      -0.984744       -26.7962
  94   2.0000      -0.977857       -26.6088
  95   2.0000      -0.962304       -26.1856
  96   2.0000      -0.939429       -25.5632
  97   2.0000      -0.927296       -25.2330
  98   2.0000      -0.915269       -24.9057
  99   2.0000      -0.907764       -24.7015
 100   2.0000      -0.896756       -24.4020
 101   2.0000      -0.883995       -24.0547
 102   2.0000      -0.880294       -23.9540
 103   2.0000      -0.868812       -23.6416
 104   2.0000      -0.857549       -23.3351
 105   2.0000      -0.847475       -23.0610
 106   2.0000      -0.841623       -22.9017
 107   2.0000      -0.837768       -22.7968
 108   2.0000      -0.833264       -22.6743
 109   2.0000      -0.826936       -22.5021
 110   2.0000      -0.823314       -22.4035
 111   2.0000      -0.821017       -22.3410
 112   2.0000      -0.814417       -22.1614
 113   2.0000      -0.811451       -22.0807
 114   2.0000      -0.802137       -21.8273
 115   2.0000      -0.797328       -21.6964
 116   2.0000      -0.779932       -21.2230
 117   2.0000      -0.766939       -20.8695
 118   2.0000      -0.759503       -20.6671
 119   2.0000      -0.744758       -20.2659
 120   2.0000      -0.729185       -19.8421
 121   2.0000      -0.715527       -19.4705
 122   2.0000      -0.711338       -19.3565
 123   2.0000      -0.707681       -19.2570
 124   2.0000      -0.702905       -19.1270
 125   2.0000      -0.691845       -18.8261
 126   2.0000      -0.686889       -18.6912
 127   2.0000      -0.686005       -18.6671
 128   2.0000      -0.673858       -18.3366
 129   2.0000      -0.671345       -18.2682
 130   2.0000      -0.652063       -17.7435
 131   2.0000      -0.647264       -17.6129
 132   2.0000      -0.636420       -17.3179
 133   2.0000      -0.630776       -17.1643
 134   2.0000      -0.626171       -17.0390
 135   2.0000      -0.624581       -16.9957
 136   2.0000      -0.614791       -16.7293
 137   2.0000      -0.610962       -16.6251
 138   2.0000      -0.602158       -16.3855
 139   2.0000      -0.592235       -16.1155
 140   2.0000      -0.591927       -16.1071
 141   2.0000      -0.580136       -15.7863
 142   2.0000      -0.573265       -15.5993
 143   2.0000      -0.567953       -15.4548
 144   2.0000      -0.567015       -15.4293
 145   2.0000      -0.565643       -15.3919
 146   2.0000      -0.563980       -15.3467
 147   2.0000      -0.560496       -15.2519
 148   2.0000      -0.550002       -14.9663
 149   2.0000      -0.543826       -14.7983
 150   2.0000      -0.540511       -14.7080
 151   2.0000      -0.539243       -14.6736
 152   2.0000      -0.535491       -14.5715
 153   2.0000      -0.533013       -14.5040
 154   2.0000      -0.524107       -14.2617
 155   2.0000      -0.523830       -14.2541
 156   2.0000      -0.520391       -14.1605
 157   2.0000      -0.514901       -14.0112
 158   2.0000      -0.512803       -13.9541
 159   2.0000      -0.506959       -13.7951
 160   2.0000      -0.503690       -13.7061
 161   2.0000      -0.501633       -13.6501
 162   2.0000      -0.500060       -13.6073
 163   2.0000      -0.497888       -13.5482
 164   2.0000      -0.492910       -13.4128
 165   2.0000      -0.491905       -13.3854
 166   2.0000      -0.490569       -13.3491
 167   2.0000      -0.487708       -13.2712
 168   2.0000      -0.485428       -13.2092
 169   2.0000      -0.483202       -13.1486
 170   2.0000      -0.482740       -13.1360
 171   2.0000      -0.480968       -13.0878
 172   2.0000      -0.479506       -13.0480
 173   2.0000      -0.476513       -12.9666
 174   2.0000      -0.475311       -12.9339
 175   2.0000      -0.473678       -12.8894
 176   2.0000      -0.467447       -12.7199
 177   2.0000      -0.466551       -12.6955
 178   2.0000      -0.462414       -12.5829
 179   2.0000      -0.461462       -12.5570
 180   2.0000      -0.455911       -12.4060
 181   2.0000      -0.453299       -12.3349
 182   2.0000      -0.452202       -12.3050
 183   2.0000      -0.449289       -12.2258
 184   2.0000      -0.448377       -12.2010
 185   2.0000      -0.443680       -12.0731
 186   2.0000      -0.440490       -11.9863
 187   2.0000      -0.439827       -11.9683
 188   2.0000      -0.436681       -11.8827
 189   2.0000      -0.432321       -11.7640
 190   2.0000      -0.430704       -11.7200
 191   2.0000      -0.429430       -11.6854
 192   2.0000      -0.426837       -11.6148
 193   2.0000      -0.424485       -11.5508
 194   2.0000      -0.421476       -11.4690
 195   2.0000      -0.420515       -11.4428
 196   2.0000      -0.417492       -11.3605
 197   2.0000      -0.414626       -11.2825
 198   2.0000      -0.409743       -11.1497
 199   2.0000      -0.408543       -11.1170
 200   2.0000      -0.405429       -11.0323
 201   2.0000      -0.403307       -10.9745
 202   2.0000      -0.399763       -10.8781
 203   2.0000      -0.399209       -10.8630
 204   2.0000      -0.394404       -10.7323
 205   2.0000      -0.388265       -10.5652
 206   2.0000      -0.386326       -10.5125
 207   2.0000      -0.379904       -10.3377
 208   2.0000      -0.378525       -10.3002
 209   2.0000      -0.368346       -10.0232
 210   2.0000      -0.351574        -9.5668
 211   2.0000      -0.336786        -9.1644
 212   2.0000      -0.330286        -8.9875
 213   2.0000      -0.328953        -8.9513
 214   2.0000      -0.320489        -8.7209
 215   2.0000      -0.309938        -8.4339
 216   2.0000      -0.308746        -8.4014
 217   2.0000      -0.305805        -8.3214
 218   2.0000      -0.295544        -8.0422
 219   2.0000      -0.293494        -7.9864
 220   2.0000      -0.291561        -7.9338
 221   2.0000      -0.279926        -7.6172
 222   2.0000      -0.253949        -6.9103
 223   2.0000      -0.227956        -6.2030
 224   2.0000      -0.195612        -5.3229
 225   0.0000      -0.077952        -2.1212
 226   0.0000      -0.058804        -1.6001
 227   0.0000      -0.028977        -0.7885
 228   0.0000      -0.007116        -0.1936
 229   0.0000       0.003113         0.0847

MULLIKEN ATOMIC CHARGES
-----------------------
   0 C :   -0.089060
   1 S :    0.164540
   2 C :   -0.094524
   3 C :   -0.011722
   4 C :   -0.050417
   5 C :   -0.198099
   6 N :    0.182050
   7 C :   -0.237292
   8 N :    0.171815
   9 C :    0.037048
  10 C :   -0.050302
  11 C :    0.156736
  12 C :    0.201207
  13 O :   -0.247279
  14 C :    0.214165
  15 C :    0.231136
  16 C :   -0.179309
  17 S :    0.109895
  18 C :   -0.169580
  19 O :   -0.264480
  20 C :   -0.098500
  21 C :    0.077722
  22 C :   -0.124535
  23 S :    0.098587
  24 C :   -0.084033
  25 C :   -0.083321
  26 C :   -0.036520
  27 C :    0.164503
  28 C :   -0.085209
  29 C :   -0.032724
  30 O :   -0.179232
  31 C :    0.066010
  32 C :    0.054979
  33 C :    0.103598
  34 C :   -0.022885
  35 C :    0.061705
  36 C :   -0.119779
  37 S :    0.122020
  38 C :   -0.162068
  39 C :   -0.043068
  40 C :    0.116355
  41 C :   -0.014501
  42 C :   -0.196903
  43 C :    0.116591
  44 S :    0.114117
  45 C :    0.005074
  46 C :   -0.026565
  47 C :    0.027941
  48 C :    0.031597
  49 C :   -0.046061
  50 S :    0.076225
  51 C :   -0.069644
  52 C :    0.030571
  53 C :    0.048717
  54 C :   -0.063476
  55 S :    0.074899
  56 C :   -0.031443
  57 H :    0.039126
  58 H :   -0.009491
  59 H :   -0.003134
  60 H :    0.022183
  61 H :    0.026050
  62 H :   -0.015472
  63 H :   -0.005897
  64 H :    0.036976
  65 H :    0.022782
  66 H :    0.024633
  67 H :    0.030485
  68 H :    0.031037
  69 H :    0.031681
  70 H :    0.013678
  71 H :    0.001112
  72 H :    0.016842
  73 H :    0.021930
  74 H :   -0.037275
  75 H :   -0.018844
  76 H :   -0.028854
  77 H :    0.038779
  78 H :    0.036207
  79 H :    0.018720
  80 H :   -0.017209
  81 H :   -0.013902
  82 H :   -0.017085
  83 H :   -0.014260
  84 H :   -0.013553
  85 H :    0.016980
  86 H :    0.018502
Sum of atomic charges:    0.0000000

LOEWDIN ATOMIC CHARGES
----------------------
   0 C :   -0.152038
   1 S :    0.477739
   2 C :   -0.116642
   3 C :   -0.115733
   4 C :   -0.082609
   5 C :   -0.031174
   6 N :   -0.040746
   7 C :   -0.013710
   8 N :   -0.059512
   9 C :   -0.075214
  10 C :    0.001965
  11 C :    0.002005
  12 C :    0.061537
  13 O :   -0.042598
  14 C :   -0.009852
  15 C :   -0.006689
  16 C :   -0.213003
  17 S :    0.436793
  18 C :   -0.207812
  19 O :   -0.060817
  20 C :   -0.065957
  21 C :   -0.005167
  22 C :   -0.176902
  23 S :    0.423988
  24 C :   -0.160194
  25 C :   -0.057531
  26 C :   -0.026558
  27 C :   -0.020817
  28 C :   -0.057327
  29 C :    0.085776
  30 O :   -0.137785
  31 C :   -0.078062
  32 C :   -0.014512
  33 C :   -0.030174
  34 C :   -0.048285
  35 C :   -0.043456
  36 C :   -0.172717
  37 S :    0.435467
  38 C :   -0.189712
  39 C :   -0.193352
  40 C :   -0.066179
  41 C :   -0.079000
  42 C :   -0.144781
  43 C :   -0.059124
  44 S :    0.394303
  45 C :   -0.084793
  46 C :   -0.153266
  47 C :   -0.032957
  48 C :   -0.038001
  49 C :   -0.180131
  50 S :    0.372135
  51 C :   -0.181204
  52 C :   -0.026503
  53 C :   -0.035404
  54 C :   -0.138597
  55 S :    0.347596
  56 C :   -0.082147
  57 H :    0.036681
  58 H :    0.030656
  59 H :    0.038619
  60 H :    0.028213
  61 H :    0.029879
  62 H :    0.033221
  63 H :    0.030949
  64 H :    0.032931
  65 H :    0.035772
  66 H :    0.039134
  67 H :    0.037985
  68 H :    0.040806
  69 H :    0.039763
  70 H :    0.029459
  71 H :    0.021370
  72 H :    0.030939
  73 H :    0.031079
  74 H :    0.027759
  75 H :    0.021304
  76 H :    0.024126
  77 H :    0.040382
  78 H :    0.039119
  79 H :    0.037110
  80 H :    0.033375
  81 H :    0.032188
  82 H :    0.030305
  83 H :    0.031591
  84 H :    0.032319
  85 H :    0.027450
  86 H :    0.024958

  Mayer bond orders larger than 0.100000
B(  0-C ,  1-S ) :   1.1545 B(  0-C ,  4-C ) :   1.5708 B(  0-C , 57-H ) :   0.9750
B(  1-S ,  2-C ) :   1.1481 B(  2-C ,  3-C ) :   1.4482 B(  2-C ,  9-C ) :   1.1488
B(  3-C ,  4-C ) :   1.2993 B(  3-C ,  7-C ) :   1.1603 B(  4-C ,  5-C ) :   1.1242
B(  5-C ,  6-N ) :   3.0386 B(  7-C ,  8-N ) :   2.9367 B(  9-C , 10-C ) :   1.6139
B(  9-C , 58-H ) :   0.9575 B( 10-C , 11-C ) :   1.2385 B( 10-C , 59-H ) :   0.9402
B( 11-C , 12-C ) :   1.3920 B( 11-C , 19-O ) :   1.0473 B( 12-C , 13-O ) :   1.0865
B( 12-C , 20-C ) :   1.2146 B( 13-O , 14-C ) :   1.0425 B( 14-C , 15-C ) :   1.2037
B( 14-C , 18-C ) :   1.5705 B( 15-C , 16-C ) :   1.5656 B( 15-C , 19-O ) :   1.0589
B( 16-C , 17-S ) :   1.1402 B( 16-C , 60-H ) :   0.9740 B( 17-S , 18-C ) :   1.1446
B( 18-C , 61-H ) :   0.9727 B( 20-C , 21-C ) :   1.6058 B( 20-C , 62-H ) :   0.9414
B( 21-C , 22-C ) :   1.1584 B( 21-C , 63-H ) :   0.9558 B( 22-C , 23-S ) :   1.0910
B( 22-C , 26-C ) :   1.4540 B( 23-S , 24-C ) :   1.1155 B( 24-C , 25-C ) :   1.4428
B( 24-C , 34-C ) :   1.2016 B( 25-C , 26-C ) :   1.3573 B( 25-C , 33-C ) :   1.0491
B( 26-C , 27-C ) :   1.0386 B( 27-C , 28-C ) :   1.0474 B( 27-C , 64-H ) :   0.8916
B( 27-C , 65-H ) :   0.8963 B( 28-C , 29-C ) :   0.9050 B( 28-C , 32-C ) :   1.0416
B( 28-C , 66-H ) :   0.8883 B( 29-C , 30-O ) :   2.1989 B( 29-C , 31-C ) :   1.0350
B( 31-C , 67-H ) :   0.9502 B( 31-C , 68-H ) :   0.9432 B( 31-C , 69-H ) :   0.9515
B( 32-C , 33-C ) :   1.0891 B( 32-C , 70-H ) :   0.9426 B( 32-C , 71-H ) :   0.9348
B( 33-C , 72-H ) :   0.9114 B( 33-C , 73-H ) :   0.8964 B( 34-C , 35-C ) :   1.5978
B( 34-C , 74-H ) :   0.9674 B( 35-C , 36-C ) :   1.1855 B( 35-C , 75-H ) :   0.9499
B( 36-C , 37-S ) :   1.1079 B( 36-C , 40-C ) :   1.3654 B( 37-S , 38-C ) :   1.1176
B( 38-C , 39-C ) :   1.4471 B( 38-C , 45-C ) :   1.1774 B( 39-C , 40-C ) :   1.2702
B( 39-C , 44-S ) :   1.0465 B( 40-C , 41-C ) :   1.1389 B( 41-C , 42-C ) :   1.6742
B( 41-C , 76-H ) :   0.9934 B( 42-C , 43-C ) :   1.0699 B( 42-C , 44-S ) :   1.0773
B( 43-C , 77-H ) :   0.9485 B( 43-C , 78-H ) :   0.9479 B( 43-C , 79-H ) :   0.9565
B( 45-C , 46-C ) :   1.6007 B( 45-C , 80-H ) :   0.9407 B( 46-C , 47-C ) :   1.1428
B( 46-C , 50-S ) :   1.0303 B( 47-C , 48-C ) :   1.6021 B( 47-C , 81-H ) :   0.9988
B( 48-C , 49-C ) :   1.1707 B( 48-C , 82-H ) :   0.9915 B( 49-C , 50-S ) :   1.0412
B( 49-C , 51-C ) :   1.5511 B( 51-C , 52-C ) :   1.1565 B( 51-C , 55-S ) :   1.0414
B( 52-C , 53-C ) :   1.6575 B( 52-C , 83-H ) :   0.9914 B( 53-C , 54-C ) :   1.0818
B( 53-C , 84-H ) :   0.9928 B( 54-C , 55-S ) :   1.0087 B( 54-C , 56-C ) :   1.8616
B( 56-C , 85-H ) :   0.9504 B( 56-C , 86-H ) :   0.9413

-----------------------------------------------------------------------------
         ABSORPTION SPECTRUM VIA TRANSITION ELECTRIC DIPOLE MOMENTS
-----------------------------------------------------------------------------
State   Energy  Wavelength   fosc         T2         TX        TY        TZ
        (cm-1)    (nm)                  (au**2)     (au)      (au)      (au)
-----------------------------------------------------------------------------
   0   13028.9    767.5   2.397389157  60.57683  -6.75717  -0.15530   3.85918
   1   17897.9    558.7   0.117604814   2.16321  -0.95786  -1.02161  -0.44947
   2   19999.8    500.0   0.148291626   2.44099   0.61874  -0.44468  -1.36397
   3   23309.4    429.0   0.061400469   0.86719  -0.52690   0.41713   0.64465
   4   24281.4    411.8   0.056296143   0.76328  -0.18953   0.67460  -0.52179
   5   26733.1    374.1   0.015422110   0.18992   0.39996  -0.12418  -0.12055
   6   27945.7    357.8   0.066880160   0.78788  -0.55490  -0.32913  -0.60961
   7   30105.8    332.2   0.522193518   5.71028   2.04574   0.76051   0.97305
   8   30534.6    327.5   0.023056019   0.24858   0.29346   0.07204   0.39658
   9   31288.9    319.6   0.009961147   0.10481   0.27884   0.00219  -0.16447
  10   31520.4    317.3   0.039682764   0.41446  -0.59025   0.05804   0.25040
  11   31839.6    314.1   0.150053888   1.55151  -0.52375  -0.44126  -1.04043
  12   31962.1    312.9   0.363608231   3.74519  -0.76714  -0.51283  -1.70109
  13   32252.7    310.1   0.011024638   0.11253   0.18306   0.08592   0.26765
  14   32818.7    304.7   0.073077627   0.73306   0.76630   0.17868   0.33752
  15   33097.6    302.1   0.103243462   1.02693  -0.28710   0.28346   0.92960
  16   33901.8    295.0   0.002753720   0.02674   0.00020  -0.05284   0.15475
  17   34094.1    293.3   0.028710390   0.27723  -0.03530  -0.16322  -0.49934
  18   34922.2    286.4   0.001131149   0.01066   0.04224   0.01917   0.09226
  19   35283.1    283.4   0.009293059   0.08671  -0.11000   0.04015  -0.27018
  20   35330.5    283.0   0.008252120   0.07689   0.13111   0.04493   0.24018
  21   36339.1    275.2   0.057015967   0.51653   0.34469   0.15339   0.61171
  22   36936.9    270.7   0.000699685   0.00624   0.02545   0.02849   0.06911
  23   37059.6    269.8   0.014045876   0.12477  -0.34732  -0.01871   0.06160
  24   37563.1    266.2   0.055423167   0.48574  -0.06038  -0.19592  -0.66612
  25   37858.6    264.1   0.111202508   0.96700   0.17106   0.23819   0.93862
  26   37951.5    263.5   0.025024701   0.21708   0.21353   0.08336   0.40563
  27   38173.5    262.0   0.012710623   0.10962   0.08629  -0.08791  -0.30732
  28   38878.2    257.2   0.061623914   0.52182  -0.69799  -0.14688   0.11428
  29   39441.2    253.5   0.136666353   1.14074  -0.89265  -0.44408  -0.38303
  30   39468.9    253.4   0.033804688   0.28197   0.51794  -0.02688  -0.11394

FINAL SINGLE POINT ENERGY     -4851.754072711485

DIPOLE MOMENT
-------------
                                X             Y             Z
Electronic contribution:    -40.55516     -11.23071     -11.74843
Nuclear contribution   :     40.36360      10.49834      11.07358
                        -----------------------------------------
Total Dipole Moment    :     -0.19156      -0.73237      -0.67485
                        -----------------------------------------
Magnitude (a.u.)       :      1.01415
Magnitude (Debye)      :      2.57775

Rotational constants in cm-1:     0.002347     0.000324     0.000290
Rotational constants in MHz :    70.347433     9.725647     8.699479

                             ****ORCA TERMINATED NORMALLY****
TOTAL RUN TIME: 0 days 0 hours 7 minutes 14 seconds 37 msec
