                         Program Version 4.2.0 -  RELEASE  -
|  1> # ORCA input file
|  2> # SCF done       -138.636946276699          0.000779129536
|  3> ! CAM-B3LYP def2-SVP def2/J RIJCOSX Grid4 TightSCF
|  4> %maxcore 5000
|  5> %tddft
|  6>     Mode sTDDFT
|  7>     Ethresh 5.0
|  8>     maxcore 5000
|  9> end
| 10>
| 11> %pal
| 12>   nprocs 6
| 13>   end
| 14> * xyz 0 1
| 15>    C        2.34010        -4.52702         2.18202
| 16>    S        3.16988        -3.07876         2.56904
| 17>    C        4.36336        -3.35378         1.32507
| 18>    C        4.09524        -4.54028         0.65070
| 19>    C        2.93196        -5.20441         1.15256
| 20>    C        2.45045        -6.42449         0.64078
| 21>    N        2.05324        -7.41745         0.22964
| 22>    C        4.84153        -5.07216        -0.40868
| 23>    N        5.43061        -5.54155        -1.27631
| 24>    C        5.40419        -2.40770         1.15439
| 25>    C        6.40383        -2.50199         0.23954
| 26>    C        7.43998        -1.56304         0.08092
| 27>    S        7.58798        -0.11533         1.04888
| 28>    C        9.05669         0.38362         0.24042
| 29>    C        9.37031        -0.52322        -0.75520
| 30>    C        8.47700        -1.62193        -0.84648
| 31>    C        8.82805        -2.52289        -1.88807
| 32>    C        9.91455        -2.12108        -2.58667
| 33>    C       10.58876        -2.80352        -3.71784
| 34>    S       10.57379        -0.59574        -2.00916
| 35>    C        9.62029         1.62365         0.66590
| 36>    C       10.94080         1.99349         0.58805
| 37>    O       11.37202         3.26306         0.92570
| 38>    C       10.42455         4.07799         1.46846
| 39>    C        9.07380         3.65795         1.64084
| 40>    C        8.29506         4.60728         2.21531
| 41>    S        9.20027         6.03442         2.55565
| 42>    C       10.64271         5.33929         1.91556
| 43>    O        8.64638         2.43126         1.23297
| 44>    C       11.97783         1.10307         0.20579
| 45>    C       13.26642         1.47156        -0.01482
| 46>    C       14.26809         0.57301        -0.43280
| 47>    S       13.92290        -1.10581        -0.77908
| 48>    C       15.56350        -1.44416        -1.28001
| 49>    C       16.32321        -0.29870        -1.15901
| 50>    C       15.60895         0.83638        -0.68877
| 51>    C       16.43293         1.99203        -0.61024
| 52>    C       17.70399         1.76272        -1.01121
| 53>    C       18.83723         2.71944        -1.06709
| 54>    S       17.97423         0.09825        -1.51923
| 55>    C       15.89377        -2.74562        -1.73882
| 56>    S       14.61308        -3.84208        -2.21978
| 57>    C       15.70946        -5.09386        -2.62566
| 58>    C       17.00823        -4.71294        -2.40784
| 59>    C       17.10709        -3.37587        -1.90359
| 60>    S       18.75278        -2.93657        -1.58547
| 61>    C       19.30030        -4.51382        -2.15221
| 62>    C       20.72644        -4.86557        -2.18516
| 63>    O       21.08976        -5.95680        -2.56318
| 64>    C       21.67088        -3.78089        -1.72122
| 65>    C       23.12796        -4.20453        -1.83336
| 66>    C       18.28123        -5.32595        -2.54346
| 67>    H        1.46154        -4.81204         2.72637
| 68>    H        5.38222        -1.55316         1.81861
| 69>    H        6.44110        -3.34923        -0.42960
| 70>    H        8.28724        -3.42748        -2.09916
| 71>    H       10.63913        -2.14798        -4.58642
| 72>    H       10.04797        -3.70764        -3.98504
| 73>    H       11.60990        -3.06823        -3.44144
| 74>    H        7.25404         4.54947         2.45401
| 75>    H       11.55726         5.89394         1.90490
| 76>    H       11.71107         0.06344         0.11754
| 77>    H       13.55790         2.50516         0.10333
| 78>    H       16.08278         2.94909        -0.26857
| 79>    H       19.65599         2.37655        -0.43498
| 80>    H       18.51662         3.70166        -0.72898
| 81>    H       19.21730         2.80125        -2.08500
| 82>    H       15.34169        -6.03010        -2.99293
| 83>    H       21.41839        -3.53613        -0.68554
| 84>    H       21.48069        -2.88487        -2.31835
| 85>    H       23.30723        -5.09321        -1.23371
| 86>    H       23.78399        -3.40844        -1.49119
| 87>    H       23.36999        -4.44229        -2.86609
| 88>    H       18.44201        -6.32251        -2.91238
| 89> *
| 90>
| 91>                          ****END OF INPUT****

CARTESIAN COORDINATES (ANGSTROEM)
---------------------------------
  C      2.340100   -4.527020    2.182020
  S      3.169880   -3.078760    2.569040
  C      4.363360   -3.353780    1.325070
  C      4.095240   -4.540280    0.650700
  C      2.931960   -5.204410    1.152560
  C      2.450450   -6.424490    0.640780
  N      2.053240   -7.417450    0.229640
  C      4.841530   -5.072160   -0.408680
  N      5.430610   -5.541550   -1.276310
  C      5.404190   -2.407700    1.154390
  C      6.403830   -2.501990    0.239540
  C      7.439980   -1.563040    0.080920
  S      7.587980   -0.115330    1.048880
  C      9.056690    0.383620    0.240420
  C      9.370310   -0.523220   -0.755200
  C      8.477000   -1.621930   -0.846480
  C      8.828050   -2.522890   -1.888070
  C      9.914550   -2.121080   -2.586670
  C     10.588760   -2.803520   -3.717840
  S     10.573790   -0.595740   -2.009160
  C      9.620290    1.623650    0.665900
  C     10.940800    1.993490    0.588050
  O     11.372020    3.263060    0.925700
  C     10.424550    4.077990    1.468460
  C      9.073800    3.657950    1.640840
  C      8.295060    4.607280    2.215310
  S      9.200270    6.034420    2.555650
  C     10.642710    5.339290    1.915560
  O      8.646380    2.431260    1.232970
  C     11.977830    1.103070    0.205790
  C     13.266420    1.471560   -0.014820
  C     14.268090    0.573010   -0.432800
  S     13.922900   -1.105810   -0.779080
  C     15.563500   -1.444160   -1.280010
  C     16.323210   -0.298700   -1.159010
  C     15.608950    0.836380   -0.688770
  C     16.432930    1.992030   -0.610240
  C     17.703990    1.762720   -1.011210
  C     18.837230    2.719440   -1.067090
  S     17.974230    0.098250   -1.519230
  C     15.893770   -2.745620   -1.738820
  S     14.613080   -3.842080   -2.219780
  C     15.709460   -5.093860   -2.625660
  C     17.008230   -4.712940   -2.407840
  C     17.107090   -3.375870   -1.903590
  S     18.752780   -2.936570   -1.585470
  C     19.300300   -4.513820   -2.152210
  C     20.726440   -4.865570   -2.185160
  O     21.089760   -5.956800   -2.563180
  C     21.670880   -3.780890   -1.721220
  C     23.127960   -4.204530   -1.833360
  C     18.281230   -5.325950   -2.543460
  H      1.461540   -4.812040    2.726370
  H      5.382220   -1.553160    1.818610
  H      6.441100   -3.349230   -0.429600
  H      8.287240   -3.427480   -2.099160
  H     10.639130   -2.147980   -4.586420
  H     10.047970   -3.707640   -3.985040
  H     11.609900   -3.068230   -3.441440
  H      7.254040    4.549470    2.454010
  H     11.557260    5.893940    1.904900
  H     11.711070    0.063440    0.117540
  H     13.557900    2.505160    0.103330
  H     16.082780    2.949090   -0.268570
  H     19.655990    2.376550   -0.434980
  H     18.516620    3.701660   -0.728980
  H     19.217300    2.801250   -2.085000
  H     15.341690   -6.030100   -2.992930
  H     21.418390   -3.536130   -0.685540
  H     21.480690   -2.884870   -2.318350
  H     23.307230   -5.093210   -1.233710
  H     23.783990   -3.408440   -1.491190
  H     23.369990   -4.442290   -2.866090
  H     18.442010   -6.322510   -2.912380

 Total Charge           Charge          ....    0
 Multiplicity           Mult            ....    1
 Number of Electrons    NEL             ....  422
 Basis Dimension        Dim             ....  870

ORBITAL ENERGIES
----------------

  NO   OCC          E(Eh)            E(eV)
   0   2.0000     -88.984395     -2421.3885
   1   2.0000     -88.971049     -2421.0253
   2   2.0000     -88.961276     -2420.7594
   3   2.0000     -88.958881     -2420.6942
   4   2.0000     -88.958701     -2420.6893
   5   2.0000     -88.955347     -2420.5980
   6   2.0000     -88.951318     -2420.4884
   7   2.0000     -88.948805     -2420.4200
   8   2.0000     -19.277676      -524.5722
   9   2.0000     -19.276293      -524.5346
  10   2.0000     -19.203872      -522.5639
  11   2.0000     -14.410432      -392.1278
  12   2.0000     -14.407276      -392.0419
  13   2.0000     -10.357465      -281.8409
  14   2.0000     -10.351684      -281.6836
  15   2.0000     -10.349107      -281.6135
  16   2.0000     -10.342134      -281.4238
  17   2.0000     -10.341861      -281.4164
  18   2.0000     -10.337226      -281.2902
  19   2.0000     -10.328006      -281.0393
  20   2.0000     -10.324995      -280.9574
  21   2.0000     -10.320732      -280.8414
  22   2.0000     -10.320402      -280.8324
  23   2.0000     -10.317818      -280.7621
  24   2.0000     -10.316753      -280.7331
  25   2.0000     -10.311617      -280.5934
  26   2.0000     -10.309325      -280.5310
  27   2.0000     -10.308532      -280.5094
  28   2.0000     -10.307776      -280.4889
  29   2.0000     -10.307210      -280.4734
  30   2.0000     -10.306349      -280.4500
  31   2.0000     -10.305672      -280.4316
  32   2.0000     -10.304409      -280.3972
  33   2.0000     -10.302975      -280.3582
  34   2.0000     -10.302435      -280.3435
  35   2.0000     -10.300492      -280.2906
  36   2.0000     -10.297722      -280.2153
  37   2.0000     -10.295298      -280.1493
  38   2.0000     -10.295224      -280.1473
  39   2.0000     -10.291012      -280.0327
  40   2.0000     -10.289549      -279.9929
  41   2.0000     -10.288545      -279.9655
  42   2.0000     -10.288345      -279.9601
  43   2.0000     -10.287456      -279.9359
  44   2.0000     -10.284604      -279.8583
  45   2.0000     -10.280945      -279.7587
  46   2.0000     -10.279448      -279.7180
  47   2.0000     -10.277907      -279.6761
  48   2.0000     -10.274412      -279.5810
  49   2.0000     -10.273173      -279.5473
  50   2.0000     -10.271683      -279.5067
  51   2.0000     -10.252618      -278.9879
  52   2.0000      -8.080277      -219.8755
  53   2.0000      -8.066196      -219.4924
  54   2.0000      -8.056001      -219.2149
  55   2.0000      -8.054629      -219.1776
  56   2.0000      -8.053605      -219.1497
  57   2.0000      -8.050256      -219.0586
  58   2.0000      -8.046709      -218.9621
  59   2.0000      -8.044525      -218.9026
  60   2.0000      -6.049509      -164.6155
  61   2.0000      -6.045152      -164.4970
  62   2.0000      -6.042638      -164.4285
  63   2.0000      -6.035589      -164.2367
  64   2.0000      -6.031098      -164.1145
  65   2.0000      -6.028525      -164.0445
  66   2.0000      -6.025380      -163.9589
  67   2.0000      -6.024154      -163.9256
  68   2.0000      -6.023057      -163.8957
  69   2.0000      -6.021239      -163.8463
  70   2.0000      -6.020105      -163.8154
  71   2.0000      -6.019953      -163.8112
  72   2.0000      -6.018923      -163.7832
  73   2.0000      -6.018003      -163.7582
  74   2.0000      -6.016592      -163.7198
  75   2.0000      -6.016316      -163.7123
  76   2.0000      -6.015922      -163.7016
  77   2.0000      -6.015459      -163.6890
  78   2.0000      -6.014384      -163.6597
  79   2.0000      -6.012221      -163.6008
  80   2.0000      -6.011275      -163.5751
  81   2.0000      -6.010087      -163.5428
  82   2.0000      -6.007791      -163.4803
  83   2.0000      -6.005525      -163.4187
  84   2.0000      -1.202983       -32.7348
  85   2.0000      -1.166336       -31.7376
  86   2.0000      -1.121149       -30.5080
  87   2.0000      -1.022481       -27.8231
  88   2.0000      -1.015774       -27.6406
  89   2.0000      -1.009180       -27.4612
  90   2.0000      -1.000503       -27.2251
  91   2.0000      -0.990365       -26.9492
  92   2.0000      -0.987026       -26.8584
  93   2.0000      -0.985948       -26.8290
  94   2.0000      -0.954483       -25.9728
  95   2.0000      -0.950318       -25.8595
  96   2.0000      -0.943014       -25.6607
  97   2.0000      -0.924522       -25.1575
  98   2.0000      -0.910858       -24.7857
  99   2.0000      -0.891638       -24.2627
 100   2.0000      -0.881372       -23.9833
 101   2.0000      -0.873172       -23.7602
 102   2.0000      -0.868881       -23.6435
 103   2.0000      -0.857942       -23.3458
 104   2.0000      -0.852568       -23.1996
 105   2.0000      -0.846375       -23.0310
 106   2.0000      -0.838033       -22.8040
 107   2.0000      -0.833916       -22.6920
 108   2.0000      -0.828587       -22.5470
 109   2.0000      -0.823320       -22.4037
 110   2.0000      -0.814381       -22.1604
 111   2.0000      -0.805036       -21.9061
 112   2.0000      -0.788237       -21.4490
 113   2.0000      -0.775949       -21.1147
 114   2.0000      -0.775455       -21.1012
 115   2.0000      -0.768858       -20.9217
 116   2.0000      -0.750031       -20.4094
 117   2.0000      -0.747722       -20.3465
 118   2.0000      -0.727037       -19.7837
 119   2.0000      -0.712996       -19.4016
 120   2.0000      -0.705713       -19.2034
 121   2.0000      -0.695327       -18.9208
 122   2.0000      -0.687802       -18.7160
 123   2.0000      -0.686205       -18.6726
 124   2.0000      -0.679572       -18.4921
 125   2.0000      -0.656631       -17.8678
 126   2.0000      -0.655541       -17.8382
 127   2.0000      -0.644908       -17.5488
 128   2.0000      -0.635032       -17.2801
 129   2.0000      -0.633165       -17.2293
 130   2.0000      -0.629033       -17.1168
 131   2.0000      -0.619199       -16.8493
 132   2.0000      -0.616255       -16.7691
 133   2.0000      -0.607204       -16.5229
 134   2.0000      -0.595325       -16.1996
 135   2.0000      -0.592503       -16.1228
 136   2.0000      -0.590417       -16.0661
 137   2.0000      -0.574824       -15.6418
 138   2.0000      -0.570713       -15.5299
 139   2.0000      -0.566645       -15.4192
 140   2.0000      -0.561607       -15.2821
 141   2.0000      -0.554297       -15.0832
 142   2.0000      -0.548572       -14.9274
 143   2.0000      -0.545079       -14.8323
 144   2.0000      -0.543613       -14.7925
 145   2.0000      -0.534335       -14.5400
 146   2.0000      -0.532289       -14.4843
 147   2.0000      -0.525430       -14.2977
 148   2.0000      -0.524138       -14.2625
 149   2.0000      -0.523051       -14.2330
 150   2.0000      -0.521437       -14.1890
 151   2.0000      -0.516502       -14.0547
 152   2.0000      -0.512128       -13.9357
 153   2.0000      -0.509345       -13.8600
 154   2.0000      -0.509276       -13.8581
 155   2.0000      -0.508121       -13.8267
 156   2.0000      -0.500891       -13.6299
 157   2.0000      -0.497424       -13.5356
 158   2.0000      -0.496248       -13.5036
 159   2.0000      -0.493501       -13.4289
 160   2.0000      -0.492739       -13.4081
 161   2.0000      -0.489318       -13.3150
 162   2.0000      -0.486839       -13.2476
 163   2.0000      -0.480978       -13.0881
 164   2.0000      -0.475106       -12.9283
 165   2.0000      -0.474828       -12.9207
 166   2.0000      -0.472377       -12.8540
 167   2.0000      -0.467095       -12.7103
 168   2.0000      -0.464594       -12.6422
 169   2.0000      -0.461636       -12.5618
 170   2.0000      -0.457199       -12.4410
 171   2.0000      -0.456669       -12.4266
 172   2.0000      -0.450854       -12.2684
 173   2.0000      -0.449809       -12.2399
 174   2.0000      -0.447722       -12.1831
 175   2.0000      -0.445251       -12.1159
 176   2.0000      -0.443130       -12.0582
 177   2.0000      -0.438473       -11.9315
 178   2.0000      -0.437749       -11.9118
 179   2.0000      -0.435067       -11.8388
 180   2.0000      -0.434020       -11.8103
 181   2.0000      -0.433565       -11.7979
 182   2.0000      -0.427843       -11.6422
 183   2.0000      -0.425110       -11.5678
 184   2.0000      -0.420332       -11.4378
 185   2.0000      -0.419416       -11.4129
 186   2.0000      -0.417444       -11.3592
 187   2.0000      -0.416436       -11.3318
 188   2.0000      -0.413495       -11.2518
 189   2.0000      -0.410244       -11.1633
 190   2.0000      -0.407948       -11.1008
 191   2.0000      -0.403519       -10.9803
 192   2.0000      -0.398929       -10.8554
 193   2.0000      -0.398406       -10.8412
 194   2.0000      -0.397555       -10.8180
 195   2.0000      -0.393177       -10.6989
 196   2.0000      -0.371905       -10.1201
 197   2.0000      -0.359461        -9.7814
 198   2.0000      -0.344577        -9.3764
 199   2.0000      -0.335115        -9.1189
 200   2.0000      -0.327926        -8.9233
 201   2.0000      -0.321342        -8.7442
 202   2.0000      -0.314069        -8.5463
 203   2.0000      -0.310818        -8.4578
 204   2.0000      -0.306136        -8.3304
 205   2.0000      -0.303401        -8.2559
 206   2.0000      -0.299278        -8.1438
 207   2.0000      -0.288763        -7.8576
 208   2.0000      -0.272586        -7.4175
 209   2.0000      -0.247716        -6.7407
 210   2.0000      -0.218710        -5.9514
 211   0.0000      -0.076630        -2.0852
 212   0.0000      -0.052063        -1.4167
 213   0.0000      -0.033218        -0.9039
 214   0.0000      -0.007137        -0.1942
 215   0.0000       0.004447         0.1210

MULLIKEN ATOMIC CHARGES
-----------------------
   0 C :   -0.089933
   1 S :    0.162937
   2 C :   -0.105349
   3 C :   -0.013721
   4 C :   -0.053152
   5 C :   -0.196420
   6 N :    0.188815
   7 C :   -0.242069
   8 N :    0.173013
   9 C :    0.025043
  10 C :   -0.003715
  11 C :   -0.094474
  12 S :    0.161899
  13 C :   -0.211703
  14 C :   -0.018428
  15 C :    0.101461
  16 C :   -0.001961
  17 C :   -0.200871
  18 C :    0.119306
  19 S :    0.111156
  20 C :    0.160232
  21 C :    0.178644
  22 O :   -0.258566
  23 C :    0.220494
  24 C :    0.225197
  25 C :   -0.173703
  26 S :    0.110229
  27 C :   -0.176825
  28 O :   -0.261357
  29 C :   -0.112817
  30 C :    0.013248
  31 C :   -0.087800
  32 S :    0.116215
  33 C :   -0.141891
  34 C :   -0.035926
  35 C :    0.115624
  36 C :   -0.003649
  37 C :   -0.193456
  38 C :    0.117670
  39 S :    0.098366
  40 C :   -0.169634
  41 S :    0.142823
  42 C :   -0.122360
  43 C :    0.127635
  44 C :   -0.009418
  45 S :    0.099818
  46 C :   -0.072240
  47 C :    0.032501
  48 O :   -0.173578
  49 C :   -0.071138
  50 C :    0.061597
  51 C :    0.008443
  52 H :    0.039776
  53 H :   -0.015430
  54 H :    0.006530
  55 H :   -0.004532
  56 H :    0.037517
  57 H :    0.028808
  58 H :    0.032984
  59 H :    0.026065
  60 H :    0.023227
  61 H :    0.024083
  62 H :   -0.002832
  63 H :   -0.024949
  64 H :    0.037580
  65 H :    0.022404
  66 H :    0.037674
  67 H :    0.026742
  68 H :    0.040490
  69 H :    0.038697
  70 H :    0.021463
  71 H :    0.006578
  72 H :    0.019759
  73 H :    0.001153
Sum of atomic charges:   -0.0000000

LOEWDIN ATOMIC CHARGES
----------------------
   0 C :   -0.151554
   1 S :    0.477285
   2 C :   -0.122336
   3 C :   -0.108105
   4 C :   -0.082012
   5 C :   -0.031618
   6 N :   -0.037113
   7 C :   -0.027251
   8 N :   -0.055696
   9 C :   -0.080399
  10 C :    0.002314
  11 C :   -0.187866
  12 S :    0.457424
  13 C :   -0.187235
  14 C :   -0.192429
  15 C :   -0.052494
  16 C :   -0.072134
  17 C :   -0.134221
  18 C :   -0.059273
  19 S :    0.400360
  20 C :   -0.007278
  21 C :    0.029200
  22 O :   -0.055923
  23 C :   -0.006848
  24 C :   -0.008023
  25 C :   -0.209617
  26 S :    0.436505
  27 C :   -0.211083
  28 O :   -0.065628
  29 C :   -0.066792
  30 C :   -0.019689
  31 C :   -0.175784
  32 S :    0.433522
  33 C :   -0.205491
  34 C :   -0.192254
  35 C :   -0.061915
  36 C :   -0.073094
  37 C :   -0.139473
  38 C :   -0.058903
  39 S :    0.374933
  40 C :   -0.215792
  41 S :    0.458103
  42 C :   -0.183179
  43 C :   -0.080287
  44 C :   -0.188253
  45 S :    0.392571
  46 C :   -0.197513
  47 C :    0.066793
  48 O :   -0.144339
  49 C :   -0.078278
  50 C :   -0.048486
  51 C :    0.000890
  52 H :    0.036862
  53 H :    0.023122
  54 H :    0.043278
  55 H :    0.035348
  56 H :    0.040544
  57 H :    0.041614
  58 H :    0.035488
  59 H :    0.029750
  60 H :    0.028539
  61 H :    0.019967
  62 H :    0.036103
  63 H :    0.028601
  64 H :    0.039862
  65 H :    0.039051
  66 H :    0.039891
  67 H :    0.028533
  68 H :    0.038741
  69 H :    0.036263
  70 H :    0.029873
  71 H :    0.023952
  72 H :    0.029306
  73 H :    0.041071

  Mayer bond orders larger than 0.100000
B(  0-C ,  1-S ) :   1.1581 B(  0-C ,  4-C ) :   1.5656 B(  0-C , 52-H ) :   0.9752
B(  1-S ,  2-C ) :   1.1483 B(  2-C ,  3-C ) :   1.4596 B(  2-C ,  9-C ) :   1.1684
B(  3-C ,  4-C ) :   1.3065 B(  3-C ,  7-C ) :   1.1654 B(  4-C ,  5-C ) :   1.1228
B(  5-C ,  6-N ) :   3.0423 B(  7-C ,  8-N ) :   2.9465 B(  9-C , 10-C ) :   1.6233
B(  9-C , 53-H ) :   0.9468 B( 10-C , 11-C ) :   1.2175 B( 10-C , 54-H ) :   0.9568
B( 11-C , 12-S ) :   1.0764 B( 11-C , 13-C ) :   0.1117 B( 11-C , 15-C ) :   1.3859
B( 12-S , 13-C ) :   1.1384 B( 13-C , 14-C ) :   1.5250 B( 13-C , 20-C ) :   1.1059
B( 14-C , 15-C ) :   1.2401 B( 14-C , 19-S ) :   1.0375 B( 15-C , 16-C ) :   1.1504
B( 16-C , 17-C ) :   1.6717 B( 16-C , 55-H ) :   0.9935 B( 17-C , 18-C ) :   1.0722
B( 17-C , 19-S ) :   1.0648 B( 18-C , 56-H ) :   0.9456 B( 18-C , 57-H ) :   0.9555
B( 18-C , 58-H ) :   0.9444 B( 20-C , 21-C ) :   1.4969 B( 20-C , 28-O ) :   1.0726
B( 21-C , 22-O ) :   1.0630 B( 21-C , 29-C ) :   1.1904 B( 22-O , 23-C ) :   1.0522
B( 23-C , 24-C ) :   1.2024 B( 23-C , 27-C ) :   1.5701 B( 24-C , 25-C ) :   1.5740
B( 24-C , 28-O ) :   1.0484 B( 25-C , 26-S ) :   1.1421 B( 25-C , 59-H ) :   0.9711
B( 26-S , 27-C ) :   1.1428 B( 27-C , 60-H ) :   0.9729 B( 29-C , 30-C ) :   1.6172
B( 29-C , 61-H ) :   0.9458 B( 30-C , 31-C ) :   1.1714 B( 30-C , 62-H ) :   0.9802
B( 31-C , 32-S ) :   1.0840 B( 31-C , 33-C ) :   0.1113 B( 31-C , 35-C ) :   1.3942
B( 32-S , 33-C ) :   1.1267 B( 33-C , 34-C ) :   1.5503 B( 33-C , 40-C ) :   1.1414
B( 34-C , 35-C ) :   1.2365 B( 34-C , 39-S ) :   1.0328 B( 35-C , 36-C ) :   1.1425
B( 36-C , 37-C ) :   1.6809 B( 36-C , 63-H ) :   0.9925 B( 37-C , 38-C ) :   1.0720
B( 37-C , 39-S ) :   1.0652 B( 38-C , 64-H ) :   0.9477 B( 38-C , 65-H ) :   0.9568
B( 38-C , 66-H ) :   0.9475 B( 40-C , 41-S ) :   1.1422 B( 40-C , 42-C ) :   0.1094
B( 40-C , 44-C ) :   1.5459 B( 41-S , 42-C ) :   1.1706 B( 42-C , 43-C ) :   1.4620
B( 42-C , 67-H ) :   0.9702 B( 43-C , 44-C ) :   1.2190 B( 43-C , 51-C ) :   1.0902
B( 44-C , 45-S ) :   1.0447 B( 45-S , 46-C ) :   1.0415 B( 46-C , 47-C ) :   0.9883
B( 46-C , 51-C ) :   1.6316 B( 47-C , 48-O ) :   2.2138 B( 47-C , 49-C ) :   1.0031
B( 49-C , 50-C ) :   1.1097 B( 49-C , 68-H ) :   0.9218 B( 49-C , 69-H ) :   0.9245
B( 50-C , 70-H ) :   0.9671 B( 50-C , 71-H ) :   0.9633 B( 50-C , 72-H ) :   0.9687
B( 51-C , 73-H ) :   1.0146

-----------------------------------------------------------------------------
         ABSORPTION SPECTRUM VIA TRANSITION ELECTRIC DIPOLE MOMENTS
-----------------------------------------------------------------------------
State   Energy  Wavelength   fosc         T2         TX        TY        TZ
        (cm-1)    (nm)                  (au**2)     (au)      (au)      (au)
-----------------------------------------------------------------------------
   0   15872.7    630.0   1.031770894  21.39975  -4.49986  -0.58928   0.89651
   1   21412.8    467.0   0.107545546   1.65346  -0.24845   1.23922   0.23680
   2   22584.3    442.8   0.692596448  10.09600   0.61921   3.10741   0.23786
   3   25578.4    391.0   0.036105330   0.46470   0.62554  -0.13064   0.23736
   4   26370.0    379.2   0.139196469   1.73778  -1.02016   0.18258   0.81469
   5   28217.9    354.4   0.169534442   1.97792   1.16330  -0.51175  -0.60229
   6   31328.1    319.2   0.143475574   1.50772   1.17251   0.25023  -0.26516
   7   31846.6    314.0   0.087376174   0.90324  -0.59471   0.26174   0.69358
   8   32244.3    310.1   0.073100321   0.74635  -0.06591  -0.75465  -0.41535
   9   33025.2    302.8   0.165468580   1.64947  -0.62061  -1.11887  -0.11157
  10   33472.3    298.8   0.062457390   0.61429   0.60279  -0.26050  -0.42788
  11   33834.0    295.6   0.064313725   0.62579  -0.61978  -0.49157  -0.00416
  12   34034.0    293.8   0.071239289   0.68910   0.75525  -0.05824  -0.33957
  13   34309.9    291.5   0.150290491   1.44207   1.07009   0.39032  -0.38030
  14   34613.8    288.9   0.047787866   0.45451   0.14447  -0.59150  -0.28941
  15   34910.4    286.4   0.021224141   0.20015  -0.29823  -0.32317   0.08224
  16   35768.2    279.6   0.047340334   0.43572  -0.37035  -0.54539  -0.03342
  17   36298.5    275.5   0.103215971   0.93613   0.42649  -0.78199  -0.37779
  18   36701.0    272.5   0.017449407   0.15652  -0.36357  -0.15584  -0.00731
  19   37595.1    266.0   0.014078854   0.12329   0.20572  -0.28238  -0.03503
  20   37801.8    264.5   0.108775000   0.94731   0.61226   0.59267   0.47031
  21   38002.8    263.1   0.048780575   0.42258  -0.63817  -0.01477  -0.12290
  22   38202.8    261.8   0.120628336   1.03951   1.00171   0.15412  -0.11104
  23   39146.0    255.5   0.023553235   0.19808  -0.11735  -0.41809   0.09752
  24   39473.6    253.3   0.013448710   0.11216   0.00721  -0.02611   0.33381
  25   40310.3    248.1   0.000437054   0.00357   0.01406  -0.03376   0.04724

FINAL SINGLE POINT ENERGY     -5016.724895697908

DIPOLE MOMENT
-------------
                                X             Y             Z
Electronic contribution:    -53.59116       4.42304      14.49116
Nuclear contribution   :     54.80053      -1.36016     -13.54613
                        -----------------------------------------
Total Dipole Moment    :      1.20937       3.06287       0.94504
                        -----------------------------------------
Magnitude (a.u.)       :      3.42591
Magnitude (Debye)      :      8.70797

Rotational constants in cm-1:     0.001675     0.000616     0.000467
Rotational constants in MHz :    50.202317    18.468527    13.999506

                             ****ORCA TERMINATED NORMALLY****
TOTAL RUN TIME: 0 days 0 hours 5 minutes 12 seconds 260 msec
