                         Program Version 4.2.0 -  RELEASE  -
|  1> # ORCA input file
|  2> # SCF done       -128.159032707460          0.000354524482
|  3> ! CAM-B3LYP def2-SVP def2/J RIJCOSX Grid4 TightSCF
|  4> %maxcore 5000
|  5> %tddft
|  6>     Mode sTDDFT
|  7>     Ethresh 5.0
|  8>     maxcore 5000
|  9> end
| 10>
| 11> %pal
| 12>   nprocs 6
| 13>   end
| 14> * xyz 0 1
| 15>    C        0.75988        -1.61104         0.42130
| 16>    S        2.47077        -1.61566         0.30657
| 17>    C        2.50095         0.08231        -0.08650
| 18>    C        1.21144         0.59953        -0.12163
| 19>    C        0.21622        -0.38058         0.17340
| 20>    C       -1.16445        -0.10856         0.21008
| 21>    N       -2.28808         0.11347         0.24312
| 22>    C        0.94211         1.94286        -0.41570
| 23>    N        0.75357         3.04820        -0.66158
| 24>    C        3.69078         0.81510        -0.31548
| 25>    C        4.93952         0.29055        -0.23215
| 26>    C        6.15052         0.99239        -0.40638
| 27>    S        7.64316         0.13862        -0.06175
| 28>    C        8.62207         1.54679        -0.36444
| 29>    C        7.80993         2.60021        -0.74048
| 30>    C        6.42228         2.31128        -0.77500
| 31>    C        5.67241         3.44853        -1.18812
| 32>    C        6.44155         4.53296        -1.44310
| 33>    C        6.00251         5.87577        -1.89645
| 34>    S        8.15638         4.23573        -1.18942
| 35>    C       10.01708         1.51906        -0.17578
| 36>    S       11.02566         2.94962        -0.31269
| 37>    C       12.49654         2.11785         0.14805
| 38>    C       12.20171         0.76887         0.37075
| 39>    C       10.82615         0.46146         0.18732
| 40>    O       10.58598        -0.84351         0.41399
| 41>    C       11.79916        -1.37655         0.73734
| 42>    N       11.85385        -2.75880         1.01938
| 43>    O       12.94934        -3.21375         1.29465
| 44>    O       10.81955        -3.39155         0.96730
| 45>    C       12.81528        -0.45424         0.73114
| 46>    C       13.71938         2.78455         0.29675
| 47>    S       15.13559         1.94032         0.90353
| 48>    C       16.10630         3.37919         0.86904
| 49>    C       15.36196         4.43890         0.39248
| 50>    C       14.01937         4.12816         0.06650
| 51>    C       13.31057         5.26381        -0.41150
| 52>    C       14.06505         6.38671        -0.45097
| 53>    C       13.67078         7.74620        -0.89400
| 54>    S       15.71204         6.11694         0.10464
| 55>    C       17.44692         3.33759         1.32423
| 56>    N       18.26771         4.46993         1.35062
| 57>    C       19.43411         4.02841         1.86653
| 58>    N       20.68817         4.36629         2.23980
| 59>    C       21.23640         3.18139         2.71165
| 60>    N       20.43646         2.16204         2.65967
| 61>    C       19.28238         2.65333         2.13086
| 62>    N       18.04141         2.25409         1.78470
| 63>    H        0.23492        -2.51332         0.66647
| 64>    H        3.54638         1.86013        -0.54323
| 65>    H        5.04361        -0.75779         0.02183
| 66>    H        4.60497         3.46735        -1.30545
| 67>    H        6.32179         6.64084        -1.18945
| 68>    H        4.91956         5.90556        -1.98479
| 69>    H        6.44343         6.11397        -2.86425
| 70>    H       13.84383        -0.65004         0.95334
| 71>    H       12.28010         5.24045        -0.71485
| 72>    H       13.84033         8.47304        -0.10011
| 73>    H       12.61855         7.75693        -1.16565
| 74>    H       14.26179         8.05409        -1.75659
| 75>    H       18.00848         5.39427         1.04764
| 76>    H       21.14229         5.26323         2.19726
| 77>    H       22.23996         3.14100         3.08329
| 78> *
| 79>
| 80>                          ****END OF INPUT****

CARTESIAN COORDINATES (ANGSTROEM)
---------------------------------
  C      0.759880   -1.611040    0.421300
  S      2.470770   -1.615660    0.306570
  C      2.500950    0.082310   -0.086500
  C      1.211440    0.599530   -0.121630
  C      0.216220   -0.380580    0.173400
  C     -1.164450   -0.108560    0.210080
  N     -2.288080    0.113470    0.243120
  C      0.942110    1.942860   -0.415700
  N      0.753570    3.048200   -0.661580
  C      3.690780    0.815100   -0.315480
  C      4.939520    0.290550   -0.232150
  C      6.150520    0.992390   -0.406380
  S      7.643160    0.138620   -0.061750
  C      8.622070    1.546790   -0.364440
  C      7.809930    2.600210   -0.740480
  C      6.422280    2.311280   -0.775000
  C      5.672410    3.448530   -1.188120
  C      6.441550    4.532960   -1.443100
  C      6.002510    5.875770   -1.896450
  S      8.156380    4.235730   -1.189420
  C     10.017080    1.519060   -0.175780
  S     11.025660    2.949620   -0.312690
  C     12.496540    2.117850    0.148050
  C     12.201710    0.768870    0.370750
  C     10.826150    0.461460    0.187320
  O     10.585980   -0.843510    0.413990
  C     11.799160   -1.376550    0.737340
  N     11.853850   -2.758800    1.019380
  O     12.949340   -3.213750    1.294650
  O     10.819550   -3.391550    0.967300
  C     12.815280   -0.454240    0.731140
  C     13.719380    2.784550    0.296750
  S     15.135590    1.940320    0.903530
  C     16.106300    3.379190    0.869040
  C     15.361960    4.438900    0.392480
  C     14.019370    4.128160    0.066500
  C     13.310570    5.263810   -0.411500
  C     14.065050    6.386710   -0.450970
  C     13.670780    7.746200   -0.894000
  S     15.712040    6.116940    0.104640
  C     17.446920    3.337590    1.324230
  N     18.267710    4.469930    1.350620
  C     19.434110    4.028410    1.866530
  N     20.688170    4.366290    2.239800
  C     21.236400    3.181390    2.711650
  N     20.436460    2.162040    2.659670
  C     19.282380    2.653330    2.130860
  N     18.041410    2.254090    1.784700
  H      0.234920   -2.513320    0.666470
  H      3.546380    1.860130   -0.543230
  H      5.043610   -0.757790    0.021830
  H      4.604970    3.467350   -1.305450
  H      6.321790    6.640840   -1.189450
  H      4.919560    5.905560   -1.984790
  H      6.443430    6.113970   -2.864250
  H     13.843830   -0.650040    0.953340
  H     12.280100    5.240450   -0.714850
  H     13.840330    8.473040   -0.100110
  H     12.618550    7.756930   -1.165650
  H     14.261790    8.054090   -1.756590
  H     18.008480    5.394270    1.047640
  H     21.142290    5.263230    2.197260
  H     22.239960    3.141000    3.083290

 Total Charge           Charge          ....    0
 Multiplicity           Mult            ....    1
 Number of Electrons    NEL             ....  376
 Basis Dimension        Dim             ....  771

ORBITAL ENERGIES
----------------

  NO   OCC          E(Eh)            E(eV)
   0   2.0000     -88.984330     -2421.3867
   1   2.0000     -88.983407     -2421.3616
   2   2.0000     -88.972456     -2421.0636
   3   2.0000     -88.968915     -2420.9673
   4   2.0000     -88.967473     -2420.9280
   5   2.0000     -88.959296     -2420.7055
   6   2.0000     -19.314266      -525.5679
   7   2.0000     -19.240733      -523.5670
   8   2.0000     -19.238767      -523.5135
   9   2.0000     -14.653038      -398.7294
  10   2.0000     -14.488814      -394.2607
  11   2.0000     -14.486337      -394.1933
  12   2.0000     -14.407087      -392.0368
  13   2.0000     -14.406892      -392.0315
  14   2.0000     -14.398691      -391.8083
  15   2.0000     -14.392354      -391.6359
  16   2.0000     -10.387553      -282.6597
  17   2.0000     -10.354495      -281.7601
  18   2.0000     -10.345072      -281.5037
  19   2.0000     -10.339605      -281.3550
  20   2.0000     -10.336071      -281.2588
  21   2.0000     -10.335048      -281.2310
  22   2.0000     -10.331000      -281.1208
  23   2.0000     -10.327617      -281.0288
  24   2.0000     -10.327329      -281.0209
  25   2.0000     -10.326311      -280.9932
  26   2.0000     -10.326300      -280.9929
  27   2.0000     -10.326163      -280.9892
  28   2.0000     -10.324021      -280.9309
  29   2.0000     -10.321002      -280.8487
  30   2.0000     -10.320440      -280.8334
  31   2.0000     -10.316553      -280.7277
  32   2.0000     -10.315477      -280.6984
  33   2.0000     -10.314591      -280.6743
  34   2.0000     -10.310739      -280.5695
  35   2.0000     -10.307825      -280.4902
  36   2.0000     -10.307784      -280.4891
  37   2.0000     -10.307075      -280.4698
  38   2.0000     -10.303604      -280.3753
  39   2.0000     -10.302298      -280.3398
  40   2.0000     -10.299789      -280.2715
  41   2.0000     -10.298868      -280.2465
  42   2.0000     -10.294006      -280.1141
  43   2.0000     -10.293887      -280.1109
  44   2.0000     -10.291266      -280.0396
  45   2.0000     -10.289889      -280.0021
  46   2.0000     -10.284105      -279.8447
  47   2.0000     -10.280915      -279.7579
  48   2.0000      -8.080041      -219.8691
  49   2.0000      -8.077320      -219.7950
  50   2.0000      -8.066477      -219.5000
  51   2.0000      -8.064852      -219.4558
  52   2.0000      -8.062485      -219.3914
  53   2.0000      -8.055086      -219.1900
  54   2.0000      -6.049257      -164.6086
  55   2.0000      -6.046997      -164.5471
  56   2.0000      -6.044964      -164.4918
  57   2.0000      -6.042721      -164.4308
  58   2.0000      -6.042383      -164.4216
  59   2.0000      -6.039017      -164.3300
  60   2.0000      -6.036173      -164.2526
  61   2.0000      -6.034686      -164.2122
  62   2.0000      -6.032009      -164.1393
  63   2.0000      -6.031757      -164.1325
  64   2.0000      -6.030536      -164.0992
  65   2.0000      -6.028203      -164.0357
  66   2.0000      -6.027672      -164.0213
  67   2.0000      -6.025905      -163.9732
  68   2.0000      -6.024883      -163.9454
  69   2.0000      -6.024314      -163.9299
  70   2.0000      -6.020604      -163.8290
  71   2.0000      -6.016276      -163.7112
  72   2.0000      -1.323618       -36.0175
  73   2.0000      -1.234025       -33.5795
  74   2.0000      -1.142413       -31.0866
  75   2.0000      -1.139710       -31.0131
  76   2.0000      -1.091745       -29.7079
  77   2.0000      -1.023614       -27.8540
  78   2.0000      -1.022103       -27.8128
  79   2.0000      -1.016653       -27.6645
  80   2.0000      -0.998746       -27.1772
  81   2.0000      -0.996640       -27.1199
  82   2.0000      -0.988298       -26.8929
  83   2.0000      -0.984489       -26.7893
  84   2.0000      -0.962501       -26.1910
  85   2.0000      -0.956462       -26.0267
  86   2.0000      -0.950856       -25.8741
  87   2.0000      -0.937984       -25.5238
  88   2.0000      -0.918852       -25.0032
  89   2.0000      -0.899396       -24.4738
  90   2.0000      -0.896461       -24.3940
  91   2.0000      -0.879630       -23.9360
  92   2.0000      -0.873132       -23.7591
  93   2.0000      -0.864390       -23.5213
  94   2.0000      -0.858471       -23.3602
  95   2.0000      -0.842883       -22.9360
  96   2.0000      -0.836974       -22.7752
  97   2.0000      -0.835107       -22.7244
  98   2.0000      -0.805906       -21.9298
  99   2.0000      -0.799618       -21.7587
 100   2.0000      -0.787713       -21.4347
 101   2.0000      -0.779421       -21.2091
 102   2.0000      -0.775866       -21.1124
 103   2.0000      -0.748898       -20.3785
 104   2.0000      -0.733354       -19.9556
 105   2.0000      -0.731179       -19.8964
 106   2.0000      -0.717275       -19.5180
 107   2.0000      -0.705264       -19.1912
 108   2.0000      -0.699840       -19.0436
 109   2.0000      -0.692332       -18.8393
 110   2.0000      -0.688984       -18.7482
 111   2.0000      -0.684517       -18.6267
 112   2.0000      -0.665950       -18.1214
 113   2.0000      -0.659525       -17.9466
 114   2.0000      -0.648514       -17.6470
 115   2.0000      -0.645980       -17.5780
 116   2.0000      -0.641210       -17.4482
 117   2.0000      -0.638724       -17.3806
 118   2.0000      -0.633048       -17.2261
 119   2.0000      -0.629345       -17.1253
 120   2.0000      -0.622005       -16.9256
 121   2.0000      -0.611199       -16.6316
 122   2.0000      -0.594616       -16.1803
 123   2.0000      -0.587851       -15.9962
 124   2.0000      -0.582192       -15.8422
 125   2.0000      -0.580855       -15.8059
 126   2.0000      -0.571880       -15.5616
 127   2.0000      -0.570079       -15.5126
 128   2.0000      -0.564078       -15.3494
 129   2.0000      -0.552533       -15.0352
 130   2.0000      -0.552097       -15.0233
 131   2.0000      -0.544601       -14.8194
 132   2.0000      -0.541016       -14.7218
 133   2.0000      -0.534893       -14.5552
 134   2.0000      -0.533621       -14.5206
 135   2.0000      -0.527172       -14.3451
 136   2.0000      -0.525556       -14.3011
 137   2.0000      -0.522064       -14.2061
 138   2.0000      -0.520285       -14.1577
 139   2.0000      -0.516135       -14.0448
 140   2.0000      -0.512958       -13.9583
 141   2.0000      -0.508029       -13.8242
 142   2.0000      -0.504139       -13.7183
 143   2.0000      -0.503241       -13.6939
 144   2.0000      -0.499072       -13.5805
 145   2.0000      -0.492382       -13.3984
 146   2.0000      -0.487712       -13.2713
 147   2.0000      -0.485227       -13.2037
 148   2.0000      -0.483453       -13.1554
 149   2.0000      -0.477792       -13.0014
 150   2.0000      -0.468394       -12.7456
 151   2.0000      -0.467611       -12.7244
 152   2.0000      -0.459742       -12.5102
 153   2.0000      -0.459112       -12.4931
 154   2.0000      -0.448475       -12.2036
 155   2.0000      -0.446667       -12.1544
 156   2.0000      -0.440883       -11.9970
 157   2.0000      -0.437313       -11.8999
 158   2.0000      -0.435306       -11.8453
 159   2.0000      -0.434755       -11.8303
 160   2.0000      -0.431747       -11.7484
 161   2.0000      -0.430022       -11.7015
 162   2.0000      -0.425041       -11.5660
 163   2.0000      -0.421611       -11.4726
 164   2.0000      -0.418574       -11.3900
 165   2.0000      -0.417139       -11.3509
 166   2.0000      -0.415725       -11.3125
 167   2.0000      -0.414748       -11.2859
 168   2.0000      -0.407441       -11.0870
 169   2.0000      -0.406996       -11.0749
 170   2.0000      -0.387959       -10.5569
 171   2.0000      -0.387495       -10.5443
 172   2.0000      -0.381797       -10.3892
 173   2.0000      -0.375728       -10.2241
 174   2.0000      -0.374042       -10.1782
 175   2.0000      -0.368590       -10.0298
 176   2.0000      -0.360180        -9.8010
 177   2.0000      -0.334865        -9.1121
 178   2.0000      -0.334242        -9.0952
 179   2.0000      -0.333996        -9.0885
 180   2.0000      -0.332722        -9.0538
 181   2.0000      -0.322697        -8.7810
 182   2.0000      -0.315673        -8.5899
 183   2.0000      -0.312138        -8.4937
 184   2.0000      -0.307320        -8.3626
 185   2.0000      -0.290721        -7.9109
 186   2.0000      -0.257276        -7.0008
 187   2.0000      -0.220480        -5.9996
 188   0.0000      -0.090237        -2.4555
 189   0.0000      -0.062580        -1.7029
 190   0.0000      -0.031032        -0.8444
 191   0.0000      -0.007954        -0.2164
 192   0.0000       0.005917         0.1610

MULLIKEN ATOMIC CHARGES
-----------------------
   0 C :   -0.079512
   1 S :    0.154240
   2 C :   -0.091091
   3 C :   -0.008424
   4 C :   -0.044817
   5 C :   -0.199397
   6 N :    0.182963
   7 C :   -0.254790
   8 N :    0.185158
   9 C :   -0.024961
  10 C :    0.066361
  11 C :   -0.144619
  12 S :    0.177503
  13 C :   -0.102378
  14 C :   -0.083605
  15 C :    0.145941
  16 C :   -0.022554
  17 C :   -0.194467
  18 C :    0.115668
  19 S :    0.098889
  20 C :   -0.184414
  21 S :    0.130256
  22 C :   -0.102441
  23 C :    0.080172
  24 C :    0.183472
  25 O :   -0.185385
  26 C :    0.234163
  27 N :    0.274733
  28 O :   -0.248122
  29 O :   -0.234242
  30 C :   -0.088244
  31 C :   -0.097247
  32 S :    0.199985
  33 C :   -0.121553
  34 C :   -0.043364
  35 C :    0.070729
  36 C :   -0.000800
  37 C :   -0.193308
  38 C :    0.115553
  39 S :    0.059922
  40 C :   -0.031349
  41 N :   -0.051751
  42 C :    0.011173
  43 N :   -0.070717
  44 C :    0.095674
  45 N :   -0.070188
  46 C :   -0.104703
  47 N :   -0.041414
  48 H :    0.040818
  49 H :   -0.005694
  50 H :   -0.012004
  51 H :   -0.003118
  52 H :    0.037260
  53 H :    0.035800
  54 H :    0.038284
  55 H :    0.027403
  56 H :   -0.006295
  57 H :    0.039352
  58 H :    0.028823
  59 H :    0.041698
  60 H :    0.127923
  61 H :    0.136556
  62 H :    0.010499
Sum of atomic charges:   -0.0000000

LOEWDIN ATOMIC CHARGES
----------------------
   0 C :   -0.144594
   1 S :    0.474293
   2 C :   -0.123631
   3 C :   -0.103167
   4 C :   -0.084873
   5 C :   -0.031415
   6 N :   -0.037977
   7 C :   -0.032741
   8 N :   -0.052390
   9 C :   -0.062811
  10 C :   -0.017981
  11 C :   -0.186069
  12 S :    0.464734
  13 C :   -0.195846
  14 C :   -0.200312
  15 C :   -0.053647
  16 C :   -0.071897
  17 C :   -0.132432
  18 C :   -0.058118
  19 S :    0.373730
  20 C :   -0.224872
  21 S :    0.462787
  22 C :   -0.167574
  23 C :   -0.088561
  24 C :    0.022052
  25 O :    0.002416
  26 C :    0.025343
  27 N :    0.271480
  28 O :   -0.209652
  29 O :   -0.196432
  30 C :   -0.008307
  31 C :   -0.197586
  32 S :    0.490474
  33 C :   -0.193441
  34 C :   -0.198049
  35 C :   -0.067188
  36 C :   -0.074892
  37 C :   -0.132944
  38 C :   -0.057960
  39 S :    0.357460
  40 C :   -0.013835
  41 N :    0.056572
  42 C :   -0.017620
  43 N :    0.050748
  44 C :    0.026455
  45 N :   -0.101581
  46 C :   -0.069629
  47 N :   -0.107660
  48 H :    0.037456
  49 H :    0.038199
  50 H :    0.025232
  51 H :    0.032999
  52 H :    0.040292
  53 H :    0.044305
  54 H :    0.040600
  55 H :    0.044955
  56 H :    0.022882
  57 H :    0.040632
  58 H :    0.042237
  59 H :    0.041601
  60 H :    0.076416
  61 H :    0.093708
  62 H :    0.017625

  Mayer bond orders larger than 0.100000
B(  0-C ,  1-S ) :   1.1586 B(  0-C ,  4-C ) :   1.5687 B(  0-C , 48-H ) :   0.9743
B(  1-S ,  2-C ) :   1.1309 B(  2-C ,  3-C ) :   1.4613 B(  2-C ,  9-C ) :   1.2182
B(  3-C ,  4-C ) :   1.2907 B(  3-C ,  7-C ) :   1.1485 B(  4-C ,  5-C ) :   1.1221
B(  5-C ,  6-N ) :   3.0403 B(  7-C ,  8-N ) :   3.0018 B(  9-C , 10-C ) :   1.6097
B(  9-C , 49-H ) :   0.9617 B( 10-C , 11-C ) :   1.1854 B( 10-C , 50-H ) :   0.9534
B( 11-C , 12-S ) :   1.0840 B( 11-C , 13-C ) :   0.1038 B( 11-C , 15-C ) :   1.3759
B( 12-S , 13-C ) :   1.1455 B( 13-C , 14-C ) :   1.4757 B( 13-C , 20-C ) :   1.2078
B( 14-C , 15-C ) :   1.2698 B( 14-C , 19-S ) :   1.0402 B( 15-C , 16-C ) :   1.1318
B( 16-C , 17-C ) :   1.6852 B( 16-C , 51-H ) :   0.9927 B( 17-C , 18-C ) :   1.0703
B( 17-C , 19-S ) :   1.0705 B( 18-C , 52-H ) :   0.9472 B( 18-C , 53-H ) :   0.9557
B( 18-C , 54-H ) :   0.9477 B( 20-C , 21-S ) :   1.0805 B( 20-C , 22-C ) :   0.1035
B( 20-C , 24-C ) :   1.4580 B( 21-S , 22-C ) :   1.1365 B( 22-C , 23-C ) :   1.3362
B( 22-C , 31-C ) :   1.2488 B( 23-C , 24-C ) :   1.2329 B( 23-C , 30-C ) :   1.0965
B( 24-C , 25-O ) :   1.1287 B( 25-O , 26-C ) :   1.1116 B( 26-C , 27-N ) :   0.9247
B( 26-C , 30-C ) :   1.5603 B( 27-N , 28-O ) :   1.5275 B( 27-N , 29-O ) :   1.5052
B( 28-O , 29-O ) :   0.2785 B( 30-C , 55-H ) :   1.0163 B( 31-C , 32-S ) :   1.0856
B( 31-C , 33-C ) :   0.1208 B( 31-C , 35-C ) :   1.3953 B( 32-S , 33-C ) :   1.1531
B( 33-C , 34-C ) :   1.5296 B( 33-C , 40-C ) :   1.0831 B( 34-C , 35-C ) :   1.2630
B( 34-C , 39-S ) :   1.0172 B( 35-C , 36-C ) :   1.1353 B( 36-C , 37-C ) :   1.6895
B( 36-C , 56-H ) :   0.9821 B( 37-C , 38-C ) :   1.0714 B( 37-C , 39-S ) :   1.0714
B( 38-C , 57-H ) :   0.9477 B( 38-C , 58-H ) :   0.9551 B( 38-C , 59-H ) :   0.9477
B( 40-C , 41-N ) :   1.1759 B( 40-C , 47-N ) :   1.7377 B( 41-N , 42-C ) :   1.2245
B( 41-N , 60-H ) :   0.9123 B( 42-C , 43-N ) :   1.2361 B( 42-C , 46-C ) :   1.2842
B( 43-N , 44-C ) :   1.1255 B( 43-N , 61-H ) :   0.9376 B( 44-C , 45-N ) :   1.7209
B( 44-C , 62-H ) :   0.9823 B( 45-N , 46-C ) :   1.3846 B( 46-C , 47-N ) :   1.4094

-----------------------------------------------------------------------------
         ABSORPTION SPECTRUM VIA TRANSITION ELECTRIC DIPOLE MOMENTS
-----------------------------------------------------------------------------
State   Energy  Wavelength   fosc         T2         TX        TY        TZ
        (cm-1)    (nm)                  (au**2)     (au)      (au)      (au)
-----------------------------------------------------------------------------
   0   13961.2    716.3   1.416422902  33.39993  -5.44065  -1.88124  -0.51008
   1   19647.4    509.0   0.477385622   7.99907   2.82750   0.06211   0.02140
   2   22120.2    452.1   0.027380975   0.40751  -0.23480   0.50037   0.31938
   3   26015.6    384.4   0.162983236   2.06245  -1.18177   0.42099  -0.69903
   4   28494.5    350.9   0.097623902   1.12790  -1.02285  -0.28025   0.05607
   5   29528.2    338.7   0.234984621   2.61986   0.42278   1.50828  -0.40767
   6   31223.8    320.3   0.103741184   1.09381  -0.51308   0.84281  -0.34674
   7   32296.2    309.6   0.013165468   0.13420  -0.15761   0.32097   0.07962
   8   32435.0    308.3   0.025578907   0.25962  -0.17035   0.43663  -0.19990
   9   33433.0    299.1   0.015583159   0.15345  -0.18195  -0.32135   0.13066
  10   33503.8    298.5   0.165655535   1.62775   1.11542   0.61752  -0.04741
  11   34201.3    292.4   0.014416280   0.13877  -0.04308   0.32770  -0.17183
  12   34838.2    287.0   0.075596871   0.71437   0.76569  -0.21725   0.28441
  13   35430.5    282.2   0.207568401   1.92868  -0.60629   1.21509  -0.29094
  14   35753.3    279.7   0.147729233   1.36027  -0.38068   1.03016  -0.39259
  15   35981.2    277.9   0.058678680   0.53688   0.26415  -0.60445   0.31897
  16   36282.4    275.6   0.008638764   0.07838   0.12130  -0.17331   0.18340
  17   37019.1    270.1   0.000292586   0.00260   0.04142  -0.02538  -0.01556
  18   37027.5    270.1   0.009954887   0.08851  -0.20005   0.21782  -0.03227
  19   37407.2    267.3   0.375121363   3.30136  -0.72581   1.57384  -0.54551
  20   37892.6    263.9   0.086632519   0.75267   0.82527  -0.23930   0.11971
  21   38629.1    258.9   0.083165274   0.70877   0.47488  -0.63598   0.28068
  22   38819.1    257.6   0.005682559   0.04819   0.15967  -0.15040  -0.00879
  23   40200.3    248.8   0.008670752   0.07101   0.13665  -0.21783   0.06988

FINAL SINGLE POINT ENERGY     -4223.343792771698

DIPOLE MOMENT
-------------
                                X             Y             Z
Electronic contribution:     -1.29013     -27.19173       6.17038
Nuclear contribution   :      5.35697      31.41461      -6.83540
                        -----------------------------------------
Total Dipole Moment    :      4.06684       4.22288      -0.66502
                        -----------------------------------------
Magnitude (a.u.)       :      5.90035
Magnitude (Debye)      :     14.99749

Rotational constants in cm-1:     0.003688     0.000586     0.000512
Rotational constants in MHz :   110.576526    17.553421    15.351004

                             ****ORCA TERMINATED NORMALLY****
TOTAL RUN TIME: 0 days 0 hours 4 minutes 33 seconds 126 msec
