                         Program Version 4.2.0 -  RELEASE  -
|  1> # ORCA input file
|  2> # SCF done       -147.705099399150          0.000568194668
|  3> ! CAM-B3LYP def2-SVP def2/J RIJCOSX Grid4 TightSCF
|  4> %maxcore 5000
|  5> %tddft
|  6>     Mode sTDDFT
|  7>     Ethresh 5.0
|  8>     maxcore 5000
|  9> end
| 10>
| 11> %pal
| 12>   nprocs 6
| 13>   end
| 14> * xyz 0 1
| 15>    C       14.48747        -4.35356        -1.66475
| 16>    S       12.84797        -4.85118        -1.62188
| 17>    C       12.29277        -3.22937        -1.29768
| 18>    C       13.37307        -2.35416        -1.23121
| 19>    C       14.62636        -3.01230        -1.44384
| 20>    C       15.85101        -2.31885        -1.42139
| 21>    N       16.83027        -1.72428        -1.39507
| 22>    C       13.33249        -0.97710        -0.98871
| 23>    N       13.37356         0.15568        -0.79474
| 24>    C       10.90447        -2.98552        -1.14618
| 25>    C       10.38368        -1.75582        -0.89224
| 26>    C        9.00170        -1.48230        -0.73233
| 27>    C        8.50363        -0.21660        -0.47200
| 28>    O        7.16201         0.02828        -0.30729
| 29>    C        6.34265        -1.05533        -0.43111
| 30>    C        6.85201        -2.35649        -0.70538
| 31>    C        5.87675        -3.29464        -0.79354
| 32>    S        4.31877        -2.60074        -0.54141
| 33>    C        4.99152        -1.03110        -0.31582
| 34>    O        8.18653        -2.59110        -0.85512
| 35>    C        9.31943         0.93911        -0.35659
| 36>    C        8.85753         2.19101        -0.09387
| 37>    C        9.72224         3.30241        -0.00841
| 38>    S       11.43855         3.14254        -0.24747
| 39>    C       11.70864         4.84251        -0.00729
| 40>    C       10.49934         5.49406         0.25473
| 41>    C        9.39648         4.63070         0.25267
| 42>    S        7.71489         5.05990         0.52413
| 43>    C        7.59948         6.78488         0.88065
| 44>    O        6.50120         7.22129         1.08965
| 45>    C        8.79344         7.71205         0.93122
| 46>    O        8.62979         8.86574         1.21688
| 47>    S       10.45449         7.22303         0.56458
| 48>    C       13.01570         5.36194        -0.10662
| 49>    S       13.34673         7.07591         0.01557
| 50>    C       15.05029         6.84779        -0.23824
| 51>    C       15.32716         5.50473        -0.39727
| 52>    C       14.19774         4.64996        -0.32882
| 53>    C       14.56828         3.28844        -0.49927
| 54>    C       15.90054         3.12276        -0.68605
| 55>    C       16.62813         1.84916        -0.89099
| 56>    S       16.79575         4.63880        -0.66834
| 57>    C       16.00540         7.89798        -0.28119
| 58>    O       17.28900         7.55509        -0.49516
| 59>    C       18.03736         8.68170        -0.50889
| 60>    C       17.22882         9.77553        -0.30014
| 61>    C       15.91794         9.27833        -0.15283
| 62>    C       14.70118        10.09312         0.09182
| 63>    F       14.08147         9.77402         1.24459
| 64>    F       14.98170        11.40042         0.16315
| 65>    F       13.77610         9.95630        -0.87841
| 66>    C       19.45745         8.60163        -0.72266
| 67>    C       20.10982         7.45840        -0.91994
| 68>    H       15.26719        -5.06583        -1.84944
| 69>    H       10.24887        -3.83854        -1.24176
| 70>    H       11.05863        -0.92419        -0.80083
| 71>    H        5.98298        -4.34082        -0.98969
| 72>    H        4.36256        -0.18973        -0.11357
| 73>    H       10.38201         0.82003        -0.49163
| 74>    H        7.80261         2.37050         0.05464
| 75>    H       13.88881         2.45750        -0.48521
| 76>    H       17.14623         1.85021        -1.84927
| 77>    H       15.93119         1.01536        -0.86943
| 78>    H       17.37756         1.70391        -0.11377
| 79>    H       17.52396        10.80349        -0.25698
| 80>    H       19.96997         9.55254        -0.71348
| 81>    H       19.59005         6.51537        -0.92917
| 82>    H       21.17309         7.43705        -1.07803
| 83> *
| 84>
| 85>                          ****END OF INPUT****

CARTESIAN COORDINATES (ANGSTROEM)
---------------------------------
  C     14.487470   -4.353560   -1.664750
  S     12.847970   -4.851180   -1.621880
  C     12.292770   -3.229370   -1.297680
  C     13.373070   -2.354160   -1.231210
  C     14.626360   -3.012300   -1.443840
  C     15.851010   -2.318850   -1.421390
  N     16.830270   -1.724280   -1.395070
  C     13.332490   -0.977100   -0.988710
  N     13.373560    0.155680   -0.794740
  C     10.904470   -2.985520   -1.146180
  C     10.383680   -1.755820   -0.892240
  C      9.001700   -1.482300   -0.732330
  C      8.503630   -0.216600   -0.472000
  O      7.162010    0.028280   -0.307290
  C      6.342650   -1.055330   -0.431110
  C      6.852010   -2.356490   -0.705380
  C      5.876750   -3.294640   -0.793540
  S      4.318770   -2.600740   -0.541410
  C      4.991520   -1.031100   -0.315820
  O      8.186530   -2.591100   -0.855120
  C      9.319430    0.939110   -0.356590
  C      8.857530    2.191010   -0.093870
  C      9.722240    3.302410   -0.008410
  S     11.438550    3.142540   -0.247470
  C     11.708640    4.842510   -0.007290
  C     10.499340    5.494060    0.254730
  C      9.396480    4.630700    0.252670
  S      7.714890    5.059900    0.524130
  C      7.599480    6.784880    0.880650
  O      6.501200    7.221290    1.089650
  C      8.793440    7.712050    0.931220
  O      8.629790    8.865740    1.216880
  S     10.454490    7.223030    0.564580
  C     13.015700    5.361940   -0.106620
  S     13.346730    7.075910    0.015570
  C     15.050290    6.847790   -0.238240
  C     15.327160    5.504730   -0.397270
  C     14.197740    4.649960   -0.328820
  C     14.568280    3.288440   -0.499270
  C     15.900540    3.122760   -0.686050
  C     16.628130    1.849160   -0.890990
  S     16.795750    4.638800   -0.668340
  C     16.005400    7.897980   -0.281190
  O     17.289000    7.555090   -0.495160
  C     18.037360    8.681700   -0.508890
  C     17.228820    9.775530   -0.300140
  C     15.917940    9.278330   -0.152830
  C     14.701180   10.093120    0.091820
  F     14.081470    9.774020    1.244590
  F     14.981700   11.400420    0.163150
  F     13.776100    9.956300   -0.878410
  C     19.457450    8.601630   -0.722660
  C     20.109820    7.458400   -0.919940
  H     15.267190   -5.065830   -1.849440
  H     10.248870   -3.838540   -1.241760
  H     11.058630   -0.924190   -0.800830
  H      5.982980   -4.340820   -0.989690
  H      4.362560   -0.189730   -0.113570
  H     10.382010    0.820030   -0.491630
  H      7.802610    2.370500    0.054640
  H     13.888810    2.457500   -0.485210
  H     17.146230    1.850210   -1.849270
  H     15.931190    1.015360   -0.869430
  H     17.377560    1.703910   -0.113770
  H     17.523960   10.803490   -0.256980
  H     19.969970    9.552540   -0.713480
  H     19.590050    6.515370   -0.929170
  H     21.173090    7.437050   -1.078030

 Total Charge           Charge          ....    0
 Multiplicity           Mult            ....    1
 Number of Electrons    NEL             ....  424
 Basis Dimension        Dim             ....  845

ORBITAL ENERGIES
----------------

  NO   OCC          E(Eh)            E(eV)
   0   2.0000     -88.997510     -2421.7454
   1   2.0000     -88.970034     -2420.9977
   2   2.0000     -88.967586     -2420.9311
   3   2.0000     -88.966589     -2420.9039
   4   2.0000     -88.966473     -2420.9008
   5   2.0000     -88.965172     -2420.8654
   6   2.0000     -88.944863     -2420.3128
   7   2.0000     -24.793517      -674.6659
   8   2.0000     -24.787842      -674.5115
   9   2.0000     -24.787618      -674.5054
  10   2.0000     -19.301668      -525.2251
  11   2.0000     -19.290815      -524.9298
  12   2.0000     -19.285257      -524.7785
  13   2.0000     -19.237020      -523.4659
  14   2.0000     -19.235791      -523.4325
  15   2.0000     -14.432817      -392.7369
  16   2.0000     -14.423799      -392.4915
  17   2.0000     -10.513027      -286.0740
  18   2.0000     -10.402424      -283.0643
  19   2.0000     -10.400651      -283.0161
  20   2.0000     -10.368627      -282.1447
  21   2.0000     -10.357983      -281.8551
  22   2.0000     -10.353504      -281.7332
  23   2.0000     -10.351099      -281.6677
  24   2.0000     -10.350386      -281.6483
  25   2.0000     -10.350100      -281.6405
  26   2.0000     -10.342172      -281.4248
  27   2.0000     -10.338566      -281.3267
  28   2.0000     -10.335480      -281.2427
  29   2.0000     -10.334813      -281.2246
  30   2.0000     -10.334282      -281.2101
  31   2.0000     -10.330868      -281.1172
  32   2.0000     -10.329398      -281.0772
  33   2.0000     -10.324919      -280.9553
  34   2.0000     -10.323598      -280.9194
  35   2.0000     -10.316643      -280.7301
  36   2.0000     -10.314940      -280.6838
  37   2.0000     -10.314390      -280.6688
  38   2.0000     -10.308159      -280.4993
  39   2.0000     -10.303629      -280.3760
  40   2.0000     -10.302724      -280.3514
  41   2.0000     -10.302156      -280.3359
  42   2.0000     -10.302133      -280.3353
  43   2.0000     -10.301026      -280.3052
  44   2.0000     -10.299622      -280.2670
  45   2.0000     -10.294226      -280.1201
  46   2.0000     -10.289995      -280.0050
  47   2.0000     -10.285501      -279.8827
  48   2.0000     -10.282005      -279.7876
  49   2.0000     -10.281939      -279.7858
  50   2.0000     -10.267794      -279.4009
  51   2.0000     -10.261114      -279.2191
  52   2.0000     -10.261018      -279.2165
  53   2.0000      -8.093418      -220.2331
  54   2.0000      -8.064450      -219.4448
  55   2.0000      -8.064171      -219.4372
  56   2.0000      -8.062240      -219.3847
  57   2.0000      -8.061398      -219.3618
  58   2.0000      -8.060579      -219.3395
  59   2.0000      -8.040512      -218.7935
  60   2.0000      -6.062646      -164.9730
  61   2.0000      -6.058256      -164.8535
  62   2.0000      -6.055774      -164.7860
  63   2.0000      -6.034014      -164.1939
  64   2.0000      -6.033920      -164.1913
  65   2.0000      -6.031752      -164.1323
  66   2.0000      -6.031337      -164.1210
  67   2.0000      -6.030271      -164.0920
  68   2.0000      -6.029849      -164.0805
  69   2.0000      -6.029399      -164.0683
  70   2.0000      -6.027550      -164.0180
  71   2.0000      -6.026620      -163.9927
  72   2.0000      -6.026163      -163.9802
  73   2.0000      -6.025720      -163.9682
  74   2.0000      -6.025102      -163.9514
  75   2.0000      -6.023930      -163.9195
  76   2.0000      -6.022326      -163.8758
  77   2.0000      -6.022213      -163.8727
  78   2.0000      -6.010301      -163.5486
  79   2.0000      -6.005935      -163.4298
  80   2.0000      -6.001739      -163.3156
  81   2.0000      -1.379719       -37.5441
  82   2.0000      -1.284076       -34.9415
  83   2.0000      -1.278639       -34.7935
  84   2.0000      -1.222637       -33.2696
  85   2.0000      -1.214408       -33.0457
  86   2.0000      -1.177282       -32.0355
  87   2.0000      -1.174680       -31.9647
  88   2.0000      -1.142241       -31.0820
  89   2.0000      -1.038046       -28.2467
  90   2.0000      -1.021028       -27.7836
  91   2.0000      -1.011183       -27.5157
  92   2.0000      -1.002610       -27.2824
  93   2.0000      -1.002335       -27.2749
  94   2.0000      -0.996457       -27.1150
  95   2.0000      -0.947917       -25.7941
  96   2.0000      -0.942765       -25.6539
  97   2.0000      -0.932092       -25.3635
  98   2.0000      -0.927306       -25.2333
  99   2.0000      -0.919239       -25.0138
 100   2.0000      -0.910421       -24.7738
 101   2.0000      -0.902139       -24.5485
 102   2.0000      -0.896590       -24.3975
 103   2.0000      -0.881426       -23.9848
 104   2.0000      -0.869856       -23.6700
 105   2.0000      -0.852518       -23.1982
 106   2.0000      -0.842190       -22.9172
 107   2.0000      -0.833280       -22.6747
 108   2.0000      -0.832627       -22.6569
 109   2.0000      -0.824754       -22.4427
 110   2.0000      -0.819422       -22.2976
 111   2.0000      -0.812734       -22.1156
 112   2.0000      -0.796308       -21.6686
 113   2.0000      -0.778779       -21.1916
 114   2.0000      -0.768717       -20.9178
 115   2.0000      -0.759903       -20.6780
 116   2.0000      -0.747568       -20.3424
 117   2.0000      -0.740352       -20.1460
 118   2.0000      -0.728176       -19.8147
 119   2.0000      -0.720974       -19.6187
 120   2.0000      -0.712642       -19.3920
 121   2.0000      -0.709248       -19.2996
 122   2.0000      -0.699669       -19.0390
 123   2.0000      -0.695941       -18.9375
 124   2.0000      -0.688253       -18.7283
 125   2.0000      -0.680425       -18.5153
 126   2.0000      -0.673617       -18.3300
 127   2.0000      -0.662007       -18.0141
 128   2.0000      -0.658442       -17.9171
 129   2.0000      -0.647652       -17.6235
 130   2.0000      -0.644344       -17.5335
 131   2.0000      -0.636776       -17.3276
 132   2.0000      -0.632003       -17.1977
 133   2.0000      -0.629261       -17.1231
 134   2.0000      -0.610252       -16.6058
 135   2.0000      -0.605323       -16.4717
 136   2.0000      -0.599227       -16.3058
 137   2.0000      -0.585554       -15.9337
 138   2.0000      -0.580079       -15.7848
 139   2.0000      -0.579568       -15.7709
 140   2.0000      -0.579085       -15.7577
 141   2.0000      -0.569701       -15.5023
 142   2.0000      -0.569608       -15.4998
 143   2.0000      -0.568038       -15.4571
 144   2.0000      -0.557080       -15.1589
 145   2.0000      -0.552374       -15.0309
 146   2.0000      -0.547765       -14.9055
 147   2.0000      -0.546211       -14.8632
 148   2.0000      -0.542740       -14.7687
 149   2.0000      -0.540116       -14.6973
 150   2.0000      -0.538569       -14.6552
 151   2.0000      -0.537547       -14.6274
 152   2.0000      -0.533682       -14.5222
 153   2.0000      -0.531168       -14.4538
 154   2.0000      -0.520172       -14.1546
 155   2.0000      -0.518371       -14.1056
 156   2.0000      -0.515550       -14.0288
 157   2.0000      -0.514442       -13.9987
 158   2.0000      -0.513318       -13.9681
 159   2.0000      -0.508527       -13.8377
 160   2.0000      -0.505999       -13.7689
 161   2.0000      -0.505082       -13.7440
 162   2.0000      -0.503774       -13.7084
 163   2.0000      -0.500385       -13.6162
 164   2.0000      -0.497207       -13.5297
 165   2.0000      -0.492805       -13.4099
 166   2.0000      -0.489827       -13.3289
 167   2.0000      -0.484058       -13.1719
 168   2.0000      -0.483808       -13.1651
 169   2.0000      -0.479692       -13.0531
 170   2.0000      -0.478115       -13.0102
 171   2.0000      -0.476270       -12.9600
 172   2.0000      -0.475196       -12.9307
 173   2.0000      -0.473846       -12.8940
 174   2.0000      -0.467875       -12.7315
 175   2.0000      -0.466076       -12.6826
 176   2.0000      -0.462848       -12.5947
 177   2.0000      -0.461733       -12.5644
 178   2.0000      -0.457622       -12.4525
 179   2.0000      -0.454209       -12.3597
 180   2.0000      -0.453624       -12.3437
 181   2.0000      -0.449669       -12.2361
 182   2.0000      -0.443470       -12.0674
 183   2.0000      -0.441806       -12.0222
 184   2.0000      -0.439649       -11.9635
 185   2.0000      -0.436753       -11.8846
 186   2.0000      -0.431586       -11.7441
 187   2.0000      -0.428089       -11.6489
 188   2.0000      -0.427142       -11.6231
 189   2.0000      -0.422934       -11.5086
 190   2.0000      -0.417896       -11.3715
 191   2.0000      -0.412435       -11.2229
 192   2.0000      -0.408820       -11.1246
 193   2.0000      -0.404512       -11.0073
 194   2.0000      -0.402307       -10.9473
 195   2.0000      -0.399884       -10.8814
 196   2.0000      -0.386971       -10.5300
 197   2.0000      -0.385154       -10.4806
 198   2.0000      -0.379659       -10.3310
 199   2.0000      -0.370435       -10.0801
 200   2.0000      -0.357598        -9.7307
 201   2.0000      -0.350187        -9.5291
 202   2.0000      -0.346680        -9.4337
 203   2.0000      -0.335273        -9.1233
 204   2.0000      -0.320298        -8.7158
 205   2.0000      -0.306458        -8.3391
 206   2.0000      -0.304980        -8.2989
 207   2.0000      -0.302564        -8.2332
 208   2.0000      -0.296060        -8.0562
 209   2.0000      -0.285108        -7.7582
 210   2.0000      -0.257933        -7.0187
 211   2.0000      -0.225051        -6.1239
 212   0.0000      -0.088534        -2.4091
 213   0.0000      -0.058631        -1.5954
 214   0.0000      -0.046537        -1.2663
 215   0.0000      -0.021279        -0.5790
 216   0.0000      -0.015437        -0.4201

MULLIKEN ATOMIC CHARGES
-----------------------
   0 C :   -0.084499
   1 S :    0.175585
   2 C :   -0.099605
   3 C :   -0.010720
   4 C :   -0.045597
   5 C :   -0.190314
   6 N :    0.179882
   7 C :   -0.230049
   8 N :    0.185101
   9 C :    0.048439
  10 C :   -0.042082
  11 C :    0.163974
  12 C :    0.198743
  13 O :   -0.246399
  14 C :    0.213841
  15 C :    0.223645
  16 C :   -0.173840
  17 S :    0.118117
  18 C :   -0.166165
  19 O :   -0.259318
  20 C :   -0.102659
  21 C :    0.033316
  22 C :   -0.088331
  23 S :    0.107273
  24 C :   -0.063411
  25 C :   -0.051900
  26 C :   -0.018284
  27 S :    0.079490
  28 C :    0.079150
  29 O :   -0.131470
  30 C :    0.091120
  31 O :   -0.127520
  32 S :    0.075785
  33 C :   -0.102700
  34 S :    0.146236
  35 C :   -0.178865
  36 C :   -0.012622
  37 C :    0.080504
  38 C :   -0.009407
  39 C :   -0.209551
  40 C :    0.128302
  41 S :    0.129992
  42 C :    0.164267
  43 O :   -0.202322
  44 C :    0.167258
  45 C :   -0.061640
  46 C :   -0.161100
  47 C :    0.531645
  48 F :   -0.165794
  49 F :   -0.154153
  50 F :   -0.167011
  51 C :   -0.022392
  52 C :    0.000040
  53 H :    0.043279
  54 H :   -0.006892
  55 H :   -0.012301
  56 H :    0.026802
  57 H :    0.031292
  58 H :    0.024912
  59 H :    0.018897
  60 H :   -0.010134
  61 H :    0.033563
  62 H :    0.025436
  63 H :    0.033895
  64 H :   -0.005066
  65 H :   -0.002675
  66 H :    0.030529
  67 H :    0.026474
Sum of atomic charges:    0.0000000

LOEWDIN ATOMIC CHARGES
----------------------
   0 C :   -0.148181
   1 S :    0.487693
   2 C :   -0.119369
   3 C :   -0.111981
   4 C :   -0.082222
   5 C :   -0.027683
   6 N :   -0.037893
   7 C :   -0.008202
   8 N :   -0.058271
   9 C :   -0.065486
  10 C :   -0.000012
  11 C :    0.010143
  12 C :    0.053084
  13 O :   -0.043441
  14 C :   -0.010119
  15 C :   -0.007300
  16 C :   -0.209468
  17 S :    0.445137
  18 C :   -0.203979
  19 O :   -0.057274
  20 C :   -0.057230
  21 C :   -0.016937
  22 C :   -0.199335
  23 S :    0.489705
  24 C :   -0.176805
  25 C :   -0.235349
  26 C :   -0.206717
  27 S :    0.388266
  28 C :   -0.112034
  29 O :   -0.104641
  30 C :   -0.111906
  31 O :   -0.100462
  32 S :    0.388038
  33 C :   -0.205216
  34 S :    0.467258
  35 C :   -0.214330
  36 C :   -0.179544
  37 C :   -0.063829
  38 C :   -0.087560
  39 C :   -0.127881
  40 C :   -0.058381
  41 S :    0.396339
  42 C :    0.038173
  43 O :    0.025511
  44 C :    0.032208
  45 C :   -0.042560
  46 C :   -0.133694
  47 C :    0.162636
  48 F :   -0.066315
  49 F :   -0.054037
  50 F :   -0.067112
  51 C :   -0.040960
  52 C :   -0.029831
  53 H :    0.038726
  54 H :    0.032910
  55 H :    0.038015
  56 H :    0.029914
  57 H :    0.032104
  58 H :    0.027595
  59 H :    0.034447
  60 H :    0.016642
  61 H :    0.040179
  62 H :    0.040328
  63 H :    0.040116
  64 H :    0.036975
  65 H :    0.038321
  66 H :    0.025306
  67 H :    0.027776

  Mayer bond orders larger than 0.100000
B(  0-C ,  1-S ) :   1.1604 B(  0-C ,  4-C ) :   1.5629 B(  0-C , 53-H ) :   0.9738
B(  1-S ,  2-C ) :   1.1509 B(  2-C ,  3-C ) :   1.4548 B(  2-C ,  9-C ) :   1.1379
B(  3-C ,  4-C ) :   1.3051 B(  3-C ,  7-C ) :   1.1495 B(  4-C ,  5-C ) :   1.1270
B(  5-C ,  6-N ) :   3.0098 B(  7-C ,  8-N ) :   2.9152 B(  9-C , 10-C ) :   1.6287
B(  9-C , 54-H ) :   0.9617 B( 10-C , 11-C ) :   1.2292 B( 10-C , 55-H ) :   0.9366
B( 11-C , 12-C ) :   1.4028 B( 11-C , 19-O ) :   1.0664 B( 12-C , 13-O ) :   1.0958
B( 12-C , 20-C ) :   1.2015 B( 13-O , 14-C ) :   1.0386 B( 14-C , 15-C ) :   1.2054
B( 14-C , 18-C ) :   1.5711 B( 15-C , 16-C ) :   1.5696 B( 15-C , 19-O ) :   1.0472
B( 16-C , 17-S ) :   1.1441 B( 16-C , 56-H ) :   0.9730 B( 17-S , 18-C ) :   1.1491
B( 18-C , 57-H ) :   0.9725 B( 20-C , 21-C ) :   1.6187 B( 20-C , 58-H ) :   0.9538
B( 21-C , 22-C ) :   1.1628 B( 21-C , 59-H ) :   0.9736 B( 22-C , 23-S ) :   1.0955
B( 22-C , 24-C ) :   0.1036 B( 22-C , 26-C ) :   1.5174 B( 23-S , 24-C ) :   1.1424
B( 24-C , 25-C ) :   1.5036 B( 24-C , 33-C ) :   1.2069 B( 25-C , 26-C ) :   1.3188
B( 25-C , 32-S ) :   0.9602 B( 26-C , 27-S ) :   0.9698 B( 27-S , 28-C ) :   1.0510
B( 27-S , 29-O ) :   0.1392 B( 28-C , 29-O ) :   2.1571 B( 28-C , 30-C ) :   0.7700
B( 30-C , 31-O ) :   2.1630 B( 30-C , 32-S ) :   1.0609 B( 31-O , 32-S ) :   0.1373
B( 33-C , 34-S ) :   1.0918 B( 33-C , 35-C ) :   0.1160 B( 33-C , 37-C ) :   1.3843
B( 34-S , 35-C ) :   1.1443 B( 35-C , 36-C ) :   1.4833 B( 35-C , 42-C ) :   1.1291
B( 36-C , 37-C ) :   1.2575 B( 36-C , 41-S ) :   1.0548 B( 37-C , 38-C ) :   1.1307
B( 38-C , 39-C ) :   1.6775 B( 38-C , 60-H ) :   0.9733 B( 39-C , 40-C ) :   1.0624
B( 39-C , 41-S ) :   1.0613 B( 40-C , 61-H ) :   0.9449 B( 40-C , 62-H ) :   0.9539
B( 40-C , 63-H ) :   0.9446 B( 42-C , 43-O ) :   1.1901 B( 42-C , 44-C ) :   0.1031
B( 42-C , 46-C ) :   1.4753 B( 43-O , 44-C ) :   1.1196 B( 44-C , 45-C ) :   1.4593
B( 44-C , 51-C ) :   1.1180 B( 45-C , 46-C ) :   1.2383 B( 45-C , 64-H ) :   1.0181
B( 46-C , 47-C ) :   0.9528 B( 47-C , 48-F ) :   1.1679 B( 47-C , 49-F ) :   1.1828
B( 47-C , 50-F ) :   1.1640 B( 51-C , 52-C ) :   1.9155 B( 51-C , 65-H ) :   0.9601
B( 52-C , 66-H ) :   0.9572 B( 52-C , 67-H ) :   0.9468

-----------------------------------------------------------------------------
         ABSORPTION SPECTRUM VIA TRANSITION ELECTRIC DIPOLE MOMENTS
-----------------------------------------------------------------------------
State   Energy  Wavelength   fosc         T2         TX        TY        TZ
        (cm-1)    (nm)                  (au**2)     (au)      (au)      (au)
-----------------------------------------------------------------------------
   0   14809.1    675.3   0.762888431  16.95931  -1.61622  -3.77489  -0.31200
   1   21162.8    472.5   0.374617847   5.82763  -2.37397   0.23618   0.36893
   2   22017.3    454.2   0.406560656   6.07906   2.26382  -0.88296  -0.41779
   3   23604.0    423.7   0.523966312   7.30790  -2.57286  -0.79050   0.25182
   4   27968.8    357.5   0.010847958   0.12769  -0.18835  -0.28989  -0.09042
   5   28511.0    350.7   0.200501908   2.31516   0.27789  -1.46955  -0.27996
   6   29032.4    344.4   0.029872105   0.33873   0.13802  -0.56540  -0.00163
   7   29477.7    339.2   0.000150517   0.00168   0.00351   0.04006   0.00801
   8   30102.9    332.2   0.039786674   0.43512   0.38162  -0.52195  -0.13057
   9   30725.8    325.5   0.035155627   0.37667  -0.49760   0.29560   0.20419
  10   31277.8    319.7   0.312588148   3.29012   1.80504   0.13447  -0.11772
  11   31526.3    317.2   0.016296026   0.17017   0.26462   0.31116   0.05768
  12   31994.3    312.6   0.102960144   1.05943   0.94848  -0.36735  -0.15770
  13   32396.7    308.7   0.001807713   0.01837  -0.13203  -0.01759  -0.02506
  14   34192.9    292.5   0.029814763   0.28706   0.48581  -0.20420  -0.09672
  15   34731.9    287.9   0.227091216   2.15252  -0.41118   1.38129   0.27475
  16   34915.4    286.4   0.029888320   0.28181   0.37388   0.37281   0.05514
  17   35735.9    279.8   0.240787069   2.21822  -0.35585  -1.43986  -0.13557
  18   36446.5    274.4   0.006990922   0.06315  -0.11846  -0.21421  -0.05682
  19   37021.1    270.1   0.045781603   0.40712  -0.27826   0.56995   0.06958
  20   37397.9    267.4   0.004630767   0.04076   0.14464   0.14081   0.00393
  21   37746.3    264.9   0.098406359   0.85827   0.54220   0.74894   0.05821
  22   37761.8    264.8   0.011301880   0.09853   0.03128   0.30894   0.04589
  23   38327.9    260.9   0.019231996   0.16519   0.38989   0.11472  -0.00359
  24   38809.5    257.7   0.001449661   0.01230  -0.10438   0.02937   0.02325
  25   39083.5    255.9   0.015747298   0.13264   0.36170  -0.03410  -0.02565
  26   39166.6    255.3   0.007383264   0.06206  -0.23636  -0.00983   0.07809
  27   39234.3    254.9   0.003070008   0.02576  -0.15420  -0.01839   0.04057
  28   39850.9    250.9   0.003497460   0.02889  -0.10974  -0.12787  -0.02230

FINAL SINGLE POINT ENERGY     -4949.785441539571

DIPOLE MOMENT
-------------
                                X             Y             Z
Electronic contribution:    -18.83322      33.36296       6.62996
Nuclear contribution   :     19.38695     -37.44852      -7.47188
                        -----------------------------------------
Total Dipole Moment    :      0.55373      -4.08556      -0.84192
                        -----------------------------------------
Magnitude (a.u.)       :      4.20800
Magnitude (Debye)      :     10.69588

Rotational constants in cm-1:     0.001721     0.000760     0.000529
Rotational constants in MHz :    51.599323    22.777492    15.867383

                             ****ORCA TERMINATED NORMALLY****
TOTAL RUN TIME: 0 days 0 hours 5 minutes 0 seconds 599 msec
