                         Program Version 4.2.0 -  RELEASE  -
|  1> # ORCA input file
|  2> # SCF done       -148.145505437253          0.000648739553
|  3> ! CAM-B3LYP def2-SVP def2/J RIJCOSX Grid4 TightSCF
|  4> %maxcore 5000
|  5> %tddft
|  6>     Mode sTDDFT
|  7>     Ethresh 5.0
|  8>     maxcore 5000
|  9> end
| 10>
| 11> %pal
| 12>   nprocs 6
| 13>   end
| 14> * xyz 0 1
| 15>    C        3.08513         6.05528         2.47196
| 16>    S        4.41717         5.29697         1.70327
| 17>    C        3.40114         4.02572         1.07242
| 18>    C        2.08348         4.21916         1.46220
| 19>    C        1.91045         5.38585         2.26875
| 20>    C        0.67412         5.79466         2.80447
| 21>    N       -0.32807         6.12892         3.24746
| 22>    C        1.03851         3.35059         1.11411
| 23>    N        0.18731         2.63546         0.83125
| 24>    C        3.90393         2.94865         0.29959
| 25>    C        5.22103         2.75950         0.04079
| 26>    C        5.72670         1.63594        -0.67294
| 27>    C        7.06611         1.34474        -0.79649
| 28>    O        7.52041         0.18524        -1.37807
| 29>    C        6.55824        -0.63597        -1.88851
| 30>    C        5.17304        -0.31965        -1.79296
| 31>    C        4.37812        -1.25623        -2.36575
| 32>    S        5.31262        -2.54343        -3.03212
| 33>    C        6.78847        -1.80732        -2.53152
| 34>    O        4.73599         0.81178        -1.17210
| 35>    C        8.11818         2.19108        -0.32006
| 36>    C        9.38599         1.75380        -0.16182
| 37>    C       10.49746         2.52983         0.28724
| 38>    S       11.78648         1.65865         1.07326
| 39>    C       12.67700         3.12019         1.32988
| 40>    C       12.00971         4.21356         0.83485
| 41>    C       10.77217         3.88557         0.23132
| 42>    C        9.93464         4.92723        -0.43989
| 43>    S        9.48536         4.41813        -2.15473
| 44>    C       10.63768         6.28132        -0.49136
| 45>    C       11.31281         6.58711         0.83881
| 46>    C       12.49415         5.63075         1.02017
| 47>    O       13.15245         5.80799         2.25437
| 48>    C       13.95156         3.08923         2.02643
| 49>    C       15.11592         3.50764         1.45617
| 50>    O       16.31862         3.52907         2.13867
| 51>    C       16.24896         3.07083         3.42180
| 52>    C       15.03623         2.58455         3.99276
| 53>    C       15.18444         2.16395         5.27314
| 54>    S       16.81125         2.35232         5.80625
| 55>    C       17.29247         3.00703         4.28410
| 56>    O       13.86117         2.57620         3.29430
| 57>    C       15.17595         3.91455         0.09204
| 58>    C       16.29676         4.37784        -0.50919
| 59>    C       16.37322         4.76782        -1.87192
| 60>    S       17.92173         5.15610        -2.55810
| 61>    C       17.24476         5.48619        -4.12497
| 62>    C       15.87372         5.31040        -4.10613
| 63>    C       15.37397         4.90550        -2.83063
| 64>    C       14.00213         4.72669        -2.62235
| 65>    N       12.86461         4.61488        -2.49479
| 66>    C       14.99988         5.50163        -5.19050
| 67>    N       14.24240         5.64528        -6.03979
| 68>    C       18.12818         5.87695        -5.18935
| 69>    C       17.77227         6.12594        -6.44833
| 70>    H        3.22981         6.95466         3.03758
| 71>    H        3.17329         2.23802        -0.06083
| 72>    H        5.93666         3.46844         0.42547
| 73>    H        3.31057        -1.26359        -2.43361
| 74>    H        7.72937        -2.27211        -2.73891
| 75>    H        7.85685         3.20612        -0.08349
| 76>    H        9.59293         0.70575        -0.33126
| 77>    H        8.97297         5.03040         0.07176
| 78>    H       10.74073         4.36995        -2.58802
| 79>    H        9.90868         7.05168        -0.74437
| 80>    H       11.39658         6.26247        -1.27664
| 81>    H       10.60444         6.45479         1.66235
| 82>    H       11.67463         7.61544         0.86066
| 83>    H       13.25893         5.86044         0.26740
| 84>    H       12.51597         5.66924         2.96648
| 85>    H       14.43830         1.75727         5.92316
| 86>    H       18.30622         3.30385         4.11573
| 87>    H       14.26262         3.80221        -0.46864
| 88>    H       17.21050         4.45173         0.06284
| 89>    H       19.16704         5.95845        -4.89517
| 90>    H       16.75358         6.05347        -6.78621
| 91>    H       18.50612         6.41177        -7.18086
| 92> *
| 93>
| 94>                          ****END OF INPUT****

CARTESIAN COORDINATES (ANGSTROEM)
---------------------------------
  C      3.085130    6.055280    2.471960
  S      4.417170    5.296970    1.703270
  C      3.401140    4.025720    1.072420
  C      2.083480    4.219160    1.462200
  C      1.910450    5.385850    2.268750
  C      0.674120    5.794660    2.804470
  N     -0.328070    6.128920    3.247460
  C      1.038510    3.350590    1.114110
  N      0.187310    2.635460    0.831250
  C      3.903930    2.948650    0.299590
  C      5.221030    2.759500    0.040790
  C      5.726700    1.635940   -0.672940
  C      7.066110    1.344740   -0.796490
  O      7.520410    0.185240   -1.378070
  C      6.558240   -0.635970   -1.888510
  C      5.173040   -0.319650   -1.792960
  C      4.378120   -1.256230   -2.365750
  S      5.312620   -2.543430   -3.032120
  C      6.788470   -1.807320   -2.531520
  O      4.735990    0.811780   -1.172100
  C      8.118180    2.191080   -0.320060
  C      9.385990    1.753800   -0.161820
  C     10.497460    2.529830    0.287240
  S     11.786480    1.658650    1.073260
  C     12.677000    3.120190    1.329880
  C     12.009710    4.213560    0.834850
  C     10.772170    3.885570    0.231320
  C      9.934640    4.927230   -0.439890
  S      9.485360    4.418130   -2.154730
  C     10.637680    6.281320   -0.491360
  C     11.312810    6.587110    0.838810
  C     12.494150    5.630750    1.020170
  O     13.152450    5.807990    2.254370
  C     13.951560    3.089230    2.026430
  C     15.115920    3.507640    1.456170
  O     16.318620    3.529070    2.138670
  C     16.248960    3.070830    3.421800
  C     15.036230    2.584550    3.992760
  C     15.184440    2.163950    5.273140
  S     16.811250    2.352320    5.806250
  C     17.292470    3.007030    4.284100
  O     13.861170    2.576200    3.294300
  C     15.175950    3.914550    0.092040
  C     16.296760    4.377840   -0.509190
  C     16.373220    4.767820   -1.871920
  S     17.921730    5.156100   -2.558100
  C     17.244760    5.486190   -4.124970
  C     15.873720    5.310400   -4.106130
  C     15.373970    4.905500   -2.830630
  C     14.002130    4.726690   -2.622350
  N     12.864610    4.614880   -2.494790
  C     14.999880    5.501630   -5.190500
  N     14.242400    5.645280   -6.039790
  C     18.128180    5.876950   -5.189350
  C     17.772270    6.125940   -6.448330
  H      3.229810    6.954660    3.037580
  H      3.173290    2.238020   -0.060830
  H      5.936660    3.468440    0.425470
  H      3.310570   -1.263590   -2.433610
  H      7.729370   -2.272110   -2.738910
  H      7.856850    3.206120   -0.083490
  H      9.592930    0.705750   -0.331260
  H      8.972970    5.030400    0.071760
  H     10.740730    4.369950   -2.588020
  H      9.908680    7.051680   -0.744370
  H     11.396580    6.262470   -1.276640
  H     10.604440    6.454790    1.662350
  H     11.674630    7.615440    0.860660
  H     13.258930    5.860440    0.267400
  H     12.515970    5.669240    2.966480
  H     14.438300    1.757270    5.923160
  H     18.306220    3.303850    4.115730
  H     14.262620    3.802210   -0.468640
  H     17.210500    4.451730    0.062840
  H     19.167040    5.958450   -4.895170
  H     16.753580    6.053470   -6.786210
  H     18.506120    6.411770   -7.180860

 Total Charge           Charge          ....    0
 Multiplicity           Mult            ....    1
 Number of Electrons    NEL             ....  426
 Basis Dimension        Dim             ....  904

ORBITAL ENERGIES
----------------

  NO   OCC          E(Eh)            E(eV)
   0   2.0000     -88.991656     -2421.5861
   1   2.0000     -88.987868     -2421.4830
   2   2.0000     -88.963584     -2420.8222
   3   2.0000     -88.960780     -2420.7459
   4   2.0000     -88.957964     -2420.6693
   5   2.0000     -88.893104     -2418.9043
   6   2.0000     -19.286795      -524.8204
   7   2.0000     -19.280978      -524.6621
   8   2.0000     -19.278418      -524.5924
   9   2.0000     -19.276271      -524.5340
  10   2.0000     -19.217466      -522.9338
  11   2.0000     -14.432071      -392.7166
  12   2.0000     -14.419584      -392.3768
  13   2.0000     -14.408706      -392.0808
  14   2.0000     -14.406796      -392.0289
  15   2.0000     -10.361890      -281.9614
  16   2.0000     -10.356679      -281.8196
  17   2.0000     -10.350526      -281.6521
  18   2.0000     -10.347601      -281.5725
  19   2.0000     -10.346871      -281.5527
  20   2.0000     -10.346729      -281.5488
  21   2.0000     -10.346440      -281.5410
  22   2.0000     -10.341861      -281.4163
  23   2.0000     -10.341748      -281.4133
  24   2.0000     -10.341198      -281.3983
  25   2.0000     -10.337219      -281.2900
  26   2.0000     -10.335244      -281.2363
  27   2.0000     -10.335113      -281.2327
  28   2.0000     -10.332617      -281.1648
  29   2.0000     -10.330527      -281.1079
  30   2.0000     -10.329949      -281.0922
  31   2.0000     -10.326958      -281.0108
  32   2.0000     -10.324468      -280.9431
  33   2.0000     -10.319253      -280.8011
  34   2.0000     -10.308736      -280.5150
  35   2.0000     -10.308670      -280.5132
  36   2.0000     -10.306756      -280.4611
  37   2.0000     -10.306576      -280.4562
  38   2.0000     -10.304903      -280.4107
  39   2.0000     -10.303587      -280.3749
  40   2.0000     -10.302422      -280.3432
  41   2.0000     -10.302154      -280.3359
  42   2.0000     -10.301185      -280.3095
  43   2.0000     -10.299099      -280.2527
  44   2.0000     -10.297749      -280.2160
  45   2.0000     -10.295511      -280.1551
  46   2.0000     -10.293840      -280.1096
  47   2.0000     -10.293537      -280.1014
  48   2.0000     -10.289036      -279.9789
  49   2.0000     -10.288742      -279.9709
  50   2.0000     -10.288348      -279.9602
  51   2.0000     -10.285473      -279.8819
  52   2.0000     -10.285106      -279.8720
  53   2.0000     -10.269084      -279.4360
  54   2.0000     -10.267122      -279.3826
  55   2.0000      -8.087457      -220.0709
  56   2.0000      -8.083499      -219.9632
  57   2.0000      -8.059328      -219.3055
  58   2.0000      -8.056556      -219.2300
  59   2.0000      -8.053752      -219.1537
  60   2.0000      -7.988734      -217.3845
  61   2.0000      -6.056574      -164.8078
  62   2.0000      -6.052687      -164.7020
  63   2.0000      -6.052516      -164.6973
  64   2.0000      -6.049733      -164.6216
  65   2.0000      -6.048463      -164.5870
  66   2.0000      -6.045867      -164.5164
  67   2.0000      -6.028849      -164.0533
  68   2.0000      -6.025663      -163.9666
  69   2.0000      -6.024653      -163.9391
  70   2.0000      -6.023275      -163.9016
  71   2.0000      -6.021684      -163.8583
  72   2.0000      -6.021022      -163.8403
  73   2.0000      -6.019058      -163.7869
  74   2.0000      -6.018800      -163.7799
  75   2.0000      -6.015435      -163.6883
  76   2.0000      -5.959282      -162.1603
  77   2.0000      -5.954972      -162.0430
  78   2.0000      -5.948548      -161.8682
  79   2.0000      -1.209177       -32.9034
  80   2.0000      -1.205467       -32.8024
  81   2.0000      -1.171548       -31.8795
  82   2.0000      -1.168228       -31.7891
  83   2.0000      -1.109308       -30.1858
  84   2.0000      -1.035828       -28.1863
  85   2.0000      -1.024531       -27.8789
  86   2.0000      -1.010304       -27.4918
  87   2.0000      -0.999622       -27.2011
  88   2.0000      -0.998687       -27.1756
  89   2.0000      -0.989749       -26.9324
  90   2.0000      -0.989319       -26.9207
  91   2.0000      -0.987683       -26.8762
  92   2.0000      -0.985101       -26.8059
  93   2.0000      -0.938028       -25.5250
  94   2.0000      -0.932846       -25.3840
  95   2.0000      -0.925948       -25.1963
  96   2.0000      -0.916176       -24.9304
  97   2.0000      -0.907717       -24.7002
  98   2.0000      -0.897003       -24.4087
  99   2.0000      -0.885039       -24.0831
 100   2.0000      -0.881492       -23.9866
 101   2.0000      -0.870913       -23.6987
 102   2.0000      -0.860042       -23.4029
 103   2.0000      -0.849374       -23.1127
 104   2.0000      -0.839767       -22.8512
 105   2.0000      -0.829431       -22.5700
 106   2.0000      -0.825583       -22.4653
 107   2.0000      -0.825085       -22.4517
 108   2.0000      -0.819508       -22.2999
 109   2.0000      -0.814469       -22.1628
 110   2.0000      -0.795880       -21.6570
 111   2.0000      -0.766861       -20.8673
 112   2.0000      -0.764804       -20.8114
 113   2.0000      -0.752042       -20.4641
 114   2.0000      -0.741385       -20.1741
 115   2.0000      -0.724175       -19.7058
 116   2.0000      -0.719413       -19.5762
 117   2.0000      -0.717996       -19.5377
 118   2.0000      -0.713224       -19.4078
 119   2.0000      -0.706921       -19.2363
 120   2.0000      -0.704090       -19.1593
 121   2.0000      -0.693803       -18.8793
 122   2.0000      -0.689726       -18.7684
 123   2.0000      -0.688586       -18.7374
 124   2.0000      -0.684967       -18.6389
 125   2.0000      -0.676314       -18.4034
 126   2.0000      -0.662852       -18.0371
 127   2.0000      -0.653119       -17.7723
 128   2.0000      -0.649734       -17.6802
 129   2.0000      -0.636909       -17.3312
 130   2.0000      -0.625883       -17.0311
 131   2.0000      -0.616674       -16.7805
 132   2.0000      -0.605978       -16.4895
 133   2.0000      -0.602114       -16.3844
 134   2.0000      -0.600933       -16.3522
 135   2.0000      -0.590769       -16.0756
 136   2.0000      -0.574165       -15.6238
 137   2.0000      -0.572212       -15.5707
 138   2.0000      -0.570489       -15.5238
 139   2.0000      -0.568444       -15.4681
 140   2.0000      -0.563586       -15.3360
 141   2.0000      -0.561782       -15.2869
 142   2.0000      -0.553042       -15.0490
 143   2.0000      -0.552396       -15.0314
 144   2.0000      -0.547425       -14.8962
 145   2.0000      -0.542062       -14.7503
 146   2.0000      -0.540735       -14.7141
 147   2.0000      -0.539338       -14.6761
 148   2.0000      -0.535902       -14.5826
 149   2.0000      -0.527698       -14.3594
 150   2.0000      -0.526897       -14.3376
 151   2.0000      -0.524663       -14.2768
 152   2.0000      -0.518283       -14.1032
 153   2.0000      -0.514976       -14.0132
 154   2.0000      -0.513642       -13.9769
 155   2.0000      -0.507714       -13.8156
 156   2.0000      -0.506193       -13.7742
 157   2.0000      -0.504391       -13.7252
 158   2.0000      -0.502479       -13.6732
 159   2.0000      -0.495653       -13.4874
 160   2.0000      -0.492324       -13.3968
 161   2.0000      -0.490788       -13.3550
 162   2.0000      -0.488161       -13.2835
 163   2.0000      -0.484297       -13.1784
 164   2.0000      -0.482792       -13.1374
 165   2.0000      -0.480748       -13.0818
 166   2.0000      -0.479659       -13.0522
 167   2.0000      -0.472380       -12.8541
 168   2.0000      -0.470140       -12.7932
 169   2.0000      -0.467764       -12.7285
 170   2.0000      -0.466373       -12.6907
 171   2.0000      -0.463559       -12.6141
 172   2.0000      -0.462087       -12.5740
 173   2.0000      -0.452507       -12.3133
 174   2.0000      -0.451544       -12.2871
 175   2.0000      -0.447823       -12.1859
 176   2.0000      -0.446679       -12.1548
 177   2.0000      -0.445332       -12.1181
 178   2.0000      -0.443841       -12.0775
 179   2.0000      -0.438640       -11.9360
 180   2.0000      -0.435950       -11.8628
 181   2.0000      -0.435725       -11.8567
 182   2.0000      -0.433682       -11.8011
 183   2.0000      -0.432795       -11.7770
 184   2.0000      -0.432118       -11.7585
 185   2.0000      -0.428530       -11.6609
 186   2.0000      -0.424040       -11.5387
 187   2.0000      -0.421528       -11.4704
 188   2.0000      -0.420412       -11.4400
 189   2.0000      -0.416438       -11.3318
 190   2.0000      -0.415424       -11.3043
 191   2.0000      -0.414856       -11.2888
 192   2.0000      -0.412312       -11.2196
 193   2.0000      -0.408213       -11.1080
 194   2.0000      -0.403363       -10.9761
 195   2.0000      -0.402310       -10.9474
 196   2.0000      -0.393440       -10.7060
 197   2.0000      -0.383571       -10.4375
 198   2.0000      -0.372158       -10.1269
 199   2.0000      -0.360978        -9.8227
 200   2.0000      -0.349237        -9.5032
 201   2.0000      -0.346522        -9.4293
 202   2.0000      -0.337506        -9.1840
 203   2.0000      -0.336981        -9.1697
 204   2.0000      -0.317783        -8.6473
 205   2.0000      -0.315132        -8.5752
 206   2.0000      -0.311481        -8.4758
 207   2.0000      -0.296725        -8.0743
 208   2.0000      -0.295668        -8.0455
 209   2.0000      -0.289656        -7.8819
 210   2.0000      -0.282229        -7.6798
 211   2.0000      -0.255679        -6.9574
 212   2.0000      -0.241475        -6.5709
 213   0.0000      -0.073202        -1.9919
 214   0.0000      -0.065366        -1.7787
 215   0.0000      -0.039807        -1.0832
 216   0.0000      -0.022374        -0.6088
 217   0.0000      -0.003239        -0.0881

MULLIKEN ATOMIC CHARGES
-----------------------
   0 C :   -0.074739
   1 S :    0.138496
   2 C :   -0.081704
   3 C :    0.002973
   4 C :   -0.051222
   5 C :   -0.196584
   6 N :    0.188412
   7 C :   -0.259619
   8 N :    0.198112
   9 C :    0.006596
  10 C :   -0.055774
  11 C :    0.172836
  12 C :    0.171134
  13 O :   -0.248438
  14 C :    0.220928
  15 C :    0.222132
  16 C :   -0.171807
  17 S :    0.114636
  18 C :   -0.172806
  19 O :   -0.259582
  20 C :   -0.034252
  21 C :    0.068615
  22 C :   -0.113874
  23 S :    0.165114
  24 C :   -0.228941
  25 C :   -0.043855
  26 C :    0.042650
  27 C :   -0.191596
  28 S :   -0.074513
  29 C :    0.101458
  30 C :    0.054187
  31 C :    0.223250
  32 O :   -0.293833
  33 C :    0.116818
  34 C :    0.205006
  35 O :   -0.265127
  36 C :    0.232279
  37 C :    0.214911
  38 C :   -0.169709
  39 S :    0.113213
  40 C :   -0.177460
  41 O :   -0.232965
  42 C :   -0.075552
  43 C :    0.038395
  44 C :   -0.077436
  45 S :    0.177650
  46 C :   -0.117179
  47 C :    0.000962
  48 C :   -0.033828
  49 C :   -0.228722
  50 N :    0.180950
  51 C :   -0.272291
  52 N :    0.194418
  53 C :    0.032511
  54 C :   -0.010032
  55 H :    0.040733
  56 H :    0.028976
  57 H :   -0.007493
  58 H :    0.032374
  59 H :    0.025917
  60 H :   -0.012078
  61 H :    0.003801
  62 H :    0.043610
  63 H :    0.087503
  64 H :    0.004526
  65 H :    0.017648
  66 H :   -0.014236
  67 H :    0.009941
  68 H :    0.008187
  69 H :    0.165095
  70 H :    0.028030
  71 H :    0.024773
  72 H :    0.048632
  73 H :   -0.003473
  74 H :   -0.004941
  75 H :    0.048777
  76 H :    0.038499
Sum of atomic charges:   -0.0000000

LOEWDIN ATOMIC CHARGES
----------------------
   0 C :   -0.142565
   1 S :    0.468189
   2 C :   -0.124503
   3 C :   -0.095048
   4 C :   -0.084224
   5 C :   -0.031800
   6 N :   -0.035412
   7 C :   -0.034164
   8 N :   -0.040491
   9 C :   -0.045297
  10 C :   -0.016892
  11 C :    0.016737
  12 C :    0.046420
  13 O :   -0.044233
  14 C :   -0.008647
  15 C :   -0.006729
  16 C :   -0.206456
  17 S :    0.441022
  18 C :   -0.206989
  19 O :   -0.054485
  20 C :   -0.034296
  21 C :   -0.024196
  22 C :   -0.161400
  23 S :    0.458122
  24 C :   -0.200566
  25 C :   -0.065013
  26 C :   -0.070476
  27 C :   -0.121008
  28 S :    0.154556
  29 C :   -0.038606
  30 C :   -0.039202
  31 C :    0.061011
  32 O :   -0.117081
  33 C :    0.025513
  34 C :    0.015577
  35 O :   -0.061260
  36 C :   -0.002162
  37 C :   -0.008988
  38 C :   -0.206057
  39 S :    0.439824
  40 C :   -0.209806
  41 O :   -0.044647
  42 C :    0.006628
  43 C :   -0.067460
  44 C :   -0.121253
  45 S :    0.484598
  46 C :   -0.139249
  47 C :   -0.083910
  48 C :   -0.107120
  49 C :    0.003255
  50 N :   -0.053695
  51 C :   -0.030040
  52 N :   -0.038515
  53 C :   -0.053365
  54 C :   -0.003275
  55 H :    0.037496
  56 H :    0.046232
  57 H :    0.025472
  58 H :    0.032128
  59 H :    0.029962
  60 H :    0.025684
  61 H :    0.031747
  62 H :    0.023058
  63 H :   -0.028692
  64 H :    0.027974
  65 H :    0.025415
  66 H :    0.015783
  67 H :    0.028652
  68 H :    0.025775
  69 H :    0.075387
  70 H :    0.030737
  71 H :    0.029180
  72 H :    0.043811
  73 H :    0.033099
  74 H :    0.031882
  75 H :    0.034291
  76 H :    0.034057

  Mayer bond orders larger than 0.100000
B(  0-C ,  1-S ) :   1.1635 B(  0-C ,  4-C ) :   1.5718 B(  0-C , 55-H ) :   0.9743
B(  1-S ,  2-C ) :   1.1305 B(  2-C ,  3-C ) :   1.4744 B(  2-C ,  9-C ) :   1.1597
B(  3-C ,  4-C ) :   1.2921 B(  3-C ,  7-C ) :   1.1542 B(  4-C ,  5-C ) :   1.1220
B(  5-C ,  6-N ) :   3.0432 B(  7-C ,  8-N ) :   3.0045 B(  9-C , 10-C ) :   1.6362
B(  9-C , 56-H ) :   0.9709 B( 10-C , 11-C ) :   1.1930 B( 10-C , 57-H ) :   0.9563
B( 11-C , 12-C ) :   1.4446 B( 11-C , 19-O ) :   1.0641 B( 12-C , 13-O ) :   1.0883
B( 12-C , 20-C ) :   1.1743 B( 13-O , 14-C ) :   1.0388 B( 14-C , 15-C ) :   1.2037
B( 14-C , 18-C ) :   1.5711 B( 15-C , 16-C ) :   1.5757 B( 15-C , 19-O ) :   1.0460
B( 16-C , 17-S ) :   1.1422 B( 16-C , 58-H ) :   0.9719 B( 17-S , 18-C ) :   1.1468
B( 18-C , 59-H ) :   0.9733 B( 20-C , 21-C ) :   1.7023 B( 20-C , 60-H ) :   0.9502
B( 21-C , 22-C ) :   1.0835 B( 21-C , 61-H ) :   0.9517 B( 22-C , 23-S ) :   1.1267
B( 22-C , 24-C ) :   0.1120 B( 22-C , 26-C ) :   1.5242 B( 23-S , 24-C ) :   1.1323
B( 24-C , 25-C ) :   1.5906 B( 24-C , 33-C ) :   1.0033 B( 25-C , 26-C ) :   1.3104
B( 25-C , 31-C ) :   0.9596 B( 26-C , 27-C ) :   0.9504 B( 27-C , 28-S ) :   1.0591
B( 27-C , 29-C ) :   1.0323 B( 27-C , 62-H ) :   0.9008 B( 28-S , 63-H ) :   0.9299
B( 29-C , 30-C ) :   1.0526 B( 29-C , 64-H ) :   0.9225 B( 29-C , 65-H ) :   0.9299
B( 30-C , 31-C ) :   1.0763 B( 30-C , 66-H ) :   0.9294 B( 30-C , 67-H ) :   0.9273
B( 31-C , 32-O ) :   1.0322 B( 31-C , 68-H ) :   0.8732 B( 32-O , 69-H ) :   0.9760
B( 33-C , 34-C ) :   1.5561 B( 33-C , 41-O ) :   1.1004 B( 34-C , 35-O ) :   1.0574
B( 34-C , 42-C ) :   1.1927 B( 35-O , 36-C ) :   1.0521 B( 36-C , 37-C ) :   1.2006
B( 36-C , 40-C ) :   1.5736 B( 37-C , 38-C ) :   1.5767 B( 37-C , 41-O ) :   1.0409
B( 38-C , 39-S ) :   1.1462 B( 38-C , 70-H ) :   0.9706 B( 39-S , 40-C ) :   1.1411
B( 40-C , 71-H ) :   0.9725 B( 42-C , 43-C ) :   1.6476 B( 42-C , 72-H ) :   0.9342
B( 43-C , 44-C ) :   1.1221 B( 43-C , 73-H ) :   0.9566 B( 44-C , 45-S ) :   1.1390
B( 44-C , 48-C ) :   1.4669 B( 45-S , 46-C ) :   1.1236 B( 46-C , 47-C ) :   1.5108
B( 46-C , 53-C ) :   1.1102 B( 47-C , 48-C ) :   1.3103 B( 47-C , 51-C ) :   1.1608
B( 48-C , 49-C ) :   1.1674 B( 49-C , 50-N ) :   2.8837 B( 51-C , 52-N ) :   2.9639
B( 53-C , 54-C ) :   1.9354 B( 53-C , 74-H ) :   0.9437 B( 54-C , 75-H ) :   0.9497
B( 54-C , 76-H ) :   0.9450

-----------------------------------------------------------------------------
         ABSORPTION SPECTRUM VIA TRANSITION ELECTRIC DIPOLE MOMENTS
-----------------------------------------------------------------------------
State   Energy  Wavelength   fosc         T2         TX        TY        TZ
        (cm-1)    (nm)                  (au**2)     (au)      (au)      (au)
-----------------------------------------------------------------------------
   0   20837.8    479.9   1.106917286  17.48796   3.85770  -0.06225  -1.61315
   1   22828.0    438.1   0.311023654   4.48540  -0.79182   1.45893  -1.31528
   2   25132.1    397.9   0.101511455   1.32972   0.24883   0.19779  -1.10846
   3   27478.3    363.9   0.105838023   1.26802  -0.09620  -0.19681  -1.10455
   4   27884.8    358.6   0.023035226   0.27196   0.07527   0.01541   0.51580
   5   29749.6    336.1   0.012393296   0.13715   0.24895  -0.17585  -0.21035
   6   30851.2    324.1   0.025930128   0.27670   0.17050   0.02519   0.49699
   7   31051.2    322.0   0.125749986   1.33323  -1.11293  -0.30549  -0.03601
   8   31580.6    316.7   0.385600254   4.01969  -1.97742  -0.18655   0.27331
   9   32217.7    310.4   0.268407147   2.74268  -0.03548   0.85427  -1.41833
  10   33002.3    303.0   0.522295794   5.21013  -0.47110  -1.47480  -1.67725
  11   33775.2    296.1   0.035592067   0.34692  -0.10969   0.56290  -0.13429
  12   34450.3    290.3   0.016882777   0.16133   0.19258  -0.16254   0.31278
  13   35097.6    284.9   0.005550766   0.05207   0.05225  -0.13787  -0.17415
  14   35747.4    279.7   0.032493893   0.29925  -0.46393   0.27111  -0.10257
  15   36390.7    274.8   0.014214090   0.12859   0.28411  -0.13763  -0.17008
  16   36539.7    273.7   0.005755164   0.05185   0.21496   0.05463  -0.05158
  17   37472.8    266.9   0.201209320   1.76770  -0.02614   0.97323   0.90545
  18   38128.3    262.3   0.031425617   0.27134  -0.06054  -0.49866  -0.13788
  19   38530.7    259.5   0.025171386   0.21507  -0.07041  -0.14843   0.43368
  20   38773.1    257.9   0.009950004   0.08448   0.02941  -0.09553   0.27293
  21   38922.9    256.9   0.060606510   0.51261   0.49007  -0.41121   0.32149
  22   39676.2    252.0   0.006548408   0.05434   0.01240   0.10068  -0.20987
  23   39951.7    250.3   0.011508094   0.09483   0.10361  -0.12931  -0.25956
  24   40031.7    249.8   0.011357135   0.09340  -0.10094   0.25616   0.13264

FINAL SINGLE POINT ENERGY     -4518.196827645218

DIPOLE MOMENT
-------------
                                X             Y             Z
Electronic contribution:    -12.74184     -17.49357       8.84786
Nuclear contribution   :     18.04788      17.65942      -8.13900
                        -----------------------------------------
Total Dipole Moment    :      5.30604       0.16584       0.70886
                        -----------------------------------------
Magnitude (a.u.)       :      5.35575
Magnitude (Debye)      :     13.61324

Rotational constants in cm-1:     0.001618     0.000587     0.000539
Rotational constants in MHz :    48.514962    17.590991    16.165230

                             ****ORCA TERMINATED NORMALLY****
TOTAL RUN TIME: 0 days 0 hours 5 minutes 44 seconds 122 msec
