                         Program Version 4.2.0 -  RELEASE  -
|  1> # ORCA input file
|  2> # SCF done       -175.035009163411          0.000469074084
|  3> ! CAM-B3LYP def2-SVP def2/J RIJCOSX Grid4 TightSCF
|  4> %maxcore 5000
|  5> %tddft
|  6>     Mode sTDDFT
|  7>     Ethresh 5.0
|  8>     maxcore 5000
|  9> end
| 10>
| 11> %pal
| 12>   nprocs 6
| 13>   end
| 14> * xyz 0 1
| 15>    C        5.52019        -3.32611         0.08617
| 16>    S        6.61687        -2.29620        -0.72786
| 17>    C        6.13292        -0.93169         0.25088
| 18>    C        5.17443        -1.31036         1.17344
| 19>    C        4.82793        -2.67790         1.06655
| 20>    C        3.82679        -3.35364         1.95554
| 21>    C        2.96675        -2.33873         2.71354
| 22>    C        1.85803        -1.80398         1.81452
| 23>    F        2.26076        -1.37686         0.61219
| 24>    F        0.93528        -2.75543         1.57661
| 25>    F        1.19796        -0.77794         2.37868
| 26>    C        3.84049        -1.22110         3.28795
| 27>    C        4.54569        -0.41688         2.19599
| 28>    C        6.76511         0.31327        -0.01865
| 29>    C        6.39629         1.53858         0.42589
| 30>    C        7.09165         2.73121         0.12564
| 31>    S        8.55509         2.80572        -0.84072
| 32>    C        8.71684         4.54334        -0.67869
| 33>    C        7.65901         5.02936         0.09613
| 34>    C        6.77111         4.01173         0.53168
| 35>    S        5.50187         4.70693         1.48636
| 36>    C        6.26677         6.27189         1.21541
| 37>    N        7.32751         6.28086         0.50876
| 38>    C        9.78193         5.24344        -1.25599
| 39>    C        9.93231         6.60005        -1.09750
| 40>    C       10.97684         7.36042        -1.61498
| 41>    C       11.09299         8.71875        -1.38505
| 42>    C       12.10661         9.59566        -1.82145
| 43>    C       11.95210        10.88804        -1.39934
| 44>    C       10.80317        11.09253        -0.61357
| 45>    S        9.91784         9.59790        -0.42566
| 46>    C       10.34752        12.25736        -0.01349
| 47>    C       10.91617        13.54369        -0.00931
| 48>    C       10.20342        14.45658         0.71526
| 49>    C        9.02545        13.94381         1.30678
| 50>    S        8.86884        12.24426         0.92036
| 51>    C        8.17221        14.65389         2.12351
| 52>    C        6.95956        14.25714         2.69574
| 53>    S        6.32288        15.25114         4.01166
| 54>    C        4.90361        14.26199         4.23964
| 55>    C        4.92191        13.22810         3.30707
| 56>    C        6.06272        13.22027         2.45929
| 57>    S        5.89931        11.93179         1.31071
| 58>    C        4.37337        11.52360         2.08355
| 59>    N        4.01029        12.24956         3.06645
| 60>    C        3.92335        14.48759         5.22098
| 61>    C        3.96679        15.47999         6.14784
| 62>    C        2.98271        15.68495         7.14338
| 63>    S        1.55867        14.69176         7.23941
| 64>    C        0.97492        15.55736         8.63010
| 65>    C        1.84320        16.57536         8.97969
| 66>    C        2.97484        16.64186         8.14810
| 67>    C        4.06469        17.65915         8.31231
| 68>    C        3.96957        18.39037         9.65459
| 69>    C        4.59445        17.54520        10.75894
| 70>    F        4.19047        16.27016        10.79165
| 71>    F        5.93394        17.50350        10.62863
| 72>    F        4.35542        18.04870        11.98266
| 73>    C        2.51978        18.76901         9.96365
| 74>    C        1.62757        17.53742        10.10591
| 75>    C       -0.27611        15.12307         9.18873
| 76>    C       -0.77578        15.40633        10.39083
| 77>    H        5.44197        -4.35589        -0.20063
| 78>    H        4.35790        -3.97010         2.68683
| 79>    H        3.19410        -4.02101         1.36513
| 80>    H        2.44143        -2.84400         3.53222
| 81>    H        4.58553        -1.68850         3.93480
| 82>    H        3.23392        -0.55072         3.89919
| 83>    H        5.31010         0.21259         2.65773
| 84>    H        3.82624         0.24510         1.70402
| 85>    H        7.62484         0.25755        -0.67615
| 86>    H        5.51588         1.67848         1.03375
| 87>    H        5.83089         7.15276         1.64328
| 88>    H       10.50260         4.67555        -1.82860
| 89>    H        9.18359         7.11725        -0.51125
| 90>    H       11.74276         6.88182        -2.21121
| 91>    H       12.92408         9.25136        -2.43064
| 92>    H       12.63184        11.68748        -1.63501
| 93>    H       11.83014        13.76546        -0.53065
| 94>    H       10.48521        15.48767         0.83762
| 95>    H        8.50205        15.64952         2.39392
| 96>    H        3.80017        10.69602         1.71381
| 97>    H        3.09747        13.78816         5.21220
| 98>    H        4.80747        16.16161         6.14063
| 99>    H        3.99001        18.39741         7.50784
|100>    H        5.04230        17.17796         8.22416
|101>    H        4.58201        19.29867         9.61889
|102>    H        2.15934        19.38845         9.14012
|103>    H        2.47590        19.36163        10.87898
|104>    H        0.58123        17.85034        10.12481
|105>    H        1.83886        17.03590        11.05482
|106>    H       -0.83716        14.46669         8.53430
|107>    H       -0.26067        16.00377        11.11896
|108>    H       -1.72974        15.00873        10.69105
|109> *
|110>
|111>                          ****END OF INPUT****

CARTESIAN COORDINATES (ANGSTROEM)
---------------------------------
  C      5.520190   -3.326110    0.086170
  S      6.616870   -2.296200   -0.727860
  C      6.132920   -0.931690    0.250880
  C      5.174430   -1.310360    1.173440
  C      4.827930   -2.677900    1.066550
  C      3.826790   -3.353640    1.955540
  C      2.966750   -2.338730    2.713540
  C      1.858030   -1.803980    1.814520
  F      2.260760   -1.376860    0.612190
  F      0.935280   -2.755430    1.576610
  F      1.197960   -0.777940    2.378680
  C      3.840490   -1.221100    3.287950
  C      4.545690   -0.416880    2.195990
  C      6.765110    0.313270   -0.018650
  C      6.396290    1.538580    0.425890
  C      7.091650    2.731210    0.125640
  S      8.555090    2.805720   -0.840720
  C      8.716840    4.543340   -0.678690
  C      7.659010    5.029360    0.096130
  C      6.771110    4.011730    0.531680
  S      5.501870    4.706930    1.486360
  C      6.266770    6.271890    1.215410
  N      7.327510    6.280860    0.508760
  C      9.781930    5.243440   -1.255990
  C      9.932310    6.600050   -1.097500
  C     10.976840    7.360420   -1.614980
  C     11.092990    8.718750   -1.385050
  C     12.106610    9.595660   -1.821450
  C     11.952100   10.888040   -1.399340
  C     10.803170   11.092530   -0.613570
  S      9.917840    9.597900   -0.425660
  C     10.347520   12.257360   -0.013490
  C     10.916170   13.543690   -0.009310
  C     10.203420   14.456580    0.715260
  C      9.025450   13.943810    1.306780
  S      8.868840   12.244260    0.920360
  C      8.172210   14.653890    2.123510
  C      6.959560   14.257140    2.695740
  S      6.322880   15.251140    4.011660
  C      4.903610   14.261990    4.239640
  C      4.921910   13.228100    3.307070
  C      6.062720   13.220270    2.459290
  S      5.899310   11.931790    1.310710
  C      4.373370   11.523600    2.083550
  N      4.010290   12.249560    3.066450
  C      3.923350   14.487590    5.220980
  C      3.966790   15.479990    6.147840
  C      2.982710   15.684950    7.143380
  S      1.558670   14.691760    7.239410
  C      0.974920   15.557360    8.630100
  C      1.843200   16.575360    8.979690
  C      2.974840   16.641860    8.148100
  C      4.064690   17.659150    8.312310
  C      3.969570   18.390370    9.654590
  C      4.594450   17.545200   10.758940
  F      4.190470   16.270160   10.791650
  F      5.933940   17.503500   10.628630
  F      4.355420   18.048700   11.982660
  C      2.519780   18.769010    9.963650
  C      1.627570   17.537420   10.105910
  C     -0.276110   15.123070    9.188730
  C     -0.775780   15.406330   10.390830
  H      5.441970   -4.355890   -0.200630
  H      4.357900   -3.970100    2.686830
  H      3.194100   -4.021010    1.365130
  H      2.441430   -2.844000    3.532220
  H      4.585530   -1.688500    3.934800
  H      3.233920   -0.550720    3.899190
  H      5.310100    0.212590    2.657730
  H      3.826240    0.245100    1.704020
  H      7.624840    0.257550   -0.676150
  H      5.515880    1.678480    1.033750
  H      5.830890    7.152760    1.643280
  H     10.502600    4.675550   -1.828600
  H      9.183590    7.117250   -0.511250
  H     11.742760    6.881820   -2.211210
  H     12.924080    9.251360   -2.430640
  H     12.631840   11.687480   -1.635010
  H     11.830140   13.765460   -0.530650
  H     10.485210   15.487670    0.837620
  H      8.502050   15.649520    2.393920
  H      3.800170   10.696020    1.713810
  H      3.097470   13.788160    5.212200
  H      4.807470   16.161610    6.140630
  H      3.990010   18.397410    7.507840
  H      5.042300   17.177960    8.224160
  H      4.582010   19.298670    9.618890
  H      2.159340   19.388450    9.140120
  H      2.475900   19.361630   10.878980
  H      0.581230   17.850340   10.124810
  H      1.838860   17.035900   11.054820
  H     -0.837160   14.466690    8.534300
  H     -0.260670   16.003770   11.118960
  H     -1.729740   15.008730   10.691050

 Total Charge           Charge          ....    0
 Multiplicity           Mult            ....    1
 Number of Electrons    NEL             ....  504
 Basis Dimension        Dim             .... 1060

ORBITAL ENERGIES
----------------

  NO   OCC          E(Eh)            E(eV)
   0   2.0000     -88.956053     -2420.6173
   1   2.0000     -88.954167     -2420.5660
   2   2.0000     -88.953369     -2420.5442
   3   2.0000     -88.953074     -2420.5362
   4   2.0000     -88.942937     -2420.2604
   5   2.0000     -88.940208     -2420.1861
   6   2.0000     -88.939795     -2420.1749
   7   2.0000     -88.936052     -2420.0730
   8   2.0000     -24.793864      -674.6753
   9   2.0000     -24.793616      -674.6686
  10   2.0000     -24.791391      -674.6080
  11   2.0000     -24.791093      -674.5999
  12   2.0000     -24.787836      -674.5113
  13   2.0000     -24.787747      -674.5089
  14   2.0000     -14.412682      -392.1890
  15   2.0000     -14.408156      -392.0659
  16   2.0000     -10.502492      -285.7873
  17   2.0000     -10.502316      -285.7826
  18   2.0000     -10.334321      -281.2112
  19   2.0000     -10.329356      -281.0761
  20   2.0000     -10.308283      -280.5026
  21   2.0000     -10.303662      -280.3769
  22   2.0000     -10.303537      -280.3735
  23   2.0000     -10.303038      -280.3599
  24   2.0000     -10.301800      -280.3262
  25   2.0000     -10.301692      -280.3233
  26   2.0000     -10.300442      -280.2893
  27   2.0000     -10.299843      -280.2730
  28   2.0000     -10.299225      -280.2562
  29   2.0000     -10.298787      -280.2442
  30   2.0000     -10.298602      -280.2392
  31   2.0000     -10.297234      -280.2020
  32   2.0000     -10.295129      -280.1447
  33   2.0000     -10.295080      -280.1434
  34   2.0000     -10.288932      -279.9761
  35   2.0000     -10.287936      -279.9490
  36   2.0000     -10.287477      -279.9365
  37   2.0000     -10.283503      -279.8284
  38   2.0000     -10.281540      -279.7749
  39   2.0000     -10.281525      -279.7745
  40   2.0000     -10.281405      -279.7713
  41   2.0000     -10.280810      -279.7551
  42   2.0000     -10.280410      -279.7442
  43   2.0000     -10.279214      -279.7116
  44   2.0000     -10.278531      -279.6930
  45   2.0000     -10.278100      -279.6813
  46   2.0000     -10.277914      -279.6763
  47   2.0000     -10.276999      -279.6514
  48   2.0000     -10.276279      -279.6318
  49   2.0000     -10.275039      -279.5980
  50   2.0000     -10.274784      -279.5911
  51   2.0000     -10.274353      -279.5794
  52   2.0000     -10.274289      -279.5776
  53   2.0000     -10.271717      -279.5076
  54   2.0000     -10.270664      -279.4790
  55   2.0000     -10.270591      -279.4770
  56   2.0000     -10.269401      -279.4446
  57   2.0000     -10.269182      -279.4386
  58   2.0000     -10.268777      -279.4276
  59   2.0000     -10.268222      -279.4125
  60   2.0000     -10.263915      -279.2953
  61   2.0000     -10.259664      -279.1796
  62   2.0000      -8.052204      -219.1116
  63   2.0000      -8.049050      -219.0258
  64   2.0000      -8.048682      -219.0158
  65   2.0000      -8.048455      -219.0096
  66   2.0000      -8.039053      -218.7538
  67   2.0000      -8.036566      -218.6861
  68   2.0000      -8.035633      -218.6607
  69   2.0000      -8.032262      -218.5690
  70   2.0000      -6.021662      -163.8578
  71   2.0000      -6.018407      -163.7692
  72   2.0000      -6.018253      -163.7650
  73   2.0000      -6.017808      -163.7529
  74   2.0000      -6.017703      -163.7500
  75   2.0000      -6.014491      -163.6626
  76   2.0000      -6.014003      -163.6494
  77   2.0000      -6.013933      -163.6474
  78   2.0000      -6.013633      -163.6393
  79   2.0000      -6.010938      -163.5659
  80   2.0000      -6.010270      -163.5478
  81   2.0000      -6.010136      -163.5441
  82   2.0000      -6.008244      -163.4926
  83   2.0000      -6.006248      -163.4383
  84   2.0000      -6.004704      -163.3963
  85   2.0000      -6.004125      -163.3805
  86   2.0000      -6.002200      -163.3282
  87   2.0000      -6.001972      -163.3220
  88   2.0000      -6.001325      -163.3043
  89   2.0000      -6.000943      -163.2940
  90   2.0000      -5.997907      -163.2113
  91   2.0000      -5.997762      -163.2074
  92   2.0000      -5.997492      -163.2000
  93   2.0000      -5.993246      -163.0845
  94   2.0000      -1.381282       -37.5866
  95   2.0000      -1.381008       -37.5791
  96   2.0000      -1.284780       -34.9607
  97   2.0000      -1.284480       -34.9525
  98   2.0000      -1.280479       -34.8436
  99   2.0000      -1.280229       -34.8368
 100   2.0000      -1.064819       -28.9752
 101   2.0000      -1.062252       -28.9054
 102   2.0000      -0.990168       -26.9438
 103   2.0000      -0.981972       -26.7208
 104   2.0000      -0.980500       -26.6808
 105   2.0000      -0.972732       -26.4694
 106   2.0000      -0.970355       -26.4047
 107   2.0000      -0.964031       -26.2326
 108   2.0000      -0.931270       -25.3411
 109   2.0000      -0.930814       -25.3287
 110   2.0000      -0.913227       -24.8502
 111   2.0000      -0.909542       -24.7499
 112   2.0000      -0.890752       -24.2386
 113   2.0000      -0.887323       -24.1453
 114   2.0000      -0.885157       -24.0864
 115   2.0000      -0.874193       -23.7880
 116   2.0000      -0.860471       -23.4146
 117   2.0000      -0.856825       -23.3154
 118   2.0000      -0.850086       -23.1320
 119   2.0000      -0.845540       -23.0083
 120   2.0000      -0.839994       -22.8574
 121   2.0000      -0.833010       -22.6674
 122   2.0000      -0.830068       -22.5873
 123   2.0000      -0.822938       -22.3933
 124   2.0000      -0.816074       -22.2065
 125   2.0000      -0.812858       -22.1190
 126   2.0000      -0.808714       -22.0062
 127   2.0000      -0.801098       -21.7990
 128   2.0000      -0.786061       -21.3898
 129   2.0000      -0.775424       -21.1003
 130   2.0000      -0.771069       -20.9819
 131   2.0000      -0.761424       -20.7194
 132   2.0000      -0.747049       -20.3282
 133   2.0000      -0.732762       -19.9395
 134   2.0000      -0.722026       -19.6473
 135   2.0000      -0.721070       -19.6213
 136   2.0000      -0.711427       -19.3589
 137   2.0000      -0.703820       -19.1519
 138   2.0000      -0.702735       -19.1224
 139   2.0000      -0.697290       -18.9742
 140   2.0000      -0.691632       -18.8203
 141   2.0000      -0.685318       -18.6484
 142   2.0000      -0.680111       -18.5068
 143   2.0000      -0.666639       -18.1402
 144   2.0000      -0.666160       -18.1271
 145   2.0000      -0.663106       -18.0440
 146   2.0000      -0.662750       -18.0343
 147   2.0000      -0.662070       -18.0158
 148   2.0000      -0.658469       -17.9178
 149   2.0000      -0.649710       -17.6795
 150   2.0000      -0.642548       -17.4846
 151   2.0000      -0.633766       -17.2456
 152   2.0000      -0.631989       -17.1973
 153   2.0000      -0.623106       -16.9556
 154   2.0000      -0.618849       -16.8398
 155   2.0000      -0.613560       -16.6958
 156   2.0000      -0.611350       -16.6357
 157   2.0000      -0.604432       -16.4474
 158   2.0000      -0.598875       -16.2962
 159   2.0000      -0.595306       -16.1991
 160   2.0000      -0.593756       -16.1569
 161   2.0000      -0.576610       -15.6903
 162   2.0000      -0.574307       -15.6277
 163   2.0000      -0.568853       -15.4793
 164   2.0000      -0.563655       -15.3378
 165   2.0000      -0.555693       -15.1212
 166   2.0000      -0.548822       -14.9342
 167   2.0000      -0.545766       -14.8510
 168   2.0000      -0.543421       -14.7873
 169   2.0000      -0.542853       -14.7718
 170   2.0000      -0.542482       -14.7617
 171   2.0000      -0.541046       -14.7226
 172   2.0000      -0.540406       -14.7052
 173   2.0000      -0.538787       -14.6611
 174   2.0000      -0.538056       -14.6412
 175   2.0000      -0.531655       -14.4671
 176   2.0000      -0.526024       -14.3138
 177   2.0000      -0.524797       -14.2805
 178   2.0000      -0.524328       -14.2677
 179   2.0000      -0.523196       -14.2369
 180   2.0000      -0.520942       -14.1756
 181   2.0000      -0.519287       -14.1305
 182   2.0000      -0.517900       -14.0928
 183   2.0000      -0.517061       -14.0700
 184   2.0000      -0.510663       -13.8958
 185   2.0000      -0.508721       -13.8430
 186   2.0000      -0.501346       -13.6423
 187   2.0000      -0.499816       -13.6007
 188   2.0000      -0.496215       -13.5027
 189   2.0000      -0.495786       -13.4910
 190   2.0000      -0.494434       -13.4542
 191   2.0000      -0.491081       -13.3630
 192   2.0000      -0.490097       -13.3362
 193   2.0000      -0.488569       -13.2946
 194   2.0000      -0.487282       -13.2596
 195   2.0000      -0.483315       -13.1517
 196   2.0000      -0.481682       -13.1072
 197   2.0000      -0.480450       -13.0737
 198   2.0000      -0.479232       -13.0406
 199   2.0000      -0.475723       -12.9451
 200   2.0000      -0.475360       -12.9352
 201   2.0000      -0.473218       -12.8769
 202   2.0000      -0.471558       -12.8317
 203   2.0000      -0.468345       -12.7443
 204   2.0000      -0.463581       -12.6147
 205   2.0000      -0.462828       -12.5942
 206   2.0000      -0.459077       -12.4921
 207   2.0000      -0.455859       -12.4045
 208   2.0000      -0.451038       -12.2734
 209   2.0000      -0.447764       -12.1843
 210   2.0000      -0.446632       -12.1535
 211   2.0000      -0.445161       -12.1134
 212   2.0000      -0.440748       -11.9934
 213   2.0000      -0.435851       -11.8601
 214   2.0000      -0.433634       -11.7998
 215   2.0000      -0.432547       -11.7702
 216   2.0000      -0.431582       -11.7440
 217   2.0000      -0.427599       -11.6356
 218   2.0000      -0.424696       -11.5566
 219   2.0000      -0.420641       -11.4462
 220   2.0000      -0.418169       -11.3789
 221   2.0000      -0.416982       -11.3466
 222   2.0000      -0.415576       -11.3084
 223   2.0000      -0.409799       -11.1512
 224   2.0000      -0.408328       -11.1112
 225   2.0000      -0.407964       -11.1013
 226   2.0000      -0.406439       -11.0598
 227   2.0000      -0.402979       -10.9656
 228   2.0000      -0.399035       -10.8583
 229   2.0000      -0.397672       -10.8212
 230   2.0000      -0.393584       -10.7100
 231   2.0000      -0.391675       -10.6580
 232   2.0000      -0.389502       -10.5989
 233   2.0000      -0.385056       -10.4779
 234   2.0000      -0.372979       -10.1493
 235   2.0000      -0.362052        -9.8519
 236   2.0000      -0.352091        -9.5809
 237   2.0000      -0.345544        -9.4027
 238   2.0000      -0.344860        -9.3841
 239   2.0000      -0.338874        -9.2212
 240   2.0000      -0.329084        -8.9548
 241   2.0000      -0.322556        -8.7772
 242   2.0000      -0.312656        -8.5078
 243   2.0000      -0.307087        -8.3563
 244   2.0000      -0.306077        -8.3288
 245   2.0000      -0.300403        -8.1744
 246   2.0000      -0.300225        -8.1695
 247   2.0000      -0.295362        -8.0372
 248   2.0000      -0.276504        -7.5241
 249   2.0000      -0.248245        -6.7551
 250   2.0000      -0.224886        -6.1195
 251   2.0000      -0.187588        -5.1045
 252   0.0000      -0.087579        -2.3831
 253   0.0000      -0.049565        -1.3487
 254   0.0000      -0.025234        -0.6867
 255   0.0000      -0.002034        -0.0553
 256   0.0000       0.011359         0.3091

MULLIKEN ATOMIC CHARGES
-----------------------
   0 C :   -0.130468
   1 S :    0.111625
   2 C :   -0.150725
   3 C :   -0.030953
   4 C :   -0.071552
   5 C :    0.157838
   6 C :   -0.172042
   7 C :    0.478119
   8 F :   -0.156420
   9 F :   -0.172377
  10 F :   -0.168585
  11 C :    0.063066
  12 C :    0.076713
  13 C :    0.031096
  14 C :   -0.007346
  15 C :   -0.162688
  16 S :    0.124947
  17 C :   -0.129265
  18 C :    0.078377
  19 C :   -0.013094
  20 S :    0.080674
  21 C :    0.017817
  22 N :   -0.041343
  23 C :    0.002716
  24 C :   -0.001307
  25 C :    0.003438
  26 C :   -0.026049
  27 C :    0.034069
  28 C :    0.020782
  29 C :   -0.038520
  30 S :    0.073491
  31 C :   -0.043429
  32 C :    0.028282
  33 C :    0.026745
  34 C :   -0.030911
  35 S :    0.073779
  36 C :    0.019212
  37 C :   -0.199741
  38 S :    0.109947
  39 C :   -0.114130
  40 C :    0.055609
  41 C :   -0.001684
  42 S :    0.106179
  43 C :    0.014383
  44 N :   -0.049167
  45 C :   -0.013504
  46 C :   -0.021146
  47 C :   -0.090204
  48 S :    0.105585
  49 C :   -0.142805
  50 C :   -0.039801
  51 C :   -0.082797
  52 C :    0.137275
  53 C :   -0.159549
  54 C :    0.476836
  55 F :   -0.156602
  56 F :   -0.171882
  57 F :   -0.168469
  58 C :    0.059817
  59 C :    0.074380
  60 C :    0.026945
  61 C :   -0.030190
  62 H :    0.008185
  63 H :    0.024475
  64 H :    0.023894
  65 H :    0.029601
  66 H :    0.014294
  67 H :    0.017679
  68 H :    0.022334
  69 H :    0.041679
  70 H :   -0.014397
  71 H :   -0.023040
  72 H :    0.039870
  73 H :   -0.030420
  74 H :    0.024280
  75 H :   -0.020938
  76 H :   -0.015360
  77 H :   -0.015780
  78 H :   -0.016096
  79 H :   -0.014765
  80 H :   -0.016489
  81 H :    0.037496
  82 H :    0.008055
  83 H :   -0.013067
  84 H :    0.025856
  85 H :    0.033550
  86 H :    0.027674
  87 H :    0.013430
  88 H :    0.016787
  89 H :    0.021476
  90 H :    0.040024
  91 H :   -0.007380
  92 H :    0.014518
  93 H :    0.021575
Sum of atomic charges:   -0.0000000

LOEWDIN ATOMIC CHARGES
----------------------
   0 C :   -0.196076
   1 S :    0.432585
   2 C :   -0.175358
   3 C :   -0.059374
   4 C :   -0.069831
   5 C :   -0.015832
   6 C :   -0.067362
   7 C :    0.162851
   8 F :   -0.051066
   9 F :   -0.070359
  10 F :   -0.066537
  11 C :   -0.019158
  12 C :   -0.033707
  13 C :   -0.046981
  14 C :   -0.050018
  15 C :   -0.192493
  16 S :    0.434079
  17 C :   -0.166305
  18 C :   -0.071206
  19 C :   -0.202722
  20 S :    0.365706
  21 C :   -0.095139
  22 N :   -0.078788
  23 C :   -0.048194
  24 C :   -0.020289
  25 C :   -0.055335
  26 C :   -0.143629
  27 C :   -0.037425
  28 C :   -0.035091
  29 C :   -0.179312
  30 S :    0.385910
  31 C :   -0.181129
  32 C :   -0.037668
  33 C :   -0.036653
  34 C :   -0.153843
  35 S :    0.380190
  36 C :   -0.084933
  37 C :   -0.185643
  38 S :    0.428724
  39 C :   -0.169671
  40 C :   -0.068530
  41 C :   -0.214005
  42 S :    0.383892
  43 C :   -0.104125
  44 N :   -0.087417
  45 C :   -0.040624
  46 C :   -0.044047
  47 C :   -0.175479
  48 S :    0.433981
  49 C :   -0.172532
  50 C :   -0.056979
  51 C :   -0.060236
  52 C :   -0.018728
  53 C :   -0.065437
  54 C :    0.163125
  55 F :   -0.050856
  56 F :   -0.069888
  57 F :   -0.066680
  58 C :   -0.019493
  59 C :   -0.031823
  60 C :   -0.041332
  61 C :   -0.049742
  62 H :    0.019944
  63 H :    0.038625
  64 H :    0.035576
  65 H :    0.043400
  66 H :    0.030115
  67 H :    0.029014
  68 H :    0.034776
  69 H :    0.030208
  70 H :    0.021218
  71 H :    0.030312
  72 H :    0.019272
  73 H :    0.025979
  74 H :    0.023578
  75 H :    0.029941
  76 H :    0.032318
  77 H :    0.030765
  78 H :    0.031308
  79 H :    0.031915
  80 H :    0.033378
  81 H :    0.017951
  82 H :    0.034218
  83 H :    0.023864
  84 H :    0.038842
  85 H :    0.035095
  86 H :    0.043340
  87 H :    0.029830
  88 H :    0.028520
  89 H :    0.035523
  90 H :    0.030303
  91 H :    0.028587
  92 H :    0.020577
  93 H :    0.025744

  Mayer bond orders larger than 0.100000
B(  0-C ,  1-S ) :   1.1565 B(  0-C ,  4-C ) :   1.5649 B(  0-C , 62-H ) :   0.9721
B(  1-S ,  2-C ) :   1.1323 B(  2-C ,  3-C ) :   1.5158 B(  2-C , 13-C ) :   1.1332
B(  3-C ,  4-C ) :   1.3016 B(  3-C , 12-C ) :   1.0589 B(  4-C ,  5-C ) :   1.0131
B(  5-C ,  6-C ) :   1.0449 B(  5-C , 63-H ) :   0.9145 B(  5-C , 64-H ) :   0.9233
B(  6-C ,  7-C ) :   0.9816 B(  6-C , 11-C ) :   1.0384 B(  6-C , 65-H ) :   0.9041
B(  7-C ,  8-F ) :   1.1406 B(  7-C ,  9-F ) :   1.1407 B(  7-C , 10-F ) :   1.1428
B( 11-C , 12-C ) :   1.0797 B( 11-C , 66-H ) :   0.9414 B( 11-C , 67-H ) :   0.9325
B( 12-C , 68-H ) :   0.9084 B( 12-C , 69-H ) :   0.8992 B( 13-C , 14-C ) :   1.6536
B( 13-C , 70-H ) :   0.9512 B( 14-C , 15-C ) :   1.1880 B( 14-C , 71-H ) :   0.9664
B( 15-C , 16-S ) :   1.0956 B( 15-C , 17-C ) :   0.1012 B( 15-C , 19-C ) :   1.4865
B( 16-S , 17-C ) :   1.1053 B( 17-C , 18-C ) :   1.3790 B( 17-C , 23-C ) :   1.1933
B( 18-C , 19-C ) :   1.2626 B( 18-C , 22-N ) :   1.2910 B( 19-C , 20-S ) :   1.0407
B( 20-S , 21-C ) :   1.0818 B( 20-S , 22-N ) :   0.1073 B( 21-C , 22-N ) :   1.7780
B( 21-C , 72-H ) :   0.9634 B( 23-C , 24-C ) :   1.5623 B( 23-C , 73-H ) :   0.9688
B( 24-C , 25-C ) :   1.2003 B( 24-C , 74-H ) :   0.9474 B( 25-C , 26-C ) :   1.4991
B( 25-C , 75-H ) :   0.9861 B( 26-C , 27-C ) :   1.1739 B( 26-C , 30-S ) :   1.0480
B( 27-C , 28-C ) :   1.5490 B( 27-C , 76-H ) :   0.9989 B( 28-C , 29-C ) :   1.2206
B( 28-C , 77-H ) :   0.9947 B( 29-C , 30-S ) :   1.0529 B( 29-C , 31-C ) :   1.4586
B( 31-C , 32-C ) :   1.2149 B( 31-C , 35-S ) :   1.0543 B( 32-C , 33-C ) :   1.5587
B( 32-C , 78-H ) :   0.9930 B( 33-C , 34-C ) :   1.1700 B( 33-C , 79-H ) :   0.9989
B( 34-C , 35-S ) :   1.0365 B( 34-C , 36-C ) :   1.5610 B( 36-C , 37-C ) :   1.2062
B( 36-C , 80-H ) :   0.9449 B( 37-C , 38-S ) :   1.1019 B( 37-C , 41-C ) :   1.4502
B( 38-S , 39-C ) :   1.1003 B( 39-C , 40-C ) :   1.3906 B( 39-C , 45-C ) :   1.2190
B( 40-C , 41-C ) :   1.2546 B( 40-C , 44-N ) :   1.3189 B( 41-C , 42-S ) :   1.0492
B( 42-S , 43-C ) :   1.0847 B( 42-S , 44-N ) :   0.1033 B( 43-C , 44-N ) :   1.7804
B( 43-C , 81-H ) :   0.9628 B( 45-C , 46-C ) :   1.5815 B( 45-C , 82-H ) :   0.9764
B( 46-C , 47-C ) :   1.1766 B( 46-C , 83-H ) :   0.9683 B( 47-C , 48-S ) :   1.1111
B( 47-C , 51-C ) :   1.4828 B( 48-S , 49-C ) :   1.1159 B( 49-C , 50-C ) :   1.5330
B( 49-C , 60-C ) :   1.1005 B( 50-C , 51-C ) :   1.3103 B( 50-C , 59-C ) :   1.0511
B( 51-C , 52-C ) :   1.0444 B( 52-C , 53-C ) :   1.0373 B( 52-C , 84-H ) :   0.9060
B( 52-C , 85-H ) :   0.9106 B( 53-C , 54-C ) :   0.9839 B( 53-C , 58-C ) :   1.0422
B( 53-C , 86-H ) :   0.9008 B( 54-C , 55-F ) :   1.1398 B( 54-C , 56-F ) :   1.1381
B( 54-C , 57-F ) :   1.1422 B( 58-C , 59-C ) :   1.0827 B( 58-C , 87-H ) :   0.9411
B( 58-C , 88-H ) :   0.9328 B( 59-C , 89-H ) :   0.9107 B( 59-C , 90-H ) :   0.9029
B( 60-C , 61-C ) :   1.9300 B( 60-C , 91-H ) :   0.9465 B( 61-C , 92-H ) :   0.9572
B( 61-C , 93-H ) :   0.9449

-----------------------------------------------------------------------------
         ABSORPTION SPECTRUM VIA TRANSITION ELECTRIC DIPOLE MOMENTS
-----------------------------------------------------------------------------
State   Energy  Wavelength   fosc         T2         TX        TY        TZ
        (cm-1)    (nm)                  (au**2)     (au)      (au)      (au)
-----------------------------------------------------------------------------
   0    9399.8   1063.9   1.215329497  42.56479   1.46430  -5.83868  -2.51602
   1   16153.9    619.0   0.006154868   0.12543   0.06136  -0.26315  -0.22896
   2   18706.7    534.6   1.870724485  32.92222   4.32563   2.09291  -3.13542
   3   21329.2    468.8   0.033689322   0.51999  -0.55287  -0.38166   0.26203
   4   24160.5    413.9   0.110584164   1.50683   0.45468   1.05657   0.42866
   5   26288.9    380.4   0.143145362   1.79259   0.21474  -1.06580  -0.78137
   6   26542.5    376.8   0.061767667   0.76612   0.15285   0.86154  -0.02238
   7   28170.8    355.0   0.058924298   0.68861   0.31001  -0.76376  -0.09575
   8   29952.9    333.9   0.015203774   0.16710  -0.24457  -0.27577  -0.17674
   9   30137.1    331.8   0.045318171   0.49505  -0.37383   0.00836   0.59601
  10   30761.4    325.1   0.054012698   0.57805  -0.30550  -0.19319   0.66888
  11   31128.6    321.2   0.012604056   0.13330   0.01144   0.36487  -0.00637
  12   31647.3    316.0   0.133856514   1.39245  -0.57644   0.70424   0.75114
  13   31811.9    314.3   0.017069282   0.17664  -0.26141  -0.26425  -0.19617
  14   32004.8    312.5   0.043527093   0.44773  -0.03115   0.55050   0.37909
  15   33482.7    298.7   0.014556609   0.14313  -0.21812  -0.23496  -0.20086
  16   33882.3    295.1   0.064965051   0.63122   0.22840  -0.69561  -0.30851
  17   34500.0    289.9   0.023189106   0.22128  -0.31937  -0.27395  -0.21032
  18   34655.0    288.6   0.000754669   0.00717  -0.01377  -0.08270   0.01183
  19   34899.1    286.5   0.106831687   1.00777   0.35539  -0.80569  -0.48201
  20   35477.0    281.9   0.345622065   3.20723  -0.42515   1.56835   0.75283
  21   35931.9    278.3   0.016610803   0.15219   0.14152  -0.23054  -0.28110
  22   36259.8    275.8   0.135312937   1.22854  -0.10466  -1.07579  -0.24547
  23   36491.1    274.0   0.043137533   0.38917   0.24047  -0.40167  -0.41233
  24   36709.4    272.4   0.004824434   0.04327  -0.03582   0.15755   0.13100
  25   37847.4    264.2   0.000150983   0.00131  -0.00350   0.01128   0.03426
  26   37997.6    263.2   0.009999869   0.08664   0.20628   0.08933  -0.19002
  27   38297.2    261.1   0.047233087   0.40603   0.50514  -0.00328  -0.38839
  28   38817.5    257.6   0.013886143   0.11777  -0.28578   0.01046   0.18970
  29   39259.3    254.7   0.044725777   0.37505  -0.46690  -0.32378   0.22851
  30   39429.0    253.6   0.000909533   0.00759   0.00789  -0.07828   0.03748
  31   39535.8    252.9   0.012202321   0.10161   0.15305   0.24631  -0.13235
  32   40058.4    249.6   0.004742509   0.03898   0.11529  -0.13669  -0.08367

FINAL SINGLE POINT ENERGY     -5662.239742230313

DIPOLE MOMENT
-------------
                                X             Y             Z
Electronic contribution:      1.34327     -14.00554      -8.91943
Nuclear contribution   :     -0.64422      14.38621       8.87841
                        -----------------------------------------
Total Dipole Moment    :      0.69906       0.38067      -0.04101
                        -----------------------------------------
Magnitude (a.u.)       :      0.79704
Magnitude (Debye)      :      2.02592

Rotational constants in cm-1:     0.001002     0.000287     0.000231
Rotational constants in MHz :    30.025744     8.598712     6.927548

                             ****ORCA TERMINATED NORMALLY****
TOTAL RUN TIME: 0 days 0 hours 8 minutes 1 seconds 428 msec
