                         Program Version 4.2.0 -  RELEASE  -
|  1> # ORCA input file
|  2> # SCF done       -164.551653302903          0.000485131342
|  3> ! CAM-B3LYP def2-SVP def2/J RIJCOSX Grid4 TightSCF
|  4> %maxcore 5000
|  5> %tddft
|  6>     Mode sTDDFT
|  7>     Ethresh 5.0
|  8>     maxcore 5000
|  9> end
| 10>
| 11> %pal
| 12>   nprocs 6
| 13>   end
| 14> * xyz 0 1
| 15>    C        0.25043        -0.80807         3.41061
| 16>    S       -0.11107        -2.29909         2.67836
| 17>    C       -1.66578        -1.74696         2.11193
| 18>    C       -1.89083        -0.42875         2.53902
| 19>    C       -0.77478         0.10240         3.27013
| 20>    C       -0.82953         1.42436         3.77089
| 21>    C       -1.93708         2.17997         3.54586
| 22>    S       -2.02117         3.85059         4.15992
| 23>    C       -0.88085         4.64620         2.96658
| 24>    C       -1.42701         4.61465         1.55353
| 25>    C       -3.06375         1.65294         2.84974
| 26>    S       -4.41331         2.75625         2.65819
| 27>    C       -5.55102         1.88027         1.52657
| 28>    C       -5.02875         1.81967         0.10336
| 29>    C       -3.04091         0.36379         2.37899
| 30>    C       -2.42511        -2.64127         1.32263
| 31>    C       -3.50857        -2.35045         0.55720
| 32>    C       -4.22294        -3.31018        -0.19857
| 33>    O       -3.88206        -4.62941        -0.21832
| 34>    C       -5.33141        -3.14070        -1.00650
| 35>    C       -6.28697        -2.16099        -1.50234
| 36>    O       -6.39296        -0.97333        -1.30481
| 37>    N       -7.13780        -2.91220        -2.31235
| 38>    C       -6.83794        -4.27099        -2.38849
| 39>    O       -7.45943        -5.07708        -3.03818
| 40>    C       -5.66374        -4.41768        -1.53357
| 41>    C       -4.74417        -5.31310        -1.02326
| 42>    C       -4.57788        -6.71854        -1.17795
| 43>    C       -5.37404        -7.45024        -1.98655
| 44>    C       -5.30266        -8.86795        -2.20794
| 45>    C       -4.89141        -9.82768        -1.36284
| 46>    C       -4.46538        -9.62007         0.04924
| 47>    C       -4.93605       -11.27374        -1.80164
| 48>    N       -6.18965       -11.87732        -1.40985
| 49>    C       -6.33387       -12.72560        -0.38598
| 50>    C       -7.54822       -13.18304         0.05146
| 51>    C       -7.78171       -14.11656         1.07350
| 52>    C       -6.89195       -14.74748         1.91453
| 53>    C       -7.22955       -15.71208         2.89322
| 54>    C       -6.17153       -16.20081         3.60500
| 55>    C       -4.93434       -15.63945         3.23393
| 56>    S       -5.15572       -14.47848         1.94968
| 57>    C       -3.65917       -15.87025         3.72319
| 58>    C       -3.20202       -16.76265         4.70980
| 59>    C       -1.85347       -16.70417         4.91737
| 60>    C       -1.17576       -15.75469         4.11102
| 61>    S       -2.32435       -14.94804         3.06773
| 62>    C        0.17132       -15.48333         4.14606
| 63>    C        0.87314       -14.51896         3.39821
| 64>    S        2.59377       -14.28069         3.69209
| 65>    C        2.75244       -12.99289         2.55520
| 66>    C        1.54260       -12.74317         1.95665
| 67>    C        0.49897       -13.60823         2.42272
| 68>    O       -0.66084       -13.32799         1.79128
| 69>    C       -0.38892       -12.29147         0.95793
| 70>    N       -1.44364       -11.78190         0.19687
| 71>    O       -1.23038       -10.75873        -0.44450
| 72>    O       -2.51823       -12.36518         0.20864
| 73>    C        0.92459       -11.88781         1.00608
| 74>    H        1.18892        -0.66561         3.90867
| 75>    H        0.00357         1.81958         4.33165
| 76>    H        0.08285         4.14202         3.03859
| 77>    H       -0.78228         5.66797         3.33009
| 78>    H       -1.49788         3.59015         1.19252
| 79>    H       -0.76925         5.17129         0.88853
| 80>    H       -2.41821         5.06065         1.52369
| 81>    H       -6.46700         2.46834         1.57883
| 82>    H       -5.75559         0.89350         1.93975
| 83>    H       -5.01396         2.81401        -0.33642
| 84>    H       -5.66894         1.17453        -0.49468
| 85>    H       -4.01650         1.42066         0.07230
| 86>    H       -3.90730        -0.06150         1.90856
| 87>    H       -2.06851        -3.66408         1.31076
| 88>    H       -3.88818        -1.34877         0.44796
| 89>    H       -7.91659        -2.50229        -2.80743
| 90>    H       -3.74921        -7.15367        -0.64252
| 91>    H       -6.12842        -6.92950        -2.56340
| 92>    H       -5.66951        -9.17868        -3.17996
| 93>    H       -4.91323        -8.72672         0.47742
| 94>    H       -3.37986        -9.52013         0.08539
| 95>    H       -4.73463       -10.48586         0.65223
| 96>    H       -4.12546       -11.82848        -1.32462
| 97>    H       -4.83612       -11.34586        -2.88932
| 98>    H       -7.02378       -11.47737        -1.81856
| 99>    H       -5.40741       -13.06661         0.05076
|100>    H       -8.42993       -12.80567        -0.45243
|101>    H       -8.81890       -14.38866         1.22957
|102>    H       -8.24974       -16.02234         3.04113
|103>    H       -6.25049       -16.93911         4.38301
|104>    H       -3.86798       -17.42344         5.23631
|105>    H       -1.32203       -17.30997         5.63015
|106>    H        0.76685       -16.05493         4.84507
|107>    H        3.69953       -12.51915         2.40958
|108>    H        1.36194       -11.09679         0.43355
|109> *
|110>
|111>                          ****END OF INPUT****

CARTESIAN COORDINATES (ANGSTROEM)
---------------------------------
  C      0.250430   -0.808070    3.410610
  S     -0.111070   -2.299090    2.678360
  C     -1.665780   -1.746960    2.111930
  C     -1.890830   -0.428750    2.539020
  C     -0.774780    0.102400    3.270130
  C     -0.829530    1.424360    3.770890
  C     -1.937080    2.179970    3.545860
  S     -2.021170    3.850590    4.159920
  C     -0.880850    4.646200    2.966580
  C     -1.427010    4.614650    1.553530
  C     -3.063750    1.652940    2.849740
  S     -4.413310    2.756250    2.658190
  C     -5.551020    1.880270    1.526570
  C     -5.028750    1.819670    0.103360
  C     -3.040910    0.363790    2.378990
  C     -2.425110   -2.641270    1.322630
  C     -3.508570   -2.350450    0.557200
  C     -4.222940   -3.310180   -0.198570
  O     -3.882060   -4.629410   -0.218320
  C     -5.331410   -3.140700   -1.006500
  C     -6.286970   -2.160990   -1.502340
  O     -6.392960   -0.973330   -1.304810
  N     -7.137800   -2.912200   -2.312350
  C     -6.837940   -4.270990   -2.388490
  O     -7.459430   -5.077080   -3.038180
  C     -5.663740   -4.417680   -1.533570
  C     -4.744170   -5.313100   -1.023260
  C     -4.577880   -6.718540   -1.177950
  C     -5.374040   -7.450240   -1.986550
  C     -5.302660   -8.867950   -2.207940
  C     -4.891410   -9.827680   -1.362840
  C     -4.465380   -9.620070    0.049240
  C     -4.936050  -11.273740   -1.801640
  N     -6.189650  -11.877320   -1.409850
  C     -6.333870  -12.725600   -0.385980
  C     -7.548220  -13.183040    0.051460
  C     -7.781710  -14.116560    1.073500
  C     -6.891950  -14.747480    1.914530
  C     -7.229550  -15.712080    2.893220
  C     -6.171530  -16.200810    3.605000
  C     -4.934340  -15.639450    3.233930
  S     -5.155720  -14.478480    1.949680
  C     -3.659170  -15.870250    3.723190
  C     -3.202020  -16.762650    4.709800
  C     -1.853470  -16.704170    4.917370
  C     -1.175760  -15.754690    4.111020
  S     -2.324350  -14.948040    3.067730
  C      0.171320  -15.483330    4.146060
  C      0.873140  -14.518960    3.398210
  S      2.593770  -14.280690    3.692090
  C      2.752440  -12.992890    2.555200
  C      1.542600  -12.743170    1.956650
  C      0.498970  -13.608230    2.422720
  O     -0.660840  -13.327990    1.791280
  C     -0.388920  -12.291470    0.957930
  N     -1.443640  -11.781900    0.196870
  O     -1.230380  -10.758730   -0.444500
  O     -2.518230  -12.365180    0.208640
  C      0.924590  -11.887810    1.006080
  H      1.188920   -0.665610    3.908670
  H      0.003570    1.819580    4.331650
  H      0.082850    4.142020    3.038590
  H     -0.782280    5.667970    3.330090
  H     -1.497880    3.590150    1.192520
  H     -0.769250    5.171290    0.888530
  H     -2.418210    5.060650    1.523690
  H     -6.467000    2.468340    1.578830
  H     -5.755590    0.893500    1.939750
  H     -5.013960    2.814010   -0.336420
  H     -5.668940    1.174530   -0.494680
  H     -4.016500    1.420660    0.072300
  H     -3.907300   -0.061500    1.908560
  H     -2.068510   -3.664080    1.310760
  H     -3.888180   -1.348770    0.447960
  H     -7.916590   -2.502290   -2.807430
  H     -3.749210   -7.153670   -0.642520
  H     -6.128420   -6.929500   -2.563400
  H     -5.669510   -9.178680   -3.179960
  H     -4.913230   -8.726720    0.477420
  H     -3.379860   -9.520130    0.085390
  H     -4.734630  -10.485860    0.652230
  H     -4.125460  -11.828480   -1.324620
  H     -4.836120  -11.345860   -2.889320
  H     -7.023780  -11.477370   -1.818560
  H     -5.407410  -13.066610    0.050760
  H     -8.429930  -12.805670   -0.452430
  H     -8.818900  -14.388660    1.229570
  H     -8.249740  -16.022340    3.041130
  H     -6.250490  -16.939110    4.383010
  H     -3.867980  -17.423440    5.236310
  H     -1.322030  -17.309970    5.630150
  H      0.766850  -16.054930    4.845070
  H      3.699530  -12.519150    2.409580
  H      1.361940  -11.096790    0.433550

 Total Charge           Charge          ....    0
 Multiplicity           Mult            ....    1
 Number of Electrons    NEL             ....  464
 Basis Dimension        Dim             .... 1025

ORBITAL ENERGIES
----------------

  NO   OCC          E(Eh)            E(eV)
   0   2.0000     -88.966426     -2420.8995
   1   2.0000     -88.963037     -2420.8073
   2   2.0000     -88.929978     -2419.9077
   3   2.0000     -88.921525     -2419.6777
   4   2.0000     -88.914470     -2419.4857
   5   2.0000     -88.906303     -2419.2635
   6   2.0000     -19.300970      -525.2061
   7   2.0000     -19.299153      -525.1567
   8   2.0000     -19.255323      -523.9640
   9   2.0000     -19.252408      -523.8846
  10   2.0000     -19.202827      -522.5355
  11   2.0000     -19.202250      -522.5198
  12   2.0000     -14.663606      -399.0170
  13   2.0000     -14.445889      -393.0926
  14   2.0000     -14.441136      -392.9633
  15   2.0000     -10.390744      -282.7465
  16   2.0000     -10.390520      -282.7404
  17   2.0000     -10.386936      -282.6429
  18   2.0000     -10.350497      -281.6513
  19   2.0000     -10.349067      -281.6124
  20   2.0000     -10.335926      -281.2549
  21   2.0000     -10.316339      -280.7219
  22   2.0000     -10.312668      -280.6220
  23   2.0000     -10.309265      -280.5294
  24   2.0000     -10.301518      -280.3185
  25   2.0000     -10.301238      -280.3109
  26   2.0000     -10.300393      -280.2880
  27   2.0000     -10.298805      -280.2447
  28   2.0000     -10.298151      -280.2269
  29   2.0000     -10.297693      -280.2145
  30   2.0000     -10.295180      -280.1461
  31   2.0000     -10.294695      -280.1329
  32   2.0000     -10.291910      -280.0571
  33   2.0000     -10.291406      -280.0434
  34   2.0000     -10.285596      -279.8853
  35   2.0000     -10.283235      -279.8210
  36   2.0000     -10.282810      -279.8095
  37   2.0000     -10.280937      -279.7585
  38   2.0000     -10.280643      -279.7505
  39   2.0000     -10.280516      -279.7471
  40   2.0000     -10.280019      -279.7336
  41   2.0000     -10.279920      -279.7308
  42   2.0000     -10.278964      -279.7048
  43   2.0000     -10.278002      -279.6787
  44   2.0000     -10.277328      -279.6603
  45   2.0000     -10.277260      -279.6585
  46   2.0000     -10.275248      -279.6037
  47   2.0000     -10.274710      -279.5891
  48   2.0000     -10.273171      -279.5472
  49   2.0000     -10.271951      -279.5140
  50   2.0000     -10.268587      -279.4225
  51   2.0000     -10.265938      -279.3504
  52   2.0000     -10.264905      -279.3223
  53   2.0000     -10.263686      -279.2891
  54   2.0000     -10.262297      -279.2513
  55   2.0000     -10.254993      -279.0525
  56   2.0000     -10.250960      -278.9428
  57   2.0000     -10.249333      -278.8985
  58   2.0000     -10.242984      -278.7258
  59   2.0000      -8.061843      -219.3739
  60   2.0000      -8.057901      -219.2666
  61   2.0000      -8.025784      -218.3927
  62   2.0000      -8.017940      -218.1793
  63   2.0000      -8.009325      -217.9448
  64   2.0000      -8.001654      -217.7361
  65   2.0000      -6.030714      -164.1041
  66   2.0000      -6.027261      -164.0101
  67   2.0000      -6.026542      -163.9905
  68   2.0000      -6.024967      -163.9477
  69   2.0000      -6.023007      -163.8943
  70   2.0000      -6.020155      -163.8167
  71   2.0000      -5.995463      -163.1448
  72   2.0000      -5.991398      -163.0342
  73   2.0000      -5.987659      -162.9325
  74   2.0000      -5.986940      -162.9129
  75   2.0000      -5.983551      -162.8207
  76   2.0000      -5.979550      -162.7118
  77   2.0000      -5.978732      -162.6896
  78   2.0000      -5.975260      -162.5951
  79   2.0000      -5.972231      -162.5127
  80   2.0000      -5.969573      -162.4403
  81   2.0000      -5.968314      -162.4061
  82   2.0000      -5.960913      -162.2047
  83   2.0000      -1.330916       -36.2161
  84   2.0000      -1.224349       -33.3162
  85   2.0000      -1.213504       -33.0211
  86   2.0000      -1.145520       -31.1712
  87   2.0000      -1.144801       -31.1516
  88   2.0000      -1.124629       -30.6027
  89   2.0000      -1.039710       -28.2919
  90   2.0000      -1.032821       -28.1045
  91   2.0000      -0.995534       -27.0899
  92   2.0000      -0.984728       -26.7958
  93   2.0000      -0.976504       -26.5720
  94   2.0000      -0.954605       -25.9761
  95   2.0000      -0.950623       -25.8678
  96   2.0000      -0.937720       -25.5167
  97   2.0000      -0.925511       -25.1844
  98   2.0000      -0.913843       -24.8669
  99   2.0000      -0.907643       -24.6982
 100   2.0000      -0.895016       -24.3546
 101   2.0000      -0.893141       -24.3036
 102   2.0000      -0.886960       -24.1354
 103   2.0000      -0.882444       -24.0125
 104   2.0000      -0.876367       -23.8472
 105   2.0000      -0.862884       -23.4803
 106   2.0000      -0.852267       -23.1914
 107   2.0000      -0.837764       -22.7967
 108   2.0000      -0.835160       -22.7259
 109   2.0000      -0.828724       -22.5507
 110   2.0000      -0.817614       -22.2484
 111   2.0000      -0.807020       -21.9601
 112   2.0000      -0.802920       -21.8486
 113   2.0000      -0.798800       -21.7365
 114   2.0000      -0.787682       -21.4339
 115   2.0000      -0.779647       -21.2153
 116   2.0000      -0.771801       -21.0018
 117   2.0000      -0.767902       -20.8957
 118   2.0000      -0.764045       -20.7907
 119   2.0000      -0.753941       -20.5158
 120   2.0000      -0.750915       -20.4334
 121   2.0000      -0.741978       -20.1902
 122   2.0000      -0.719792       -19.5865
 123   2.0000      -0.714897       -19.4533
 124   2.0000      -0.710029       -19.3209
 125   2.0000      -0.703104       -19.1324
 126   2.0000      -0.690938       -18.8014
 127   2.0000      -0.689711       -18.7680
 128   2.0000      -0.680815       -18.5259
 129   2.0000      -0.673977       -18.3398
 130   2.0000      -0.664266       -18.0756
 131   2.0000      -0.662261       -18.0210
 132   2.0000      -0.656588       -17.8667
 133   2.0000      -0.647881       -17.6297
 134   2.0000      -0.645208       -17.5570
 135   2.0000      -0.642638       -17.4871
 136   2.0000      -0.626819       -17.0566
 137   2.0000      -0.626075       -17.0364
 138   2.0000      -0.622604       -16.9419
 139   2.0000      -0.609504       -16.5854
 140   2.0000      -0.609000       -16.5717
 141   2.0000      -0.606306       -16.4984
 142   2.0000      -0.601195       -16.3593
 143   2.0000      -0.597212       -16.2510
 144   2.0000      -0.595602       -16.2072
 145   2.0000      -0.595000       -16.1908
 146   2.0000      -0.586187       -15.9510
 147   2.0000      -0.576644       -15.6913
 148   2.0000      -0.573042       -15.5933
 149   2.0000      -0.572602       -15.5813
 150   2.0000      -0.566471       -15.4145
 151   2.0000      -0.560940       -15.2640
 152   2.0000      -0.559932       -15.2365
 153   2.0000      -0.554487       -15.0884
 154   2.0000      -0.551066       -14.9953
 155   2.0000      -0.548045       -14.9131
 156   2.0000      -0.543038       -14.7768
 157   2.0000      -0.538889       -14.6639
 158   2.0000      -0.537010       -14.6128
 159   2.0000      -0.533884       -14.5277
 160   2.0000      -0.532992       -14.5035
 161   2.0000      -0.530461       -14.4346
 162   2.0000      -0.519253       -14.1296
 163   2.0000      -0.517737       -14.0883
 164   2.0000      -0.514188       -13.9918
 165   2.0000      -0.513690       -13.9782
 166   2.0000      -0.509490       -13.8639
 167   2.0000      -0.508613       -13.8401
 168   2.0000      -0.502728       -13.6799
 169   2.0000      -0.500738       -13.6258
 170   2.0000      -0.495255       -13.4766
 171   2.0000      -0.491558       -13.3760
 172   2.0000      -0.489984       -13.3331
 173   2.0000      -0.487442       -13.2640
 174   2.0000      -0.481878       -13.1126
 175   2.0000      -0.481110       -13.0917
 176   2.0000      -0.480002       -13.0615
 177   2.0000      -0.474304       -12.9065
 178   2.0000      -0.473831       -12.8936
 179   2.0000      -0.473154       -12.8752
 180   2.0000      -0.472153       -12.8479
 181   2.0000      -0.464420       -12.6375
 182   2.0000      -0.463508       -12.6127
 183   2.0000      -0.462167       -12.5762
 184   2.0000      -0.458689       -12.4816
 185   2.0000      -0.456267       -12.4157
 186   2.0000      -0.453554       -12.3418
 187   2.0000      -0.451618       -12.2892
 188   2.0000      -0.447843       -12.1864
 189   2.0000      -0.444592       -12.0980
 190   2.0000      -0.442859       -12.0508
 191   2.0000      -0.440836       -11.9958
 192   2.0000      -0.436051       -11.8656
 193   2.0000      -0.432434       -11.7671
 194   2.0000      -0.430051       -11.7023
 195   2.0000      -0.428379       -11.6568
 196   2.0000      -0.424650       -11.5553
 197   2.0000      -0.423459       -11.5229
 198   2.0000      -0.421592       -11.4721
 199   2.0000      -0.414531       -11.2800
 200   2.0000      -0.411774       -11.2049
 201   2.0000      -0.409188       -11.1346
 202   2.0000      -0.405727       -11.0404
 203   2.0000      -0.405576       -11.0363
 204   2.0000      -0.404115       -10.9965
 205   2.0000      -0.399623       -10.8743
 206   2.0000      -0.398262       -10.8372
 207   2.0000      -0.390706       -10.6316
 208   2.0000      -0.389177       -10.5900
 209   2.0000      -0.384198       -10.4546
 210   2.0000      -0.378810       -10.3079
 211   2.0000      -0.371514       -10.1094
 212   2.0000      -0.370795       -10.0898
 213   2.0000      -0.368576       -10.0295
 214   2.0000      -0.363435        -9.8896
 215   2.0000      -0.360185        -9.8011
 216   2.0000      -0.355420        -9.6715
 217   2.0000      -0.350939        -9.5495
 218   2.0000      -0.339934        -9.2501
 219   2.0000      -0.337807        -9.1922
 220   2.0000      -0.337336        -9.1794
 221   2.0000      -0.321719        -8.7544
 222   2.0000      -0.319646        -8.6980
 223   2.0000      -0.313686        -8.5358
 224   2.0000      -0.304892        -8.2965
 225   2.0000      -0.295157        -8.0316
 226   2.0000      -0.287867        -7.8333
 227   2.0000      -0.276566        -7.5257
 228   2.0000      -0.266161        -7.2426
 229   2.0000      -0.249224        -6.7817
 230   2.0000      -0.229505        -6.2451
 231   2.0000      -0.186101        -5.0641
 232   0.0000      -0.075222        -2.0469
 233   0.0000      -0.058819        -1.6006
 234   0.0000      -0.055143        -1.5005
 235   0.0000      -0.038839        -1.0569
 236   0.0000      -0.011466        -0.3120

MULLIKEN ATOMIC CHARGES
-----------------------
   0 C :   -0.118992
   1 S :    0.158848
   2 C :   -0.165950
   3 C :    0.170032
   4 C :    0.082063
   5 C :    0.009308
   6 C :   -0.118841
   7 S :   -0.019687
   8 C :   -0.100177
   9 C :    0.024463
  10 C :    0.014550
  11 S :    0.019824
  12 C :   -0.126793
  13 C :    0.019225
  14 C :   -0.088408
  15 C :    0.064829
  16 C :   -0.058599
  17 C :    0.091331
  18 O :   -0.214396
  19 C :   -0.036343
  20 C :    0.165680
  21 O :   -0.156904
  22 N :   -0.162116
  23 C :    0.180435
  24 O :   -0.162792
  25 C :   -0.078873
  26 C :    0.119612
  27 C :   -0.005901
  28 C :    0.008690
  29 C :   -0.003497
  30 C :   -0.181381
  31 C :    0.085414
  32 C :    0.192984
  33 N :   -0.134081
  34 C :    0.058727
  35 C :   -0.054525
  36 C :    0.029278
  37 C :   -0.055470
  38 C :    0.048014
  39 C :    0.000263
  40 C :   -0.013042
  41 S :    0.029933
  42 C :   -0.051082
  43 C :    0.042069
  44 C :    0.011404
  45 C :   -0.017587
  46 S :    0.062756
  47 C :    0.023603
  48 C :   -0.212292
  49 S :    0.135794
  50 C :   -0.154889
  51 C :    0.132720
  52 C :    0.179510
  53 O :   -0.194050
  54 C :    0.243442
  55 N :    0.295758
  56 O :   -0.253378
  57 O :   -0.234751
  58 C :   -0.083069
  59 H :    0.020231
  60 H :   -0.027098
  61 H :    0.039561
  62 H :    0.046734
  63 H :    0.031985
  64 H :    0.013925
  65 H :    0.030985
  66 H :    0.049769
  67 H :    0.055360
  68 H :    0.012062
  69 H :    0.045790
  70 H :    0.022820
  71 H :   -0.046955
  72 H :   -0.004783
  73 H :    0.000771
  74 H :    0.133978
  75 H :   -0.012407
  76 H :    0.017303
  77 H :   -0.018474
  78 H :    0.022242
  79 H :    0.038782
  80 H :    0.017586
  81 H :    0.023949
  82 H :    0.012455
  83 H :    0.117455
  84 H :    0.047891
  85 H :   -0.032217
  86 H :   -0.015732
  87 H :   -0.019535
  88 H :   -0.022591
  89 H :   -0.020101
  90 H :   -0.024032
  91 H :   -0.033739
  92 H :    0.023397
  93 H :    0.009938
Sum of atomic charges:   -0.0000000

LOEWDIN ATOMIC CHARGES
----------------------
   0 C :   -0.185042
   1 S :    0.484888
   2 C :   -0.197752
   3 C :   -0.029911
   4 C :   -0.059959
   5 C :   -0.011492
   6 C :   -0.178347
   7 S :    0.256615
   8 C :   -0.125258
   9 C :   -0.073404
  10 C :   -0.156016
  11 S :    0.313362
  12 C :   -0.138304
  13 C :   -0.078268
  14 C :   -0.064626
  15 C :   -0.014267
  16 C :   -0.065787
  17 C :    0.071957
  18 O :    0.008199
  19 C :   -0.109866
  20 C :    0.089801
  21 O :   -0.175034
  22 N :   -0.004668
  23 C :    0.087588
  24 O :   -0.170383
  25 C :   -0.111116
  26 C :    0.074701
  27 C :   -0.053508
  28 C :    0.013499
  29 C :   -0.065051
  30 C :   -0.006828
  31 C :   -0.055063
  32 C :    0.045467
  33 N :    0.031026
  34 C :    0.061626
  35 C :   -0.145398
  36 C :   -0.016020
  37 C :   -0.193453
  38 C :   -0.014711
  39 C :   -0.071455
  40 C :   -0.155457
  41 S :    0.380013
  42 C :   -0.213972
  43 C :   -0.023732
  44 C :   -0.061499
  45 C :   -0.132069
  46 S :    0.387812
  47 C :   -0.125118
  48 C :   -0.185704
  49 S :    0.462312
  50 C :   -0.209411
  51 C :   -0.081677
  52 C :   -0.001558
  53 O :   -0.002075
  54 C :    0.016916
  55 N :    0.285413
  56 O :   -0.216693
  57 O :   -0.199261
  58 C :   -0.001346
  59 H :    0.025291
  60 H :    0.030956
  61 H :    0.016725
  62 H :    0.024123
  63 H :    0.026447
  64 H :    0.024416
  65 H :    0.025285
  66 H :    0.029952
  67 H :    0.020461
  68 H :    0.024138
  69 H :    0.032325
  70 H :    0.020958
  71 H :    0.024051
  72 H :    0.031798
  73 H :    0.039765
  74 H :    0.092373
  75 H :    0.036322
  76 H :    0.034891
  77 H :    0.025839
  78 H :    0.031075
  79 H :    0.037072
  80 H :    0.031220
  81 H :    0.028677
  82 H :    0.025220
  83 H :    0.080432
  84 H :    0.018114
  85 H :    0.021932
  86 H :    0.035817
  87 H :    0.030589
  88 H :    0.027871
  89 H :    0.029656
  90 H :    0.027511
  91 H :    0.028415
  92 H :    0.024392
  93 H :    0.045253

  Mayer bond orders larger than 0.100000
B(  0-C ,  1-S ) :   1.2217 B(  0-C ,  2-C ) :   0.1027 B(  0-C ,  4-C ) :   1.3993
B(  0-C , 59-H ) :   0.9692 B(  1-S ,  2-C ) :   1.1454 B(  2-C ,  3-C ) :   1.3381
B(  2-C , 15-C ) :   1.1447 B(  3-C ,  4-C ) :   1.2051 B(  3-C , 14-C ) :   1.2172
B(  4-C ,  5-C ) :   1.1582 B(  5-C ,  6-C ) :   1.5882 B(  5-C , 60-H ) :   0.9976
B(  6-C ,  7-S ) :   1.0131 B(  6-C , 10-C ) :   1.2334 B(  7-S ,  8-C ) :   1.0080
B(  8-C ,  9-C ) :   1.0663 B(  8-C , 61-H ) :   0.9562 B(  8-C , 62-H ) :   0.9566
B(  9-C , 63-H ) :   0.9723 B(  9-C , 64-H ) :   0.9610 B(  9-C , 65-H ) :   0.9694
B( 10-C , 11-S ) :   1.0534 B( 10-C , 14-C ) :   1.5006 B( 11-S , 12-C ) :   0.9953
B( 12-C , 13-C ) :   1.0594 B( 12-C , 66-H ) :   0.9523 B( 12-C , 67-H ) :   0.9437
B( 13-C , 68-H ) :   0.9644 B( 13-C , 69-H ) :   0.9519 B( 13-C , 70-H ) :   0.9709
B( 14-C , 71-H ) :   0.9872 B( 15-C , 16-C ) :   1.6072 B( 15-C , 72-H ) :   0.9601
B( 16-C , 17-C ) :   1.2047 B( 16-C , 73-H ) :   0.9495 B( 17-C , 18-O ) :   1.1447
B( 17-C , 19-C ) :   1.3894 B( 18-O , 26-C ) :   1.1359 B( 19-C , 20-C ) :   0.9007
B( 19-C , 25-C ) :   1.2514 B( 20-C , 21-O ) :   2.1875 B( 20-C , 22-N ) :   1.0840
B( 22-N , 23-C ) :   1.0947 B( 22-N , 74-H ) :   0.9161 B( 23-C , 24-O ) :   2.1725
B( 23-C , 25-C ) :   0.8934 B( 25-C , 26-C ) :   1.4314 B( 26-C , 27-C ) :   1.1547
B( 27-C , 28-C ) :   1.6816 B( 27-C , 75-H ) :   0.9623 B( 28-C , 29-C ) :   1.0987
B( 28-C , 76-H ) :   0.9412 B( 29-C , 30-C ) :   1.8094 B( 29-C , 77-H ) :   0.9526
B( 30-C , 31-C ) :   1.0887 B( 30-C , 32-C ) :   1.0370 B( 31-C , 78-H ) :   0.9441
B( 31-C , 79-H ) :   0.9256 B( 31-C , 80-H ) :   0.9415 B( 32-C , 33-N ) :   0.9920
B( 32-C , 81-H ) :   0.9121 B( 32-C , 82-H ) :   0.9381 B( 33-N , 34-C ) :   1.2981
B( 33-N , 83-H ) :   0.9373 B( 34-C , 35-C ) :   1.4938 B( 34-C , 84-H ) :   0.9476
B( 35-C , 36-C ) :   1.2740 B( 35-C , 85-H ) :   0.9599 B( 36-C , 37-C ) :   1.5337
B( 36-C , 86-H ) :   0.9609 B( 37-C , 38-C ) :   1.1834 B( 37-C , 41-S ) :   1.0082
B( 38-C , 39-C ) :   1.5517 B( 38-C , 87-H ) :   0.9970 B( 39-C , 40-C ) :   1.2106
B( 39-C , 88-H ) :   0.9950 B( 40-C , 41-S ) :   1.0684 B( 40-C , 42-C ) :   1.4635
B( 42-C , 43-C ) :   1.2169 B( 42-C , 46-S ) :   1.0172 B( 43-C , 44-C ) :   1.5605
B( 43-C , 89-H ) :   0.9932 B( 44-C , 45-C ) :   1.1628 B( 44-C , 90-H ) :   0.9991
B( 45-C , 46-S ) :   1.0655 B( 45-C , 47-C ) :   1.5596 B( 47-C , 48-C ) :   1.1666
B( 47-C , 91-H ) :   0.9443 B( 48-C , 49-S ) :   1.1353 B( 48-C , 50-C ) :   0.1055
B( 48-C , 52-C ) :   1.4199 B( 49-S , 50-C ) :   1.1596 B( 50-C , 51-C ) :   1.4289
B( 50-C , 92-H ) :   0.9777 B( 51-C , 52-C ) :   1.2263 B( 51-C , 58-C ) :   1.0778
B( 52-C , 53-O ) :   1.0727 B( 53-O , 54-C ) :   1.1294 B( 54-C , 55-N ) :   0.9412
B( 54-C , 58-C ) :   1.5348 B( 55-N , 56-O ) :   1.4991 B( 55-N , 57-O ) :   1.4617
B( 56-O , 57-O ) :   0.2580 B( 58-C , 93-H ) :   1.0265

-----------------------------------------------------------------------------
         ABSORPTION SPECTRUM VIA TRANSITION ELECTRIC DIPOLE MOMENTS
-----------------------------------------------------------------------------
State   Energy  Wavelength   fosc         T2         TX        TY        TZ
        (cm-1)    (nm)                  (au**2)     (au)      (au)      (au)
-----------------------------------------------------------------------------
   0    7295.0   1370.8   0.044270179   1.99784  -1.37747  -0.31687  -0.00196
   1   14353.0    696.7   0.694331405  15.92577   3.54274  -1.06429   1.49736
   2   18790.7    532.2   0.095888690   1.67996   0.81303   0.97903   0.24587
   3   20755.5    481.8   0.019896314   0.31558  -0.39210  -0.38572   0.11429
   4   21174.5    472.3   1.013553872  15.75831  -1.84589  -2.90212  -1.98209
   5   21277.9    470.0   0.021263311   0.32899   0.24223   0.40702  -0.32349
   6   22838.9    437.8   0.003987394   0.05748   0.19564  -0.07701   0.11521
   7   24562.8    407.1   0.015469251   0.20733  -0.29940  -0.31366   0.13896
   8   26021.8    384.3   0.369040470   4.66887  -0.29682   2.03190  -0.67242
   9   28224.9    354.3   0.739879760   8.62986  -0.96506  -1.87510   2.04512
  10   28882.0    346.2   0.005679802   0.06474   0.20490   0.09357  -0.11832
  11   29021.3    344.6   0.141774688   1.60827  -0.39466   0.92182  -0.77638
  12   29469.7    339.3   0.244820446   2.73494  -1.30988   0.20935  -0.98759
  13   30032.3    333.0   0.072984084   0.80005   0.58835   0.54798  -0.39192
  14   30262.0    330.4   0.025325494   0.27551  -0.49087   0.14215   0.11980
  15   30474.9    328.1   0.040874908   0.44156  -0.02356   0.60556   0.27258
  16   30850.0    324.1   0.043893488   0.46840  -0.52769  -0.39512   0.18393
  17   31722.1    315.2   0.007446062   0.07728   0.00743  -0.20301   0.18976
  18   31824.8    314.2   0.006962071   0.07202  -0.12938   0.18014  -0.15109
  19   31962.1    312.9   0.031638628   0.32588   0.52062  -0.06175   0.22587
  20   32251.2    310.1   0.015255650   0.15573   0.34262  -0.19560  -0.00894
  21   32975.6    303.3   0.022427867   0.22391  -0.16691  -0.30503   0.32095
  22   33762.0    296.2   0.030300173   0.29546  -0.31857  -0.43057  -0.09261
  23   33871.4    295.2   0.650133077   6.31895  -2.03482   0.92922  -1.14674
  24   34150.8    292.8   0.273758697   2.63902  -0.73939   1.35678  -0.50147
  25   34497.5    289.9   0.061614950   0.58800  -0.00805  -0.38903  -0.66075
  26   34744.1    287.8   0.009871366   0.09353  -0.01341   0.08219  -0.29428
  27   35050.9    285.3   0.031363245   0.29458  -0.12217   0.51257   0.13008
  28   35487.8    281.8   0.002036470   0.01889  -0.02199  -0.13193  -0.03169
  29   35552.1    281.3   0.060110230   0.55662  -0.35603  -0.64017   0.14158
  30   36760.4    272.0   0.017104660   0.15318  -0.32837   0.18735  -0.10127
  31   37401.9    267.4   0.072641921   0.63940  -0.27627  -0.63432  -0.40089
  32   37493.0    266.7   0.031903005   0.28013  -0.44496  -0.17266  -0.22875
  33   37797.9    264.6   0.002318139   0.02019  -0.05902   0.12916   0.00503
  34   38040.0    262.9   0.000267068   0.00231   0.01470   0.02799  -0.03622
  35   38846.3    257.4   0.067767053   0.57431   0.75314   0.06295  -0.05595
  36   39244.5    254.8   0.063496613   0.53266   0.01151  -0.72513   0.08194
  37   39748.0    251.6   0.054552022   0.45183  -0.57556   0.02720  -0.34614
  38   39923.1    250.5   0.029489451   0.24317   0.43511  -0.20781   0.10328
  39   40075.4    249.5   0.018069224   0.14844  -0.06688  -0.24494  -0.28977
  40   40200.6    248.8   0.011087064   0.09079  -0.16959  -0.19135  -0.15944

FINAL SINGLE POINT ENERGY     -4698.694829141938

DIPOLE MOMENT
-------------
                                X             Y             Z
Electronic contribution:     20.65898     -44.47585      11.86158
Nuclear contribution   :    -19.47388      43.90330     -11.98538
                        -----------------------------------------
Total Dipole Moment    :      1.18510      -0.57255      -0.12380
                        -----------------------------------------
Magnitude (a.u.)       :      1.32197
Magnitude (Debye)      :      3.36017

Rotational constants in cm-1:     0.001563     0.000375     0.000326
Rotational constants in MHz :    46.866987    11.233573     9.784700

                             ****ORCA TERMINATED NORMALLY****
TOTAL RUN TIME: 0 days 0 hours 7 minutes 16 seconds 453 msec
