                         Program Version 4.2.0 -  RELEASE  -
|  1> # ORCA input file
|  2> # SCF done       -146.592229538295          0.000548042526
|  3> ! CAM-B3LYP def2-SVP def2/J RIJCOSX Grid4 TightSCF
|  4> %maxcore 5000
|  5> %tddft
|  6>     Mode sTDDFT
|  7>     Ethresh 5.0
|  8>     maxcore 5000
|  9> end
| 10>
| 11> %pal
| 12>   nprocs 6
| 13>   end
| 14> * xyz 0 1
| 15>    C       -3.81738       -12.24728        -0.03795
| 16>    S       -4.22040       -10.61475        -0.45049
| 17>    C       -2.65067        -9.96909        -0.01333
| 18>    C       -1.88932       -11.02362         0.42885
| 19>    C       -2.53857       -12.28069         0.41275
| 20>    O       -1.65047       -13.20821         0.87736
| 21>    C       -0.51607       -12.54155         1.16083
| 22>    S        0.82173       -13.22425         1.75904
| 23>    O       -0.62027       -11.22337         0.89922
| 24>    C       -2.29055        -8.59998        -0.17218
| 25>    C       -1.05185        -8.18196         0.17369
| 26>    C       -0.53094        -6.85922         0.04038
| 27>    C        0.81384        -6.59625         0.13781
| 28>    O        1.32179        -5.31982         0.23489
| 29>    C        0.39532        -4.32255         0.12460
| 30>    C       -0.99073        -4.59557        -0.07062
| 31>    C       -1.73602        -3.46882        -0.18333
| 32>    S       -0.75821        -2.05475        -0.05033
| 33>    C        0.67068        -2.99559         0.15875
| 34>    O       -1.48114        -5.86887        -0.11242
| 35>    C        1.81800        -7.61988         0.17878
| 36>    C        1.69417        -8.79897        -0.47352
| 37>    C        2.53985        -9.92530        -0.31078
| 38>    S        2.15833       -11.41611        -1.15971
| 39>    C        3.42341       -12.33637        -0.36178
| 40>    C        4.09724       -11.49145         0.48132
| 41>    C        3.60968       -10.17051         0.51029
| 42>    O        4.32556        -9.43966         1.40584
| 43>    C        5.27224       -10.33952         1.95731
| 44>    O        5.11220       -11.62043         1.37225
| 45>    C        3.53444       -13.73294        -0.59476
| 46>    S        2.16408       -14.59317        -1.21166
| 47>    C        3.01926       -16.10368        -1.15036
| 48>    C        4.31196       -15.92711        -0.68218
| 49>    C        4.60445       -14.58593        -0.37094
| 50>    S        6.16442       -13.94473         0.11758
| 51>    C        7.27992       -15.28848         0.36817
| 52>    O        8.41554       -15.00753         0.64191
| 53>    C        6.88624       -16.74717         0.27420
| 54>    O        7.64357       -17.59506         0.65284
| 55>    S        5.37935       -17.30458        -0.47730
| 56>    C        2.33397       -17.28017        -1.54386
| 57>    S        3.03106       -18.87894        -1.70523
| 58>    C        1.52866       -19.63506        -2.20821
| 59>    C        0.56088       -18.66357        -2.23209
| 60>    C        1.00389       -17.37742        -1.87335
| 61>    O       -0.05783       -16.52922        -1.93621
| 62>    C       -1.11727       -17.27928        -2.31465
| 63>    S       -2.60690       -16.69463        -2.51013
| 64>    O       -0.77359       -18.57242        -2.50702
| 65>    C        1.46287       -21.03385        -2.51678
| 66>    C        0.35126       -21.64385        -2.92458
| 67>    H       -4.52645       -13.03737        -0.16296
| 68>    H       -3.01519        -7.93374        -0.61242
| 69>    H       -0.37454        -8.89813         0.61244
| 70>    H       -2.79203        -3.38983        -0.33467
| 71>    H        1.62130        -2.52361         0.29276
| 72>    H        2.71361        -7.39687         0.74045
| 73>    H        0.87676        -8.94787        -1.16486
| 74>    H        6.28914        -9.97014         1.75612
| 75>    H        5.11595       -10.41496         3.04370
| 76>    H        2.39128       -21.57420        -2.39989
| 77>    H       -0.57462       -21.10756        -3.04367
| 78>    H        0.34113       -22.69489        -3.14976
| 79> *
| 80>
| 81>                          ****END OF INPUT****

CARTESIAN COORDINATES (ANGSTROEM)
---------------------------------
  C     -3.817380  -12.247280   -0.037950
  S     -4.220400  -10.614750   -0.450490
  C     -2.650670   -9.969090   -0.013330
  C     -1.889320  -11.023620    0.428850
  C     -2.538570  -12.280690    0.412750
  O     -1.650470  -13.208210    0.877360
  C     -0.516070  -12.541550    1.160830
  S      0.821730  -13.224250    1.759040
  O     -0.620270  -11.223370    0.899220
  C     -2.290550   -8.599980   -0.172180
  C     -1.051850   -8.181960    0.173690
  C     -0.530940   -6.859220    0.040380
  C      0.813840   -6.596250    0.137810
  O      1.321790   -5.319820    0.234890
  C      0.395320   -4.322550    0.124600
  C     -0.990730   -4.595570   -0.070620
  C     -1.736020   -3.468820   -0.183330
  S     -0.758210   -2.054750   -0.050330
  C      0.670680   -2.995590    0.158750
  O     -1.481140   -5.868870   -0.112420
  C      1.818000   -7.619880    0.178780
  C      1.694170   -8.798970   -0.473520
  C      2.539850   -9.925300   -0.310780
  S      2.158330  -11.416110   -1.159710
  C      3.423410  -12.336370   -0.361780
  C      4.097240  -11.491450    0.481320
  C      3.609680  -10.170510    0.510290
  O      4.325560   -9.439660    1.405840
  C      5.272240  -10.339520    1.957310
  O      5.112200  -11.620430    1.372250
  C      3.534440  -13.732940   -0.594760
  S      2.164080  -14.593170   -1.211660
  C      3.019260  -16.103680   -1.150360
  C      4.311960  -15.927110   -0.682180
  C      4.604450  -14.585930   -0.370940
  S      6.164420  -13.944730    0.117580
  C      7.279920  -15.288480    0.368170
  O      8.415540  -15.007530    0.641910
  C      6.886240  -16.747170    0.274200
  O      7.643570  -17.595060    0.652840
  S      5.379350  -17.304580   -0.477300
  C      2.333970  -17.280170   -1.543860
  S      3.031060  -18.878940   -1.705230
  C      1.528660  -19.635060   -2.208210
  C      0.560880  -18.663570   -2.232090
  C      1.003890  -17.377420   -1.873350
  O     -0.057830  -16.529220   -1.936210
  C     -1.117270  -17.279280   -2.314650
  S     -2.606900  -16.694630   -2.510130
  O     -0.773590  -18.572420   -2.507020
  C      1.462870  -21.033850   -2.516780
  C      0.351260  -21.643850   -2.924580
  H     -4.526450  -13.037370   -0.162960
  H     -3.015190   -7.933740   -0.612420
  H     -0.374540   -8.898130    0.612440
  H     -2.792030   -3.389830   -0.334670
  H      1.621300   -2.523610    0.292760
  H      2.713610   -7.396870    0.740450
  H      0.876760   -8.947870   -1.164860
  H      6.289140   -9.970140    1.756120
  H      5.115950  -10.414960    3.043700
  H      2.391280  -21.574200   -2.399890
  H     -0.574620  -21.107560   -3.043670
  H      0.341130  -22.694890   -3.149760

 Total Charge           Charge          ....    0
 Multiplicity           Mult            ....    1
 Number of Electrons    NEL             ....  434
 Basis Dimension        Dim             ....  824

ORBITAL ENERGIES
----------------

  NO   OCC          E(Eh)            E(eV)
   0   2.0000     -88.981687     -2421.3148
   1   2.0000     -88.976564     -2421.1754
   2   2.0000     -88.972527     -2421.0655
   3   2.0000     -88.970353     -2421.0064
   4   2.0000     -88.964598     -2420.8498
   5   2.0000     -88.962396     -2420.7899
   6   2.0000     -88.957623     -2420.6600
   7   2.0000     -88.891857     -2418.8704
   8   2.0000     -88.887814     -2418.7604
   9   2.0000     -19.322785      -525.7997
  10   2.0000     -19.321390      -525.7617
  11   2.0000     -19.317770      -525.6632
  12   2.0000     -19.314105      -525.5635
  13   2.0000     -19.279717      -524.6278
  14   2.0000     -19.278514      -524.5950
  15   2.0000     -19.274212      -524.4780
  16   2.0000     -19.273620      -524.4619
  17   2.0000     -19.241073      -523.5762
  18   2.0000     -19.235458      -523.4234
  19   2.0000     -10.445584      -284.2388
  20   2.0000     -10.440435      -284.0987
  21   2.0000     -10.405133      -283.1381
  22   2.0000     -10.401076      -283.0277
  23   2.0000     -10.400584      -283.0143
  24   2.0000     -10.359061      -281.8844
  25   2.0000     -10.357328      -281.8372
  26   2.0000     -10.353169      -281.7240
  27   2.0000     -10.350387      -281.6484
  28   2.0000     -10.347800      -281.5780
  29   2.0000     -10.347554      -281.5713
  30   2.0000     -10.347102      -281.5589
  31   2.0000     -10.343957      -281.4734
  32   2.0000     -10.340629      -281.3828
  33   2.0000     -10.340197      -281.3711
  34   2.0000     -10.337486      -281.2973
  35   2.0000     -10.332720      -281.1676
  36   2.0000     -10.331626      -281.1378
  37   2.0000     -10.330494      -281.1070
  38   2.0000     -10.328380      -281.0495
  39   2.0000     -10.326927      -281.0100
  40   2.0000     -10.322854      -280.8991
  41   2.0000     -10.321895      -280.8730
  42   2.0000     -10.313669      -280.6492
  43   2.0000     -10.312568      -280.6192
  44   2.0000     -10.297320      -280.2043
  45   2.0000     -10.295751      -280.1616
  46   2.0000     -10.294142      -280.1179
  47   2.0000     -10.293930      -280.1121
  48   2.0000     -10.288707      -279.9699
  49   2.0000     -10.286638      -279.9137
  50   2.0000     -10.286086      -279.8986
  51   2.0000     -10.278410      -279.6898
  52   2.0000      -8.076001      -219.7592
  53   2.0000      -8.071839      -219.6459
  54   2.0000      -8.067559      -219.5294
  55   2.0000      -8.066827      -219.5095
  56   2.0000      -8.061005      -219.3511
  57   2.0000      -8.057484      -219.2553
  58   2.0000      -8.053402      -219.1442
  59   2.0000      -7.989985      -217.4185
  60   2.0000      -7.985327      -217.2918
  61   2.0000      -6.045696      -164.5117
  62   2.0000      -6.041588      -164.4000
  63   2.0000      -6.041330      -164.3929
  64   2.0000      -6.037302      -164.2833
  65   2.0000      -6.037123      -164.2785
  66   2.0000      -6.037088      -164.2775
  67   2.0000      -6.036725      -164.2676
  68   2.0000      -6.033449      -164.1785
  69   2.0000      -6.032995      -164.1662
  70   2.0000      -6.032125      -164.1425
  71   2.0000      -6.030906      -164.1093
  72   2.0000      -6.029174      -164.0622
  73   2.0000      -6.027639      -164.0204
  74   2.0000      -6.027377      -164.0133
  75   2.0000      -6.026187      -163.9809
  76   2.0000      -6.023327      -163.9030
  77   2.0000      -6.022905      -163.8916
  78   2.0000      -6.021808      -163.8617
  79   2.0000      -6.018736      -163.7781
  80   2.0000      -6.018282      -163.7658
  81   2.0000      -6.015090      -163.6789
  82   2.0000      -5.959897      -162.1770
  83   2.0000      -5.956246      -162.0777
  84   2.0000      -5.955288      -162.0516
  85   2.0000      -5.951485      -161.9481
  86   2.0000      -5.949951      -161.9064
  87   2.0000      -5.945467      -161.7844
  88   2.0000      -1.290232       -35.1090
  89   2.0000      -1.284222       -34.9455
  90   2.0000      -1.236313       -33.6418
  91   2.0000      -1.199809       -32.6485
  92   2.0000      -1.181768       -32.1575
  93   2.0000      -1.176678       -32.0190
  94   2.0000      -1.175460       -31.9859
  95   2.0000      -1.163158       -31.6511
  96   2.0000      -1.143980       -31.1293
  97   2.0000      -1.139195       -30.9991
  98   2.0000      -1.029017       -28.0010
  99   2.0000      -1.008690       -27.4479
 100   2.0000      -1.002472       -27.2787
 101   2.0000      -0.992481       -27.0068
 102   2.0000      -0.986143       -26.8343
 103   2.0000      -0.935637       -25.4600
 104   2.0000      -0.932470       -25.3738
 105   2.0000      -0.922155       -25.0931
 106   2.0000      -0.907461       -24.6933
 107   2.0000      -0.903804       -24.5938
 108   2.0000      -0.896118       -24.3846
 109   2.0000      -0.893301       -24.3080
 110   2.0000      -0.874679       -23.8012
 111   2.0000      -0.863476       -23.4964
 112   2.0000      -0.852618       -23.2009
 113   2.0000      -0.845699       -23.0126
 114   2.0000      -0.833018       -22.6676
 115   2.0000      -0.824984       -22.4490
 116   2.0000      -0.817304       -22.2400
 117   2.0000      -0.816543       -22.2193
 118   2.0000      -0.809682       -22.0326
 119   2.0000      -0.804768       -21.8989
 120   2.0000      -0.787848       -21.4384
 121   2.0000      -0.768237       -20.9048
 122   2.0000      -0.758808       -20.6482
 123   2.0000      -0.749624       -20.3983
 124   2.0000      -0.744813       -20.2674
 125   2.0000      -0.737709       -20.0741
 126   2.0000      -0.731600       -19.9078
 127   2.0000      -0.726894       -19.7798
 128   2.0000      -0.719965       -19.5912
 129   2.0000      -0.711164       -19.3517
 130   2.0000      -0.706146       -19.2152
 131   2.0000      -0.691494       -18.8165
 132   2.0000      -0.686711       -18.6863
 133   2.0000      -0.678937       -18.4748
 134   2.0000      -0.676648       -18.4125
 135   2.0000      -0.667345       -18.1594
 136   2.0000      -0.661515       -18.0007
 137   2.0000      -0.658157       -17.9094
 138   2.0000      -0.644847       -17.5472
 139   2.0000      -0.632430       -17.2093
 140   2.0000      -0.621184       -16.9033
 141   2.0000      -0.620529       -16.8854
 142   2.0000      -0.614939       -16.7333
 143   2.0000      -0.606740       -16.5102
 144   2.0000      -0.600669       -16.3450
 145   2.0000      -0.591263       -16.0891
 146   2.0000      -0.589877       -16.0514
 147   2.0000      -0.584674       -15.9098
 148   2.0000      -0.582245       -15.8437
 149   2.0000      -0.577281       -15.7086
 150   2.0000      -0.570661       -15.5285
 151   2.0000      -0.568650       -15.4738
 152   2.0000      -0.567722       -15.4485
 153   2.0000      -0.556697       -15.1485
 154   2.0000      -0.551183       -14.9985
 155   2.0000      -0.545683       -14.8488
 156   2.0000      -0.544040       -14.8041
 157   2.0000      -0.539144       -14.6709
 158   2.0000      -0.536850       -14.6084
 159   2.0000      -0.525756       -14.3066
 160   2.0000      -0.517242       -14.0749
 161   2.0000      -0.510867       -13.9014
 162   2.0000      -0.509470       -13.8634
 163   2.0000      -0.507413       -13.8074
 164   2.0000      -0.505818       -13.7640
 165   2.0000      -0.502316       -13.6687
 166   2.0000      -0.501793       -13.6545
 167   2.0000      -0.500454       -13.6180
 168   2.0000      -0.498465       -13.5639
 169   2.0000      -0.494754       -13.4630
 170   2.0000      -0.493707       -13.4344
 171   2.0000      -0.491671       -13.3791
 172   2.0000      -0.488147       -13.2832
 173   2.0000      -0.485484       -13.2107
 174   2.0000      -0.484493       -13.1837
 175   2.0000      -0.482015       -13.1163
 176   2.0000      -0.481596       -13.1049
 177   2.0000      -0.479081       -13.0364
 178   2.0000      -0.478114       -13.0101
 179   2.0000      -0.476476       -12.9656
 180   2.0000      -0.473940       -12.8966
 181   2.0000      -0.473046       -12.8722
 182   2.0000      -0.463426       -12.6105
 183   2.0000      -0.460575       -12.5329
 184   2.0000      -0.454658       -12.3719
 185   2.0000      -0.450030       -12.2459
 186   2.0000      -0.448686       -12.2094
 187   2.0000      -0.447167       -12.1680
 188   2.0000      -0.436452       -11.8765
 189   2.0000      -0.435034       -11.8379
 190   2.0000      -0.431865       -11.7517
 191   2.0000      -0.425530       -11.5793
 192   2.0000      -0.421754       -11.4765
 193   2.0000      -0.419706       -11.4208
 194   2.0000      -0.416875       -11.3437
 195   2.0000      -0.412394       -11.2218
 196   2.0000      -0.404684       -11.0120
 197   2.0000      -0.397692       -10.8218
 198   2.0000      -0.387978       -10.5574
 199   2.0000      -0.382401       -10.4057
 200   2.0000      -0.378394       -10.2966
 201   2.0000      -0.364200        -9.9104
 202   2.0000      -0.359864        -9.7924
 203   2.0000      -0.349740        -9.5169
 204   2.0000      -0.336720        -9.1626
 205   2.0000      -0.331928        -9.0322
 206   2.0000      -0.311663        -8.4808
 207   2.0000      -0.305164        -8.3039
 208   2.0000      -0.304197        -8.2776
 209   2.0000      -0.298680        -8.1275
 210   2.0000      -0.297954        -8.1077
 211   2.0000      -0.294600        -8.0165
 212   2.0000      -0.291776        -7.9396
 213   2.0000      -0.288247        -7.8436
 214   2.0000      -0.284359        -7.7378
 215   2.0000      -0.256949        -6.9919
 216   2.0000      -0.235164        -6.3991
 217   0.0000      -0.070481        -1.9179
 218   0.0000      -0.051723        -1.4075
 219   0.0000      -0.043475        -1.1830
 220   0.0000      -0.022890        -0.6229
 221   0.0000       0.000632         0.0172

MULLIKEN ATOMIC CHARGES
-----------------------
   0 C :   -0.193561
   1 S :    0.135344
   2 C :   -0.173127
   3 C :    0.138640
   4 C :    0.252633
   5 O :   -0.163587
   6 C :    0.242007
   7 S :   -0.179921
   8 O :   -0.187109
   9 C :    0.061580
  10 C :   -0.109982
  11 C :    0.164984
  12 C :    0.148440
  13 O :   -0.245409
  14 C :    0.212619
  15 C :    0.221979
  16 C :   -0.174376
  17 S :    0.109089
  18 C :   -0.170871
  19 O :   -0.256184
  20 C :   -0.016348
  21 C :    0.041257
  22 C :   -0.192622
  23 S :    0.121879
  24 C :   -0.211628
  25 C :    0.182363
  26 C :    0.184444
  27 O :   -0.299561
  28 C :    0.394906
  29 O :   -0.292731
  30 C :   -0.061925
  31 S :    0.196505
  32 C :   -0.079706
  33 C :   -0.056415
  34 C :   -0.043724
  35 S :    0.118311
  36 C :    0.072811
  37 O :   -0.139822
  38 C :    0.087361
  39 O :   -0.126645
  40 S :    0.068172
  41 C :   -0.172047
  42 S :    0.160796
  43 C :   -0.198323
  44 C :    0.194470
  45 C :    0.138027
  46 O :   -0.176467
  47 C :    0.242054
  48 S :   -0.163887
  49 O :   -0.176516
  50 C :    0.053253
  51 C :   -0.012927
  52 H :    0.045043
  53 H :   -0.012346
  54 H :    0.060755
  55 H :    0.025160
  56 H :    0.025555
  57 H :    0.020784
  58 H :    0.010044
  59 H :    0.044786
  60 H :    0.047371
  61 H :   -0.008562
  62 H :    0.039203
  63 H :    0.033707
Sum of atomic charges:   -0.0000000

LOEWDIN ATOMIC CHARGES
----------------------
   0 C :   -0.205570
   1 S :    0.453550
   2 C :   -0.187567
   3 C :   -0.020901
   4 C :   -0.006024
   5 O :   -0.007723
   6 C :   -0.064256
   7 S :   -0.012899
   8 O :   -0.015810
   9 C :   -0.050999
  10 C :   -0.024870
  11 C :    0.015891
  12 C :    0.025738
  13 O :   -0.055102
  14 C :   -0.007574
  15 C :   -0.006082
  16 C :   -0.210626
  17 S :    0.436142
  18 C :   -0.208832
  19 O :   -0.059334
  20 C :   -0.030848
  21 C :   -0.022384
  22 C :   -0.197407
  23 S :    0.418902
  24 C :   -0.227610
  25 C :   -0.000206
  26 C :    0.008906
  27 O :   -0.097416
  28 C :    0.206953
  29 O :   -0.096076
  30 C :   -0.197546
  31 S :    0.487334
  32 C :   -0.204142
  33 C :   -0.220259
  34 C :   -0.221947
  35 S :    0.413052
  36 C :   -0.117818
  37 O :   -0.111415
  38 C :   -0.106799
  39 O :   -0.099440
  40 S :    0.374844
  41 C :   -0.215459
  42 S :    0.457472
  43 C :   -0.190325
  44 C :   -0.005351
  45 C :   -0.016727
  46 O :   -0.014362
  47 C :   -0.060465
  48 S :    0.000354
  49 O :   -0.012757
  50 C :   -0.042993
  51 C :   -0.022997
  52 H :    0.036323
  53 H :    0.032320
  54 H :    0.041060
  55 H :    0.029165
  56 H :    0.029654
  57 H :    0.038704
  58 H :    0.035326
  59 H :    0.020392
  60 H :    0.021581
  61 H :    0.032929
  62 H :    0.029278
  63 H :    0.031050

  Mayer bond orders larger than 0.100000
B(  0-C ,  1-S ) :   1.1203 B(  0-C ,  4-C ) :   1.5372 B(  0-C , 52-H ) :   0.9884
B(  1-S ,  2-C ) :   1.1060 B(  2-C ,  3-C ) :   1.5026 B(  2-C ,  9-C ) :   1.1018
B(  3-C ,  4-C ) :   1.2448 B(  3-C ,  8-O ) :   1.0363 B(  4-C ,  5-O ) :   1.0497
B(  5-O ,  6-C ) :   1.1239 B(  6-C ,  7-S ) :   1.7640 B(  6-C ,  8-O ) :   1.0983
B(  9-C , 10-C ) :   1.6685 B(  9-C , 53-H ) :   0.9794 B( 10-C , 11-C ) :   1.1517
B( 10-C , 54-H ) :   0.9487 B( 11-C , 12-C ) :   1.5103 B( 11-C , 19-O ) :   1.0702
B( 12-C , 13-O ) :   1.0471 B( 12-C , 20-C ) :   1.1108 B( 13-O , 14-C ) :   1.0567
B( 14-C , 15-C ) :   1.1968 B( 14-C , 18-C ) :   1.5757 B( 15-C , 16-C ) :   1.5753
B( 15-C , 19-O ) :   1.0534 B( 16-C , 17-S ) :   1.1401 B( 16-C , 55-H ) :   0.9720
B( 17-S , 18-C ) :   1.1429 B( 18-C , 56-H ) :   0.9721 B( 20-C , 21-C ) :   1.6973
B( 20-C , 57-H ) :   0.9525 B( 21-C , 22-C ) :   1.1396 B( 21-C , 58-H ) :   0.9473
B( 22-C , 23-S ) :   1.0603 B( 22-C , 24-C ) :   0.1092 B( 22-C , 26-C ) :   1.5363
B( 23-S , 24-C ) :   1.0711 B( 24-C , 25-C ) :   1.5622 B( 24-C , 30-C ) :   1.0968
B( 25-C , 26-C ) :   1.2279 B( 25-C , 29-O ) :   1.1073 B( 26-C , 27-O ) :   1.1015
B( 27-O , 28-C ) :   0.9742 B( 28-C , 29-O ) :   0.9746 B( 28-C , 59-H ) :   0.9591
B( 28-C , 60-H ) :   0.9593 B( 30-C , 31-S ) :   1.1330 B( 30-C , 32-C ) :   0.1242
B( 30-C , 34-C ) :   1.6045 B( 31-S , 32-C ) :   1.1330 B( 32-C , 33-C ) :   1.5776
B( 32-C , 41-C ) :   1.1559 B( 33-C , 34-C ) :   1.2743 B( 33-C , 40-S ) :   0.9638
B( 34-C , 35-S ) :   0.9804 B( 35-S , 36-C ) :   1.0720 B( 35-S , 37-O ) :   0.1422
B( 36-C , 37-O ) :   2.1431 B( 36-C , 38-C ) :   0.7694 B( 38-C , 39-O ) :   2.1691
B( 38-C , 40-S ) :   1.0451 B( 39-O , 40-S ) :   0.1337 B( 41-C , 42-S ) :   1.0945
B( 41-C , 43-C ) :   0.1032 B( 41-C , 45-C ) :   1.5162 B( 42-S , 43-C ) :   1.0874
B( 43-C , 44-C ) :   1.5185 B( 43-C , 50-C ) :   1.1054 B( 44-C , 45-C ) :   1.2540
B( 44-C , 49-O ) :   1.0590 B( 45-C , 46-O ) :   1.0696 B( 46-O , 47-C ) :   1.0951
B( 47-C , 48-S ) :   1.7940 B( 47-C , 49-O ) :   1.1027 B( 50-C , 51-C ) :   1.9356
B( 50-C , 61-H ) :   0.9500 B( 51-C , 62-H ) :   0.9511 B( 51-C , 63-H ) :   0.9474

-----------------------------------------------------------------------------
         ABSORPTION SPECTRUM VIA TRANSITION ELECTRIC DIPOLE MOMENTS
-----------------------------------------------------------------------------
State   Energy  Wavelength   fosc         T2         TX        TY        TZ
        (cm-1)    (nm)                  (au**2)     (au)      (au)      (au)
-----------------------------------------------------------------------------
   0   20247.7    493.9   0.473914822   7.70550   1.45619  -2.27649  -0.63451
   1   24133.2    414.4   0.335874673   4.58181  -1.40974  -1.57715  -0.32717
   2   25862.1    386.7   0.172168877   2.19163  -0.23673  -1.36929  -0.51052
   3   26759.5    373.7   0.897026660  11.03578   1.62513   2.85670   0.48376
   4   29322.0    341.0   0.103019259   1.15665  -0.62204  -0.72314  -0.49676
   5   29672.0    337.0   0.010361281   0.11496   0.24663   0.20681   0.10661
   6   30350.8    329.5   0.112256082   1.21763  -0.71483   0.70583  -0.45656
   7   30584.2    327.0   0.068599304   0.73841  -0.46874   0.70931  -0.12482
   8   30879.7    323.8   0.481056304   5.12859  -1.92702   1.10722  -0.43501
   9   31544.0    317.0   0.010258576   0.10706   0.30572  -0.06680   0.09559
  10   32063.3    311.9   0.152735939   1.56823  -1.05261  -0.62012  -0.27513
  11   32893.1    304.0   0.000713829   0.00714  -0.07904   0.02947  -0.00541
  12   32944.7    303.5   0.008184545   0.08179   0.26981  -0.09125   0.02574
  13   33477.5    298.7   0.288770910   2.83973  -0.65465   1.49822  -0.40804
  14   33766.4    296.2   0.062606213   0.61039  -0.65044   0.41409   0.12590
  15   34232.1    292.1   0.026568573   0.25551   0.49168   0.08923  -0.07616
  16   34511.9    289.8   0.041918203   0.39986  -0.12169   0.61897  -0.04388
  17   34985.7    285.8   0.002541855   0.02392  -0.10577  -0.04523  -0.10337
  18   35097.9    284.9   0.004730013   0.04437  -0.19057  -0.08867   0.01370
  19   35501.1    281.7   0.070798890   0.65654   0.31087   0.73689  -0.12995
  20   35707.1    280.1   0.105389763   0.97167   0.23230   0.91445   0.28546
  21   36057.0    277.3   0.010762991   0.09827   0.05452   0.27619   0.13789
  22   37207.0    268.8   0.048631423   0.43030  -0.33524   0.55896  -0.07402
  23   37298.9    268.1   0.040848564   0.36054  -0.49685  -0.23020  -0.24636
  24   37589.2    266.0   0.054128483   0.47407  -0.61780  -0.06499  -0.29692
  25   37715.1    265.1   0.037813406   0.33007  -0.41873   0.38802  -0.06461
  26   38382.3    260.5   0.033105931   0.28396   0.29779  -0.43434   0.08139
  27   38806.0    257.7   0.000088566   0.00075  -0.01020  -0.02522  -0.00340
  28   38870.2    257.3   0.021608771   0.18302  -0.23310   0.34949  -0.08083
  29   38912.3    257.0   0.000429685   0.00364  -0.05472  -0.01018  -0.02318
  30   39100.3    255.8   0.014043887   0.11824   0.05516  -0.31706  -0.12113
  31   39557.5    252.8   0.209626272   1.74459   0.01784   1.32043   0.02686
  32   40055.3    249.7   0.013729468   0.11284   0.09287   0.29374   0.13392

FINAL SINGLE POINT ENERGY     -5596.989904406175

DIPOLE MOMENT
-------------
                                X             Y             Z
Electronic contribution:      7.69994     -10.78456      -0.62331
Nuclear contribution   :     -8.81982      11.85524       0.27830
                        -----------------------------------------
Total Dipole Moment    :     -1.11988       1.07068      -0.34501
                        -----------------------------------------
Magnitude (a.u.)       :      1.58730
Magnitude (Debye)      :      4.03460

Rotational constants in cm-1:     0.002082     0.000757     0.000580
Rotational constants in MHz :    62.406953    22.687021    17.374156

                             ****ORCA TERMINATED NORMALLY****
TOTAL RUN TIME: 0 days 0 hours 4 minutes 20 seconds 31 msec
