                         Program Version 4.2.0 -  RELEASE  -
|  1> # ORCA input file
|  2> # SCF done       -148.323033686469          0.000658088163
|  3> ! CAM-B3LYP def2-SVP def2/J RIJCOSX Grid4 TightSCF
|  4> %maxcore 5000
|  5> %tddft
|  6>     Mode sTDDFT
|  7>     Ethresh 5.0
|  8>     maxcore 5000
|  9> end
| 10>
| 11> %pal
| 12>   nprocs 6
| 13>   end
| 14> * xyz 0 1
| 15>    C        1.23401         2.23005         9.06439
| 16>    S        2.31311         0.96613         8.58810
| 17>    C        2.41991         1.50288         6.91997
| 18>    C        1.63094         2.61907         6.79742
| 19>    C        0.97711         3.01635         7.98975
| 20>    O        0.24134         4.12563         7.70716
| 21>    C        0.43981         4.39327         6.39282
| 22>    S       -0.23945         5.62675         5.61188
| 23>    O        1.27623         3.49653         5.82062
| 24>    C        3.22041         0.81607         5.96735
| 25>    C        3.33390         1.19213         4.67340
| 26>    C        4.14550         0.50391         3.73215
| 27>    O        4.86314        -0.59797         4.09447
| 28>    C        4.38396         0.75499         2.39652
| 29>    C        4.06342         1.64580         1.27557
| 30>    O        3.34724         2.60868         1.20661
| 31>    N        4.80606         1.11874         0.21968
| 32>    C        5.56756        -0.00916         0.52395
| 33>    O        6.26637        -0.60450        -0.25432
| 34>    C        5.28821        -0.23749         1.94317
| 35>    C        5.56313        -1.05674         3.02052
| 36>    C        6.40707        -2.19594         3.11784
| 37>    C        6.54027        -2.94508         4.23459
| 38>    C        7.40536        -4.07950         4.30731
| 39>    C        7.51084        -4.91360         5.35740
| 40>    C        6.72315        -4.76229         6.62211
| 41>    C        8.47571        -6.07238         5.31496
| 42>    N        9.43209        -5.99338         6.39180
| 43>    C        9.37111        -6.74384         7.51220
| 44>    C       10.05074        -6.46176         8.65607
| 45>    C       10.06038        -7.29666         9.78634
| 46>    C       10.72346        -6.99570        10.94882
| 47>    C       10.81678        -7.77518        12.12623
| 48>    C       11.55670        -7.20486        13.11867
| 49>    C       12.08010        -5.93661        12.78271
| 50>    S       11.61535        -5.49174        11.16076
| 51>    C       12.85049        -5.08256        13.55099
| 52>    C       13.34967        -5.26123        14.85665
| 53>    C       14.07650        -4.20318        15.31450
| 54>    C       14.18433        -3.12558        14.39722
| 55>    S       13.33277        -3.52114        12.91982
| 56>    C       14.85372        -1.95076        14.63570
| 57>    C       14.97653        -0.83376        13.78804
| 58>    S       15.91739         0.55140        14.33249
| 59>    C       15.63949         1.47720        12.90780
| 60>    C       14.85611         0.76696        12.03173
| 61>    C       14.48860        -0.52525        12.52834
| 62>    O       13.71523        -1.17221        11.62829
| 63>    C       13.58600        -0.32344        10.57702
| 64>    N       12.81400        -0.74787         9.47815
| 65>    O       12.71221         0.03671         8.54804
| 66>    O       12.30125        -1.84890         9.51641
| 67>    C       14.24762         0.86501        10.75158
| 68>    H        0.87913         2.30005        10.07037
| 69>    H        3.75864        -0.04825         6.32835
| 70>    H        2.80665         2.05319         4.29012
| 71>    H        4.79145         1.52638        -0.70442
| 72>    H        6.94712        -2.43729         2.21366
| 73>    H        5.96770        -2.67950         5.11116
| 74>    H        8.00389        -4.26995         3.42560
| 75>    H        6.81367        -3.75498         7.02354
| 76>    H        7.06650        -5.46213         7.37975
| 77>    H        5.66710        -4.95264         6.43421
| 78>    H        9.01091        -6.07883         4.35966
| 79>    H        7.93149        -7.01708         5.41212
| 80>    H        9.95021        -5.12782         6.45665
| 81>    H        8.77095        -7.64191         7.43631
| 82>    H       10.62560        -5.54669         8.71140
| 83>    H        9.51829        -8.23259         9.74285
| 84>    H       10.33685        -8.73561        12.20143
| 85>    H       11.73497        -7.65513        14.07893
| 86>    H       13.16512        -6.15821        15.42086
| 87>    H       14.53793        -4.15581        16.28518
| 88>    H       15.34826        -1.86039        15.59362
| 89>    H       16.05803         2.45623        12.81115
| 90>    H       14.28055         1.67657        10.05503
| 91> *
| 92>
| 93>                          ****END OF INPUT****

CARTESIAN COORDINATES (ANGSTROEM)
---------------------------------
  C      1.234010    2.230050    9.064390
  S      2.313110    0.966130    8.588100
  C      2.419910    1.502880    6.919970
  C      1.630940    2.619070    6.797420
  C      0.977110    3.016350    7.989750
  O      0.241340    4.125630    7.707160
  C      0.439810    4.393270    6.392820
  S     -0.239450    5.626750    5.611880
  O      1.276230    3.496530    5.820620
  C      3.220410    0.816070    5.967350
  C      3.333900    1.192130    4.673400
  C      4.145500    0.503910    3.732150
  O      4.863140   -0.597970    4.094470
  C      4.383960    0.754990    2.396520
  C      4.063420    1.645800    1.275570
  O      3.347240    2.608680    1.206610
  N      4.806060    1.118740    0.219680
  C      5.567560   -0.009160    0.523950
  O      6.266370   -0.604500   -0.254320
  C      5.288210   -0.237490    1.943170
  C      5.563130   -1.056740    3.020520
  C      6.407070   -2.195940    3.117840
  C      6.540270   -2.945080    4.234590
  C      7.405360   -4.079500    4.307310
  C      7.510840   -4.913600    5.357400
  C      6.723150   -4.762290    6.622110
  C      8.475710   -6.072380    5.314960
  N      9.432090   -5.993380    6.391800
  C      9.371110   -6.743840    7.512200
  C     10.050740   -6.461760    8.656070
  C     10.060380   -7.296660    9.786340
  C     10.723460   -6.995700   10.948820
  C     10.816780   -7.775180   12.126230
  C     11.556700   -7.204860   13.118670
  C     12.080100   -5.936610   12.782710
  S     11.615350   -5.491740   11.160760
  C     12.850490   -5.082560   13.550990
  C     13.349670   -5.261230   14.856650
  C     14.076500   -4.203180   15.314500
  C     14.184330   -3.125580   14.397220
  S     13.332770   -3.521140   12.919820
  C     14.853720   -1.950760   14.635700
  C     14.976530   -0.833760   13.788040
  S     15.917390    0.551400   14.332490
  C     15.639490    1.477200   12.907800
  C     14.856110    0.766960   12.031730
  C     14.488600   -0.525250   12.528340
  O     13.715230   -1.172210   11.628290
  C     13.586000   -0.323440   10.577020
  N     12.814000   -0.747870    9.478150
  O     12.712210    0.036710    8.548040
  O     12.301250   -1.848900    9.516410
  C     14.247620    0.865010   10.751580
  H      0.879130    2.300050   10.070370
  H      3.758640   -0.048250    6.328350
  H      2.806650    2.053190    4.290120
  H      4.791450    1.526380   -0.704420
  H      6.947120   -2.437290    2.213660
  H      5.967700   -2.679500    5.111160
  H      8.003890   -4.269950    3.425600
  H      6.813670   -3.754980    7.023540
  H      7.066500   -5.462130    7.379750
  H      5.667100   -4.952640    6.434210
  H      9.010910   -6.078830    4.359660
  H      7.931490   -7.017080    5.412120
  H      9.950210   -5.127820    6.456650
  H      8.770950   -7.641910    7.436310
  H     10.625600   -5.546690    8.711400
  H      9.518290   -8.232590    9.742850
  H     10.336850   -8.735610   12.201430
  H     11.734970   -7.655130   14.078930
  H     13.165120   -6.158210   15.420860
  H     14.537930   -4.155810   16.285180
  H     15.348260   -1.860390   15.593620
  H     16.058030    2.456230   12.811150
  H     14.280550    1.676570   10.055030

 Total Charge           Charge          ....    0
 Multiplicity           Mult            ....    1
 Number of Electrons    NEL             ....  410
 Basis Dimension        Dim             ....  877

ORBITAL ENERGIES
----------------

  NO   OCC          E(Eh)            E(eV)
   0   2.0000     -88.980905     -2421.2935
   1   2.0000     -88.960426     -2420.7362
   2   2.0000     -88.926076     -2419.8015
   3   2.0000     -88.922345     -2419.7000
   4   2.0000     -88.889242     -2418.7992
   5   2.0000     -19.320705      -525.7431
   6   2.0000     -19.316593      -525.6312
   7   2.0000     -19.310681      -525.4704
   8   2.0000     -19.295565      -525.0590
   9   2.0000     -19.237081      -523.4676
  10   2.0000     -19.234246      -523.3904
  11   2.0000     -19.206240      -522.6284
  12   2.0000     -19.206001      -522.6219
  13   2.0000     -14.647892      -398.5894
  14   2.0000     -14.449997      -393.2044
  15   2.0000     -14.442470      -392.9996
  16   2.0000     -10.442178      -284.1461
  17   2.0000     -10.395912      -282.8871
  18   2.0000     -10.395684      -282.8809
  19   2.0000     -10.377654      -282.3903
  20   2.0000     -10.360805      -281.9318
  21   2.0000     -10.360770      -281.9309
  22   2.0000     -10.360478      -281.9229
  23   2.0000     -10.359100      -281.8854
  24   2.0000     -10.332365      -281.1579
  25   2.0000     -10.330859      -281.1170
  26   2.0000     -10.322646      -280.8935
  27   2.0000     -10.321650      -280.8664
  28   2.0000     -10.321115      -280.8518
  29   2.0000     -10.307605      -280.4842
  30   2.0000     -10.306296      -280.4486
  31   2.0000     -10.302335      -280.3408
  32   2.0000     -10.299465      -280.2627
  33   2.0000     -10.296697      -280.1874
  34   2.0000     -10.296277      -280.1759
  35   2.0000     -10.294645      -280.1315
  36   2.0000     -10.293851      -280.1099
  37   2.0000     -10.292386      -280.0700
  38   2.0000     -10.291718      -280.0519
  39   2.0000     -10.288684      -279.9693
  40   2.0000     -10.286939      -279.9218
  41   2.0000     -10.286494      -279.9097
  42   2.0000     -10.283862      -279.8381
  43   2.0000     -10.283152      -279.8188
  44   2.0000     -10.278769      -279.6995
  45   2.0000     -10.276636      -279.6415
  46   2.0000     -10.276030      -279.6250
  47   2.0000     -10.273870      -279.5662
  48   2.0000     -10.272081      -279.5175
  49   2.0000     -10.269223      -279.4398
  50   2.0000     -10.268129      -279.4100
  51   2.0000     -10.264261      -279.3047
  52   2.0000     -10.256782      -279.1012
  53   2.0000      -8.076121      -219.7624
  54   2.0000      -8.055424      -219.1992
  55   2.0000      -8.022428      -218.3014
  56   2.0000      -8.018567      -218.1963
  57   2.0000      -7.987352      -217.3469
  58   2.0000      -6.045734      -164.5128
  59   2.0000      -6.041522      -164.3982
  60   2.0000      -6.037649      -164.2928
  61   2.0000      -6.024798      -163.9431
  62   2.0000      -6.020512      -163.8265
  63   2.0000      -6.017653      -163.7487
  64   2.0000      -5.992152      -163.0547
  65   2.0000      -5.988337      -162.9509
  66   2.0000      -5.988128      -162.9453
  67   2.0000      -5.984193      -162.8382
  68   2.0000      -5.983323      -162.8145
  69   2.0000      -5.979338      -162.7061
  70   2.0000      -5.957217      -162.1041
  71   2.0000      -5.953701      -162.0084
  72   2.0000      -5.947253      -161.8330
  73   2.0000      -1.317683       -35.8560
  74   2.0000      -1.286926       -35.0190
  75   2.0000      -1.225274       -33.3414
  76   2.0000      -1.217677       -33.1347
  77   2.0000      -1.178924       -32.0802
  78   2.0000      -1.150928       -31.3184
  79   2.0000      -1.132764       -30.8241
  80   2.0000      -1.130450       -30.7611
  81   2.0000      -1.044688       -28.4274
  82   2.0000      -1.038199       -28.2508
  83   2.0000      -1.010936       -27.5090
  84   2.0000      -0.982420       -26.7330
  85   2.0000      -0.976357       -26.5680
  86   2.0000      -0.955303       -25.9951
  87   2.0000      -0.939588       -25.5675
  88   2.0000      -0.926638       -25.2151
  89   2.0000      -0.925685       -25.1892
  90   2.0000      -0.920047       -25.0358
  91   2.0000      -0.904315       -24.6077
  92   2.0000      -0.899221       -24.4690
  93   2.0000      -0.889583       -24.2068
  94   2.0000      -0.883010       -24.0279
  95   2.0000      -0.865065       -23.5396
  96   2.0000      -0.859363       -23.3845
  97   2.0000      -0.838605       -22.8196
  98   2.0000      -0.828518       -22.5451
  99   2.0000      -0.820210       -22.3190
 100   2.0000      -0.816434       -22.2163
 101   2.0000      -0.808860       -22.0102
 102   2.0000      -0.802224       -21.8296
 103   2.0000      -0.790478       -21.5100
 104   2.0000      -0.785991       -21.3879
 105   2.0000      -0.775084       -21.0911
 106   2.0000      -0.767049       -20.8725
 107   2.0000      -0.759391       -20.6641
 108   2.0000      -0.748925       -20.3793
 109   2.0000      -0.739902       -20.1338
 110   2.0000      -0.733425       -19.9575
 111   2.0000      -0.718431       -19.5495
 112   2.0000      -0.712439       -19.3864
 113   2.0000      -0.701182       -19.0801
 114   2.0000      -0.697005       -18.9665
 115   2.0000      -0.693979       -18.8841
 116   2.0000      -0.688177       -18.7262
 117   2.0000      -0.677321       -18.4308
 118   2.0000      -0.665075       -18.0976
 119   2.0000      -0.653074       -17.7711
 120   2.0000      -0.641090       -17.4450
 121   2.0000      -0.632197       -17.2030
 122   2.0000      -0.630523       -17.1574
 123   2.0000      -0.623248       -16.9594
 124   2.0000      -0.618096       -16.8193
 125   2.0000      -0.617250       -16.7962
 126   2.0000      -0.614966       -16.7341
 127   2.0000      -0.612084       -16.6557
 128   2.0000      -0.610776       -16.6201
 129   2.0000      -0.605432       -16.4747
 130   2.0000      -0.601218       -16.3600
 131   2.0000      -0.597374       -16.2554
 132   2.0000      -0.591334       -16.0910
 133   2.0000      -0.582784       -15.8584
 134   2.0000      -0.581378       -15.8201
 135   2.0000      -0.578879       -15.7521
 136   2.0000      -0.575691       -15.6654
 137   2.0000      -0.570975       -15.5370
 138   2.0000      -0.568411       -15.4672
 139   2.0000      -0.558850       -15.2071
 140   2.0000      -0.554249       -15.0819
 141   2.0000      -0.552914       -15.0455
 142   2.0000      -0.543997       -14.8029
 143   2.0000      -0.540249       -14.7009
 144   2.0000      -0.539666       -14.6851
 145   2.0000      -0.532325       -14.4853
 146   2.0000      -0.519289       -14.1306
 147   2.0000      -0.513912       -13.9843
 148   2.0000      -0.512277       -13.9398
 149   2.0000      -0.510563       -13.8931
 150   2.0000      -0.508127       -13.8268
 151   2.0000      -0.503929       -13.7126
 152   2.0000      -0.503913       -13.7122
 153   2.0000      -0.502188       -13.6652
 154   2.0000      -0.500358       -13.6154
 155   2.0000      -0.499079       -13.5806
 156   2.0000      -0.495124       -13.4730
 157   2.0000      -0.489993       -13.3334
 158   2.0000      -0.486313       -13.2333
 159   2.0000      -0.482890       -13.1401
 160   2.0000      -0.480721       -13.0811
 161   2.0000      -0.480190       -13.0666
 162   2.0000      -0.478368       -13.0170
 163   2.0000      -0.474611       -12.9148
 164   2.0000      -0.471045       -12.8178
 165   2.0000      -0.468053       -12.7364
 166   2.0000      -0.463846       -12.6219
 167   2.0000      -0.461951       -12.5703
 168   2.0000      -0.460249       -12.5240
 169   2.0000      -0.458848       -12.4859
 170   2.0000      -0.453842       -12.3497
 171   2.0000      -0.451023       -12.2730
 172   2.0000      -0.447182       -12.1684
 173   2.0000      -0.442936       -12.0529
 174   2.0000      -0.440658       -11.9909
 175   2.0000      -0.434368       -11.8197
 176   2.0000      -0.431546       -11.7430
 177   2.0000      -0.421586       -11.4720
 178   2.0000      -0.420916       -11.4537
 179   2.0000      -0.414993       -11.2925
 180   2.0000      -0.408369       -11.1123
 181   2.0000      -0.402789       -10.9605
 182   2.0000      -0.396724       -10.7954
 183   2.0000      -0.384349       -10.4587
 184   2.0000      -0.375558       -10.2195
 185   2.0000      -0.374689       -10.1958
 186   2.0000      -0.373465       -10.1625
 187   2.0000      -0.370609       -10.0848
 188   2.0000      -0.366451        -9.9716
 189   2.0000      -0.365207        -9.9378
 190   2.0000      -0.363214        -9.8836
 191   2.0000      -0.357452        -9.7268
 192   2.0000      -0.354056        -9.6344
 193   2.0000      -0.340950        -9.2777
 194   2.0000      -0.340445        -9.2640
 195   2.0000      -0.321842        -8.7578
 196   2.0000      -0.309855        -8.4316
 197   2.0000      -0.307534        -8.3684
 198   2.0000      -0.305390        -8.3101
 199   2.0000      -0.300755        -8.1839
 200   2.0000      -0.297677        -8.1002
 201   2.0000      -0.293979        -7.9996
 202   2.0000      -0.259055        -7.0493
 203   2.0000      -0.250269        -6.8102
 204   2.0000      -0.188010        -5.1160
 205   0.0000      -0.068699        -1.8694
 206   0.0000      -0.063479        -1.7274
 207   0.0000      -0.050334        -1.3697
 208   0.0000      -0.045891        -1.2487
 209   0.0000      -0.005808        -0.1580

MULLIKEN ATOMIC CHARGES
-----------------------
   0 C :   -0.186537
   1 S :    0.139896
   2 C :   -0.187815
   3 C :    0.167463
   4 C :    0.239263
   5 O :   -0.170644
   6 C :    0.236135
   7 S :   -0.145658
   8 O :   -0.176905
   9 C :    0.078867
  10 C :   -0.030028
  11 C :    0.081618
  12 O :   -0.222165
  13 C :   -0.026820
  14 C :    0.163384
  15 O :   -0.136562
  16 N :   -0.169149
  17 C :    0.163246
  18 O :   -0.145014
  19 C :   -0.035247
  20 C :    0.093490
  21 C :   -0.029138
  22 C :    0.031605
  23 C :    0.004601
  24 C :   -0.209164
  25 C :    0.087708
  26 C :    0.224396
  27 N :   -0.149371
  28 C :    0.050303
  29 C :   -0.032836
  30 C :   -0.002385
  31 C :   -0.043592
  32 C :    0.044475
  33 C :    0.010434
  34 C :   -0.039055
  35 S :    0.072431
  36 C :   -0.054304
  37 C :    0.037619
  38 C :    0.017495
  39 C :   -0.023391
  40 S :    0.080814
  41 C :    0.028893
  42 C :   -0.219102
  43 S :    0.132490
  44 C :   -0.152165
  45 C :    0.137176
  46 C :    0.180974
  47 O :   -0.191459
  48 C :    0.244288
  49 N :    0.272851
  50 O :   -0.259492
  51 O :   -0.237340
  52 C :   -0.085994
  53 H :    0.044502
  54 H :   -0.006811
  55 H :    0.031557
  56 H :    0.138292
  57 H :    0.011079
  58 H :   -0.002018
  59 H :   -0.020535
  60 H :    0.040333
  61 H :    0.018933
  62 H :    0.035236
  63 H :    0.010631
  64 H :    0.023536
  65 H :    0.128128
  66 H :    0.001408
  67 H :    0.001663
  68 H :   -0.025119
  69 H :   -0.021866
  70 H :   -0.022898
  71 H :   -0.020938
  72 H :   -0.024141
  73 H :   -0.033127
  74 H :    0.023345
  75 H :    0.008224
Sum of atomic charges:   -0.0000000

LOEWDIN ATOMIC CHARGES
----------------------
   0 C :   -0.200992
   1 S :    0.455749
   2 C :   -0.195141
   3 C :   -0.005854
   4 C :   -0.009022
   5 O :   -0.015810
   6 C :   -0.062959
   7 S :    0.016264
   8 O :   -0.011642
   9 C :   -0.022589
  10 C :   -0.028181
  11 C :    0.066297
  12 O :    0.008566
  13 C :   -0.093953
  14 C :    0.083427
  15 O :   -0.155119
  16 N :   -0.007162
  17 C :    0.083844
  18 O :   -0.162556
  19 C :   -0.100950
  20 C :    0.072095
  21 C :   -0.040389
  22 C :    0.002214
  23 C :   -0.051624
  24 C :   -0.029565
  25 C :   -0.054836
  26 C :    0.047011
  27 N :    0.004400
  28 C :    0.043603
  29 C :   -0.122896
  30 C :   -0.030149
  31 C :   -0.178821
  32 C :   -0.025299
  33 C :   -0.054571
  34 C :   -0.163668
  35 S :    0.373166
  36 C :   -0.206557
  37 C :   -0.027483
  38 C :   -0.054752
  39 C :   -0.136095
  40 S :    0.389631
  41 C :   -0.114982
  42 C :   -0.190132
  43 S :    0.460722
  44 C :   -0.205185
  45 C :   -0.081101
  46 C :    0.001119
  47 O :   -0.002055
  48 C :    0.022200
  49 N :    0.274377
  50 O :   -0.220687
  51 O :   -0.199419
  52 C :   -0.010826
  53 H :    0.036586
  54 H :    0.033936
  55 H :    0.050115
  56 H :    0.094494
  57 H :    0.045565
  58 H :    0.029061
  59 H :    0.027646
  60 H :    0.040401
  61 H :    0.032426
  62 H :    0.041094
  63 H :    0.027218
  64 H :    0.033907
  65 H :    0.084819
  66 H :    0.026067
  67 H :    0.022518
  68 H :    0.029075
  69 H :    0.029889
  70 H :    0.027939
  71 H :    0.028965
  72 H :    0.028046
  73 H :    0.028990
  74 H :    0.024876
  75 H :    0.044702

  Mayer bond orders larger than 0.100000
B(  0-C ,  1-S ) :   1.1247 B(  0-C ,  4-C ) :   1.5350 B(  0-C , 53-H ) :   0.9894
B(  1-S ,  2-C ) :   1.1086 B(  2-C ,  3-C ) :   1.5040 B(  2-C ,  9-C ) :   1.1063
B(  3-C ,  4-C ) :   1.2358 B(  3-C ,  8-O ) :   1.0667 B(  4-C ,  5-O ) :   1.0650
B(  5-O ,  6-C ) :   1.0949 B(  6-C ,  7-S ) :   1.8096 B(  6-C ,  8-O ) :   1.0882
B(  9-C , 10-C ) :   1.6532 B(  9-C , 54-H ) :   0.9704 B( 10-C , 11-C ) :   1.1782
B( 10-C , 55-H ) :   0.9563 B( 11-C , 12-O ) :   1.1442 B( 11-C , 13-C ) :   1.4133
B( 12-O , 20-C ) :   1.1470 B( 13-C , 14-C ) :   0.8748 B( 13-C , 19-C ) :   1.2624
B( 14-C , 15-O ) :   2.2754 B( 14-C , 16-N ) :   1.0756 B( 16-N , 17-C ) :   1.0786
B( 16-N , 56-H ) :   0.9140 B( 17-C , 18-O ) :   2.2671 B( 17-C , 19-C ) :   0.8795
B( 19-C , 20-C ) :   1.4105 B( 20-C , 21-C ) :   1.1467 B( 21-C , 22-C ) :   1.6566
B( 21-C , 57-H ) :   0.9689 B( 22-C , 23-C ) :   1.0966 B( 22-C , 58-H ) :   0.9783
B( 23-C , 24-C ) :   1.7532 B( 23-C , 59-H ) :   0.9800 B( 24-C , 25-C ) :   1.0653
B( 24-C , 26-C ) :   1.0506 B( 25-C , 60-H ) :   0.9460 B( 25-C , 61-H ) :   0.9509
B( 25-C , 62-H ) :   0.9447 B( 26-C , 27-N ) :   1.0031 B( 26-C , 63-H ) :   0.9395
B( 26-C , 64-H ) :   0.9265 B( 27-N , 28-C ) :   1.2308 B( 27-N , 65-H ) :   0.9367
B( 28-C , 29-C ) :   1.5861 B( 28-C , 66-H ) :   0.9655 B( 29-C , 30-C ) :   1.1765
B( 29-C , 67-H ) :   0.9628 B( 30-C , 31-C ) :   1.5760 B( 30-C , 68-H ) :   0.9799
B( 31-C , 32-C ) :   1.1517 B( 31-C , 35-S ) :   1.0116 B( 32-C , 33-C ) :   1.5796
B( 32-C , 69-H ) :   0.9973 B( 33-C , 34-C ) :   1.1958 B( 33-C , 70-H ) :   0.9941
B( 34-C , 35-S ) :   1.0669 B( 34-C , 36-C ) :   1.4878 B( 36-C , 37-C ) :   1.2024
B( 36-C , 40-S ) :   1.0209 B( 37-C , 38-C ) :   1.5775 B( 37-C , 71-H ) :   0.9923
B( 38-C , 39-C ) :   1.1495 B( 38-C , 72-H ) :   0.9991 B( 39-C , 40-S ) :   1.0580
B( 39-C , 41-C ) :   1.5832 B( 41-C , 42-C ) :   1.1567 B( 41-C , 73-H ) :   0.9417
B( 42-C , 43-S ) :   1.1355 B( 42-C , 44-C ) :   0.1078 B( 42-C , 46-C ) :   1.4257
B( 43-S , 44-C ) :   1.1639 B( 44-C , 45-C ) :   1.4312 B( 44-C , 74-H ) :   0.9778
B( 45-C , 46-C ) :   1.2292 B( 45-C , 52-C ) :   1.0664 B( 46-C , 47-O ) :   1.0815
B( 47-O , 48-C ) :   1.1287 B( 48-C , 49-N ) :   0.9228 B( 48-C , 52-C ) :   1.5648
B( 49-N , 50-O ) :   1.5236 B( 49-N , 51-O ) :   1.5103 B( 50-O , 51-O ) :   0.2758
B( 52-C , 75-H ) :   1.0256

-----------------------------------------------------------------------------
         ABSORPTION SPECTRUM VIA TRANSITION ELECTRIC DIPOLE MOMENTS
-----------------------------------------------------------------------------
State   Energy  Wavelength   fosc         T2         TX        TY        TZ
        (cm-1)    (nm)                  (au**2)     (au)      (au)      (au)
-----------------------------------------------------------------------------
   0   11611.9    861.2   0.189702243   5.37829   1.29516   1.74709   0.80532
   1   15489.7    645.6   0.688946102  14.64258  -2.47759  -1.62014  -2.42472
   2   17066.0    586.0   0.274866647   5.30230  -0.86705  -1.92286  -0.92365
   3   21234.2    470.9   0.038338221   0.59439   0.06067  -0.65999   0.39385
   4   24543.1    407.4   0.072718391   0.97542   0.06711  -0.97764   0.12304
   5   25382.2    394.0   1.008099138  13.07526   2.21379  -2.61549  -1.15481
   6   26412.3    378.6   0.016598763   0.20689  -0.04540  -0.37347   0.25564
   7   28963.1    345.3   1.306628673  14.85194   0.32213  -1.58262   3.49907
   8   29874.9    334.7   0.060361428   0.66516  -0.31659   0.73166  -0.17209
   9   30338.6    329.6   0.071353697   0.77428   0.25778  -0.37971   0.75076
  10   32267.3    309.9   0.010518250   0.10731   0.06351   0.28716   0.14429
  11   32402.0    308.6   0.002225994   0.02262   0.02319   0.14811  -0.01199
  12   32419.6    308.5   0.000003271   0.00003   0.00278   0.00502  -0.00059
  13   32490.0    307.8   0.000191351   0.00194  -0.01390   0.04177  -0.00093
  14   33050.0    302.6   0.037105312   0.36961   0.25398  -0.25524   0.48985
  15   33337.1    300.0   0.059737934   0.58993  -0.34874   0.56631  -0.38419
  16   34046.4    293.7   0.064488989   0.62358  -0.18667  -0.67470   0.36539
  17   34664.0    288.5   0.017092438   0.16233  -0.12644  -0.11154   0.36593
  18   35188.3    284.2   0.064506858   0.60351  -0.41934  -0.03943  -0.65277
  19   35475.2    281.9   0.002096302   0.01945   0.07794   0.05139   0.10362
  20   35742.2    279.8   0.043652040   0.40207   0.52561   0.30317  -0.18409
  21   35971.9    278.0   0.122577121   1.12182  -0.71425  -0.77792  -0.08058
  22   36084.2    277.1   0.795245697   7.25537   0.42697  -0.24207   2.64849
  23   36701.6    272.5   0.072183627   0.64748   0.50289   0.50706   0.37078
  24   37313.5    268.0   0.008916254   0.07867  -0.09906  -0.08725   0.24747
  25   37636.7    265.7   0.044608690   0.39020  -0.36899  -0.10288  -0.49341
  26   38056.0    262.8   0.000006707   0.00006  -0.00636  -0.00274  -0.00317
  27   38920.0    256.9   0.020372596   0.17233  -0.16747  -0.05841   0.37532
  28   39309.8    254.4   0.065505618   0.54860  -0.35139  -0.53139  -0.37782
  29   39662.1    252.1   0.024821095   0.20603  -0.11166  -0.27651  -0.34220
  30   39951.1    250.3   0.033536402   0.27635   0.24026   0.46557   0.04334
  31   40089.3    249.4   0.164035380   1.34705   0.58292  -0.82852   0.56640

FINAL SINGLE POINT ENERGY     -4177.275429376902

DIPOLE MOMENT
-------------
                                X             Y             Z
Electronic contribution:    -11.32330      46.78608       2.21604
Nuclear contribution   :     11.44590     -49.17598      -0.70218
                        -----------------------------------------
Total Dipole Moment    :      0.12260      -2.38990       1.51386
                        -----------------------------------------
Magnitude (a.u.)       :      2.83168
Magnitude (Debye)      :      7.19756

Rotational constants in cm-1:     0.001478     0.000445     0.000404
Rotational constants in MHz :    44.312470    13.329257    12.111767

                             ****ORCA TERMINATED NORMALLY****
TOTAL RUN TIME: 0 days 0 hours 4 minutes 40 seconds 367 msec
