                         Program Version 4.2.0 -  RELEASE  -
|  1> # ORCA input file
|  2> # SCF done       -169.049390756379          0.000427036388
|  3> ! CAM-B3LYP def2-SVP def2/J RIJCOSX Grid4 TightSCF
|  4> %maxcore 5000
|  5> %tddft
|  6>     Mode sTDDFT
|  7>     Ethresh 5.0
|  8>     maxcore 5000
|  9> end
| 10>
| 11> %pal
| 12>   nprocs 6
| 13>   end
| 14> * xyz 0 1
| 15>    C       -0.34195        -5.04542         7.10349
| 16>    S        0.93548        -5.36138         5.99944
| 17>    C        0.11724        -6.75208         5.32524
| 18>    C       -1.09540        -6.92557         5.96284
| 19>    C       -1.34518        -5.95524         6.96683
| 20>    S       -2.85094        -6.08011         7.84254
| 21>    C       -3.44595        -7.52274         6.98896
| 22>    O       -4.48952        -8.04067         7.22966
| 23>    S       -2.33539        -8.12850         5.73293
| 24>    C        0.74172        -7.48476         4.28396
| 25>    C        0.21226        -8.56695         3.66069
| 26>    C        0.85005        -9.28267         2.62501
| 27>    S        2.42584        -8.86086         2.04454
| 28>    C        2.47645       -10.16181         0.89910
| 29>    C        1.27272       -10.88379         0.93015
| 30>    C        0.36051       -10.39355         1.91982
| 31>    C       -0.89169       -11.01399         2.09577
| 32>    C       -1.22698       -12.06521         1.29423
| 33>    F       -2.41343       -12.67381         1.44616
| 34>    C       -0.35070       -12.51750         0.28134
| 35>    F       -0.74283       -13.52850        -0.51114
| 36>    C        0.87262       -11.94445         0.09168
| 37>    C        3.67361       -10.31562         0.15210
| 38>    C        4.10323       -11.41098        -0.51730
| 39>    C        5.35005       -11.42336        -1.21367
| 40>    C        5.89049       -12.45672        -1.88648
| 41>    C        5.30588       -13.81892        -2.02257
| 42>    C        7.24134       -12.27821        -2.54471
| 43>    N        8.29035       -12.79403        -1.68821
| 44>    C        8.70082       -14.06540        -1.73911
| 45>    C        9.52174       -14.66925        -0.82482
| 46>    C        9.90703       -16.01897        -0.84891
| 47>    C        9.37211       -17.05027        -1.59058
| 48>    C        9.79551       -18.39866        -1.58040
| 49>    C        9.05285       -19.23916        -2.36267
| 50>    C        7.99395       -18.59907        -3.03280
| 51>    S        7.97453       -16.90289        -2.64837
| 52>    C        7.03947       -19.10164        -3.90698
| 53>    C        6.85836       -20.39929        -4.40847
| 54>    C        5.80181       -20.50837        -5.27564
| 55>    C        5.10505       -19.30448        -5.49168
| 56>    S        5.82653       -18.01946        -4.55734
| 57>    C        4.00568       -19.08238        -6.31022
| 58>    C        3.41709       -17.83452        -6.41635
| 59>    C        2.33204       -17.50991        -7.21549
| 60>    C        1.71262       -16.22212        -7.31868
| 61>    C        2.06239       -15.06422        -6.65206
| 62>    C        1.40692       -13.82958        -6.81609
| 63>    N        0.92827       -12.78734        -6.89842
| 64>    C        3.10515       -14.91370        -5.72279
| 65>    N        3.92481       -14.66548        -4.95239
| 66>    C        0.61296       -16.33306        -8.27809
| 67>    C        0.56407       -17.66512        -8.75522
| 68>    C        1.63889       -18.45123        -8.10604
| 69>    O        1.87800       -19.62985        -8.29375
| 70>    C       -0.36106       -18.09009        -9.67428
| 71>    C       -1.28863       -17.15405       -10.14799
| 72>    C       -1.23432       -15.82806        -9.66421
| 73>    C       -0.29529       -15.39770        -8.73273
| 74>    S       -2.47151       -14.83612       -10.37832
| 75>    C       -3.03438       -16.20131       -11.30538
| 76>    C       -2.33558       -17.34063       -11.09266
| 77>   Br       -4.49311       -15.99308       -12.46812
| 78>    H       -0.28493        -4.21978         7.78163
| 79>    H        1.71676        -7.12544         3.98222
| 80>    H       -0.76305        -8.92469         3.95677
| 81>    H       -1.58749       -10.67008         2.84309
| 82>    H        1.49304       -12.29044        -0.71660
| 83>    H        4.32997        -9.45308         0.18366
| 84>    H        3.51910       -12.31539        -0.51441
| 85>    H        5.89256       -10.48444        -1.19767
| 86>    H        4.49226       -13.99011        -1.32600
| 87>    H        6.06927       -14.57863        -1.85425
| 88>    H        4.92546       -13.96378        -3.03565
| 89>    H        7.44247       -11.22108        -2.73588
| 90>    H        7.27015       -12.82438        -3.48962
| 91>    H        8.46886       -12.27177        -0.84082
| 92>    H        8.39399       -14.59490        -2.62822
| 93>    H        9.91836       -14.06625        -0.01836
| 94>    H       10.69329       -16.30619        -0.16176
| 95>    H       10.64010       -18.71382        -0.99247
| 96>    H        9.23477       -20.29410        -2.46249
| 97>    H        7.50033       -21.21611        -4.12960
| 98>    H        5.50893       -21.42072        -5.76404
| 99>    H        3.60788       -19.91145        -6.87606
|100>    H        3.84904       -17.04164        -5.81617
|101>    H       -0.37200       -19.11228       -10.01914
|102>    H       -0.29728       -14.37466        -8.39571
|103>    H       -2.54715       -18.27501       -11.58000
|104> *
|105>
|106>                          ****END OF INPUT****

CARTESIAN COORDINATES (ANGSTROEM)
---------------------------------
  C     -0.341950   -5.045420    7.103490
  S      0.935480   -5.361380    5.999440
  C      0.117240   -6.752080    5.325240
  C     -1.095400   -6.925570    5.962840
  C     -1.345180   -5.955240    6.966830
  S     -2.850940   -6.080110    7.842540
  C     -3.445950   -7.522740    6.988960
  O     -4.489520   -8.040670    7.229660
  S     -2.335390   -8.128500    5.732930
  C      0.741720   -7.484760    4.283960
  C      0.212260   -8.566950    3.660690
  C      0.850050   -9.282670    2.625010
  S      2.425840   -8.860860    2.044540
  C      2.476450  -10.161810    0.899100
  C      1.272720  -10.883790    0.930150
  C      0.360510  -10.393550    1.919820
  C     -0.891690  -11.013990    2.095770
  C     -1.226980  -12.065210    1.294230
  F     -2.413430  -12.673810    1.446160
  C     -0.350700  -12.517500    0.281340
  F     -0.742830  -13.528500   -0.511140
  C      0.872620  -11.944450    0.091680
  C      3.673610  -10.315620    0.152100
  C      4.103230  -11.410980   -0.517300
  C      5.350050  -11.423360   -1.213670
  C      5.890490  -12.456720   -1.886480
  C      5.305880  -13.818920   -2.022570
  C      7.241340  -12.278210   -2.544710
  N      8.290350  -12.794030   -1.688210
  C      8.700820  -14.065400   -1.739110
  C      9.521740  -14.669250   -0.824820
  C      9.907030  -16.018970   -0.848910
  C      9.372110  -17.050270   -1.590580
  C      9.795510  -18.398660   -1.580400
  C      9.052850  -19.239160   -2.362670
  C      7.993950  -18.599070   -3.032800
  S      7.974530  -16.902890   -2.648370
  C      7.039470  -19.101640   -3.906980
  C      6.858360  -20.399290   -4.408470
  C      5.801810  -20.508370   -5.275640
  C      5.105050  -19.304480   -5.491680
  S      5.826530  -18.019460   -4.557340
  C      4.005680  -19.082380   -6.310220
  C      3.417090  -17.834520   -6.416350
  C      2.332040  -17.509910   -7.215490
  C      1.712620  -16.222120   -7.318680
  C      2.062390  -15.064220   -6.652060
  C      1.406920  -13.829580   -6.816090
  N      0.928270  -12.787340   -6.898420
  C      3.105150  -14.913700   -5.722790
  N      3.924810  -14.665480   -4.952390
  C      0.612960  -16.333060   -8.278090
  C      0.564070  -17.665120   -8.755220
  C      1.638890  -18.451230   -8.106040
  O      1.878000  -19.629850   -8.293750
  C     -0.361060  -18.090090   -9.674280
  C     -1.288630  -17.154050  -10.147990
  C     -1.234320  -15.828060   -9.664210
  C     -0.295290  -15.397700   -8.732730
  S     -2.471510  -14.836120  -10.378320
  C     -3.034380  -16.201310  -11.305380
  C     -2.335580  -17.340630  -11.092660
  Br    -4.493110  -15.993080  -12.468120
  H     -0.284930   -4.219780    7.781630
  H      1.716760   -7.125440    3.982220
  H     -0.763050   -8.924690    3.956770
  H     -1.587490  -10.670080    2.843090
  H      1.493040  -12.290440   -0.716600
  H      4.329970   -9.453080    0.183660
  H      3.519100  -12.315390   -0.514410
  H      5.892560  -10.484440   -1.197670
  H      4.492260  -13.990110   -1.326000
  H      6.069270  -14.578630   -1.854250
  H      4.925460  -13.963780   -3.035650
  H      7.442470  -11.221080   -2.735880
  H      7.270150  -12.824380   -3.489620
  H      8.468860  -12.271770   -0.840820
  H      8.393990  -14.594900   -2.628220
  H      9.918360  -14.066250   -0.018360
  H     10.693290  -16.306190   -0.161760
  H     10.640100  -18.713820   -0.992470
  H      9.234770  -20.294100   -2.462490
  H      7.500330  -21.216110   -4.129600
  H      5.508930  -21.420720   -5.764040
  H      3.607880  -19.911450   -6.876060
  H      3.849040  -17.041640   -5.816170
  H     -0.372000  -19.112280  -10.019140
  H     -0.297280  -14.374660   -8.395710
  H     -2.547150  -18.275010  -11.580000

 Total Charge           Charge          ....    0
 Multiplicity           Mult            ....    1
 Number of Electrons    NEL             ....  516
 Basis Dimension        Dim             .... 1058

ORBITAL ENERGIES
----------------

  NO   OCC          E(Eh)            E(eV)
   0   2.0000    -482.870405    -13139.5717
   1   2.0000     -88.968841     -2420.9652
   2   2.0000     -88.968471     -2420.9552
   3   2.0000     -88.964457     -2420.8460
   4   2.0000     -88.963945     -2420.8320
   5   2.0000     -88.960945     -2420.7504
   6   2.0000     -88.956501     -2420.6295
   7   2.0000     -88.949671     -2420.4436
   8   2.0000     -62.548112     -1702.0206
   9   2.0000     -56.382040     -1534.2333
  10   2.0000     -56.379367     -1534.1606
  11   2.0000     -56.379324     -1534.1594
  12   2.0000     -24.783131      -674.3833
  13   2.0000     -24.781130      -674.3288
  14   2.0000     -19.228339      -523.2297
  15   2.0000     -19.186560      -522.0928
  16   2.0000     -14.470819      -393.7710
  17   2.0000     -14.398316      -391.7981
  18   2.0000     -14.387438      -391.5021
  19   2.0000     -10.407590      -283.2049
  20   2.0000     -10.365426      -282.0576
  21   2.0000     -10.363930      -282.0169
  22   2.0000     -10.348765      -281.6042
  23   2.0000     -10.340303      -281.3740
  24   2.0000     -10.336632      -281.2741
  25   2.0000     -10.332807      -281.1700
  26   2.0000     -10.325193      -280.9628
  27   2.0000     -10.319341      -280.8035
  28   2.0000     -10.318370      -280.7771
  29   2.0000     -10.317051      -280.7412
  30   2.0000     -10.315729      -280.7053
  31   2.0000     -10.314180      -280.6631
  32   2.0000     -10.312952      -280.6297
  33   2.0000     -10.311258      -280.5836
  34   2.0000     -10.310990      -280.5763
  35   2.0000     -10.308816      -280.5171
  36   2.0000     -10.308279      -280.5025
  37   2.0000     -10.307850      -280.4909
  38   2.0000     -10.307526      -280.4820
  39   2.0000     -10.305278      -280.4209
  40   2.0000     -10.304841      -280.4090
  41   2.0000     -10.303553      -280.3739
  42   2.0000     -10.296358      -280.1782
  43   2.0000     -10.293622      -280.1037
  44   2.0000     -10.293615      -280.1035
  45   2.0000     -10.293388      -280.0973
  46   2.0000     -10.292491      -280.0729
  47   2.0000     -10.291716      -280.0518
  48   2.0000     -10.291597      -280.0486
  49   2.0000     -10.287936      -279.9490
  50   2.0000     -10.287235      -279.9299
  51   2.0000     -10.285793      -279.8907
  52   2.0000     -10.285545      -279.8839
  53   2.0000     -10.285370      -279.8791
  54   2.0000     -10.283998      -279.8418
  55   2.0000     -10.283342      -279.8240
  56   2.0000     -10.282109      -279.7904
  57   2.0000     -10.282013      -279.7878
  58   2.0000     -10.280000      -279.7330
  59   2.0000     -10.278905      -279.7032
  60   2.0000     -10.278580      -279.6944
  61   2.0000     -10.277657      -279.6693
  62   2.0000     -10.274456      -279.5822
  63   2.0000     -10.266911      -279.3768
  64   2.0000     -10.258823      -279.1568
  65   2.0000     -10.258257      -279.1414
  66   2.0000     -10.255347      -279.0622
  67   2.0000      -8.777527      -238.8486
  68   2.0000      -8.064213      -219.4384
  69   2.0000      -8.064054      -219.4341
  70   2.0000      -8.060734      -219.3437
  71   2.0000      -8.059581      -219.3124
  72   2.0000      -8.058217      -219.2752
  73   2.0000      -8.052512      -219.1200
  74   2.0000      -8.045678      -218.9340
  75   2.0000      -6.613722      -179.9685
  76   2.0000      -6.599295      -179.5759
  77   2.0000      -6.599150      -179.5720
  78   2.0000      -6.033610      -164.1829
  79   2.0000      -6.032917      -164.1640
  80   2.0000      -6.030491      -164.0980
  81   2.0000      -6.029392      -164.0681
  82   2.0000      -6.029198      -164.0628
  83   2.0000      -6.029022      -164.0580
  84   2.0000      -6.027881      -164.0270
  85   2.0000      -6.026921      -164.0009
  86   2.0000      -6.026512      -163.9897
  87   2.0000      -6.026142      -163.9797
  88   2.0000      -6.024999      -163.9485
  89   2.0000      -6.024091      -163.9239
  90   2.0000      -6.022214      -163.8728
  91   2.0000      -6.021373      -163.8499
  92   2.0000      -6.020976      -163.8391
  93   2.0000      -6.018623      -163.7751
  94   2.0000      -6.017955      -163.7569
  95   2.0000      -6.015228      -163.6827
  96   2.0000      -6.013709      -163.6414
  97   2.0000      -6.011150      -163.5717
  98   2.0000      -6.007032      -163.4597
  99   2.0000      -2.729626       -74.2769
 100   2.0000      -2.725540       -74.1657
 101   2.0000      -2.725452       -74.1633
 102   2.0000      -2.713971       -73.8509
 103   2.0000      -2.713958       -73.8506
 104   2.0000      -1.304353       -35.4933
 105   2.0000      -1.289234       -35.0818
 106   2.0000      -1.158078       -31.5129
 107   2.0000      -1.099356       -29.9150
 108   2.0000      -1.067922       -29.0596
 109   2.0000      -1.013929       -27.5904
 110   2.0000      -1.006629       -27.3918
 111   2.0000      -1.003808       -27.3150
 112   2.0000      -1.000352       -27.2210
 113   2.0000      -0.992558       -27.0089
 114   2.0000      -0.980841       -26.6900
 115   2.0000      -0.972148       -26.4535
 116   2.0000      -0.964041       -26.2329
 117   2.0000      -0.944207       -25.6932
 118   2.0000      -0.939827       -25.5740
 119   2.0000      -0.929524       -25.2936
 120   2.0000      -0.921417       -25.0730
 121   2.0000      -0.918793       -25.0016
 122   2.0000      -0.909743       -24.7554
 123   2.0000      -0.894882       -24.3510
 124   2.0000      -0.889949       -24.2167
 125   2.0000      -0.885604       -24.0985
 126   2.0000      -0.872240       -23.7349
 127   2.0000      -0.866177       -23.5699
 128   2.0000      -0.863708       -23.5027
 129   2.0000      -0.858653       -23.3651
 130   2.0000      -0.855151       -23.2699
 131   2.0000      -0.842455       -22.9244
 132   2.0000      -0.833794       -22.6887
 133   2.0000      -0.827697       -22.5228
 134   2.0000      -0.825048       -22.4507
 135   2.0000      -0.819514       -22.3001
 136   2.0000      -0.811881       -22.0924
 137   2.0000      -0.807751       -21.9800
 138   2.0000      -0.796647       -21.6779
 139   2.0000      -0.791677       -21.5426
 140   2.0000      -0.771955       -21.0060
 141   2.0000      -0.762456       -20.7475
 142   2.0000      -0.752182       -20.4679
 143   2.0000      -0.734851       -19.9963
 144   2.0000      -0.733575       -19.9616
 145   2.0000      -0.727142       -19.7865
 146   2.0000      -0.721227       -19.6256
 147   2.0000      -0.707486       -19.2517
 148   2.0000      -0.701974       -19.1017
 149   2.0000      -0.688901       -18.7459
 150   2.0000      -0.673744       -18.3335
 151   2.0000      -0.668201       -18.1827
 152   2.0000      -0.665905       -18.1202
 153   2.0000      -0.663103       -18.0440
 154   2.0000      -0.655943       -17.8491
 155   2.0000      -0.651190       -17.7198
 156   2.0000      -0.644697       -17.5431
 157   2.0000      -0.643192       -17.5021
 158   2.0000      -0.638846       -17.3839
 159   2.0000      -0.634184       -17.2570
 160   2.0000      -0.628846       -17.1118
 161   2.0000      -0.626868       -17.0579
 162   2.0000      -0.620316       -16.8797
 163   2.0000      -0.609648       -16.5894
 164   2.0000      -0.608454       -16.5569
 165   2.0000      -0.607646       -16.5349
 166   2.0000      -0.604314       -16.4442
 167   2.0000      -0.599821       -16.3220
 168   2.0000      -0.595512       -16.2047
 169   2.0000      -0.581031       -15.8107
 170   2.0000      -0.578382       -15.7386
 171   2.0000      -0.575965       -15.6728
 172   2.0000      -0.571067       -15.5395
 173   2.0000      -0.569420       -15.4947
 174   2.0000      -0.561691       -15.2844
 175   2.0000      -0.559094       -15.2137
 176   2.0000      -0.555815       -15.1245
 177   2.0000      -0.550984       -14.9930
 178   2.0000      -0.546277       -14.8650
 179   2.0000      -0.540910       -14.7189
 180   2.0000      -0.537338       -14.6217
 181   2.0000      -0.535627       -14.5751
 182   2.0000      -0.531182       -14.4542
 183   2.0000      -0.530783       -14.4433
 184   2.0000      -0.530398       -14.4329
 185   2.0000      -0.525639       -14.3034
 186   2.0000      -0.520446       -14.1621
 187   2.0000      -0.518932       -14.1209
 188   2.0000      -0.514422       -13.9981
 189   2.0000      -0.512392       -13.9429
 190   2.0000      -0.511327       -13.9139
 191   2.0000      -0.507021       -13.7967
 192   2.0000      -0.506114       -13.7721
 193   2.0000      -0.502307       -13.6685
 194   2.0000      -0.501594       -13.6491
 195   2.0000      -0.498165       -13.5558
 196   2.0000      -0.493388       -13.4258
 197   2.0000      -0.492547       -13.4029
 198   2.0000      -0.488824       -13.3016
 199   2.0000      -0.487788       -13.2734
 200   2.0000      -0.485470       -13.2103
 201   2.0000      -0.483790       -13.1646
 202   2.0000      -0.482845       -13.1389
 203   2.0000      -0.477956       -13.0058
 204   2.0000      -0.475109       -12.9284
 205   2.0000      -0.471852       -12.8397
 206   2.0000      -0.470501       -12.8030
 207   2.0000      -0.469010       -12.7624
 208   2.0000      -0.468781       -12.7562
 209   2.0000      -0.466174       -12.6852
 210   2.0000      -0.461723       -12.5641
 211   2.0000      -0.458875       -12.4866
 212   2.0000      -0.454230       -12.3602
 213   2.0000      -0.452792       -12.3211
 214   2.0000      -0.450322       -12.2539
 215   2.0000      -0.447858       -12.1868
 216   2.0000      -0.438704       -11.9377
 217   2.0000      -0.437189       -11.8965
 218   2.0000      -0.435027       -11.8377
 219   2.0000      -0.433064       -11.7843
 220   2.0000      -0.432472       -11.7682
 221   2.0000      -0.431431       -11.7398
 222   2.0000      -0.427483       -11.6324
 223   2.0000      -0.426391       -11.6027
 224   2.0000      -0.425368       -11.5749
 225   2.0000      -0.421873       -11.4798
 226   2.0000      -0.420861       -11.4522
 227   2.0000      -0.420027       -11.4295
 228   2.0000      -0.418598       -11.3906
 229   2.0000      -0.416207       -11.3256
 230   2.0000      -0.406685       -11.0665
 231   2.0000      -0.406239       -11.0543
 232   2.0000      -0.403580       -10.9820
 233   2.0000      -0.400409       -10.8957
 234   2.0000      -0.396963       -10.8019
 235   2.0000      -0.390505       -10.6262
 236   2.0000      -0.390011       -10.6127
 237   2.0000      -0.385277       -10.4839
 238   2.0000      -0.376093       -10.2340
 239   2.0000      -0.372783       -10.1439
 240   2.0000      -0.363948        -9.9035
 241   2.0000      -0.360087        -9.7985
 242   2.0000      -0.349615        -9.5135
 243   2.0000      -0.348702        -9.4887
 244   2.0000      -0.348190        -9.4747
 245   2.0000      -0.342950        -9.3321
 246   2.0000      -0.327436        -8.9100
 247   2.0000      -0.316253        -8.6057
 248   2.0000      -0.312513        -8.5039
 249   2.0000      -0.312345        -8.4993
 250   2.0000      -0.307735        -8.3739
 251   2.0000      -0.296408        -8.0657
 252   2.0000      -0.294354        -8.0098
 253   2.0000      -0.289790        -7.8856
 254   2.0000      -0.276516        -7.5244
 255   2.0000      -0.269449        -7.3321
 256   2.0000      -0.228626        -6.2212
 257   2.0000      -0.213451        -5.8083
 258   0.0000      -0.097848        -2.6626
 259   0.0000      -0.071528        -1.9464
 260   0.0000      -0.048551        -1.3211
 261   0.0000      -0.027482        -0.7478
 262   0.0000      -0.013019        -0.3543

MULLIKEN ATOMIC CHARGES
-----------------------
   0 C :   -0.138169
   1 S :    0.137332
   2 C :   -0.166484
   3 C :   -0.003334
   4 C :   -0.000021
   5 S :    0.098712
   6 C :    0.077691
   7 O :   -0.152336
   8 S :    0.068568
   9 C :    0.034123
  10 C :    0.003092
  11 C :   -0.107900
  12 S :    0.143438
  13 C :   -0.120611
  14 C :    0.133549
  15 C :    0.116007
  16 C :   -0.117677
  17 C :    0.227763
  18 F :   -0.175665
  19 C :    0.228573
  20 F :   -0.176817
  21 C :   -0.123883
  22 C :    0.032306
  23 C :   -0.000820
  24 C :    0.000233
  25 C :   -0.179039
  26 C :    0.103252
  27 C :    0.180610
  28 N :   -0.118110
  29 C :    0.064790
  30 C :   -0.052904
  31 C :    0.050388
  32 C :   -0.066549
  33 C :    0.059540
  34 C :    0.004940
  35 C :   -0.006547
  36 S :    0.062902
  37 C :   -0.056097
  38 C :    0.046778
  39 C :    0.013131
  40 C :    0.010950
  41 S :    0.078589
  42 C :   -0.022294
  43 C :   -0.049497
  44 C :   -0.095423
  45 C :    0.340532
  46 C :   -0.383319
  47 C :   -0.199269
  48 N :    0.127077
  49 C :   -0.181393
  50 N :    0.131731
  51 C :    0.008068
  52 C :   -0.007698
  53 C :    0.131090
  54 O :   -0.170693
  55 C :   -0.080888
  56 C :    0.115903
  57 C :   -0.093031
  58 C :   -0.026208
  59 S :    0.173880
  60 C :   -0.124756
  61 C :    0.037132
  62 Br:    0.007946
  63 H :    0.029947
  64 H :   -0.017757
  65 H :   -0.005665
  66 H :   -0.007367
  67 H :   -0.003275
  68 H :   -0.018752
  69 H :   -0.007184
  70 H :   -0.036186
  71 H :    0.009477
  72 H :   -0.000003
  73 H :    0.045554
  74 H :    0.020847
  75 H :    0.034563
  76 H :    0.126329
  77 H :    0.046045
  78 H :   -0.015418
  79 H :    0.000156
  80 H :   -0.005906
  81 H :   -0.010779
  82 H :   -0.010121
  83 H :   -0.007359
  84 H :    0.009384
  85 H :    0.009615
  86 H :   -0.018588
  87 H :   -0.012133
  88 H :   -0.008605
Sum of atomic charges:   -0.0000000

LOEWDIN ATOMIC CHARGES
----------------------
   0 C :   -0.208669
   1 S :    0.450208
   2 C :   -0.185280
   3 C :   -0.220500
   4 C :   -0.215480
   5 S :    0.351726
   6 C :   -0.201717
   7 O :   -0.147710
   8 S :    0.355573
   9 C :   -0.058245
  10 C :   -0.036890
  11 C :   -0.184029
  12 S :    0.477213
  13 C :   -0.170373
  14 C :   -0.046011
  15 C :   -0.039148
  16 C :   -0.041245
  17 C :    0.063430
  18 F :   -0.054392
  19 C :    0.063021
  20 F :   -0.055025
  21 C :   -0.039631
  22 C :   -0.047559
  23 C :   -0.021369
  24 C :   -0.052839
  25 C :   -0.031304
  26 C :   -0.057387
  27 C :    0.050480
  28 N :    0.043719
  29 C :    0.073063
  30 C :   -0.137772
  31 C :    0.013432
  32 C :   -0.195608
  33 C :    0.001516
  34 C :   -0.068334
  35 C :   -0.134404
  36 S :    0.407551
  37 C :   -0.214563
  38 C :   -0.005906
  39 C :   -0.060615
  40 C :   -0.100057
  41 S :    0.406452
  42 C :   -0.086537
  43 C :    0.042414
  44 C :   -0.126331
  45 C :    0.076935
  46 C :   -0.178848
  47 C :   -0.021024
  48 N :   -0.083324
  49 C :   -0.000534
  50 N :   -0.089015
  51 C :   -0.017561
  52 C :   -0.046320
  53 C :    0.079764
  54 O :   -0.165497
  55 C :    0.013697
  56 C :   -0.037967
  57 C :   -0.147846
  58 C :   -0.015880
  59 S :    0.422777
  60 C :   -0.277100
  61 C :   -0.071254
  62 Br:    0.124527
  63 H :    0.028633
  64 H :    0.021722
  65 H :    0.019902
  66 H :    0.040845
  67 H :    0.041908
  68 H :    0.026081
  69 H :    0.026147
  70 H :    0.020755
  71 H :    0.028947
  72 H :    0.023251
  73 H :    0.043677
  74 H :    0.030509
  75 H :    0.038287
  76 H :    0.085970
  77 H :    0.017514
  78 H :    0.028110
  79 H :    0.041864
  80 H :    0.036370
  81 H :    0.032956
  82 H :    0.033980
  83 H :    0.035606
  84 H :    0.036865
  85 H :    0.026487
  86 H :    0.037468
  87 H :    0.039145
  88 H :    0.036599

  Mayer bond orders larger than 0.100000
B(  0-C ,  1-S ) :   1.1520 B(  0-C ,  4-C ) :   1.5994 B(  0-C , 63-H ) :   0.9730
B(  1-S ,  2-C ) :   1.1366 B(  2-C ,  3-C ) :   1.5566 B(  2-C ,  9-C ) :   1.1538
B(  3-C ,  4-C ) :   1.2440 B(  3-C ,  8-S ) :   0.9965 B(  4-C ,  5-S ) :   0.9807
B(  5-S ,  6-C ) :   0.9953 B(  5-S ,  7-O ) :   0.1092 B(  6-C ,  7-O ) :   2.1190
B(  6-C ,  8-S ) :   0.9769 B(  7-O ,  8-S ) :   0.1030 B(  9-C , 10-C ) :   1.6402
B(  9-C , 64-H ) :   0.9572 B( 10-C , 11-C ) :   1.2133 B( 10-C , 65-H ) :   0.9547
B( 11-C , 12-S ) :   1.1334 B( 11-C , 13-C ) :   0.1088 B( 11-C , 15-C ) :   1.3317
B( 12-S , 13-C ) :   1.1577 B( 13-C , 14-C ) :   1.3599 B( 13-C , 22-C ) :   1.1204
B( 14-C , 15-C ) :   1.2105 B( 14-C , 21-C ) :   1.1521 B( 15-C , 16-C ) :   1.1638
B( 16-C , 17-C ) :   1.5074 B( 16-C , 21-C ) :   0.1120 B( 16-C , 66-H ) :   0.9982
B( 17-C , 18-F ) :   1.1347 B( 17-C , 19-C ) :   1.1496 B( 19-C , 20-F ) :   1.1300
B( 19-C , 21-C ) :   1.5099 B( 21-C , 67-H ) :   0.9960 B( 22-C , 23-C ) :   1.6894
B( 22-C , 68-H ) :   0.9545 B( 23-C , 24-C ) :   1.1220 B( 23-C , 69-H ) :   0.9705
B( 24-C , 25-C ) :   1.7435 B( 24-C , 70-H ) :   0.9733 B( 25-C , 26-C ) :   1.0739
B( 25-C , 27-C ) :   1.0350 B( 26-C , 71-H ) :   0.9436 B( 26-C , 72-H ) :   0.9322
B( 26-C , 73-H ) :   0.9117 B( 27-C , 28-N ) :   0.9865 B( 27-C , 74-H ) :   0.9452
B( 27-C , 75-H ) :   0.9308 B( 28-N , 29-C ) :   1.3360 B( 28-N , 76-H ) :   0.9355
B( 29-C , 30-C ) :   1.4585 B( 29-C , 77-H ) :   0.9419 B( 30-C , 31-C ) :   1.2979
B( 30-C , 78-H ) :   0.9625 B( 31-C , 32-C ) :   1.4941 B( 31-C , 79-H ) :   0.9637
B( 32-C , 33-C ) :   1.2102 B( 32-C , 36-S ) :   1.0121 B( 33-C , 34-C ) :   1.5174
B( 33-C , 80-H ) :   0.9972 B( 34-C , 35-C ) :   1.2459 B( 34-C , 81-H ) :   0.9948
B( 35-C , 36-S ) :   1.1054 B( 35-C , 37-C ) :   1.3915 B( 37-C , 38-C ) :   1.2764
B( 37-C , 41-S ) :   1.0411 B( 38-C , 39-C ) :   1.4761 B( 38-C , 82-H ) :   0.9953
B( 39-C , 40-C ) :   1.2335 B( 39-C , 83-H ) :   1.0014 B( 40-C , 41-S ) :   1.1074
B( 40-C , 42-C ) :   1.3344 B( 42-C , 43-C ) :   1.3439 B( 42-C , 84-H ) :   0.9832
B( 43-C , 44-C ) :   1.3973 B( 43-C , 85-H ) :   0.9389 B( 44-C , 45-C ) :   1.1651
B( 44-C , 53-C ) :   0.9794 B( 45-C , 46-C ) :   1.5235 B( 45-C , 51-C ) :   0.9815
B( 46-C , 47-C ) :   1.1564 B( 46-C , 49-C ) :   1.1655 B( 47-C , 48-N ) :   2.9599
B( 49-C , 50-N ) :   2.9180 B( 50-N , 73-H ) :   0.1141 B( 51-C , 52-C ) :   1.2786
B( 51-C , 58-C ) :   1.4277 B( 52-C , 53-C ) :   0.9279 B( 52-C , 55-C ) :   1.4400
B( 53-C , 54-O ) :   2.1881 B( 55-C , 56-C ) :   1.2319 B( 55-C , 86-H ) :   1.0154
B( 56-C , 57-C ) :   1.3259 B( 56-C , 61-C ) :   1.1591 B( 57-C , 58-C ) :   1.3134
B( 57-C , 59-S ) :   1.0797 B( 58-C , 87-H ) :   0.9785 B( 59-S , 60-C ) :   1.0855
B( 60-C , 61-C ) :   1.6218 B( 60-C , 62-Br) :   1.0099 B( 61-C , 88-H ) :   0.9997

-----------------------------------------------------------------------------
         ABSORPTION SPECTRUM VIA TRANSITION ELECTRIC DIPOLE MOMENTS
-----------------------------------------------------------------------------
State   Energy  Wavelength   fosc         T2         TX        TY        TZ
        (cm-1)    (nm)                  (au**2)     (au)      (au)      (au)
-----------------------------------------------------------------------------
   0   10879.3    919.2   0.841900983  25.47631   3.50333   0.99286   3.49532
   1   17765.0    562.9   0.505505431   9.36778  -2.12623   1.86032   1.17734
   2   19386.1    515.8   0.916815872  15.56921   1.97290  -2.32766  -2.50177
   3   20688.4    483.4   0.052044395   0.82818   0.27789   0.56000  -0.66132
   4   21203.8    471.6   0.121750931   1.89032  -0.25179  -1.02500  -0.88108
   5   22859.0    437.5   0.210532587   3.03206   0.05907  -1.73651  -0.11442
   6   25213.9    396.6   0.331141885   4.32364  -0.32131   2.04953   0.14073
   7   26369.5    379.2   0.565290068   7.05741  -1.80577   1.57193  -1.15136
   8   27752.4    360.3   0.000449090   0.00533  -0.03855   0.05834  -0.02093
   9   28942.9    345.5   0.030302273   0.34467  -0.17917  -0.37822  -0.41173
  10   29214.3    342.3   0.024263999   0.27343   0.50766  -0.05630   0.11198
  11   29320.7    341.1   0.009898935   0.11114  -0.04306   0.32873  -0.03505
  12   30538.3    327.5   0.020663972   0.22276   0.32509  -0.10966   0.32412
  13   30823.4    324.4   0.187628872   2.00399  -0.20854  -1.04714  -0.92951
  14   30996.0    322.6   0.000052524   0.00056  -0.02113   0.00350   0.00996
  15   31617.5    316.3   0.034185708   0.35595  -0.10872  -0.25762  -0.52703
  16   31684.9    315.6   0.194240621   2.01820   1.19349  -0.15373   0.75508
  17   32348.4    309.1   0.311710888   3.17231  -1.31107  -0.24705  -1.17999
  18   32520.9    307.5   0.033293671   0.33703  -0.55489  -0.02818   0.16832
  19   32774.4    305.1   0.045126729   0.45329   0.52418  -0.33644   0.25561
  20   32939.4    303.6   0.055756673   0.55726  -0.41619  -0.01908  -0.61942
  21   33421.8    299.2   0.016628930   0.16380  -0.02691  -0.08916   0.39386
  22   33551.1    298.1   0.261480660   2.56571  -1.17065  -0.92605  -0.58115
  23   34321.9    291.4   0.005179886   0.04968   0.09224   0.04280   0.19835
  24   34505.0    289.8   0.004092387   0.03905  -0.16016   0.07009   0.09209
  25   34870.6    286.8   0.135412757   1.27843   0.62160   0.73824   0.58909
  26   35273.2    283.5   0.194353473   1.81394  -0.74041  -1.05095  -0.40153
  27   35637.2    280.6   0.136516750   1.26113   0.90920  -0.60132  -0.26998
  28   36121.0    276.8   0.178251655   1.62461   0.79965   0.98224   0.14274
  29   36245.1    275.9   0.122217616   1.11009   0.97257  -0.39756  -0.07838
  30   36571.3    273.4   0.008521872   0.07671  -0.07738  -0.04176   0.26264
  31   36778.3    271.9   0.029033045   0.25988  -0.03953   0.16386  -0.48111
  32   36933.5    270.8   0.081104897   0.72294  -0.43341   0.53884   0.49472
  33   37196.0    268.8   0.012339289   0.10921   0.29256   0.15301  -0.01444
  34   37273.9    268.3   0.000152273   0.00134  -0.00537  -0.03272  -0.01566
  35   37519.8    266.5   0.028896391   0.25355   0.46767  -0.08335  -0.16699
  36   37971.8    263.4   0.171269987   1.48490  -0.14882  -1.13341  -0.42206
  37   38123.1    262.3   0.081512040   0.70390   0.56829  -0.21122   0.57994
  38   39219.2    255.0   0.036436697   0.30586   0.36697   0.37897   0.16603
  39   39965.0    250.2   0.059263913   0.48819  -0.11123   0.65751   0.20854
  40   40214.8    248.7   0.000582290   0.00477   0.06623   0.00490   0.01888

FINAL SINGLE POINT ENERGY     -7716.545584230696

DIPOLE MOMENT
-------------
                                X             Y             Z
Electronic contribution:   -128.65632      -3.79523     -93.04260
Nuclear contribution   :    133.98978       4.18134      95.28791
                        -----------------------------------------
Total Dipole Moment    :      5.33345       0.38610       2.24531
                        -----------------------------------------
Magnitude (a.u.)       :      5.79967
Magnitude (Debye)      :     14.74160

Rotational constants in cm-1:     0.000758     0.000317     0.000237
Rotational constants in MHz :    22.724075     9.511511     7.110912

                             ****ORCA TERMINATED NORMALLY****
TOTAL RUN TIME: 0 days 0 hours 7 minutes 57 seconds 425 msec
