                         Program Version 4.2.0 -  RELEASE  -
|  1> # ORCA input file
|  2> # SCF done       -173.832303998418          0.000992101085
|  3> ! CAM-B3LYP def2-SVP def2/J RIJCOSX Grid4 TightSCF
|  4> %maxcore 5000
|  5> %tddft
|  6>     Mode sTDDFT
|  7>     Ethresh 5.0
|  8>     maxcore 5000
|  9> end
| 10>
| 11> %pal
| 12>   nprocs 6
| 13>   end
| 14> * xyz 0 1
| 15>    C        6.77541        -1.73378         1.39547
| 16>    S        5.15498        -1.44370         1.89248
| 17>    C        5.54619        -1.89683         3.53110
| 18>    C        6.86789        -2.22819         3.65984
| 19>    C        7.56796        -2.12454         2.42563
| 20>    C        9.02923        -2.42692         2.30332
| 21>    C        9.48262        -3.35402         3.44096
| 22>    C        8.90936        -4.66889         3.26304
| 23>    N        8.44500        -5.70407         3.12821
| 24>    C        9.03284        -2.78197         4.80568
| 25>    C        9.57279        -1.45467         4.96869
| 26>    N       10.00867        -0.40509         5.09424
| 27>    C        7.49932        -2.75757         4.91215
| 28>    N        4.56104        -1.92065         4.50274
| 29>    C        4.69166        -1.18963         5.68934
| 30>    C        5.64800        -0.26223         5.96884
| 31>    S        5.48262         0.37346         7.55679
| 32>    C        4.11038        -0.61551         7.85926
| 33>    C        3.78765        -1.39834         6.78785
| 34>    N        2.77427        -2.33771         6.68783
| 35>    C        1.56842        -2.36091         7.33760
| 36>    C        1.05907        -1.35580         8.08521
| 37>    C       -0.18243        -1.37829         8.75896
| 38>    C       -0.58857        -0.33637         9.54777
| 39>    C       -1.79553        -0.16147        10.27225
| 40>    C       -1.87204         1.00230        10.97752
| 41>    C       -0.72583         1.82035        10.86446
| 42>    S        0.45206         1.06082         9.81128
| 43>    C       -0.40550         3.03620        11.42640
| 44>    C       -1.11130         3.91324        12.27982
| 45>    C       -0.42065         5.04029        12.60559
| 46>    C        0.88834         5.13578        12.04572
| 47>    S        1.16733         3.70888        11.05651
| 48>    C        1.79920         6.12724        12.27666
| 49>    C        3.14705         6.21836        11.79524
| 50>    C        3.64198         5.37883        10.78327
| 51>    C        4.96687         5.41215        10.44203
| 52>    C        5.84075         6.34950        11.02140
| 53>    C        5.35696         7.22966        11.98328
| 54>    C        4.03396         7.14903        12.36817
| 55>    C        7.13966         6.20299        10.39729
| 56>    C        7.05750         5.17157         9.44459
| 57>    C        5.69182         4.52677         9.46060
| 58>    C        5.02989         4.49173         8.07788
| 59>    C        4.94051         5.87629         7.44688
| 60>    C        5.87923         3.10096        10.03467
| 61>    C        4.60030         2.33801        10.35084
| 62>    C        8.14307         4.83426         8.67993
| 63>    C        9.35777         5.51787         8.84216
| 64>    C        9.43017         6.53837         9.79837
| 65>    C        8.33731         6.88523        10.56959
| 66>    C       10.45945         5.10462         8.00336
| 67>    C       11.73363         5.53108         8.05365
| 68>    C       12.80174         5.06690         7.21831
| 69>    S       14.22575         6.06821         7.10112
| 70>    C       14.96934         4.96651         6.02153
| 71>    C       14.18663         3.88064         5.77023
| 72>    C       12.94578         3.92759         6.45406
| 73>    C       11.94391         2.82020         6.34277
| 74>    C       12.57261         1.53387         5.78449
| 75>    C       13.40788         0.90066         6.77589
| 76>    N       14.07590         0.39366         7.55304
| 77>    C       13.41536         1.84373         4.52777
| 78>    C       12.58734         2.49121         3.53690
| 79>    N       11.93480         2.99969         2.74839
| 80>    C       14.60865         2.73700         4.89813
| 81>    H        7.04255        -1.60014         0.36692
| 82>    H        9.60147        -1.49452         2.35964
| 83>    H        9.23792        -2.88718         1.33483
| 84>    H       10.57514        -3.45519         3.42259
| 85>    H        9.43844        -3.40073         5.61659
| 86>    H        7.19972        -2.15942         5.77758
| 87>    H        7.14560        -3.77986         5.08364
| 88>    H        3.61984        -1.92734         4.12838
| 89>    H        6.42075         0.10498         5.32393
| 90>    H        3.65200        -0.57851         8.82488
| 91>    H        2.95606        -3.07927         6.02784
| 92>    H        1.01091        -3.27627         7.19180
| 93>    H        1.62204        -0.43914         8.17537
| 94>    H       -0.82723        -2.24034         8.65831
| 95>    H       -2.57284        -0.90571        10.24561
| 96>    H       -2.71462         1.29402        11.58014
| 97>    H       -2.10430         3.68817        12.62858
| 98>    H       -0.80336         5.81715        13.24513
| 99>    H        1.48310         6.90961        12.95653
|100>    H        2.98083         4.72683        10.24296
|101>    H        6.00861         7.96604        12.43103
|102>    H        3.66291         7.81533        13.13465
|103>    H        4.02586         4.07706         8.17368
|104>    H        5.60491         3.82806         7.42849
|105>    H        4.35908         6.54478         8.07803
|106>    H        4.46004         5.81694         6.47278
|107>    H        5.93193         6.30505         7.31736
|108>    H        6.47091         3.18462        10.95028
|109>    H        6.46631         2.52874         9.31285
|110>    H        4.03952         2.82667        11.14212
|111>    H        4.85741         1.33544        10.68625
|112>    H        3.96105         2.24872         9.47720
|113>    H        8.07310         4.04115         7.94858
|114>    H       10.35747         7.07441         9.93227
|115>    H        8.41656         7.67978        11.29716
|116>    H       10.18450         4.37267         7.25959
|117>    H       12.01776         6.30631         8.75232
|118>    H       15.94530         5.17842         5.63250
|119>    H       11.13774         3.11853         5.66380
|120>    H       11.50550         2.61385         7.32308
|121>    H       11.76861         0.83137         5.53004
|122>    H       13.78414         0.90712         4.08946
|123>    H       15.09159         3.11507         3.99290
|124>    H       15.34340         2.12888         5.43692
|125> *
|126>
|127>                          ****END OF INPUT****

CARTESIAN COORDINATES (ANGSTROEM)
---------------------------------
  C      6.775410   -1.733780    1.395470
  S      5.154980   -1.443700    1.892480
  C      5.546190   -1.896830    3.531100
  C      6.867890   -2.228190    3.659840
  C      7.567960   -2.124540    2.425630
  C      9.029230   -2.426920    2.303320
  C      9.482620   -3.354020    3.440960
  C      8.909360   -4.668890    3.263040
  N      8.445000   -5.704070    3.128210
  C      9.032840   -2.781970    4.805680
  C      9.572790   -1.454670    4.968690
  N     10.008670   -0.405090    5.094240
  C      7.499320   -2.757570    4.912150
  N      4.561040   -1.920650    4.502740
  C      4.691660   -1.189630    5.689340
  C      5.648000   -0.262230    5.968840
  S      5.482620    0.373460    7.556790
  C      4.110380   -0.615510    7.859260
  C      3.787650   -1.398340    6.787850
  N      2.774270   -2.337710    6.687830
  C      1.568420   -2.360910    7.337600
  C      1.059070   -1.355800    8.085210
  C     -0.182430   -1.378290    8.758960
  C     -0.588570   -0.336370    9.547770
  C     -1.795530   -0.161470   10.272250
  C     -1.872040    1.002300   10.977520
  C     -0.725830    1.820350   10.864460
  S      0.452060    1.060820    9.811280
  C     -0.405500    3.036200   11.426400
  C     -1.111300    3.913240   12.279820
  C     -0.420650    5.040290   12.605590
  C      0.888340    5.135780   12.045720
  S      1.167330    3.708880   11.056510
  C      1.799200    6.127240   12.276660
  C      3.147050    6.218360   11.795240
  C      3.641980    5.378830   10.783270
  C      4.966870    5.412150   10.442030
  C      5.840750    6.349500   11.021400
  C      5.356960    7.229660   11.983280
  C      4.033960    7.149030   12.368170
  C      7.139660    6.202990   10.397290
  C      7.057500    5.171570    9.444590
  C      5.691820    4.526770    9.460600
  C      5.029890    4.491730    8.077880
  C      4.940510    5.876290    7.446880
  C      5.879230    3.100960   10.034670
  C      4.600300    2.338010   10.350840
  C      8.143070    4.834260    8.679930
  C      9.357770    5.517870    8.842160
  C      9.430170    6.538370    9.798370
  C      8.337310    6.885230   10.569590
  C     10.459450    5.104620    8.003360
  C     11.733630    5.531080    8.053650
  C     12.801740    5.066900    7.218310
  S     14.225750    6.068210    7.101120
  C     14.969340    4.966510    6.021530
  C     14.186630    3.880640    5.770230
  C     12.945780    3.927590    6.454060
  C     11.943910    2.820200    6.342770
  C     12.572610    1.533870    5.784490
  C     13.407880    0.900660    6.775890
  N     14.075900    0.393660    7.553040
  C     13.415360    1.843730    4.527770
  C     12.587340    2.491210    3.536900
  N     11.934800    2.999690    2.748390
  C     14.608650    2.737000    4.898130
  H      7.042550   -1.600140    0.366920
  H      9.601470   -1.494520    2.359640
  H      9.237920   -2.887180    1.334830
  H     10.575140   -3.455190    3.422590
  H      9.438440   -3.400730    5.616590
  H      7.199720   -2.159420    5.777580
  H      7.145600   -3.779860    5.083640
  H      3.619840   -1.927340    4.128380
  H      6.420750    0.104980    5.323930
  H      3.652000   -0.578510    8.824880
  H      2.956060   -3.079270    6.027840
  H      1.010910   -3.276270    7.191800
  H      1.622040   -0.439140    8.175370
  H     -0.827230   -2.240340    8.658310
  H     -2.572840   -0.905710   10.245610
  H     -2.714620    1.294020   11.580140
  H     -2.104300    3.688170   12.628580
  H     -0.803360    5.817150   13.245130
  H      1.483100    6.909610   12.956530
  H      2.980830    4.726830   10.242960
  H      6.008610    7.966040   12.431030
  H      3.662910    7.815330   13.134650
  H      4.025860    4.077060    8.173680
  H      5.604910    3.828060    7.428490
  H      4.359080    6.544780    8.078030
  H      4.460040    5.816940    6.472780
  H      5.931930    6.305050    7.317360
  H      6.470910    3.184620   10.950280
  H      6.466310    2.528740    9.312850
  H      4.039520    2.826670   11.142120
  H      4.857410    1.335440   10.686250
  H      3.961050    2.248720    9.477200
  H      8.073100    4.041150    7.948580
  H     10.357470    7.074410    9.932270
  H      8.416560    7.679780   11.297160
  H     10.184500    4.372670    7.259590
  H     12.017760    6.306310    8.752320
  H     15.945300    5.178420    5.632500
  H     11.137740    3.118530    5.663800
  H     11.505500    2.613850    7.323080
  H     11.768610    0.831370    5.530040
  H     13.784140    0.907120    4.089460
  H     15.091590    3.115070    3.992900
  H     15.343400    2.128880    5.436920

 Total Charge           Charge          ....    0
 Multiplicity           Mult            ....    1
 Number of Electrons    NEL             ....  496
 Basis Dimension        Dim             .... 1164

ORBITAL ENERGIES
----------------

  NO   OCC          E(Eh)            E(eV)
   0   2.0000     -88.962236     -2420.7855
   1   2.0000     -88.957137     -2420.6468
   2   2.0000     -88.942649     -2420.2525
   3   2.0000     -88.929213     -2419.8869
   4   2.0000     -88.929024     -2419.8818
   5   2.0000     -14.457574      -393.4106
   6   2.0000     -14.456581      -393.3836
   7   2.0000     -14.433091      -392.7444
   8   2.0000     -14.418021      -392.3343
   9   2.0000     -14.401666      -391.8892
  10   2.0000     -14.397968      -391.7886
  11   2.0000     -10.347510      -281.5701
  12   2.0000     -10.345815      -281.5239
  13   2.0000     -10.339203      -281.3440
  14   2.0000     -10.333469      -281.1880
  15   2.0000     -10.325176      -280.9623
  16   2.0000     -10.322003      -280.8760
  17   2.0000     -10.321610      -280.8653
  18   2.0000     -10.320627      -280.8385
  19   2.0000     -10.316635      -280.7299
  20   2.0000     -10.314507      -280.6720
  21   2.0000     -10.304137      -280.3898
  22   2.0000     -10.302044      -280.3329
  23   2.0000     -10.300795      -280.2989
  24   2.0000     -10.298091      -280.2253
  25   2.0000     -10.297254      -280.2025
  26   2.0000     -10.293527      -280.1011
  27   2.0000     -10.292790      -280.0811
  28   2.0000     -10.291717      -280.0519
  29   2.0000     -10.291223      -280.0384
  30   2.0000     -10.290568      -280.0206
  31   2.0000     -10.290319      -280.0138
  32   2.0000     -10.288444      -279.9628
  33   2.0000     -10.288230      -279.9570
  34   2.0000     -10.287036      -279.9245
  35   2.0000     -10.283493      -279.8281
  36   2.0000     -10.282732      -279.8074
  37   2.0000     -10.279862      -279.7293
  38   2.0000     -10.276646      -279.6418
  39   2.0000     -10.275788      -279.6184
  40   2.0000     -10.275326      -279.6058
  41   2.0000     -10.275267      -279.6042
  42   2.0000     -10.271421      -279.4996
  43   2.0000     -10.270963      -279.4871
  44   2.0000     -10.270287      -279.4687
  45   2.0000     -10.269807      -279.4557
  46   2.0000     -10.266497      -279.3656
  47   2.0000     -10.265945      -279.3506
  48   2.0000     -10.264306      -279.3060
  49   2.0000     -10.264057      -279.2992
  50   2.0000     -10.263938      -279.2960
  51   2.0000     -10.260456      -279.2012
  52   2.0000     -10.260441      -279.2008
  53   2.0000     -10.258765      -279.1552
  54   2.0000     -10.258710      -279.1537
  55   2.0000     -10.258296      -279.1424
  56   2.0000     -10.257651      -279.1249
  57   2.0000     -10.257444      -279.1192
  58   2.0000     -10.256286      -279.0877
  59   2.0000     -10.254230      -279.0318
  60   2.0000     -10.253434      -279.0101
  61   2.0000     -10.251356      -278.9536
  62   2.0000     -10.250122      -278.9200
  63   2.0000     -10.249615      -278.9062
  64   2.0000     -10.237392      -278.5736
  65   2.0000     -10.234575      -278.4969
  66   2.0000      -8.058469      -219.2821
  67   2.0000      -8.052100      -219.1088
  68   2.0000      -8.038668      -218.7433
  69   2.0000      -8.025187      -218.3764
  70   2.0000      -8.024884      -218.3682
  71   2.0000      -6.027850      -164.0261
  72   2.0000      -6.023669      -163.9124
  73   2.0000      -6.021624      -163.8567
  74   2.0000      -6.020390      -163.8231
  75   2.0000      -6.017203      -163.7364
  76   2.0000      -6.014165      -163.6537
  77   2.0000      -6.007848      -163.4819
  78   2.0000      -6.003702      -163.3690
  79   2.0000      -6.001013      -163.2959
  80   2.0000      -5.994986      -163.1319
  81   2.0000      -5.994670      -163.1233
  82   2.0000      -5.990979      -163.0228
  83   2.0000      -5.990546      -163.0111
  84   2.0000      -5.985997      -162.8873
  85   2.0000      -5.985821      -162.8825
  86   2.0000      -1.072914       -29.1955
  87   2.0000      -1.045787       -28.4573
  88   2.0000      -1.026765       -27.9397
  89   2.0000      -1.008879       -27.4530
  90   2.0000      -1.001539       -27.2533
  91   2.0000      -0.987274       -26.8651
  92   2.0000      -0.984836       -26.7987
  93   2.0000      -0.981814       -26.7165
  94   2.0000      -0.975874       -26.5549
  95   2.0000      -0.974130       -26.5074
  96   2.0000      -0.969779       -26.3890
  97   2.0000      -0.958568       -26.0839
  98   2.0000      -0.953035       -25.9334
  99   2.0000      -0.937447       -25.5092
 100   2.0000      -0.932393       -25.3717
 101   2.0000      -0.907907       -24.7054
 102   2.0000      -0.893867       -24.3234
 103   2.0000      -0.888158       -24.1680
 104   2.0000      -0.884317       -24.0635
 105   2.0000      -0.873401       -23.7665
 106   2.0000      -0.862532       -23.4707
 107   2.0000      -0.859202       -23.3801
 108   2.0000      -0.850886       -23.1538
 109   2.0000      -0.840750       -22.8780
 110   2.0000      -0.838113       -22.8062
 111   2.0000      -0.832658       -22.6578
 112   2.0000      -0.825263       -22.4565
 113   2.0000      -0.823767       -22.4158
 114   2.0000      -0.821005       -22.3407
 115   2.0000      -0.816740       -22.2246
 116   2.0000      -0.812277       -22.1032
 117   2.0000      -0.806673       -21.9507
 118   2.0000      -0.802289       -21.8314
 119   2.0000      -0.796924       -21.6854
 120   2.0000      -0.779121       -21.2010
 121   2.0000      -0.759192       -20.6587
 122   2.0000      -0.756996       -20.5989
 123   2.0000      -0.753052       -20.4916
 124   2.0000      -0.751065       -20.4375
 125   2.0000      -0.742471       -20.2037
 126   2.0000      -0.734271       -19.9805
 127   2.0000      -0.725811       -19.7503
 128   2.0000      -0.706842       -19.2342
 129   2.0000      -0.698753       -19.0140
 130   2.0000      -0.696861       -18.9625
 131   2.0000      -0.688606       -18.7379
 132   2.0000      -0.677311       -18.4306
 133   2.0000      -0.676502       -18.4086
 134   2.0000      -0.670112       -18.2347
 135   2.0000      -0.661119       -17.9900
 136   2.0000      -0.658635       -17.9224
 137   2.0000      -0.656872       -17.8744
 138   2.0000      -0.646104       -17.5814
 139   2.0000      -0.642563       -17.4850
 140   2.0000      -0.639228       -17.3943
 141   2.0000      -0.634010       -17.2523
 142   2.0000      -0.627984       -17.0883
 143   2.0000      -0.621943       -16.9239
 144   2.0000      -0.617412       -16.8006
 145   2.0000      -0.614632       -16.7250
 146   2.0000      -0.608585       -16.5604
 147   2.0000      -0.606316       -16.4987
 148   2.0000      -0.597158       -16.2495
 149   2.0000      -0.591609       -16.0985
 150   2.0000      -0.585781       -15.9399
 151   2.0000      -0.584627       -15.9085
 152   2.0000      -0.584072       -15.8934
 153   2.0000      -0.578392       -15.7388
 154   2.0000      -0.574356       -15.6290
 155   2.0000      -0.566411       -15.4128
 156   2.0000      -0.558515       -15.1980
 157   2.0000      -0.556813       -15.1516
 158   2.0000      -0.552920       -15.0457
 159   2.0000      -0.544433       -14.8148
 160   2.0000      -0.542123       -14.7519
 161   2.0000      -0.537623       -14.6295
 162   2.0000      -0.535903       -14.5827
 163   2.0000      -0.533848       -14.5267
 164   2.0000      -0.529063       -14.3965
 165   2.0000      -0.523033       -14.2325
 166   2.0000      -0.519818       -14.1450
 167   2.0000      -0.518472       -14.1083
 168   2.0000      -0.517250       -14.0751
 169   2.0000      -0.513176       -13.9642
 170   2.0000      -0.512953       -13.9582
 171   2.0000      -0.511825       -13.9275
 172   2.0000      -0.508229       -13.8296
 173   2.0000      -0.506017       -13.7694
 174   2.0000      -0.504452       -13.7268
 175   2.0000      -0.504117       -13.7177
 176   2.0000      -0.500583       -13.6216
 177   2.0000      -0.496833       -13.5195
 178   2.0000      -0.494031       -13.4433
 179   2.0000      -0.491114       -13.3639
 180   2.0000      -0.489164       -13.3108
 181   2.0000      -0.484120       -13.1736
 182   2.0000      -0.483980       -13.1698
 183   2.0000      -0.480619       -13.0783
 184   2.0000      -0.477891       -13.0041
 185   2.0000      -0.475463       -12.9380
 186   2.0000      -0.473523       -12.8852
 187   2.0000      -0.470895       -12.8137
 188   2.0000      -0.468351       -12.7445
 189   2.0000      -0.467507       -12.7215
 190   2.0000      -0.463693       -12.6177
 191   2.0000      -0.458127       -12.4663
 192   2.0000      -0.456241       -12.4150
 193   2.0000      -0.454854       -12.3772
 194   2.0000      -0.452741       -12.3197
 195   2.0000      -0.450936       -12.2706
 196   2.0000      -0.449384       -12.2284
 197   2.0000      -0.445851       -12.1322
 198   2.0000      -0.444949       -12.1077
 199   2.0000      -0.444478       -12.0949
 200   2.0000      -0.442937       -12.0529
 201   2.0000      -0.440900       -11.9975
 202   2.0000      -0.438719       -11.9381
 203   2.0000      -0.436685       -11.8828
 204   2.0000      -0.434398       -11.8206
 205   2.0000      -0.433002       -11.7826
 206   2.0000      -0.431181       -11.7330
 207   2.0000      -0.430071       -11.7028
 208   2.0000      -0.428775       -11.6676
 209   2.0000      -0.428221       -11.6525
 210   2.0000      -0.426013       -11.5924
 211   2.0000      -0.423787       -11.5318
 212   2.0000      -0.422325       -11.4921
 213   2.0000      -0.419200       -11.4070
 214   2.0000      -0.417233       -11.3535
 215   2.0000      -0.415481       -11.3058
 216   2.0000      -0.414191       -11.2707
 217   2.0000      -0.411549       -11.1988
 218   2.0000      -0.411173       -11.1886
 219   2.0000      -0.407122       -11.0784
 220   2.0000      -0.406514       -11.0618
 221   2.0000      -0.402173       -10.9437
 222   2.0000      -0.400345       -10.8939
 223   2.0000      -0.399619       -10.8742
 224   2.0000      -0.396464       -10.7883
 225   2.0000      -0.393300       -10.7022
 226   2.0000      -0.384431       -10.4609
 227   2.0000      -0.383084       -10.4242
 228   2.0000      -0.379906       -10.3378
 229   2.0000      -0.376165       -10.2360
 230   2.0000      -0.372994       -10.1497
 231   2.0000      -0.370353       -10.0778
 232   2.0000      -0.364501        -9.9186
 233   2.0000      -0.356153        -9.6914
 234   2.0000      -0.334419        -9.1000
 235   2.0000      -0.325125        -8.8471
 236   2.0000      -0.321106        -8.7377
 237   2.0000      -0.317267        -8.6333
 238   2.0000      -0.314187        -8.5495
 239   2.0000      -0.306795        -8.3483
 240   2.0000      -0.303868        -8.2687
 241   2.0000      -0.301717        -8.2101
 242   2.0000      -0.299774        -8.1573
 243   2.0000      -0.286918        -7.8074
 244   2.0000      -0.271279        -7.3819
 245   2.0000      -0.258732        -7.0405
 246   2.0000      -0.238246        -6.4830
 247   2.0000      -0.195656        -5.3241
 248   0.0000      -0.060919        -1.6577
 249   0.0000      -0.023034        -0.6268
 250   0.0000       0.002953         0.0804
 251   0.0000       0.004423         0.1204
 252   0.0000       0.023657         0.6437

MULLIKEN ATOMIC CHARGES
-----------------------
   0 C :   -0.140624
   1 S :    0.107956
   2 C :   -0.181147
   3 C :   -0.018205
   4 C :   -0.045895
   5 C :    0.164996
   6 C :   -0.102538
   7 C :   -0.239458
   8 N :    0.147919
   9 C :   -0.087373
  10 C :   -0.206706
  11 N :    0.142633
  12 C :    0.147785
  13 N :   -0.086805
  14 C :    0.097168
  15 C :   -0.174209
  16 S :    0.114096
  17 C :   -0.191143
  18 C :    0.121594
  19 N :   -0.053843
  20 C :    0.055021
  21 C :   -0.049773
  22 C :    0.003035
  23 C :   -0.032934
  24 C :    0.039773
  25 C :    0.023691
  26 C :   -0.034068
  27 S :    0.023292
  28 C :   -0.038672
  29 C :    0.036312
  30 C :    0.027330
  31 C :   -0.004135
  32 S :    0.018880
  33 C :   -0.034010
  34 C :    0.119533
  35 C :   -0.114250
  36 C :    0.003221
  37 C :    0.102537
  38 C :   -0.051674
  39 C :   -0.017315
  40 C :    0.102236
  41 C :    0.024231
  42 C :   -0.138315
  43 C :    0.053360
  44 C :    0.031427
  45 C :    0.084526
  46 C :    0.020277
  47 C :   -0.117124
  48 C :    0.129300
  49 C :   -0.017724
  50 C :   -0.049242
  51 C :   -0.023326
  52 C :    0.064674
  53 C :   -0.162189
  54 S :    0.115753
  55 C :   -0.131914
  56 C :   -0.051035
  57 C :   -0.026306
  58 C :    0.103988
  59 C :   -0.052089
  60 C :   -0.258800
  61 N :    0.134318
  62 C :   -0.102477
  63 C :   -0.238567
  64 N :    0.136749
  65 C :    0.165787
  66 H :    0.014335
  67 H :    0.054737
  68 H :    0.032538
  69 H :    0.054041
  70 H :    0.060267
  71 H :    0.047037
  72 H :    0.048537
  73 H :    0.131866
  74 H :    0.031249
  75 H :    0.028314
  76 H :    0.120890
  77 H :    0.001286
  78 H :    0.018428
  79 H :   -0.024184
  80 H :   -0.017560
  81 H :   -0.018776
  82 H :   -0.019686
  83 H :   -0.018352
  84 H :   -0.030407
  85 H :   -0.009375
  86 H :   -0.039416
  87 H :   -0.034201
  88 H :    0.011383
  89 H :   -0.009574
  90 H :    0.018894
  91 H :    0.005405
  92 H :    0.017908
  93 H :    0.001181
  94 H :   -0.008902
  95 H :    0.029521
  96 H :    0.004335
  97 H :    0.001994
  98 H :   -0.042975
  99 H :   -0.033886
 100 H :   -0.038738
 101 H :   -0.033682
 102 H :   -0.021319
 103 H :    0.007964
 104 H :    0.066839
 105 H :    0.042235
 106 H :    0.039177
 107 H :    0.044216
 108 H :    0.029674
 109 H :    0.047269
Sum of atomic charges:   -0.0000000

LOEWDIN ATOMIC CHARGES
----------------------
   0 C :   -0.198433
   1 S :    0.414902
   2 C :   -0.135571
   3 C :   -0.100891
   4 C :   -0.063536
   5 C :   -0.003661
   6 C :   -0.036252
   7 C :   -0.034368
   8 N :   -0.051467
   9 C :   -0.035867
  10 C :   -0.003349
  11 N :   -0.059548
  12 C :   -0.005830
  13 N :   -0.026966
  14 C :   -0.036146
  15 C :   -0.226216
  16 S :    0.460284
  17 C :   -0.214358
  18 C :   -0.031473
  19 N :    0.020574
  20 C :    0.034815
  21 C :   -0.108597
  22 C :   -0.043087
  23 C :   -0.162310
  24 C :   -0.031633
  25 C :   -0.044011
  26 C :   -0.172775
  27 S :    0.352171
  28 C :   -0.193392
  29 C :   -0.037285
  30 C :   -0.038168
  31 C :   -0.143651
  32 S :    0.386147
  33 C :   -0.057595
  34 C :   -0.028038
  35 C :   -0.034625
  36 C :    0.004531
  37 C :   -0.019071
  38 C :   -0.023673
  39 C :   -0.019255
  40 C :   -0.017670
  41 C :    0.006165
  42 C :   -0.034816
  43 C :   -0.016039
  44 C :   -0.056427
  45 C :   -0.009873
  46 C :   -0.065692
  47 C :   -0.022661
  48 C :   -0.025496
  49 C :   -0.017839
  50 C :   -0.018786
  51 C :   -0.019420
  52 C :   -0.043881
  53 C :   -0.168687
  54 S :    0.438015
  55 C :   -0.193555
  56 C :   -0.068447
  57 C :   -0.064584
  58 C :   -0.008785
  59 C :   -0.041606
  60 C :   -0.031823
  61 N :   -0.068183
  62 C :   -0.037118
  63 C :   -0.031558
  64 N :   -0.062291
  65 C :   -0.006027
  66 H :    0.023394
  67 H :    0.045113
  68 H :    0.043507
  69 H :    0.060171
  70 H :    0.065263
  71 H :    0.040743
  72 H :    0.045760
  73 H :    0.077767
  74 H :    0.026810
  75 H :    0.025140
  76 H :    0.079355
  77 H :    0.027262
  78 H :    0.019620
  79 H :    0.028210
  80 H :    0.030862
  81 H :    0.030199
  82 H :    0.030172
  83 H :    0.030228
  84 H :    0.029884
  85 H :    0.003633
  86 H :    0.025127
  87 H :    0.024023
  88 H :    0.021396
  89 H :    0.015952
  90 H :    0.025355
  91 H :    0.022429
  92 H :    0.024211
  93 H :    0.025730
  94 H :    0.009805
  95 H :    0.021632
  96 H :    0.021499
  97 H :    0.012808
  98 H :    0.021817
  99 H :    0.023878
 100 H :    0.025653
 101 H :    0.026743
 102 H :    0.024435
 103 H :    0.020384
 104 H :    0.042655
 105 H :    0.043420
 106 H :    0.050482
 107 H :    0.057666
 108 H :    0.040685
 109 H :    0.043874

  Mayer bond orders larger than 0.100000
B(  0-C ,  1-S ) :   1.1272 B(  0-C ,  4-C ) :   1.6051 B(  0-C , 66-H ) :   0.9717
B(  1-S ,  2-C ) :   1.1554 B(  2-C ,  3-C ) :   1.5337 B(  2-C , 13-N ) :   1.1394
B(  3-C ,  4-C ) :   1.2695 B(  3-C , 12-C ) :   1.0269 B(  4-C ,  5-C ) :   1.0141
B(  5-C ,  6-C ) :   1.0614 B(  5-C , 67-H ) :   0.9120 B(  5-C , 68-H ) :   0.9242
B(  6-C ,  7-C ) :   1.1066 B(  6-C ,  9-C ) :   1.0761 B(  6-C , 69-H ) :   0.8610
B(  7-C ,  8-N ) :   3.1082 B(  9-C , 10-C ) :   1.1190 B(  9-C , 12-C ) :   1.0634
B(  9-C , 70-H ) :   0.8568 B( 10-C , 11-N ) :   3.0074 B( 11-N ,106-H ) :   0.1279
B( 12-C , 71-H ) :   0.9083 B( 12-C , 72-H ) :   0.9052 B( 13-N , 14-C ) :   1.0582
B( 13-N , 73-H ) :   0.9041 B( 14-C , 15-C ) :   1.5420 B( 14-C , 18-C ) :   1.2690
B( 15-C , 16-S ) :   1.1360 B( 15-C , 74-H ) :   0.9691 B( 16-S , 17-C ) :   1.1517
B( 17-C , 18-C ) :   1.5242 B( 17-C , 75-H ) :   0.9735 B( 18-C , 19-N ) :   1.1095
B( 19-N , 20-C ) :   1.1559 B( 19-N , 76-H ) :   0.9144 B( 20-C , 21-C ) :   1.6538
B( 20-C , 77-H ) :   0.9665 B( 21-C , 22-C ) :   1.1512 B( 21-C , 78-H ) :   0.9537
B( 22-C , 23-C ) :   1.6038 B( 22-C , 79-H ) :   0.9821 B( 23-C , 24-C ) :   1.1380
B( 23-C , 27-S ) :   1.0139 B( 24-C , 25-C ) :   1.5974 B( 24-C , 80-H ) :   0.9961
B( 25-C , 26-C ) :   1.1840 B( 25-C , 81-H ) :   0.9944 B( 26-C , 27-S ) :   1.0446
B( 26-C , 28-C ) :   1.5191 B( 28-C , 29-C ) :   1.1778 B( 28-C , 32-S ) :   1.0295
B( 29-C , 30-C ) :   1.6070 B( 29-C , 82-H ) :   0.9930 B( 30-C , 31-C ) :   1.1310
B( 30-C , 83-H ) :   0.9966 B( 31-C , 32-S ) :   1.0257 B( 31-C , 33-C ) :   1.6057
B( 33-C , 34-C ) :   1.0965 B( 33-C , 84-H ) :   0.9710 B( 34-C , 35-C ) :   1.2692
B( 34-C , 39-C ) :   1.3198 B( 35-C , 36-C ) :   1.4459 B( 35-C , 85-H ) :   0.9617
B( 36-C , 37-C ) :   1.3804 B( 36-C , 42-C ) :   0.9206 B( 37-C , 38-C ) :   1.3268
B( 37-C , 40-C ) :   0.9913 B( 38-C , 39-C ) :   1.3949 B( 38-C , 86-H ) :   0.9901
B( 39-C , 87-H ) :   0.9917 B( 40-C , 41-C ) :   1.3760 B( 40-C , 50-C ) :   1.3272
B( 41-C , 42-C ) :   0.9240 B( 41-C , 47-C ) :   1.3824 B( 42-C , 43-C ) :   1.0387
B( 42-C , 45-C ) :   1.0126 B( 43-C , 44-C ) :   1.1052 B( 43-C , 88-H ) :   0.9364
B( 43-C , 89-H ) :   0.9352 B( 44-C , 90-H ) :   0.9639 B( 44-C , 91-H ) :   0.9644
B( 44-C , 92-H ) :   0.9624 B( 45-C , 46-C ) :   1.1115 B( 45-C , 93-H ) :   0.9348
B( 45-C , 94-H ) :   0.9339 B( 46-C , 95-H ) :   0.9534 B( 46-C , 96-H ) :   0.9567
B( 46-C , 97-H ) :   0.9610 B( 47-C , 48-C ) :   1.2823 B( 47-C , 98-H ) :   1.0090
B( 48-C , 49-C ) :   1.3494 B( 48-C , 51-C ) :   1.0700 B( 49-C , 50-C ) :   1.3989
B( 49-C , 99-H ) :   0.9840 B( 50-C ,100-H ) :   0.9903 B( 51-C , 52-C ) :   1.7061
B( 51-C ,101-H ) :   0.9765 B( 52-C , 53-C ) :   1.0954 B( 52-C ,102-H ) :   0.9471
B( 53-C , 54-S ) :   1.1421 B( 53-C , 57-C ) :   1.5330 B( 54-S , 55-C ) :   1.1587
B( 55-C , 56-C ) :   1.5700 B( 55-C ,103-H ) :   0.9720 B( 56-C , 57-C ) :   1.2969
B( 56-C , 65-C ) :   1.0102 B( 57-C , 58-C ) :   1.0447 B( 58-C , 59-C ) :   1.0522
B( 58-C ,104-H ) :   0.8953 B( 58-C ,105-H ) :   0.9136 B( 59-C , 60-C ) :   1.1036
B( 59-C , 62-C ) :   1.0797 B( 59-C ,106-H ) :   0.8180 B( 60-C , 61-N ) :   3.1067
B( 62-C , 63-C ) :   1.1094 B( 62-C , 65-C ) :   1.0631 B( 62-C ,107-H ) :   0.8607
B( 63-C , 64-N ) :   3.1055 B( 65-C ,108-H ) :   0.9246 B( 65-C ,109-H ) :   0.9096

-----------------------------------------------------------------------------
         ABSORPTION SPECTRUM VIA TRANSITION ELECTRIC DIPOLE MOMENTS
-----------------------------------------------------------------------------
State   Energy  Wavelength   fosc         T2         TX        TY        TZ
        (cm-1)    (nm)                  (au**2)     (au)      (au)      (au)
-----------------------------------------------------------------------------
   0   15327.9    652.4   0.926065407  19.89005   1.82056   3.77938   1.51391
   1   24190.2    413.4   0.009262159   0.12605  -0.05660  -0.32308  -0.13589
   2   26182.5    381.9   2.056820951  25.86195   4.41370  -0.89398  -2.36262
   3   28743.7    347.9   0.055491288   0.63556   0.75958  -0.06792  -0.23234
   4   30434.5    328.6   0.180911893   1.95693   0.57611   1.15675   0.53570
   5   30983.6    322.8   0.048733660   0.51781  -0.56540  -0.11391   0.43031
   6   31993.9    312.6   0.012811266   0.13183  -0.17891  -0.31592  -0.00309
   7   32874.2    304.2   0.052529087   0.52604   0.62335  -0.09027  -0.35963
   8   33119.0    301.9   0.396084812   3.93719   1.74826  -0.27291  -0.89794
   9   33621.3    297.4   0.027922315   0.27341   0.45622  -0.16145  -0.19799
  10   33864.4    295.3   0.018371378   0.17860  -0.41473  -0.07695   0.02602
  11   34091.2    293.3   0.021351456   0.20619  -0.40811  -0.11179   0.16473
  12   35810.5    279.2   0.058777357   0.54035   0.46073  -0.32934  -0.46863
  13   36284.1    275.6   0.008350430   0.07576   0.15898   0.20096   0.10052
  14   37483.4    266.8   0.066081100   0.58038  -0.73731  -0.12835   0.14244
  15   38182.0    261.9   0.042467745   0.36616  -0.50291  -0.09949   0.32147
  16   38578.0    259.2   0.137963261   1.17733   1.01992   0.34188  -0.14218
  17   39561.2    252.8   0.193105310   1.60694  -0.30890   0.95569   0.77342
  18   39913.1    250.5   0.054920076   0.45299   0.17110  -0.05432  -0.64867
  19   40270.9    248.3   0.003587877   0.02933   0.05002   0.02778  -0.16142

FINAL SINGLE POINT ENERGY     -4437.958135123754

DIPOLE MOMENT
-------------
                                X             Y             Z
Electronic contribution:      3.14257      -9.77709      -9.27671
Nuclear contribution   :     -4.60583       8.23470       8.49601
                        -----------------------------------------
Total Dipole Moment    :     -1.46326      -1.54239      -0.78070
                        -----------------------------------------
Magnitude (a.u.)       :      2.26486
Magnitude (Debye)      :      5.75682

Rotational constants in cm-1:     0.001043     0.000658     0.000426
Rotational constants in MHz :    31.262125    19.716251    12.783516

                             ****ORCA TERMINATED NORMALLY****
TOTAL RUN TIME: 0 days 0 hours 10 minutes 44 seconds 499 msec
