                         Program Version 4.2.0 -  RELEASE  -
|  1> # ORCA input file
|  2> # SCF done       -177.358685937579          0.000738151775
|  3> ! CAM-B3LYP def2-SVP def2/J RIJCOSX Grid4 TightSCF
|  4> %maxcore 5000
|  5> %tddft
|  6>     Mode sTDDFT
|  7>     Ethresh 5.0
|  8>     maxcore 5000
|  9> end
| 10>
| 11> %pal
| 12>   nprocs 6
| 13>   end
| 14> * xyz 0 1
| 15>    C        7.64707         2.89473         5.78916
| 16>    S        6.70528         2.80836         4.35437
| 17>    C        5.83414         4.24074         4.80152
| 18>    C        6.25103         4.72192         6.01421
| 19>    C        7.30631         3.95277         6.57282
| 20>    C        7.99256         4.33353         7.84897
| 21>    C        7.12144         5.29155         8.67799
| 22>    C        6.01443         4.56165         9.25199
| 23>    N        5.15541         3.96066         9.70659
| 24>    C        6.58868         6.44179         7.79540
| 25>    C        7.68427         7.15438         7.18668
| 26>    N        8.54328         7.72824         6.69615
| 27>    C        5.64426         5.89647         6.71583
| 28>    C        4.76503         4.78759         3.98081
| 29>    C        3.64609         4.06560         3.70701
| 30>    S        2.38819         4.96919         2.95654
| 31>    C        3.37444         6.39753         3.02549
| 32>    C        4.66223         6.14958         3.52136
| 33>    C        5.64061         7.17364         3.44392
| 34>    C        7.09227         6.78560         3.55822
| 35>    C        7.54606         6.13228         2.24970
| 36>    C        5.26071         8.46504         3.11302
| 37>    C        6.29340         9.55821         3.01310
| 38>    C        6.65977        10.11886         4.39114
| 39>    C        3.89950         8.75773         2.84095
| 40>    C        3.23938        10.01627         2.56752
| 41>    C        1.94088         9.82690         2.18562
| 42>    S        1.42518         8.18929         2.16266
| 43>    C        2.99784         7.69024         2.69749
| 44>    C        3.78244        11.34035         2.76609
| 45>    C        3.33477        12.43911         2.12979
| 46>    C        3.81750        13.77848         2.26881
| 47>    S        3.35333        14.86633         0.98304
| 48>    C        4.35867        16.11048         1.60619
| 49>    C        5.02093        15.73519         2.72826
| 50>    C        5.94859        16.63655         3.47500
| 51>    C        4.69952        14.40058         3.14535
| 52>    C        5.25179        13.89000         4.37237
| 53>    C        4.62307        13.09464         5.26955
| 54>    C        5.17724        12.60927         6.48678
| 55>    C        6.38570        12.96072         7.01685
| 56>    C        6.96893        12.47322         8.20096
| 57>    C        6.59995        11.41157         8.99259
| 58>    C        7.24082        11.05000        10.20511
| 59>    C        6.72048         9.95388        10.82271
| 60>    C        5.64083         9.36657        10.12907
| 61>    S        5.30699        10.27040         8.66195
| 62>    C        4.89876         8.25197        10.46391
| 63>    C        5.00961         7.42760        11.60696
| 64>    C        4.12951         6.39286        11.61546
| 65>    C        3.27377         6.31952        10.47835
| 66>    S        3.65567         7.63590         9.38364
| 67>    C        2.27879         5.39455        10.34758
| 68>    C        1.32422         5.18457         9.30987
| 69>    C        0.19174         4.39545         9.58293
| 70>    O        0.10632         3.94778        10.86510
| 71>    C       -0.59259         2.76572        11.19439
| 72>    C       -0.81969         4.17197         8.59787
| 73>    O       -1.91417         3.46579         9.00866
| 74>    C       -2.95975         3.24818         8.09274
| 75>    C       -0.69526         4.67205         7.32209
| 76>    C        0.43871         5.42640         7.00178
| 77>    C        1.44645         5.69501         7.99074
| 78>    N        2.44830         6.40217         7.48528
| 79>    S        2.14373         6.72531         5.93150
| 80>    N        0.73122         5.96354         5.81886
| 81>    H        8.40517         2.15847         5.96713
| 82>    H        8.93487         4.83916         7.61031
| 83>    H        8.23261         3.44071         8.43209
| 84>    H        7.71383         5.70411         9.50502
| 85>    H        6.03648         7.15765         8.41400
| 86>    H        5.39558         6.68965         6.00717
| 87>    H        4.71040         5.59286         7.20067
| 88>    H        3.47809         3.03301         3.94523
| 89>    H        7.72148         7.64404         3.77369
| 90>    H        7.24152         6.07649         4.36695
| 91>    H        7.40699         6.81265         1.41202
| 92>    H        6.97030         5.23006         2.05470
| 93>    H        8.59825         5.86410         2.30996
| 94>    H        5.91185        10.35462         2.37464
| 95>    H        7.19214         9.17542         2.52861
| 96>    H        7.28087        11.00557         4.28532
| 97>    H        7.20722         9.38773         4.98131
| 98>    H        5.76907        10.38890         4.95427
| 99>    H        1.22121        10.58780         1.95601
|100>    H        4.56765        11.44120         3.49387
|101>    H        2.58306        12.32709         1.35800
|102>    H        4.39976        17.05616         1.10232
|103>    H        5.97850        17.61677         3.00600
|104>    H        6.95841        16.22610         3.48120
|105>    H        5.62059        16.75072         4.50744
|106>    H        6.24189        14.25830         4.60492
|107>    H        3.60676        12.78790         5.05843
|108>    H        4.55365        11.91919         7.03746
|109>    H        6.96365        13.72334         6.51127
|110>    H        7.85230        12.99975         8.54313
|111>    H        8.06839        11.62245        10.58658
|112>    H        7.08573         9.54954        11.75008
|113>    H        5.72284         7.62548        12.38790
|114>    H        4.05766         5.66337        12.40239
|115>    H        2.16325         4.72821        11.19211
|116>    H       -0.41340         1.97313        10.46562
|117>    H       -1.66624         2.94191        11.28248
|118>    H       -0.19512         2.46252        12.16390
|119>    H       -3.39009         4.19164         7.74381
|120>    H       -3.71426         2.68798         8.64305
|121>    H       -2.62563         2.65918         7.23324
|122>    H       -1.43985         4.51620         6.56181
|123> *
|124>
|125>                          ****END OF INPUT****

CARTESIAN COORDINATES (ANGSTROEM)
---------------------------------
  C      7.647070    2.894730    5.789160
  S      6.705280    2.808360    4.354370
  C      5.834140    4.240740    4.801520
  C      6.251030    4.721920    6.014210
  C      7.306310    3.952770    6.572820
  C      7.992560    4.333530    7.848970
  C      7.121440    5.291550    8.677990
  C      6.014430    4.561650    9.251990
  N      5.155410    3.960660    9.706590
  C      6.588680    6.441790    7.795400
  C      7.684270    7.154380    7.186680
  N      8.543280    7.728240    6.696150
  C      5.644260    5.896470    6.715830
  C      4.765030    4.787590    3.980810
  C      3.646090    4.065600    3.707010
  S      2.388190    4.969190    2.956540
  C      3.374440    6.397530    3.025490
  C      4.662230    6.149580    3.521360
  C      5.640610    7.173640    3.443920
  C      7.092270    6.785600    3.558220
  C      7.546060    6.132280    2.249700
  C      5.260710    8.465040    3.113020
  C      6.293400    9.558210    3.013100
  C      6.659770   10.118860    4.391140
  C      3.899500    8.757730    2.840950
  C      3.239380   10.016270    2.567520
  C      1.940880    9.826900    2.185620
  S      1.425180    8.189290    2.162660
  C      2.997840    7.690240    2.697490
  C      3.782440   11.340350    2.766090
  C      3.334770   12.439110    2.129790
  C      3.817500   13.778480    2.268810
  S      3.353330   14.866330    0.983040
  C      4.358670   16.110480    1.606190
  C      5.020930   15.735190    2.728260
  C      5.948590   16.636550    3.475000
  C      4.699520   14.400580    3.145350
  C      5.251790   13.890000    4.372370
  C      4.623070   13.094640    5.269550
  C      5.177240   12.609270    6.486780
  C      6.385700   12.960720    7.016850
  C      6.968930   12.473220    8.200960
  C      6.599950   11.411570    8.992590
  C      7.240820   11.050000   10.205110
  C      6.720480    9.953880   10.822710
  C      5.640830    9.366570   10.129070
  S      5.306990   10.270400    8.661950
  C      4.898760    8.251970   10.463910
  C      5.009610    7.427600   11.606960
  C      4.129510    6.392860   11.615460
  C      3.273770    6.319520   10.478350
  S      3.655670    7.635900    9.383640
  C      2.278790    5.394550   10.347580
  C      1.324220    5.184570    9.309870
  C      0.191740    4.395450    9.582930
  O      0.106320    3.947780   10.865100
  C     -0.592590    2.765720   11.194390
  C     -0.819690    4.171970    8.597870
  O     -1.914170    3.465790    9.008660
  C     -2.959750    3.248180    8.092740
  C     -0.695260    4.672050    7.322090
  C      0.438710    5.426400    7.001780
  C      1.446450    5.695010    7.990740
  N      2.448300    6.402170    7.485280
  S      2.143730    6.725310    5.931500
  N      0.731220    5.963540    5.818860
  H      8.405170    2.158470    5.967130
  H      8.934870    4.839160    7.610310
  H      8.232610    3.440710    8.432090
  H      7.713830    5.704110    9.505020
  H      6.036480    7.157650    8.414000
  H      5.395580    6.689650    6.007170
  H      4.710400    5.592860    7.200670
  H      3.478090    3.033010    3.945230
  H      7.721480    7.644040    3.773690
  H      7.241520    6.076490    4.366950
  H      7.406990    6.812650    1.412020
  H      6.970300    5.230060    2.054700
  H      8.598250    5.864100    2.309960
  H      5.911850   10.354620    2.374640
  H      7.192140    9.175420    2.528610
  H      7.280870   11.005570    4.285320
  H      7.207220    9.387730    4.981310
  H      5.769070   10.388900    4.954270
  H      1.221210   10.587800    1.956010
  H      4.567650   11.441200    3.493870
  H      2.583060   12.327090    1.358000
  H      4.399760   17.056160    1.102320
  H      5.978500   17.616770    3.006000
  H      6.958410   16.226100    3.481200
  H      5.620590   16.750720    4.507440
  H      6.241890   14.258300    4.604920
  H      3.606760   12.787900    5.058430
  H      4.553650   11.919190    7.037460
  H      6.963650   13.723340    6.511270
  H      7.852300   12.999750    8.543130
  H      8.068390   11.622450   10.586580
  H      7.085730    9.549540   11.750080
  H      5.722840    7.625480   12.387900
  H      4.057660    5.663370   12.402390
  H      2.163250    4.728210   11.192110
  H     -0.413400    1.973130   10.465620
  H     -1.666240    2.941910   11.282480
  H     -0.195120    2.462520   12.163900
  H     -3.390090    4.191640    7.743810
  H     -3.714260    2.687980    8.643050
  H     -2.625630    2.659180    7.233240
  H     -1.439850    4.516200    6.561810

 Total Charge           Charge          ....    0
 Multiplicity           Mult            ....    1
 Number of Electrons    NEL             ....  516
 Basis Dimension        Dim             .... 1162

ORBITAL ENERGIES
----------------

  NO   OCC          E(Eh)            E(eV)
   0   2.0000     -89.003311     -2421.9032
   1   2.0000     -88.946162     -2420.3481
   2   2.0000     -88.943712     -2420.2815
   3   2.0000     -88.940954     -2420.2064
   4   2.0000     -88.936451     -2420.0839
   5   2.0000     -88.934742     -2420.0374
   6   2.0000     -88.930773     -2419.9294
   7   2.0000     -19.257085      -524.0119
   8   2.0000     -19.245019      -523.6836
   9   2.0000     -14.420308      -392.3965
  10   2.0000     -14.418587      -392.3497
  11   2.0000     -14.398934      -391.8149
  12   2.0000     -14.397253      -391.7692
  13   2.0000     -10.347419      -281.5676
  14   2.0000     -10.342333      -281.4292
  15   2.0000     -10.330921      -281.1187
  16   2.0000     -10.322987      -280.9028
  17   2.0000     -10.314095      -280.6608
  18   2.0000     -10.312799      -280.6255
  19   2.0000     -10.308836      -280.5177
  20   2.0000     -10.306848      -280.4636
  21   2.0000     -10.298000      -280.2228
  22   2.0000     -10.296826      -280.1909
  23   2.0000     -10.296642      -280.1859
  24   2.0000     -10.295128      -280.1447
  25   2.0000     -10.294180      -280.1189
  26   2.0000     -10.293819      -280.1091
  27   2.0000     -10.288621      -279.9676
  28   2.0000     -10.288200      -279.9561
  29   2.0000     -10.288021      -279.9513
  30   2.0000     -10.287079      -279.9257
  31   2.0000     -10.286636      -279.9136
  32   2.0000     -10.284658      -279.8598
  33   2.0000     -10.282247      -279.7942
  34   2.0000     -10.280278      -279.7406
  35   2.0000     -10.280063      -279.7347
  36   2.0000     -10.277544      -279.6662
  37   2.0000     -10.275445      -279.6091
  38   2.0000     -10.274503      -279.5834
  39   2.0000     -10.273764      -279.5633
  40   2.0000     -10.273184      -279.5475
  41   2.0000     -10.272181      -279.5203
  42   2.0000     -10.271920      -279.5131
  43   2.0000     -10.271549      -279.5030
  44   2.0000     -10.270860      -279.4843
  45   2.0000     -10.268875      -279.4303
  46   2.0000     -10.267747      -279.3996
  47   2.0000     -10.267477      -279.3923
  48   2.0000     -10.266615      -279.3688
  49   2.0000     -10.266603      -279.3685
  50   2.0000     -10.265640      -279.3423
  51   2.0000     -10.264387      -279.3082
  52   2.0000     -10.262680      -279.2617
  53   2.0000     -10.262379      -279.2535
  54   2.0000     -10.261144      -279.2199
  55   2.0000     -10.260970      -279.2152
  56   2.0000     -10.260800      -279.2106
  57   2.0000     -10.260324      -279.1976
  58   2.0000     -10.258968      -279.1607
  59   2.0000     -10.258409      -279.1455
  60   2.0000     -10.257769      -279.1281
  61   2.0000     -10.257676      -279.1256
  62   2.0000     -10.245956      -278.8066
  63   2.0000     -10.240528      -278.6589
  64   2.0000     -10.237271      -278.5703
  65   2.0000     -10.232367      -278.4369
  66   2.0000      -8.094002      -220.2490
  67   2.0000      -8.041613      -218.8234
  68   2.0000      -8.039596      -218.7685
  69   2.0000      -8.037031      -218.6987
  70   2.0000      -8.031650      -218.5523
  71   2.0000      -8.030983      -218.5342
  72   2.0000      -8.024927      -218.3694
  73   2.0000      -6.065357      -165.0468
  74   2.0000      -6.057716      -164.8388
  75   2.0000      -6.056113      -164.7952
  76   2.0000      -6.010825      -163.5629
  77   2.0000      -6.009098      -163.5159
  78   2.0000      -6.006624      -163.4485
  79   2.0000      -6.006514      -163.4455
  80   2.0000      -6.004928      -163.4024
  81   2.0000      -6.004029      -163.3779
  82   2.0000      -6.002310      -163.3312
  83   2.0000      -6.001354      -163.3051
  84   2.0000      -6.001218      -163.3014
  85   2.0000      -6.000211      -163.2740
  86   2.0000      -5.998773      -163.2349
  87   2.0000      -5.997296      -163.1947
  88   2.0000      -5.996038      -163.1605
  89   2.0000      -5.994852      -163.1282
  90   2.0000      -5.993216      -163.0837
  91   2.0000      -5.992835      -163.0733
  92   2.0000      -5.990517      -163.0102
  93   2.0000      -5.985858      -162.8835
  94   2.0000      -1.166456       -31.7409
  95   2.0000      -1.140882       -31.0450
  96   2.0000      -1.105235       -30.0750
  97   2.0000      -1.000717       -27.2309
  98   2.0000      -0.992677       -27.0121
  99   2.0000      -0.983496       -26.7623
 100   2.0000      -0.981744       -26.7146
 101   2.0000      -0.976116       -26.5615
 102   2.0000      -0.967128       -26.3169
 103   2.0000      -0.965210       -26.2647
 104   2.0000      -0.958304       -26.0768
 105   2.0000      -0.955906       -26.0115
 106   2.0000      -0.944541       -25.7023
 107   2.0000      -0.934444       -25.4275
 108   2.0000      -0.911938       -24.8151
 109   2.0000      -0.900239       -24.4968
 110   2.0000      -0.887321       -24.1452
 111   2.0000      -0.880073       -23.9480
 112   2.0000      -0.873725       -23.7753
 113   2.0000      -0.866997       -23.5922
 114   2.0000      -0.855467       -23.2784
 115   2.0000      -0.853730       -23.2312
 116   2.0000      -0.850593       -23.1458
 117   2.0000      -0.846471       -23.0336
 118   2.0000      -0.837276       -22.7834
 119   2.0000      -0.835770       -22.7425
 120   2.0000      -0.831480       -22.6257
 121   2.0000      -0.828586       -22.5470
 122   2.0000      -0.820513       -22.3273
 123   2.0000      -0.809180       -22.0189
 124   2.0000      -0.804281       -21.8856
 125   2.0000      -0.801198       -21.8017
 126   2.0000      -0.793681       -21.5972
 127   2.0000      -0.788955       -21.4686
 128   2.0000      -0.777959       -21.1693
 129   2.0000      -0.770737       -20.9728
 130   2.0000      -0.766194       -20.8492
 131   2.0000      -0.751623       -20.4527
 132   2.0000      -0.742410       -20.2020
 133   2.0000      -0.732420       -19.9302
 134   2.0000      -0.730791       -19.8858
 135   2.0000      -0.726678       -19.7739
 136   2.0000      -0.704638       -19.1742
 137   2.0000      -0.703429       -19.1413
 138   2.0000      -0.692398       -18.8411
 139   2.0000      -0.689060       -18.7503
 140   2.0000      -0.682406       -18.5692
 141   2.0000      -0.679481       -18.4896
 142   2.0000      -0.675141       -18.3715
 143   2.0000      -0.667374       -18.1602
 144   2.0000      -0.662220       -18.0199
 145   2.0000      -0.657206       -17.8835
 146   2.0000      -0.638275       -17.3684
 147   2.0000      -0.633546       -17.2397
 148   2.0000      -0.631107       -17.1733
 149   2.0000      -0.623955       -16.9787
 150   2.0000      -0.621995       -16.9254
 151   2.0000      -0.617312       -16.7979
 152   2.0000      -0.612592       -16.6695
 153   2.0000      -0.611199       -16.6316
 154   2.0000      -0.605055       -16.4644
 155   2.0000      -0.603714       -16.4279
 156   2.0000      -0.601282       -16.3617
 157   2.0000      -0.597256       -16.2522
 158   2.0000      -0.584292       -15.8994
 159   2.0000      -0.582699       -15.8560
 160   2.0000      -0.580944       -15.8083
 161   2.0000      -0.572221       -15.5709
 162   2.0000      -0.569235       -15.4897
 163   2.0000      -0.564003       -15.3473
 164   2.0000      -0.563046       -15.3213
 165   2.0000      -0.554237       -15.0816
 166   2.0000      -0.546249       -14.8642
 167   2.0000      -0.543698       -14.7948
 168   2.0000      -0.539647       -14.6845
 169   2.0000      -0.536436       -14.5972
 170   2.0000      -0.534268       -14.5382
 171   2.0000      -0.532411       -14.4876
 172   2.0000      -0.530908       -14.4467
 173   2.0000      -0.529770       -14.4158
 174   2.0000      -0.525077       -14.2881
 175   2.0000      -0.517724       -14.0880
 176   2.0000      -0.515038       -14.0149
 177   2.0000      -0.512107       -13.9351
 178   2.0000      -0.509260       -13.8577
 179   2.0000      -0.507447       -13.8083
 180   2.0000      -0.505566       -13.7572
 181   2.0000      -0.504126       -13.7180
 182   2.0000      -0.499258       -13.5855
 183   2.0000      -0.496889       -13.5210
 184   2.0000      -0.496061       -13.4985
 185   2.0000      -0.490886       -13.3577
 186   2.0000      -0.489164       -13.3108
 187   2.0000      -0.486917       -13.2497
 188   2.0000      -0.483081       -13.1453
 189   2.0000      -0.481935       -13.1141
 190   2.0000      -0.479827       -13.0567
 191   2.0000      -0.478958       -13.0331
 192   2.0000      -0.476577       -12.9683
 193   2.0000      -0.474111       -12.9012
 194   2.0000      -0.470956       -12.8154
 195   2.0000      -0.470144       -12.7933
 196   2.0000      -0.468690       -12.7537
 197   2.0000      -0.462132       -12.5753
 198   2.0000      -0.459631       -12.5072
 199   2.0000      -0.455546       -12.3960
 200   2.0000      -0.453762       -12.3475
 201   2.0000      -0.451897       -12.2968
 202   2.0000      -0.449769       -12.2388
 203   2.0000      -0.445596       -12.1253
 204   2.0000      -0.444825       -12.1043
 205   2.0000      -0.443032       -12.0555
 206   2.0000      -0.439642       -11.9633
 207   2.0000      -0.436842       -11.8871
 208   2.0000      -0.433961       -11.8087
 209   2.0000      -0.433173       -11.7872
 210   2.0000      -0.431581       -11.7439
 211   2.0000      -0.430351       -11.7104
 212   2.0000      -0.428478       -11.6595
 213   2.0000      -0.427026       -11.6200
 214   2.0000      -0.426801       -11.6138
 215   2.0000      -0.424923       -11.5627
 216   2.0000      -0.423760       -11.5311
 217   2.0000      -0.422449       -11.4954
 218   2.0000      -0.421660       -11.4740
 219   2.0000      -0.419670       -11.4198
 220   2.0000      -0.414773       -11.2865
 221   2.0000      -0.414588       -11.2815
 222   2.0000      -0.413567       -11.2537
 223   2.0000      -0.410602       -11.1731
 224   2.0000      -0.407533       -11.0895
 225   2.0000      -0.404972       -11.0198
 226   2.0000      -0.403044       -10.9674
 227   2.0000      -0.398275       -10.8376
 228   2.0000      -0.396571       -10.7912
 229   2.0000      -0.395363       -10.7584
 230   2.0000      -0.392426       -10.6785
 231   2.0000      -0.390013       -10.6128
 232   2.0000      -0.387812       -10.5529
 233   2.0000      -0.386611       -10.5202
 234   2.0000      -0.383168       -10.4265
 235   2.0000      -0.379393       -10.3238
 236   2.0000      -0.374863       -10.2006
 237   2.0000      -0.373315       -10.1584
 238   2.0000      -0.371681       -10.1140
 239   2.0000      -0.369189       -10.0461
 240   2.0000      -0.363083        -9.8800
 241   2.0000      -0.359455        -9.7813
 242   2.0000      -0.341232        -9.2854
 243   2.0000      -0.338213        -9.2032
 244   2.0000      -0.335124        -9.1192
 245   2.0000      -0.322987        -8.7889
 246   2.0000      -0.316726        -8.6186
 247   2.0000      -0.311327        -8.4716
 248   2.0000      -0.304486        -8.2855
 249   2.0000      -0.300655        -8.1812
 250   2.0000      -0.287850        -7.8328
 251   2.0000      -0.284028        -7.7288
 252   2.0000      -0.282223        -7.6797
 253   2.0000      -0.274881        -7.4799
 254   2.0000      -0.255439        -6.9509
 255   2.0000      -0.253936        -6.9099
 256   2.0000      -0.232025        -6.3137
 257   2.0000      -0.195355        -5.3159
 258   0.0000      -0.073006        -1.9866
 259   0.0000      -0.039265        -1.0685
 260   0.0000      -0.016850        -0.4585
 261   0.0000      -0.000708        -0.0193
 262   0.0000       0.009801         0.2667

MULLIKEN ATOMIC CHARGES
-----------------------
   0 C :   -0.138443
   1 S :    0.138949
   2 C :   -0.256642
   3 C :    0.002767
   4 C :   -0.056238
   5 C :    0.175195
   6 C :   -0.097599
   7 C :   -0.228519
   8 N :    0.129197
   9 C :   -0.067574
  10 C :   -0.221382
  11 N :    0.118622
  12 C :    0.144635
  13 C :    0.036113
  14 C :   -0.098590
  15 S :    0.134174
  16 C :   -0.185377
  17 C :    0.107972
  18 C :   -0.140288
  19 C :    0.063992
  20 C :    0.043046
  21 C :   -0.127287
  22 C :    0.020604
  23 C :    0.041481
  24 C :    0.111405
  25 C :    0.075335
  26 C :   -0.129331
  27 S :    0.125655
  28 C :   -0.153141
  29 C :   -0.035630
  30 C :    0.048969
  31 C :   -0.161745
  32 S :    0.095062
  33 C :   -0.129520
  34 C :   -0.082684
  35 C :    0.115139
  36 C :    0.119687
  37 C :   -0.045188
  38 C :    0.016675
  39 C :   -0.027391
  40 C :    0.028074
  41 C :   -0.005124
  42 C :   -0.017313
  43 C :    0.034140
  44 C :    0.030069
  45 C :   -0.068575
  46 S :    0.066669
  47 C :   -0.070856
  48 C :    0.022946
  49 C :    0.048413
  50 C :    0.015883
  51 S :    0.087870
  52 C :   -0.047247
  53 C :    0.014388
  54 C :    0.122572
  55 O :   -0.316853
  56 C :    0.208481
  57 C :    0.226143
  58 O :   -0.329209
  59 C :    0.180448
  60 C :   -0.205387
  61 C :    0.075806
  62 C :    0.040888
  63 N :   -0.322103
  64 S :    0.492245
  65 N :   -0.256383
  66 H :    0.006515
  67 H :    0.047281
  68 H :    0.025237
  69 H :    0.044686
  70 H :    0.061233
  71 H :    0.036431
  72 H :    0.069363
  73 H :    0.015692
  74 H :    0.005860
  75 H :    0.022961
  76 H :    0.002643
  77 H :    0.004992
  78 H :    0.012451
  79 H :    0.006787
  80 H :    0.003911
  81 H :    0.010678
  82 H :    0.019106
  83 H :    0.012456
  84 H :    0.017375
  85 H :   -0.006089
  86 H :   -0.026682
  87 H :    0.009031
  88 H :    0.004147
  89 H :    0.027586
  90 H :    0.029381
  91 H :   -0.016690
  92 H :    0.000117
  93 H :   -0.001017
  94 H :   -0.021421
  95 H :   -0.021098
  96 H :   -0.017001
  97 H :   -0.019707
  98 H :   -0.020859
  99 H :   -0.011255
 100 H :   -0.006545
 101 H :    0.016197
 102 H :    0.029534
 103 H :    0.026183
 104 H :    0.030055
 105 H :    0.038414
 106 H :    0.029067
 107 H :   -0.035097
Sum of atomic charges:   -0.0000000

LOEWDIN ATOMIC CHARGES
----------------------
   0 C :   -0.195769
   1 S :    0.442944
   2 C :   -0.177015
   3 C :   -0.064697
   4 C :   -0.068628
   5 C :   -0.005251
   6 C :   -0.035511
   7 C :   -0.025273
   8 N :   -0.061128
   9 C :   -0.038413
  10 C :   -0.021657
  11 N :   -0.069228
  12 C :   -0.011048
  13 C :   -0.083079
  14 C :   -0.166951
  15 S :    0.418160
  16 C :   -0.196394
  17 C :   -0.049086
  18 C :   -0.023188
  19 C :   -0.031963
  20 C :   -0.046342
  21 C :   -0.017154
  22 C :   -0.032680
  23 C :   -0.052577
  24 C :   -0.041840
  25 C :   -0.058744
  26 C :   -0.173373
  27 S :    0.412439
  28 C :   -0.188848
  29 C :   -0.021965
  30 C :   -0.049179
  31 C :   -0.166086
  32 S :    0.421653
  33 C :   -0.201239
  34 C :   -0.056873
  35 C :   -0.045790
  36 C :   -0.064894
  37 C :   -0.021393
  38 C :   -0.025654
  39 C :   -0.041074
  40 C :   -0.028369
  41 C :   -0.064403
  42 C :   -0.141102
  43 C :   -0.034221
  44 C :   -0.041373
  45 C :   -0.195471
  46 S :    0.379948
  47 C :   -0.189701
  48 C :   -0.049909
  49 C :   -0.014849
  50 C :   -0.140660
  51 S :    0.410425
  52 C :   -0.027850
  53 C :   -0.059859
  54 C :    0.054450
  55 O :   -0.095457
  56 C :    0.078966
  57 C :    0.041306
  58 O :   -0.096636
  59 C :    0.078875
  60 C :   -0.085020
  61 C :   -0.054664
  62 C :   -0.046315
  63 N :   -0.298440
  64 S :    0.651979
  65 N :   -0.288728
  66 H :    0.019947
  67 H :    0.043600
  68 H :    0.039657
  69 H :    0.058081
  70 H :    0.050378
  71 H :    0.038780
  72 H :    0.040134
  73 H :    0.023575
  74 H :    0.027195
  75 H :    0.029653
  76 H :    0.020305
  77 H :    0.018605
  78 H :    0.023417
  79 H :    0.027547
  80 H :    0.027506
  81 H :    0.024568
  82 H :    0.026452
  83 H :    0.017644
  84 H :    0.020346
  85 H :    0.032899
  86 H :    0.021649
  87 H :    0.018668
  88 H :    0.031294
  89 H :    0.033239
  90 H :    0.035281
  91 H :    0.023068
  92 H :    0.032216
  93 H :    0.012064
  94 H :    0.025650
  95 H :    0.032261
  96 H :    0.031593
  97 H :    0.029412
  98 H :    0.027859
  99 H :    0.033835
 100 H :    0.037756
 101 H :    0.015215
 102 H :    0.015170
 103 H :    0.021478
 104 H :    0.019463
 105 H :    0.029410
 106 H :    0.018202
 107 H :    0.036794

  Mayer bond orders larger than 0.100000
B(  0-C ,  1-S ) :   1.1498 B(  0-C ,  2-C ) :   0.1025 B(  0-C ,  4-C ) :   1.5829
B(  0-C , 66-H ) :   0.9728 B(  1-S ,  2-C ) :   1.1683 B(  2-C ,  3-C ) :   1.5821
B(  2-C , 13-C ) :   0.9692 B(  3-C ,  4-C ) :   1.2753 B(  3-C , 12-C ) :   1.0334
B(  4-C ,  5-C ) :   1.0125 B(  5-C ,  6-C ) :   1.0641 B(  5-C , 67-H ) :   0.9097
B(  5-C , 68-H ) :   0.9209 B(  6-C ,  7-C ) :   1.1118 B(  6-C ,  9-C ) :   1.0780
B(  6-C , 69-H ) :   0.8565 B(  7-C ,  8-N ) :   3.0564 B(  9-C , 10-C ) :   1.1285
B(  9-C , 12-C ) :   1.0620 B(  9-C , 70-H ) :   0.8408 B( 10-C , 11-N ) :   2.9919
B( 12-C , 71-H ) :   0.9046 B( 12-C , 72-H ) :   0.8894 B( 13-C , 14-C ) :   1.6274
B( 13-C , 17-C ) :   1.1831 B( 14-C , 15-S ) :   1.1157 B( 14-C , 73-H ) :   0.9676
B( 15-S , 16-C ) :   1.0933 B( 16-C , 17-C ) :   1.3612 B( 16-C , 28-C ) :   1.3470
B( 17-C , 18-C ) :   1.2365 B( 18-C , 19-C ) :   1.0887 B( 18-C , 21-C ) :   1.5008
B( 19-C , 20-C ) :   1.1144 B( 19-C , 74-H ) :   0.9073 B( 19-C , 75-H ) :   0.9027
B( 20-C , 76-H ) :   0.9617 B( 20-C , 77-H ) :   0.9647 B( 20-C , 78-H ) :   0.9673
B( 21-C , 22-C ) :   1.0621 B( 21-C , 24-C ) :   1.2628 B( 22-C , 23-C ) :   1.1062
B( 22-C , 79-H ) :   0.9195 B( 22-C , 80-H ) :   0.9108 B( 23-C , 81-H ) :   0.9643
B( 23-C , 82-H ) :   0.9510 B( 23-C , 83-H ) :   0.9452 B( 24-C , 25-C ) :   1.1342
B( 24-C , 28-C ) :   1.3741 B( 25-C , 26-C ) :   1.5988 B( 25-C , 29-C ) :   1.0569
B( 26-C , 27-S ) :   1.1105 B( 26-C , 84-H ) :   0.9550 B( 27-S , 28-C ) :   1.0825
B( 29-C , 30-C ) :   1.7446 B( 29-C , 85-H ) :   0.9558 B( 30-C , 31-C ) :   1.1026
B( 30-C , 86-H ) :   0.9490 B( 31-C , 32-S ) :   1.1369 B( 31-C , 36-C ) :   1.4613
B( 32-S , 33-C ) :   1.1335 B( 33-C , 34-C ) :   1.5998 B( 33-C , 87-H ) :   0.9666
B( 34-C , 35-C ) :   1.0980 B( 34-C , 36-C ) :   1.2322 B( 35-C , 88-H ) :   0.9501
B( 35-C , 89-H ) :   0.9417 B( 35-C , 90-H ) :   0.9435 B( 36-C , 37-C ) :   1.0891
B( 37-C , 38-C ) :   1.7120 B( 37-C , 91-H ) :   0.9386 B( 38-C , 39-C ) :   1.1712
B( 38-C , 92-H ) :   0.9739 B( 39-C , 40-C ) :   1.6238 B( 39-C , 93-H ) :   0.9505
B( 40-C , 41-C ) :   1.2189 B( 40-C , 94-H ) :   0.9566 B( 41-C , 42-C ) :   1.5664
B( 41-C , 95-H ) :   0.9570 B( 42-C , 43-C ) :   1.1534 B( 42-C , 46-S ) :   1.0348
B( 43-C , 44-C ) :   1.5817 B( 43-C , 96-H ) :   0.9978 B( 44-C , 45-C ) :   1.1869
B( 44-C , 97-H ) :   0.9937 B( 45-C , 46-S ) :   1.0320 B( 45-C , 47-C ) :   1.5011
B( 47-C , 48-C ) :   1.1615 B( 47-C , 51-S ) :   1.0261 B( 48-C , 49-C ) :   1.5978
B( 48-C , 98-H ) :   0.9956 B( 49-C , 50-C ) :   1.1267 B( 49-C , 99-H ) :   0.9999
B( 50-C , 51-S ) :   1.0208 B( 50-C , 52-C ) :   1.5973 B( 52-C , 53-C ) :   1.1522
B( 52-C ,100-H ) :   0.9457 B( 53-C , 54-C ) :   1.4379 B( 53-C , 60-C ) :   0.1120
B( 53-C , 62-C ) :   1.1602 B( 54-C , 55-O ) :   1.1986 B( 54-C , 57-C ) :   1.1689
B( 55-O , 56-C ) :   0.9312 B( 56-C ,101-H ) :   0.9741 B( 56-C ,102-H ) :   0.9743
B( 56-C ,103-H ) :   0.9770 B( 57-C , 58-O ) :   1.1303 B( 57-C , 60-C ) :   1.3714
B( 58-O , 59-C ) :   0.9589 B( 59-C ,104-H ) :   0.9687 B( 59-C ,105-H ) :   0.9774
B( 59-C ,106-H ) :   0.9688 B( 60-C , 61-C ) :   1.1404 B( 60-C ,107-H ) :   1.0382
B( 61-C , 62-C ) :   1.1602 B( 61-C , 65-N ) :   1.5395 B( 62-C , 63-N ) :   1.4903
B( 63-N , 64-S ) :   1.2236 B( 63-N , 65-N ) :   0.1377 B( 64-S , 65-N ) :   1.2599

-----------------------------------------------------------------------------
         ABSORPTION SPECTRUM VIA TRANSITION ELECTRIC DIPOLE MOMENTS
-----------------------------------------------------------------------------
State   Energy  Wavelength   fosc         T2         TX        TY        TZ
        (cm-1)    (nm)                  (au**2)     (au)      (au)      (au)
-----------------------------------------------------------------------------
   0   12758.5    783.8   0.710000345  18.32041   1.85704   3.39272  -1.83337
   1   18421.9    542.8   0.193489815   3.45779   0.54385  -0.53737   1.69507
   2   20559.0    486.4   0.254217415   4.07078  -1.21354  -1.06385  -1.21092
   3   23907.0    418.3   0.335891677   4.62541   1.14742   1.77749   0.38649
   4   25021.3    399.7   0.304857721   4.01110   1.38069   0.53969   1.34668
   5   25549.3    391.4   0.111104107   1.43162  -0.83064  -0.28428  -0.81292
   6   26765.1    373.6   0.172195224   2.11801   0.44061   1.30961  -0.45694
   7   28429.5    351.7   0.185087579   2.14330  -0.75676   0.45898  -1.16617
   8   29536.2    338.6   0.022423338   0.24993  -0.28787   0.39401  -0.10872
   9   30364.3    329.3   0.050647689   0.54913  -0.36553   0.25501  -0.59202
  10   30537.1    327.5   0.029239951   0.31523  -0.20757   0.20202   0.48097
  11   30615.4    326.6   0.190225273   2.04552  -0.17783  -0.93423   1.06823
  12   30975.6    322.8   0.126876037   1.34845   0.23958  -0.56550   0.98553
  13   31328.9    319.2   0.048588277   0.51058   0.43758  -0.26979   0.49630
  14   31682.2    315.6   0.237994220   2.47302  -0.35260  -1.52254   0.17483
  15   31788.9    314.6   0.002484040   0.02573  -0.05182   0.13997   0.05873
  16   32176.1    310.8   0.026615145   0.27231  -0.31417  -0.21982   0.35396
  17   32430.0    308.4   0.001249285   0.01268  -0.09029  -0.01911  -0.06453
  18   33841.7    295.5   0.090437938   0.87978   0.85539  -0.27783   0.26626
  19   34453.6    290.2   0.049119924   0.46935  -0.26338  -0.52752   0.34887
  20   35050.2    285.3   0.026710479   0.25088   0.12095  -0.38363   0.29846
  21   35792.1    279.4   0.010385463   0.09552   0.02655  -0.20306   0.23149
  22   36136.1    276.7   0.029102659   0.26514  -0.20037   0.43142  -0.19715
  23   36243.4    275.9   0.004103093   0.03727  -0.08122  -0.15064  -0.08933
  24   36356.2    275.1   0.006645864   0.06018   0.01723   0.24451  -0.00984
  25   36548.2    273.6   0.006996887   0.06303  -0.13597   0.03053   0.20882
  26   36651.2    272.8   0.092614491   0.83189  -0.59213   0.60876  -0.33269
  27   36962.4    270.5   0.010390732   0.09255  -0.19161  -0.23597   0.01230
  28   37531.7    266.4   0.060902262   0.53421   0.10524   0.55232  -0.46699
  29   37727.2    265.1   0.185057363   1.61483  -0.18002   1.22382  -0.29099
  30   37860.5    264.1   0.059554957   0.51785   0.02134  -0.54785   0.46611
  31   38426.9    260.2   0.097680396   0.83685   0.74604   0.28021  -0.44917
  32   38709.0    258.3   0.295693888   2.51481  -0.50292  -1.48473   0.23975
  33   39227.1    254.9   0.045902048   0.38523   0.36253   0.03101   0.50284
  34   39627.4    252.4   0.060672386   0.50405   0.20159  -0.53971   0.41488
  35   39823.2    251.1   0.022896703   0.18928  -0.02191   0.38818  -0.19524
  36   40298.6    248.1   0.193630776   1.58183  -0.34832   1.11452  -0.46728

FINAL SINGLE POINT ENERGY     -5197.646797568822

DIPOLE MOMENT
-------------
                                X             Y             Z
Electronic contribution:    -24.95230     -19.22852      -5.65184
Nuclear contribution   :     24.17367      18.12178       7.03925
                        -----------------------------------------
Total Dipole Moment    :     -0.77863      -1.10674       1.38741
                        -----------------------------------------
Magnitude (a.u.)       :      1.93805
Magnitude (Debye)      :      4.92613

Rotational constants in cm-1:     0.001307     0.000751     0.000705
Rotational constants in MHz :    39.188111    22.524790    21.130722

                             ****ORCA TERMINATED NORMALLY****
TOTAL RUN TIME: 0 days 0 hours 13 minutes 55 seconds 1 msec
