                         Program Version 4.2.0 -  RELEASE  -
|  1> # ORCA input file
|  2> # SCF done       -170.404727184847          0.000741363421
|  3> ! CAM-B3LYP def2-SVP def2/J RIJCOSX Grid4 TightSCF
|  4> %maxcore 5000
|  5> %tddft
|  6>     Mode sTDDFT
|  7>     Ethresh 5.0
|  8>     maxcore 5000
|  9> end
| 10>
| 11> %pal
| 12>   nprocs 6
| 13>   end
| 14> * xyz 0 1
| 15>    C        0.95618        12.42224        -8.97202
| 16>    S        1.22236        12.65587        -7.29907
| 17>    C        2.36502        11.34798        -7.27943
| 18>    C        2.51820        10.78240        -8.53204
| 19>    C        1.70591        11.40967        -9.50103
| 20>    C        1.72268        11.03415       -10.94919
| 21>    C        2.39015         9.66990       -11.16774
| 22>    C        1.52684         8.58201       -10.77592
| 23>    N        0.87868         7.69332       -10.46432
| 24>    C        3.70641         9.56622       -10.36393
| 25>    C        4.60181        10.62996       -10.75206
| 26>    N        5.32205        11.46512       -11.05244
| 27>    C        3.42496         9.63776        -8.85477
| 28>    C        3.03863        11.01954        -6.07080
| 29>    O        3.79608         9.89341        -5.99248
| 30>    C        3.13314        11.69035        -4.87117
| 31>    C        2.69828        12.87887        -4.14094
| 32>    O        1.95927        13.77674        -4.45100
| 33>    N        3.35581        12.76588        -2.91429
| 34>    C        4.16506        11.64188        -2.76781
| 35>    O        4.81526        11.37711        -1.78998
| 36>    C        4.01509        10.94057        -4.04598
| 37>    C        4.40192         9.83505        -4.76753
| 38>    C        5.28793         8.75461        -4.48403
| 39>    C        5.33162         7.64872        -5.25509
| 40>    C        6.30637         6.60659        -5.14162
| 41>    C        6.24073         5.43885        -5.80275
| 42>    C        5.05301         5.02813        -6.62280
| 43>    C        7.44327         4.53526        -5.91354
| 44>    N        7.91797         4.62265        -7.28782
| 45>    C        8.52425         5.74956        -7.73026
| 46>    C        8.32128         6.28465        -8.96321
| 47>    C        8.97101         7.43464        -9.44543
| 48>    C        8.55027         8.14395       -10.53983
| 49>    C        9.13495         9.30142       -11.10529
| 50>    C        8.44047         9.82919       -12.15106
| 51>    C        7.25190         9.13102       -12.46154
| 52>    S        7.06865         7.75038       -11.41494
| 53>    C        6.28105         9.47525       -13.38430
| 54>    C        6.27081        10.56955       -14.27076
| 55>    C        5.09712        10.69582       -14.95268
| 56>    C        4.13015         9.70624       -14.64838
| 57>    S        4.79461         8.55892       -13.52998
| 58>    C        2.80207         9.78972       -15.05405
| 59>    C        1.69567         9.02278       -14.71912
| 60>    C        1.60879         7.71980       -14.23678
| 61>    C        0.41441         7.12167       -13.69947
| 62>    C       -0.69328         7.79326       -13.23534
| 63>    C       -1.86657         7.16611       -12.77655
| 64>    N       -2.86028         6.70769       -12.42805
| 65>    C       -0.74522         9.18878       -13.08256
| 66>    N       -0.80712        10.31645       -12.86240
| 67>    C        0.63204         5.68135       -13.61361
| 68>    C        1.96174         5.41050       -14.01773
| 69>    C        2.60713         6.67611       -14.42871
| 70>    O        3.72881         6.79369       -14.90403
| 71>    C        2.48552         4.14303       -14.02795
| 72>    C        1.65515         3.09128       -13.61979
| 73>    C        0.33026         3.37340       -13.21861
| 74>    C       -0.19992         4.65915       -13.20519
| 75>    S       -0.52072         1.92780       -12.75992
| 76>    C        0.89914         0.97876       -13.10815
| 77>    C        1.95583         1.70310       -13.54522
| 78>   Br        0.85669        -0.88133       -12.85838
| 79>    H        0.25847        13.04683        -9.49368
| 80>    H        2.29098        11.78726       -11.50515
| 81>    H        0.70832        11.02294       -11.35715
| 82>    H        2.60022         9.54205       -12.23616
| 83>    H        4.20510         8.61715       -10.60077
| 84>    H        4.36421         9.72898        -8.30367
| 85>    H        2.94796         8.70322        -8.54091
| 86>    H        3.25068        13.45396        -2.18242
| 87>    H        5.91908         8.87692        -3.61662
| 88>    H        4.61775         7.56664        -6.06266
| 89>    H        7.16343         6.81661        -4.51527
| 90>    H        4.12863         5.23436        -6.08931
| 91>    H        5.08633         3.96320        -6.84337
| 92>    H        5.02009         5.57399        -7.56755
| 93>    H        7.19434         3.49259        -5.70216
| 94>    H        8.24289         4.85606        -5.24371
| 95>    H        7.28253         4.20446        -7.95733
| 96>    H        9.19528         6.22079        -7.02481
| 97>    H        7.57468         5.83793        -9.60848
| 98>    H        9.82741         7.81114        -8.90243
| 99>    H       10.05304         9.70750       -10.71865
|100>    H        8.73412        10.70967       -12.69201
|101>    H        7.10818        11.23468       -14.37595
|102>    H        4.88633        11.48277       -15.65508
|103>    H        2.58632        10.67970       -15.63456
|104>    H        0.74475         9.51471       -14.89529
|105>    H        3.50229         3.96331       -14.34069
|106>    H       -1.21652         4.82767       -12.89154
|107>    H        2.90762         1.27830       -13.80790
|108> *
|109>
|110>                          ****END OF INPUT****

CARTESIAN COORDINATES (ANGSTROEM)
---------------------------------
  C      0.956180   12.422240   -8.972020
  S      1.222360   12.655870   -7.299070
  C      2.365020   11.347980   -7.279430
  C      2.518200   10.782400   -8.532040
  C      1.705910   11.409670   -9.501030
  C      1.722680   11.034150  -10.949190
  C      2.390150    9.669900  -11.167740
  C      1.526840    8.582010  -10.775920
  N      0.878680    7.693320  -10.464320
  C      3.706410    9.566220  -10.363930
  C      4.601810   10.629960  -10.752060
  N      5.322050   11.465120  -11.052440
  C      3.424960    9.637760   -8.854770
  C      3.038630   11.019540   -6.070800
  O      3.796080    9.893410   -5.992480
  C      3.133140   11.690350   -4.871170
  C      2.698280   12.878870   -4.140940
  O      1.959270   13.776740   -4.451000
  N      3.355810   12.765880   -2.914290
  C      4.165060   11.641880   -2.767810
  O      4.815260   11.377110   -1.789980
  C      4.015090   10.940570   -4.045980
  C      4.401920    9.835050   -4.767530
  C      5.287930    8.754610   -4.484030
  C      5.331620    7.648720   -5.255090
  C      6.306370    6.606590   -5.141620
  C      6.240730    5.438850   -5.802750
  C      5.053010    5.028130   -6.622800
  C      7.443270    4.535260   -5.913540
  N      7.917970    4.622650   -7.287820
  C      8.524250    5.749560   -7.730260
  C      8.321280    6.284650   -8.963210
  C      8.971010    7.434640   -9.445430
  C      8.550270    8.143950  -10.539830
  C      9.134950    9.301420  -11.105290
  C      8.440470    9.829190  -12.151060
  C      7.251900    9.131020  -12.461540
  S      7.068650    7.750380  -11.414940
  C      6.281050    9.475250  -13.384300
  C      6.270810   10.569550  -14.270760
  C      5.097120   10.695820  -14.952680
  C      4.130150    9.706240  -14.648380
  S      4.794610    8.558920  -13.529980
  C      2.802070    9.789720  -15.054050
  C      1.695670    9.022780  -14.719120
  C      1.608790    7.719800  -14.236780
  C      0.414410    7.121670  -13.699470
  C     -0.693280    7.793260  -13.235340
  C     -1.866570    7.166110  -12.776550
  N     -2.860280    6.707690  -12.428050
  C     -0.745220    9.188780  -13.082560
  N     -0.807120   10.316450  -12.862400
  C      0.632040    5.681350  -13.613610
  C      1.961740    5.410500  -14.017730
  C      2.607130    6.676110  -14.428710
  O      3.728810    6.793690  -14.904030
  C      2.485520    4.143030  -14.027950
  C      1.655150    3.091280  -13.619790
  C      0.330260    3.373400  -13.218610
  C     -0.199920    4.659150  -13.205190
  S     -0.520720    1.927800  -12.759920
  C      0.899140    0.978760  -13.108150
  C      1.955830    1.703100  -13.545220
  Br     0.856690   -0.881330  -12.858380
  H      0.258470   13.046830   -9.493680
  H      2.290980   11.787260  -11.505150
  H      0.708320   11.022940  -11.357150
  H      2.600220    9.542050  -12.236160
  H      4.205100    8.617150  -10.600770
  H      4.364210    9.728980   -8.303670
  H      2.947960    8.703220   -8.540910
  H      3.250680   13.453960   -2.182420
  H      5.919080    8.876920   -3.616620
  H      4.617750    7.566640   -6.062660
  H      7.163430    6.816610   -4.515270
  H      4.128630    5.234360   -6.089310
  H      5.086330    3.963200   -6.843370
  H      5.020090    5.573990   -7.567550
  H      7.194340    3.492590   -5.702160
  H      8.242890    4.856060   -5.243710
  H      7.282530    4.204460   -7.957330
  H      9.195280    6.220790   -7.024810
  H      7.574680    5.837930   -9.608480
  H      9.827410    7.811140   -8.902430
  H     10.053040    9.707500  -10.718650
  H      8.734120   10.709670  -12.692010
  H      7.108180   11.234680  -14.375950
  H      4.886330   11.482770  -15.655080
  H      2.586320   10.679700  -15.634560
  H      0.744750    9.514710  -14.895290
  H      3.502290    3.963310  -14.340690
  H     -1.216520    4.827670  -12.891540
  H      2.907620    1.278300  -13.807900

 Total Charge           Charge          ....    0
 Multiplicity           Mult            ....    1
 Number of Electrons    NEL             ....  496
 Basis Dimension        Dim             .... 1075

ORBITAL ENERGIES
----------------

  NO   OCC          E(Eh)            E(eV)
   0   2.0000    -482.875511    -13139.7107
   1   2.0000     -88.967200     -2420.9206
   2   2.0000     -88.961037     -2420.7529
   3   2.0000     -88.960933     -2420.7501
   4   2.0000     -88.956471     -2420.6286
   5   2.0000     -62.553235     -1702.1601
   6   2.0000     -56.387162     -1534.3727
   7   2.0000     -56.384490     -1534.3000
   8   2.0000     -56.384448     -1534.2988
   9   2.0000     -19.311291      -525.4869
  10   2.0000     -19.205440      -522.6066
  11   2.0000     -19.204366      -522.5774
  12   2.0000     -19.192868      -522.2645
  13   2.0000     -14.463232      -393.5645
  14   2.0000     -14.449125      -393.1807
  15   2.0000     -14.406113      -392.0103
  16   2.0000     -14.401686      -391.8898
  17   2.0000     -14.399447      -391.8289
  18   2.0000     -14.391460      -391.6115
  19   2.0000     -10.395493      -282.8758
  20   2.0000     -10.393845      -282.8309
  21   2.0000     -10.366313      -282.0817
  22   2.0000     -10.357458      -281.8408
  23   2.0000     -10.348539      -281.5980
  24   2.0000     -10.345184      -281.5068
  25   2.0000     -10.339617      -281.3553
  26   2.0000     -10.338019      -281.3118
  27   2.0000     -10.334835      -281.2251
  28   2.0000     -10.326058      -280.9863
  29   2.0000     -10.321251      -280.8555
  30   2.0000     -10.319587      -280.8102
  31   2.0000     -10.318293      -280.7750
  32   2.0000     -10.316400      -280.7235
  33   2.0000     -10.316181      -280.7176
  34   2.0000     -10.314468      -280.6710
  35   2.0000     -10.307847      -280.4908
  36   2.0000     -10.307431      -280.4795
  37   2.0000     -10.307357      -280.4775
  38   2.0000     -10.305450      -280.4256
  39   2.0000     -10.305415      -280.4246
  40   2.0000     -10.305224      -280.4194
  41   2.0000     -10.300864      -280.3007
  42   2.0000     -10.300743      -280.2975
  43   2.0000     -10.296837      -280.1912
  44   2.0000     -10.296075      -280.1705
  45   2.0000     -10.295690      -280.1600
  46   2.0000     -10.293052      -280.0882
  47   2.0000     -10.292590      -280.0756
  48   2.0000     -10.292368      -280.0696
  49   2.0000     -10.291805      -280.0543
  50   2.0000     -10.290535      -280.0197
  51   2.0000     -10.290245      -280.0118
  52   2.0000     -10.289388      -279.9885
  53   2.0000     -10.288320      -279.9594
  54   2.0000     -10.288053      -279.9522
  55   2.0000     -10.287762      -279.9442
  56   2.0000     -10.286540      -279.9110
  57   2.0000     -10.286390      -279.9069
  58   2.0000     -10.285786      -279.8905
  59   2.0000     -10.284032      -279.8427
  60   2.0000     -10.283403      -279.8256
  61   2.0000     -10.282243      -279.7940
  62   2.0000     -10.280422      -279.7445
  63   2.0000     -10.276925      -279.6494
  64   2.0000     -10.276743      -279.6444
  65   2.0000     -10.275274      -279.6044
  66   2.0000     -10.272235      -279.5217
  67   2.0000     -10.267803      -279.4011
  68   2.0000      -8.782657      -238.9883
  69   2.0000      -8.062961      -219.4043
  70   2.0000      -8.056913      -219.2398
  71   2.0000      -8.054611      -219.1771
  72   2.0000      -8.051723      -219.0985
  73   2.0000      -6.618851      -180.1081
  74   2.0000      -6.604426      -179.7156
  75   2.0000      -6.604285      -179.7117
  76   2.0000      -6.032571      -164.1546
  77   2.0000      -6.028572      -164.0458
  78   2.0000      -6.026624      -163.9928
  79   2.0000      -6.024202      -163.9269
  80   2.0000      -6.024086      -163.9237
  81   2.0000      -6.022333      -163.8760
  82   2.0000      -6.021078      -163.8419
  83   2.0000      -6.019835      -163.8080
  84   2.0000      -6.018132      -163.7617
  85   2.0000      -6.016578      -163.7194
  86   2.0000      -6.016569      -163.7192
  87   2.0000      -6.014011      -163.6496
  88   2.0000      -2.734732       -74.4158
  89   2.0000      -2.730668       -74.3052
  90   2.0000      -2.730604       -74.3035
  91   2.0000      -2.719113       -73.9908
  92   2.0000      -2.719097       -73.9904
  93   2.0000      -1.226215       -33.3670
  94   2.0000      -1.149711       -31.2852
  95   2.0000      -1.129192       -30.7269
  96   2.0000      -1.106405       -30.1068
  97   2.0000      -1.066734       -29.0273
  98   2.0000      -1.037018       -28.2187
  99   2.0000      -1.010018       -27.4840
 100   2.0000      -1.006581       -27.3905
 101   2.0000      -1.004627       -27.3373
 102   2.0000      -0.995607       -27.0918
 103   2.0000      -0.989262       -26.9192
 104   2.0000      -0.986615       -26.8472
 105   2.0000      -0.983573       -26.7644
 106   2.0000      -0.975246       -26.5378
 107   2.0000      -0.968863       -26.3641
 108   2.0000      -0.943926       -25.6855
 109   2.0000      -0.940757       -25.5993
 110   2.0000      -0.926779       -25.2190
 111   2.0000      -0.924158       -25.1476
 112   2.0000      -0.918806       -25.0020
 113   2.0000      -0.910670       -24.7806
 114   2.0000      -0.896686       -24.4001
 115   2.0000      -0.890520       -24.2323
 116   2.0000      -0.880023       -23.9466
 117   2.0000      -0.871933       -23.7265
 118   2.0000      -0.868155       -23.6237
 119   2.0000      -0.860292       -23.4097
 120   2.0000      -0.857581       -23.3360
 121   2.0000      -0.850645       -23.1472
 122   2.0000      -0.844842       -22.9893
 123   2.0000      -0.833287       -22.6749
 124   2.0000      -0.826591       -22.4927
 125   2.0000      -0.813747       -22.1432
 126   2.0000      -0.812216       -22.1015
 127   2.0000      -0.803365       -21.8607
 128   2.0000      -0.789081       -21.4720
 129   2.0000      -0.778207       -21.1761
 130   2.0000      -0.766288       -20.8517
 131   2.0000      -0.760025       -20.6813
 132   2.0000      -0.752818       -20.4852
 133   2.0000      -0.743296       -20.2261
 134   2.0000      -0.739434       -20.1210
 135   2.0000      -0.737510       -20.0687
 136   2.0000      -0.728874       -19.8337
 137   2.0000      -0.708966       -19.2919
 138   2.0000      -0.708634       -19.2829
 139   2.0000      -0.692679       -18.8488
 140   2.0000      -0.690521       -18.7900
 141   2.0000      -0.678205       -18.4549
 142   2.0000      -0.670116       -18.2348
 143   2.0000      -0.668436       -18.1891
 144   2.0000      -0.660842       -17.9824
 145   2.0000      -0.645792       -17.5729
 146   2.0000      -0.641856       -17.4658
 147   2.0000      -0.641045       -17.4437
 148   2.0000      -0.640004       -17.4154
 149   2.0000      -0.634185       -17.2571
 150   2.0000      -0.624613       -16.9966
 151   2.0000      -0.617485       -16.8026
 152   2.0000      -0.614580       -16.7236
 153   2.0000      -0.606413       -16.5013
 154   2.0000      -0.602775       -16.4023
 155   2.0000      -0.597145       -16.2491
 156   2.0000      -0.592674       -16.1275
 157   2.0000      -0.590466       -16.0674
 158   2.0000      -0.588323       -16.0091
 159   2.0000      -0.583455       -15.8766
 160   2.0000      -0.582743       -15.8572
 161   2.0000      -0.579096       -15.7580
 162   2.0000      -0.574000       -15.6193
 163   2.0000      -0.568209       -15.4617
 164   2.0000      -0.563096       -15.3226
 165   2.0000      -0.560421       -15.2498
 166   2.0000      -0.555830       -15.1249
 167   2.0000      -0.549361       -14.9489
 168   2.0000      -0.545919       -14.8552
 169   2.0000      -0.540380       -14.7045
 170   2.0000      -0.537891       -14.6368
 171   2.0000      -0.534180       -14.5358
 172   2.0000      -0.532047       -14.4777
 173   2.0000      -0.528330       -14.3766
 174   2.0000      -0.524141       -14.2626
 175   2.0000      -0.521489       -14.1904
 176   2.0000      -0.518556       -14.1106
 177   2.0000      -0.517700       -14.0873
 178   2.0000      -0.514323       -13.9954
 179   2.0000      -0.510496       -13.8913
 180   2.0000      -0.509311       -13.8590
 181   2.0000      -0.507418       -13.8076
 182   2.0000      -0.504429       -13.7262
 183   2.0000      -0.502875       -13.6839
 184   2.0000      -0.501049       -13.6342
 185   2.0000      -0.499166       -13.5830
 186   2.0000      -0.494595       -13.4586
 187   2.0000      -0.491559       -13.3760
 188   2.0000      -0.490695       -13.3525
 189   2.0000      -0.488138       -13.2829
 190   2.0000      -0.487122       -13.2553
 191   2.0000      -0.484673       -13.1886
 192   2.0000      -0.480728       -13.0813
 193   2.0000      -0.478741       -13.0272
 194   2.0000      -0.477395       -12.9906
 195   2.0000      -0.477335       -12.9889
 196   2.0000      -0.473017       -12.8715
 197   2.0000      -0.472054       -12.8452
 198   2.0000      -0.469892       -12.7864
 199   2.0000      -0.468322       -12.7437
 200   2.0000      -0.461212       -12.5502
 201   2.0000      -0.457526       -12.4499
 202   2.0000      -0.454003       -12.3541
 203   2.0000      -0.452279       -12.3071
 204   2.0000      -0.445808       -12.1310
 205   2.0000      -0.444007       -12.0821
 206   2.0000      -0.440652       -11.9907
 207   2.0000      -0.440086       -11.9754
 208   2.0000      -0.437616       -11.9081
 209   2.0000      -0.436825       -11.8866
 210   2.0000      -0.433656       -11.8004
 211   2.0000      -0.431675       -11.7465
 212   2.0000      -0.429513       -11.6877
 213   2.0000      -0.427154       -11.6235
 214   2.0000      -0.423218       -11.5163
 215   2.0000      -0.422448       -11.4954
 216   2.0000      -0.421177       -11.4608
 217   2.0000      -0.419307       -11.4099
 218   2.0000      -0.417811       -11.3692
 219   2.0000      -0.411400       -11.1948
 220   2.0000      -0.408615       -11.1190
 221   2.0000      -0.407401       -11.0859
 222   2.0000      -0.402027       -10.9397
 223   2.0000      -0.396069       -10.7776
 224   2.0000      -0.392430       -10.6786
 225   2.0000      -0.391814       -10.6618
 226   2.0000      -0.386634       -10.5208
 227   2.0000      -0.383387       -10.4325
 228   2.0000      -0.375437       -10.2162
 229   2.0000      -0.374981       -10.2037
 230   2.0000      -0.366765        -9.9802
 231   2.0000      -0.365311        -9.9406
 232   2.0000      -0.364082        -9.9072
 233   2.0000      -0.362819        -9.8728
 234   2.0000      -0.356649        -9.7049
 235   2.0000      -0.352772        -9.5994
 236   2.0000      -0.344069        -9.3626
 237   2.0000      -0.339431        -9.2364
 238   2.0000      -0.335585        -9.1317
 239   2.0000      -0.321749        -8.7552
 240   2.0000      -0.312726        -8.5097
 241   2.0000      -0.309239        -8.4148
 242   2.0000      -0.306707        -8.3459
 243   2.0000      -0.295191        -8.0326
 244   2.0000      -0.282313        -7.6821
 245   2.0000      -0.273987        -7.4556
 246   2.0000      -0.257621        -7.0102
 247   2.0000      -0.226659        -6.1677
 248   0.0000      -0.099791        -2.7154
 249   0.0000      -0.056667        -1.5420
 250   0.0000      -0.053355        -1.4519
 251   0.0000      -0.037169        -1.0114
 252   0.0000      -0.027912        -0.7595

MULLIKEN ATOMIC CHARGES
-----------------------
   0 C :   -0.109974
   1 S :    0.198052
   2 C :   -0.208998
   3 C :   -0.048800
   4 C :   -0.049218
   5 C :    0.170650
   6 C :   -0.093753
   7 C :   -0.232691
   8 N :    0.122441
   9 C :   -0.093480
  10 C :   -0.230462
  11 N :    0.131322
  12 C :    0.180198
  13 C :    0.140634
  14 O :   -0.231195
  15 C :   -0.094764
  16 C :    0.167872
  17 O :   -0.143585
  18 N :   -0.167963
  19 C :    0.160857
  20 O :   -0.146969
  21 C :   -0.025609
  22 C :    0.077114
  23 C :   -0.019366
  24 C :    0.011431
  25 C :    0.012602
  26 C :   -0.191840
  27 C :    0.066440
  28 C :    0.186340
  29 N :   -0.147678
  30 C :    0.080077
  31 C :   -0.036742
  32 C :    0.024772
  33 C :   -0.055705
  34 C :    0.063689
  35 C :    0.033685
  36 C :   -0.013610
  37 S :    0.079822
  38 C :   -0.076849
  39 C :    0.072125
  40 C :    0.016109
  41 C :   -0.007056
  42 S :    0.131014
  43 C :   -0.002849
  44 C :   -0.025696
  45 C :   -0.150351
  46 C :    0.317405
  47 C :   -0.349849
  48 C :   -0.174644
  49 N :    0.136614
  50 C :   -0.182500
  51 N :    0.118741
  52 C :    0.018167
  53 C :   -0.004883
  54 C :    0.129322
  55 O :   -0.190913
  56 C :   -0.088471
  57 C :    0.120702
  58 C :   -0.096450
  59 C :   -0.016279
  60 S :    0.176442
  61 C :   -0.125437
  62 C :    0.033440
  63 Br:    0.006307
  64 H :    0.026234
  65 H :    0.043094
  66 H :    0.042166
  67 H :    0.062299
  68 H :    0.035353
  69 H :    0.035166
  70 H :    0.046931
  71 H :    0.136837
  72 H :    0.011298
  73 H :    0.004998
  74 H :   -0.021109
  75 H :    0.048123
  76 H :    0.015281
  77 H :    0.040455
  78 H :    0.028757
  79 H :    0.021556
  80 H :    0.122906
  81 H :    0.012084
  82 H :   -0.001521
  83 H :   -0.001877
  84 H :   -0.003821
  85 H :   -0.005192
  86 H :   -0.010527
  87 H :   -0.010288
  88 H :   -0.008724
  89 H :    0.023722
  90 H :   -0.022118
  91 H :   -0.010622
  92 H :   -0.011213
Sum of atomic charges:   -0.0000000

LOEWDIN ATOMIC CHARGES
----------------------
   0 C :   -0.169472
   1 S :    0.496352
   2 C :   -0.207766
   3 C :   -0.042143
   4 C :   -0.065451
   5 C :   -0.007932
   6 C :   -0.039554
   7 C :   -0.023516
   8 N :   -0.067293
   9 C :   -0.040976
  10 C :   -0.027797
  11 N :   -0.068121
  12 C :   -0.010739
  13 C :    0.065751
  14 O :    0.013601
  15 C :   -0.116981
  16 C :    0.081357
  17 O :   -0.161467
  18 N :   -0.006814
  19 C :    0.083212
  20 O :   -0.164726
  21 C :   -0.093463
  22 C :    0.061882
  23 C :   -0.033241
  24 C :   -0.011329
  25 C :   -0.048285
  26 C :   -0.036424
  27 C :   -0.056272
  28 C :    0.047915
  29 N :    0.004465
  30 C :    0.072724
  31 C :   -0.120365
  32 C :    0.004986
  33 C :   -0.179563
  34 C :    0.001733
  35 C :   -0.042772
  36 C :   -0.121978
  37 S :    0.386677
  38 C :   -0.210938
  39 C :   -0.004680
  40 C :   -0.050887
  41 C :   -0.107275
  42 S :    0.485751
  43 C :   -0.093364
  44 C :    0.030029
  45 C :   -0.139786
  46 C :    0.082400
  47 C :   -0.156760
  48 C :   -0.015233
  49 N :   -0.068369
  50 C :   -0.006400
  51 N :   -0.081915
  52 C :   -0.015754
  53 C :   -0.043655
  54 C :    0.053746
  55 O :   -0.189977
  56 C :    0.008372
  57 C :   -0.038003
  58 C :   -0.148725
  59 C :   -0.007695
  60 S :    0.424723
  61 C :   -0.277841
  62 C :   -0.073585
  63 Br:    0.123419
  64 H :    0.029027
  65 H :    0.044263
  66 H :    0.042790
  67 H :    0.051642
  68 H :    0.042428
  69 H :    0.037847
  70 H :    0.043884
  71 H :    0.093748
  72 H :    0.044340
  73 H :    0.029700
  74 H :    0.026199
  75 H :    0.044407
  76 H :    0.028669
  77 H :    0.038832
  78 H :    0.030677
  79 H :    0.031174
  80 H :    0.078529
  81 H :    0.031634
  82 H :    0.020655
  83 H :    0.038814
  84 H :    0.038114
  85 H :    0.036412
  86 H :    0.034231
  87 H :    0.034056
  88 H :    0.037742
  89 H :    0.044834
  90 H :    0.035755
  91 H :    0.040492
  92 H :    0.035288

  Mayer bond orders larger than 0.100000
B(  0-C ,  1-S ) :   1.1694 B(  0-C ,  2-C ) :   0.1096 B(  0-C ,  4-C ) :   1.5521
B(  0-C , 64-H ) :   0.9697 B(  1-S ,  2-C ) :   1.1680 B(  2-C ,  3-C ) :   1.4796
B(  2-C , 13-C ) :   1.1344 B(  3-C ,  4-C ) :   1.3081 B(  3-C , 12-C ) :   1.0486
B(  4-C ,  5-C ) :   1.0019 B(  5-C ,  6-C ) :   1.0629 B(  5-C , 65-H ) :   0.9044
B(  5-C , 66-H ) :   0.8997 B(  6-C ,  7-C ) :   1.1107 B(  6-C ,  9-C ) :   1.0736
B(  6-C , 67-H ) :   0.8484 B(  7-C ,  8-N ) :   3.0522 B(  9-C , 10-C ) :   1.1151
B(  9-C , 12-C ) :   1.0446 B(  9-C , 68-H ) :   0.8516 B( 10-C , 11-N ) :   3.0704
B( 12-C , 69-H ) :   0.9082 B( 12-C , 70-H ) :   0.8994 B( 13-C , 14-O ) :   1.1586
B( 13-C , 15-C ) :   1.4497 B( 14-O , 22-C ) :   1.1168 B( 15-C , 16-C ) :   0.8820
B( 15-C , 21-C ) :   1.2497 B( 16-C , 17-O ) :   2.2583 B( 16-C , 18-N ) :   1.0734
B( 18-N , 19-C ) :   1.0825 B( 18-N , 71-H ) :   0.9148 B( 19-C , 20-O ) :   2.2688
B( 19-C , 21-C ) :   0.8761 B( 21-C , 22-C ) :   1.4294 B( 22-C , 23-C ) :   1.1417
B( 23-C , 24-C ) :   1.6796 B( 23-C , 72-H ) :   0.9717 B( 24-C , 25-C ) :   1.0943
B( 24-C , 73-H ) :   0.9706 B( 25-C , 26-C ) :   1.7744 B( 25-C , 74-H ) :   0.9809
B( 26-C , 27-C ) :   1.0679 B( 26-C , 28-C ) :   1.0395 B( 27-C , 75-H ) :   0.9470
B( 27-C , 76-H ) :   0.9530 B( 27-C , 77-H ) :   0.9440 B( 28-C , 29-N ) :   1.0056
B( 28-C , 78-H ) :   0.9375 B( 28-C , 79-H ) :   0.9456 B( 29-N , 30-C ) :   1.2443
B( 29-N , 80-H ) :   0.9387 B( 30-C , 31-C ) :   1.5839 B( 30-C , 81-H ) :   0.9743
B( 31-C , 32-C ) :   1.1920 B( 31-C , 82-H ) :   0.9567 B( 32-C , 33-C ) :   1.5619
B( 32-C , 83-H ) :   0.9799 B( 33-C , 34-C ) :   1.1637 B( 33-C , 37-S ) :   1.0063
B( 34-C , 35-C ) :   1.5642 B( 34-C , 84-H ) :   0.9971 B( 35-C , 36-C ) :   1.2124
B( 35-C , 85-H ) :   0.9932 B( 36-C , 37-S ) :   1.0985 B( 36-C , 38-C ) :   1.4429
B( 38-C , 39-C ) :   1.2234 B( 38-C , 42-S ) :   1.0466 B( 39-C , 40-C ) :   1.5262
B( 39-C , 86-H ) :   0.9910 B( 40-C , 41-C ) :   1.2073 B( 40-C , 87-H ) :   0.9984
B( 41-C , 42-S ) :   1.1369 B( 41-C , 43-C ) :   1.3744 B( 43-C , 44-C ) :   1.4136
B( 43-C , 88-H ) :   0.9513 B( 44-C , 45-C ) :   1.3615 B( 44-C , 89-H ) :   0.9490
B( 45-C , 46-C ) :   1.1098 B( 45-C , 54-C ) :   1.0407 B( 46-C , 47-C ) :   1.5913
B( 46-C , 52-C ) :   1.0008 B( 47-C , 48-C ) :   1.1372 B( 47-C , 50-C ) :   1.1788
B( 48-C , 49-N ) :   2.9716 B( 50-C , 51-N ) :   2.8903 B( 52-C , 53-C ) :   1.2774
B( 52-C , 59-C ) :   1.4296 B( 53-C , 54-C ) :   0.9295 B( 53-C , 56-C ) :   1.4387
B( 54-C , 55-O ) :   2.1293 B( 56-C , 57-C ) :   1.2310 B( 56-C , 90-H ) :   1.0159
B( 57-C , 58-C ) :   1.3260 B( 57-C , 62-C ) :   1.1598 B( 58-C , 59-C ) :   1.3131
B( 58-C , 60-S ) :   1.0775 B( 59-C , 91-H ) :   0.9806 B( 60-S , 61-C ) :   1.0884
B( 61-C , 62-C ) :   1.6196 B( 61-C , 63-Br) :   1.0086 B( 62-C , 92-H ) :   0.9995

-----------------------------------------------------------------------------
         ABSORPTION SPECTRUM VIA TRANSITION ELECTRIC DIPOLE MOMENTS
-----------------------------------------------------------------------------
State   Energy  Wavelength   fosc         T2         TX        TY        TZ
        (cm-1)    (nm)                  (au**2)     (au)      (au)      (au)
-----------------------------------------------------------------------------
   0   12912.2    774.5   0.874457428  22.29536  -3.94655  -0.11344  -2.58983
   1   21353.6    468.3   0.046321669   0.71415   0.62484   0.09910  -0.56027
   2   21635.3    462.2   0.086091928   1.31001   0.02796   0.32028  -1.09848
   3   23479.1    425.9   0.183753463   2.57649  -0.69547  -0.52190   1.34923
   4   24111.6    414.7   0.046731686   0.63806   0.74703  -0.24687  -0.13808
   5   24783.1    403.5   0.037630769   0.49988   0.36453   0.36373  -0.48446
   6   25336.2    394.7   0.080060099   1.04028   0.12347   1.01209  -0.02664
   7   27482.3    363.9   0.252932612   3.02989  -1.48726  -0.40664   0.80784
   8   28305.3    353.3   0.360701917   4.19524   0.84981  -1.75495   0.62706
   9   28742.0    347.9   0.953111840  10.91697   0.05600  -2.97545   1.43546
  10   29406.5    340.1   0.036631567   0.41010   0.23039   0.10906   0.58747
  11   30395.8    329.0   0.407337059   4.41181   0.41761   0.42159   2.01486
  12   30789.6    324.8   0.187308774   2.00276   0.88231  -1.03182   0.39955
  13   30989.6    322.7   0.030976797   0.32908  -0.14151   0.54471  -0.11109
  14   31234.1    320.2   0.001967992   0.02074   0.10814   0.00862  -0.09474
  15   31981.5    312.7   0.448915259   4.62105   0.34996  -2.06415   0.48770
  16   32174.5    310.8   0.007872898   0.08056  -0.18182   0.14175  -0.16554
  17   32332.6    309.3   0.018440864   0.18777   0.01162  -0.41248   0.13225
  18   33078.5    302.3   0.137981410   1.37325  -0.29747   1.12457  -0.14181
  19   33569.3    297.9   0.062613847   0.61405  -0.28374   0.73042   0.00482
  20   34157.7    292.8   0.092560916   0.89210   0.67244  -0.54442  -0.37886
  21   35005.6    285.7   0.016833432   0.15831  -0.03555  -0.35802  -0.16991
  22   35472.4    281.9   0.149026210   1.38308  -1.11291   0.23334   0.30009
  23   35743.9    279.8   0.051115624   0.47079  -0.21257   0.63231   0.16058
  24   36219.8    276.1   0.033071484   0.30060   0.29367   0.25866   0.38399
  25   37738.1    265.0   0.015268989   0.13320  -0.32948  -0.08595   0.13136
  26   37826.8    264.4   0.075242706   0.65485  -0.73140  -0.17878   0.29656
  27   38204.1    261.8   0.072490466   0.62466  -0.61510   0.30287   0.39318
  28   38604.7    259.0   0.127409315   1.08652  -0.88407   0.54142   0.10861
  29   39017.7    256.3   0.078732262   0.66430   0.64557   0.21067  -0.45074
  30   39549.3    252.8   0.025991954   0.21636   0.17647   0.40074   0.15692
  31   39868.4    250.8   0.031310313   0.25854  -0.42484   0.19960  -0.19548
  32   40055.0    249.7   0.305237077   2.50875  -0.03776   1.44186   0.65450
  33   40203.7    248.7   0.010615911   0.08693   0.00696   0.15352   0.25162

FINAL SINGLE POINT ENERGY     -6677.047806724599

DIPOLE MOMENT
-------------
                                X             Y             Z
Electronic contribution:    -60.71817     -89.57862     -42.84774
Nuclear contribution   :     65.97978      87.99930      43.77724
                        -----------------------------------------
Total Dipole Moment    :      5.26161      -1.57933       0.92950
                        -----------------------------------------
Magnitude (a.u.)       :      5.57161
Magnitude (Debye)      :     14.16190

Rotational constants in cm-1:     0.001160     0.000617     0.000582
Rotational constants in MHz :    34.775051    18.486754    17.440531

                             ****ORCA TERMINATED NORMALLY****
TOTAL RUN TIME: 0 days 0 hours 10 minutes 3 seconds 639 msec
