                         Program Version 4.2.0 -  RELEASE  -
|  1> # ORCA input file
|  2> # SCF done       -200.160844377475          0.000506472160
|  3> ! CAM-B3LYP def2-SVP def2/J RIJCOSX Grid4 TightSCF
|  4> %maxcore 5000
|  5> %tddft
|  6>     Mode sTDDFT
|  7>     Ethresh 5.0
|  8>     maxcore 5000
|  9> end
| 10>
| 11> %pal
| 12>   nprocs 6
| 13>   end
| 14> * xyz 0 1
| 15>    C        3.09396        -2.05301         7.51806
| 16>    N        3.67591        -3.27995         7.62146
| 17>    C        4.37153        -3.79006         8.76921
| 18>    C        3.50846        -4.03642         6.43777
| 19>    O        3.92304        -5.17545         6.32288
| 20>    C        2.76775        -3.15869         5.56842
| 21>    C        2.52458        -1.93679         6.28525
| 22>    C        1.77292        -1.05916         5.41613
| 23>    O        1.28648         0.03726         5.58284
| 24>    N        1.65348        -1.78622         4.20942
| 25>    C        0.83611        -1.26700         3.14348
| 26>    C        2.23897        -3.02550         4.29705
| 27>    C        2.29456        -4.01040         3.23734
| 28>    C        2.33606        -5.36488         3.60622
| 29>    C        2.39999        -6.32657         2.63012
| 30>    C        2.43581        -5.96678         1.27223
| 31>    C        2.44243        -4.63009         0.90305
| 32>    C        2.36534        -3.66044         1.88409
| 33>    C        2.46060        -7.17386         0.47749
| 34>    C        2.46381        -8.28213         1.34356
| 35>    C        2.45737        -7.82737         2.78504
| 36>    C        1.23435        -8.36789         3.54625
| 37>    C       -0.08654        -7.98745         2.88779
| 38>    C        3.74659        -8.24369         3.51996
| 39>    C        5.01099        -7.77398         2.81123
| 40>    C        2.45256        -9.55882         0.83882
| 41>    C        2.39894        -9.76273        -0.55153
| 42>    C        2.41861        -8.64285        -1.39867
| 43>    C        2.45581        -7.35958        -0.89789
| 44>    C        2.29440       -11.10530        -1.06113
| 45>    C        1.88072       -11.42518        -2.31235
| 46>    C        1.71388       -12.73026        -2.81939
| 47>    C        1.18782       -12.96772        -4.06186
| 48>    C        0.93404       -14.20964        -4.69933
| 49>    C        0.35924       -14.10716        -5.92956
| 50>    C        0.12110       -12.77624        -6.34312
| 51>    S        0.67443       -11.65531        -5.11620
| 52>    C       -0.47052       -12.29045        -7.48785
| 53>    C       -1.03194       -12.97001        -8.59477
| 54>    C       -1.57087       -12.14693        -9.53249
| 55>    C       -1.48237       -10.75543        -9.23136
| 56>    S       -0.62115       -10.56057        -7.70600
| 57>    C       -2.06042        -9.73076        -9.91928
| 58>    C       -2.04530        -8.34956        -9.52170
| 59>    C       -0.99720        -7.82277        -8.75015
| 60>    C       -1.11458        -6.57028        -8.20952
| 61>    C       -2.25324        -5.78058        -8.44900
| 62>    C       -3.24656        -6.24730        -9.30271
| 63>    C       -3.13288        -7.51623        -9.83331
| 64>    C       -2.14162        -4.57210        -7.66102
| 65>    C       -0.93715        -4.62712        -6.93295
| 66>    C       -0.15709        -5.87255        -7.27711
| 67>    C        1.16288        -5.52154        -7.99126
| 68>    C        0.95626        -4.67421        -9.24058
| 69>    C        0.14612        -6.73044        -6.03511
| 70>    C       -1.10875        -7.14520        -5.27736
| 71>    C       -0.61181        -3.64591        -6.03457
| 72>    C       -1.48979        -2.56780        -5.82987
| 73>    C       -2.65718        -2.49482        -6.60538
| 74>    C       -2.99237        -3.48436        -7.50809
| 75>    C       -1.25203        -1.56714        -4.82164
| 76>    C       -0.35917        -1.69830        -3.81339
| 77>    C       -0.18138        -0.74045        -2.78113
| 78>    N        0.71154        -0.94343        -1.74703
| 79>    C        1.57480        -2.07958        -1.58933
| 80>    C        0.69675         0.10071        -0.80865
| 81>    O        1.38910         0.10379         0.18965
| 82>    C       -0.27779         1.02941        -1.33633
| 83>    C       -0.80210         0.47593        -2.55359
| 84>    C       -1.77918         1.39444        -3.07141
| 85>    O       -2.49414         1.37858        -4.05698
| 86>    N       -1.78049         2.45374        -2.13333
| 87>    C       -2.62473         3.60702        -2.27271
| 88>    C       -0.89948         2.22639        -1.12214
| 89>    H        3.13420        -1.35325         8.33226
| 90>    H        3.71377        -3.82845         9.64002
| 91>    H        5.24154        -3.17362         9.00431
| 92>    H        4.70104        -4.79923         8.52075
| 93>    H        0.16936        -0.52625         3.58764
| 94>    H        0.24908        -2.06523         2.68991
| 95>    H        1.42552        -0.76246         2.37477
| 96>    H        2.31899        -5.63306         4.64935
| 97>    H        2.51801        -4.35129        -0.13674
| 98>    H        2.40015        -2.62023         1.60443
| 99>    H        1.25997        -7.97678         4.56499
|100>    H        1.30989        -9.45579         3.60389
|101>    H       -0.19409        -6.90598         2.84078
|102>    H       -0.92001        -8.39145         3.45789
|103>    H       -0.13942        -8.38127         1.87488
|104>    H        3.76218        -9.33224         3.60966
|105>    H        3.72381        -7.81827         4.52462
|106>    H        5.06773        -8.18251         1.80406
|107>    H        5.88837        -8.09781         3.36569
|108>    H        5.03033        -6.68870         2.74636
|109>    H        2.45207       -10.41498         1.49866
|110>    H        2.41820        -8.78748        -2.46794
|111>    H        2.47272        -6.51232        -1.56787
|112>    H        2.50970       -11.90378        -0.36167
|113>    H        1.61000       -10.63041        -2.99558
|114>    H        1.98988       -13.57711        -2.20576
|115>    H        1.18164       -15.14122        -4.22059
|116>    H        0.09464       -14.94638        -6.54858
|117>    H       -1.03317       -14.04412        -8.65724
|118>    H       -2.05057       -12.48687       -10.43387
|119>    H       -2.67067        -9.99489       -10.77352
|120>    H       -0.09756        -8.39589        -8.59550
|121>    H       -4.10929        -5.63807        -9.52860
|122>    H       -3.92024        -7.90396       -10.46409
|123>    H        1.66674        -6.45146        -8.26286
|124>    H        1.80637        -4.98369        -7.29154
|125>    H        0.33282        -5.19880        -9.96117
|126>    H        1.91426        -4.45754        -9.70778
|127>    H        0.47375        -3.73149        -8.99176
|128>    H        0.80255        -6.16441        -5.37044
|129>    H        0.68314        -7.62685        -6.35095
|130>    H       -1.66948        -6.27216        -4.94965
|131>    H       -0.83922        -7.73293        -4.40293
|132>    H       -1.75226        -7.75132        -5.91027
|133>    H        0.31885        -3.70138        -5.49131
|134>    H       -3.31731        -1.65183        -6.46236
|135>    H       -3.90775        -3.41763        -8.07705
|136>    H       -1.87121        -0.68040        -4.85690
|137>    H        0.24484        -2.59054        -3.73946
|138>    H        2.22896        -2.19985        -2.45545
|139>    H        0.99537        -2.99308        -1.43446
|140>    H        2.18550        -1.88611        -0.70753
|141>    H       -3.20257         3.47260        -3.18728
|142>    H       -2.02935         4.51879        -2.35212
|143>    H       -3.30605         3.69688        -1.42428
|144>    H       -0.78031         2.93494        -0.32336
|145> *
|146>
|147>                          ****END OF INPUT****

CARTESIAN COORDINATES (ANGSTROEM)
---------------------------------
  C      3.093960   -2.053010    7.518060
  N      3.675910   -3.279950    7.621460
  C      4.371530   -3.790060    8.769210
  C      3.508460   -4.036420    6.437770
  O      3.923040   -5.175450    6.322880
  C      2.767750   -3.158690    5.568420
  C      2.524580   -1.936790    6.285250
  C      1.772920   -1.059160    5.416130
  O      1.286480    0.037260    5.582840
  N      1.653480   -1.786220    4.209420
  C      0.836110   -1.267000    3.143480
  C      2.238970   -3.025500    4.297050
  C      2.294560   -4.010400    3.237340
  C      2.336060   -5.364880    3.606220
  C      2.399990   -6.326570    2.630120
  C      2.435810   -5.966780    1.272230
  C      2.442430   -4.630090    0.903050
  C      2.365340   -3.660440    1.884090
  C      2.460600   -7.173860    0.477490
  C      2.463810   -8.282130    1.343560
  C      2.457370   -7.827370    2.785040
  C      1.234350   -8.367890    3.546250
  C     -0.086540   -7.987450    2.887790
  C      3.746590   -8.243690    3.519960
  C      5.010990   -7.773980    2.811230
  C      2.452560   -9.558820    0.838820
  C      2.398940   -9.762730   -0.551530
  C      2.418610   -8.642850   -1.398670
  C      2.455810   -7.359580   -0.897890
  C      2.294400  -11.105300   -1.061130
  C      1.880720  -11.425180   -2.312350
  C      1.713880  -12.730260   -2.819390
  C      1.187820  -12.967720   -4.061860
  C      0.934040  -14.209640   -4.699330
  C      0.359240  -14.107160   -5.929560
  C      0.121100  -12.776240   -6.343120
  S      0.674430  -11.655310   -5.116200
  C     -0.470520  -12.290450   -7.487850
  C     -1.031940  -12.970010   -8.594770
  C     -1.570870  -12.146930   -9.532490
  C     -1.482370  -10.755430   -9.231360
  S     -0.621150  -10.560570   -7.706000
  C     -2.060420   -9.730760   -9.919280
  C     -2.045300   -8.349560   -9.521700
  C     -0.997200   -7.822770   -8.750150
  C     -1.114580   -6.570280   -8.209520
  C     -2.253240   -5.780580   -8.449000
  C     -3.246560   -6.247300   -9.302710
  C     -3.132880   -7.516230   -9.833310
  C     -2.141620   -4.572100   -7.661020
  C     -0.937150   -4.627120   -6.932950
  C     -0.157090   -5.872550   -7.277110
  C      1.162880   -5.521540   -7.991260
  C      0.956260   -4.674210   -9.240580
  C      0.146120   -6.730440   -6.035110
  C     -1.108750   -7.145200   -5.277360
  C     -0.611810   -3.645910   -6.034570
  C     -1.489790   -2.567800   -5.829870
  C     -2.657180   -2.494820   -6.605380
  C     -2.992370   -3.484360   -7.508090
  C     -1.252030   -1.567140   -4.821640
  C     -0.359170   -1.698300   -3.813390
  C     -0.181380   -0.740450   -2.781130
  N      0.711540   -0.943430   -1.747030
  C      1.574800   -2.079580   -1.589330
  C      0.696750    0.100710   -0.808650
  O      1.389100    0.103790    0.189650
  C     -0.277790    1.029410   -1.336330
  C     -0.802100    0.475930   -2.553590
  C     -1.779180    1.394440   -3.071410
  O     -2.494140    1.378580   -4.056980
  N     -1.780490    2.453740   -2.133330
  C     -2.624730    3.607020   -2.272710
  C     -0.899480    2.226390   -1.122140
  H      3.134200   -1.353250    8.332260
  H      3.713770   -3.828450    9.640020
  H      5.241540   -3.173620    9.004310
  H      4.701040   -4.799230    8.520750
  H      0.169360   -0.526250    3.587640
  H      0.249080   -2.065230    2.689910
  H      1.425520   -0.762460    2.374770
  H      2.318990   -5.633060    4.649350
  H      2.518010   -4.351290   -0.136740
  H      2.400150   -2.620230    1.604430
  H      1.259970   -7.976780    4.564990
  H      1.309890   -9.455790    3.603890
  H     -0.194090   -6.905980    2.840780
  H     -0.920010   -8.391450    3.457890
  H     -0.139420   -8.381270    1.874880
  H      3.762180   -9.332240    3.609660
  H      3.723810   -7.818270    4.524620
  H      5.067730   -8.182510    1.804060
  H      5.888370   -8.097810    3.365690
  H      5.030330   -6.688700    2.746360
  H      2.452070  -10.414980    1.498660
  H      2.418200   -8.787480   -2.467940
  H      2.472720   -6.512320   -1.567870
  H      2.509700  -11.903780   -0.361670
  H      1.610000  -10.630410   -2.995580
  H      1.989880  -13.577110   -2.205760
  H      1.181640  -15.141220   -4.220590
  H      0.094640  -14.946380   -6.548580
  H     -1.033170  -14.044120   -8.657240
  H     -2.050570  -12.486870  -10.433870
  H     -2.670670   -9.994890  -10.773520
  H     -0.097560   -8.395890   -8.595500
  H     -4.109290   -5.638070   -9.528600
  H     -3.920240   -7.903960  -10.464090
  H      1.666740   -6.451460   -8.262860
  H      1.806370   -4.983690   -7.291540
  H      0.332820   -5.198800   -9.961170
  H      1.914260   -4.457540   -9.707780
  H      0.473750   -3.731490   -8.991760
  H      0.802550   -6.164410   -5.370440
  H      0.683140   -7.626850   -6.350950
  H     -1.669480   -6.272160   -4.949650
  H     -0.839220   -7.732930   -4.402930
  H     -1.752260   -7.751320   -5.910270
  H      0.318850   -3.701380   -5.491310
  H     -3.317310   -1.651830   -6.462360
  H     -3.907750   -3.417630   -8.077050
  H     -1.871210   -0.680400   -4.856900
  H      0.244840   -2.590540   -3.739460
  H      2.228960   -2.199850   -2.455450
  H      0.995370   -2.993080   -1.434460
  H      2.185500   -1.886110   -0.707530
  H     -3.202570    3.472600   -3.187280
  H     -2.029350    4.518790   -2.352120
  H     -3.306050    3.696880   -1.424280
  H     -0.780310    2.934940   -0.323360

 Total Charge           Charge          ....    0
 Multiplicity           Mult            ....    1
 Number of Electrons    NEL             ....  532
 Basis Dimension        Dim             .... 1324

ORBITAL ENERGIES
----------------

  NO   OCC          E(Eh)            E(eV)
   0   2.0000     -88.939834     -2420.1759
   1   2.0000     -88.938336     -2420.1352
   2   2.0000     -19.185942      -522.0760
   3   2.0000     -19.181382      -521.9519
   4   2.0000     -19.173234      -521.7302
   5   2.0000     -19.172338      -521.7058
   6   2.0000     -14.449568      -393.1927
   7   2.0000     -14.449366      -393.1872
   8   2.0000     -14.440546      -392.9472
   9   2.0000     -14.438878      -392.9019
  10   2.0000     -10.371143      -282.2131
  11   2.0000     -10.364123      -282.0221
  12   2.0000     -10.357859      -281.8517
  13   2.0000     -10.357264      -281.8355
  14   2.0000     -10.334273      -281.2099
  15   2.0000     -10.328151      -281.0433
  16   2.0000     -10.323352      -280.9127
  17   2.0000     -10.314713      -280.6776
  18   2.0000     -10.306818      -280.4628
  19   2.0000     -10.305895      -280.4377
  20   2.0000     -10.304324      -280.3949
  21   2.0000     -10.304206      -280.3917
  22   2.0000     -10.302675      -280.3500
  23   2.0000     -10.301280      -280.3121
  24   2.0000     -10.295544      -280.1560
  25   2.0000     -10.286535      -279.9109
  26   2.0000     -10.286150      -279.9004
  27   2.0000     -10.285471      -279.8819
  28   2.0000     -10.283490      -279.8280
  29   2.0000     -10.282899      -279.8119
  30   2.0000     -10.279673      -279.7241
  31   2.0000     -10.278630      -279.6958
  32   2.0000     -10.278610      -279.6952
  33   2.0000     -10.278544      -279.6934
  34   2.0000     -10.278069      -279.6805
  35   2.0000     -10.276170      -279.6288
  36   2.0000     -10.275737      -279.6170
  37   2.0000     -10.274982      -279.5965
  38   2.0000     -10.274914      -279.5946
  39   2.0000     -10.273999      -279.5697
  40   2.0000     -10.271726      -279.5079
  41   2.0000     -10.271563      -279.5034
  42   2.0000     -10.271442      -279.5002
  43   2.0000     -10.271389      -279.4987
  44   2.0000     -10.270961      -279.4871
  45   2.0000     -10.270838      -279.4837
  46   2.0000     -10.270287      -279.4687
  47   2.0000     -10.269871      -279.4574
  48   2.0000     -10.269367      -279.4437
  49   2.0000     -10.269145      -279.4376
  50   2.0000     -10.268931      -279.4318
  51   2.0000     -10.268911      -279.4313
  52   2.0000     -10.268846      -279.4295
  53   2.0000     -10.267805      -279.4012
  54   2.0000     -10.265670      -279.3431
  55   2.0000     -10.265645      -279.3424
  56   2.0000     -10.265418      -279.3362
  57   2.0000     -10.265108      -279.3278
  58   2.0000     -10.264201      -279.3031
  59   2.0000     -10.263779      -279.2916
  60   2.0000     -10.263397      -279.2812
  61   2.0000     -10.261565      -279.2314
  62   2.0000     -10.261415      -279.2273
  63   2.0000     -10.259531      -279.1760
  64   2.0000     -10.254553      -279.0406
  65   2.0000     -10.254493      -279.0390
  66   2.0000     -10.250474      -278.9296
  67   2.0000     -10.250037      -278.9177
  68   2.0000     -10.244901      -278.7779
  69   2.0000     -10.244206      -278.7590
  70   2.0000     -10.241897      -278.6962
  71   2.0000     -10.240841      -278.6675
  72   2.0000     -10.239558      -278.6325
  73   2.0000     -10.234264      -278.4885
  74   2.0000      -8.035607      -218.6600
  75   2.0000      -8.034720      -218.6358
  76   2.0000      -6.005442      -163.4164
  77   2.0000      -6.004486      -163.3904
  78   2.0000      -6.001276      -163.3030
  79   2.0000      -6.000524      -163.2826
  80   2.0000      -5.996463      -163.1721
  81   2.0000      -5.995474      -163.1451
  82   2.0000      -1.127026       -30.6679
  83   2.0000      -1.118259       -30.4294
  84   2.0000      -1.115801       -30.3625
  85   2.0000      -1.108985       -30.1770
  86   2.0000      -1.056558       -28.7504
  87   2.0000      -1.047057       -28.4919
  88   2.0000      -1.046076       -28.4652
  89   2.0000      -1.037159       -28.2225
  90   2.0000      -0.991902       -26.9910
  91   2.0000      -0.986841       -26.8533
  92   2.0000      -0.982717       -26.7411
  93   2.0000      -0.969324       -26.3767
  94   2.0000      -0.945932       -25.7401
  95   2.0000      -0.941919       -25.6309
  96   2.0000      -0.921388       -25.0723
  97   2.0000      -0.915627       -24.9155
  98   2.0000      -0.913933       -24.8694
  99   2.0000      -0.903179       -24.5768
 100   2.0000      -0.898174       -24.4406
 101   2.0000      -0.895149       -24.3583
 102   2.0000      -0.883267       -24.0349
 103   2.0000      -0.874662       -23.8008
 104   2.0000      -0.861102       -23.4318
 105   2.0000      -0.848172       -23.0799
 106   2.0000      -0.844925       -22.9916
 107   2.0000      -0.840347       -22.8670
 108   2.0000      -0.834202       -22.6998
 109   2.0000      -0.832371       -22.6500
 110   2.0000      -0.831541       -22.6274
 111   2.0000      -0.827696       -22.5228
 112   2.0000      -0.827555       -22.5189
 113   2.0000      -0.827005       -22.5039
 114   2.0000      -0.823751       -22.4154
 115   2.0000      -0.819010       -22.2864
 116   2.0000      -0.815570       -22.1928
 117   2.0000      -0.805795       -21.9268
 118   2.0000      -0.793669       -21.5968
 119   2.0000      -0.786794       -21.4098
 120   2.0000      -0.775884       -21.1129
 121   2.0000      -0.762922       -20.7602
 122   2.0000      -0.759045       -20.6547
 123   2.0000      -0.758648       -20.6439
 124   2.0000      -0.753909       -20.5149
 125   2.0000      -0.749340       -20.3906
 126   2.0000      -0.745166       -20.2770
 127   2.0000      -0.732653       -19.9365
 128   2.0000      -0.720819       -19.6145
 129   2.0000      -0.715355       -19.4658
 130   2.0000      -0.703538       -19.1442
 131   2.0000      -0.693857       -18.8808
 132   2.0000      -0.683781       -18.6066
 133   2.0000      -0.680089       -18.5062
 134   2.0000      -0.677544       -18.4369
 135   2.0000      -0.670994       -18.2587
 136   2.0000      -0.670769       -18.2525
 137   2.0000      -0.666844       -18.1457
 138   2.0000      -0.665069       -18.0975
 139   2.0000      -0.664018       -18.0689
 140   2.0000      -0.663271       -18.0485
 141   2.0000      -0.654967       -17.8226
 142   2.0000      -0.650412       -17.6986
 143   2.0000      -0.645273       -17.5588
 144   2.0000      -0.644547       -17.5390
 145   2.0000      -0.636520       -17.3206
 146   2.0000      -0.628503       -17.1024
 147   2.0000      -0.618902       -16.8412
 148   2.0000      -0.610348       -16.6084
 149   2.0000      -0.607771       -16.5383
 150   2.0000      -0.604638       -16.4530
 151   2.0000      -0.596765       -16.2388
 152   2.0000      -0.591972       -16.1084
 153   2.0000      -0.589161       -16.0319
 154   2.0000      -0.585964       -15.9449
 155   2.0000      -0.582374       -15.8472
 156   2.0000      -0.575856       -15.6698
 157   2.0000      -0.573761       -15.6128
 158   2.0000      -0.570039       -15.5115
 159   2.0000      -0.566385       -15.4121
 160   2.0000      -0.565446       -15.3866
 161   2.0000      -0.561903       -15.2902
 162   2.0000      -0.556818       -15.1518
 163   2.0000      -0.552736       -15.0407
 164   2.0000      -0.550960       -14.9924
 165   2.0000      -0.548346       -14.9213
 166   2.0000      -0.545100       -14.8329
 167   2.0000      -0.542595       -14.7647
 168   2.0000      -0.540576       -14.7098
 169   2.0000      -0.537526       -14.6268
 170   2.0000      -0.536009       -14.5856
 171   2.0000      -0.534080       -14.5331
 172   2.0000      -0.532752       -14.4969
 173   2.0000      -0.529294       -14.4028
 174   2.0000      -0.525450       -14.2982
 175   2.0000      -0.521522       -14.1913
 176   2.0000      -0.518821       -14.1178
 177   2.0000      -0.516192       -14.0463
 178   2.0000      -0.515213       -14.0196
 179   2.0000      -0.514783       -14.0079
 180   2.0000      -0.512945       -13.9579
 181   2.0000      -0.510786       -13.8992
 182   2.0000      -0.507602       -13.8126
 183   2.0000      -0.505714       -13.7612
 184   2.0000      -0.502557       -13.6753
 185   2.0000      -0.499545       -13.5933
 186   2.0000      -0.498168       -13.5558
 187   2.0000      -0.497102       -13.5268
 188   2.0000      -0.493558       -13.4304
 189   2.0000      -0.491923       -13.3859
 190   2.0000      -0.490435       -13.3454
 191   2.0000      -0.489723       -13.3261
 192   2.0000      -0.487641       -13.2694
 193   2.0000      -0.486500       -13.2383
 194   2.0000      -0.483322       -13.1518
 195   2.0000      -0.478296       -13.0151
 196   2.0000      -0.476280       -12.9602
 197   2.0000      -0.475479       -12.9384
 198   2.0000      -0.474699       -12.9172
 199   2.0000      -0.471738       -12.8366
 200   2.0000      -0.469217       -12.7680
 201   2.0000      -0.467762       -12.7284
 202   2.0000      -0.466871       -12.7042
 203   2.0000      -0.466186       -12.6856
 204   2.0000      -0.465434       -12.6651
 205   2.0000      -0.463077       -12.6010
 206   2.0000      -0.461385       -12.5549
 207   2.0000      -0.460832       -12.5399
 208   2.0000      -0.460656       -12.5351
 209   2.0000      -0.459804       -12.5119
 210   2.0000      -0.457927       -12.4608
 211   2.0000      -0.455664       -12.3993
 212   2.0000      -0.451502       -12.2860
 213   2.0000      -0.448471       -12.2035
 214   2.0000      -0.446761       -12.1570
 215   2.0000      -0.445237       -12.1155
 216   2.0000      -0.444358       -12.0916
 217   2.0000      -0.440426       -11.9846
 218   2.0000      -0.438418       -11.9300
 219   2.0000      -0.435033       -11.8379
 220   2.0000      -0.433040       -11.7836
 221   2.0000      -0.430811       -11.7230
 222   2.0000      -0.427487       -11.6325
 223   2.0000      -0.425812       -11.5869
 224   2.0000      -0.423542       -11.5252
 225   2.0000      -0.421121       -11.4593
 226   2.0000      -0.419165       -11.4061
 227   2.0000      -0.417659       -11.3651
 228   2.0000      -0.414560       -11.2807
 229   2.0000      -0.414232       -11.2718
 230   2.0000      -0.409938       -11.1550
 231   2.0000      -0.409262       -11.1366
 232   2.0000      -0.403558       -10.9814
 233   2.0000      -0.400062       -10.8862
 234   2.0000      -0.397896       -10.8273
 235   2.0000      -0.396668       -10.7939
 236   2.0000      -0.392392       -10.6775
 237   2.0000      -0.391028       -10.6404
 238   2.0000      -0.387078       -10.5329
 239   2.0000      -0.385239       -10.4829
 240   2.0000      -0.383787       -10.4434
 241   2.0000      -0.381001       -10.3676
 242   2.0000      -0.380145       -10.3443
 243   2.0000      -0.378783       -10.3072
 244   2.0000      -0.374401       -10.1880
 245   2.0000      -0.366839        -9.9822
 246   2.0000      -0.348879        -9.4935
 247   2.0000      -0.342554        -9.3214
 248   2.0000      -0.337210        -9.1760
 249   2.0000      -0.331577        -9.0227
 250   2.0000      -0.326101        -8.8737
 251   2.0000      -0.325570        -8.8592
 252   2.0000      -0.320920        -8.7327
 253   2.0000      -0.319314        -8.6890
 254   2.0000      -0.317178        -8.6308
 255   2.0000      -0.313962        -8.5433
 256   2.0000      -0.312259        -8.4970
 257   2.0000      -0.309241        -8.4149
 258   2.0000      -0.307752        -8.3744
 259   2.0000      -0.302440        -8.2298
 260   2.0000      -0.297554        -8.0969
 261   2.0000      -0.279757        -7.6126
 262   2.0000      -0.262440        -7.1413
 263   2.0000      -0.240115        -6.5339
 264   2.0000      -0.236078        -6.4240
 265   2.0000      -0.207252        -5.6396
 266   0.0000      -0.077174        -2.1000
 267   0.0000      -0.061860        -1.6833
 268   0.0000      -0.044891        -1.2215
 269   0.0000      -0.018177        -0.4946
 270   0.0000       0.000364         0.0099

MULLIKEN ATOMIC CHARGES
-----------------------
   0 C :    0.037956
   1 N :   -0.267942
   2 C :    0.119932
   3 C :    0.152296
   4 O :   -0.213610
   5 C :   -0.099205
   6 C :   -0.003039
   7 C :    0.161822
   8 O :   -0.182338
   9 N :   -0.277862
  10 C :    0.108425
  11 C :    0.142028
  12 C :    0.032602
  13 C :   -0.066094
  14 C :   -0.001994
  15 C :    0.120797
  16 C :   -0.057829
  17 C :   -0.013732
  18 C :    0.106462
  19 C :    0.021771
  20 C :   -0.137985
  21 C :    0.062484
  22 C :    0.029459
  23 C :    0.066625
  24 C :    0.026034
  25 C :   -0.104658
  26 C :    0.123183
  27 C :   -0.020524
  28 C :   -0.044410
  29 C :   -0.007496
  30 C :    0.009256
  31 C :   -0.003598
  32 C :   -0.019567
  33 C :    0.037897
  34 C :    0.030081
  35 C :   -0.039234
  36 S :    0.043472
  37 C :   -0.048812
  38 C :    0.035434
  39 C :    0.034737
  40 C :   -0.018320
  41 S :    0.045819
  42 C :   -0.021350
  43 C :    0.092264
  44 C :   -0.101669
  45 C :    0.003624
  46 C :    0.104780
  47 C :   -0.046298
  48 C :   -0.006706
  49 C :    0.110464
  50 C :    0.013448
  51 C :   -0.143907
  52 C :    0.076807
  53 C :    0.021884
  54 C :    0.059915
  55 C :    0.030720
  56 C :   -0.082231
  57 C :    0.102074
  58 C :   -0.009587
  59 C :   -0.046899
  60 C :    0.006014
  61 C :   -0.022765
  62 C :    0.171626
  63 N :   -0.277124
  64 C :    0.102609
  65 C :    0.169714
  66 O :   -0.197758
  67 C :   -0.003865
  68 C :   -0.108632
  69 C :    0.164711
  70 O :   -0.212468
  71 N :   -0.265945
  72 C :    0.118474
  73 C :    0.044471
  74 H :    0.009661
  75 H :    0.028284
  76 H :    0.029180
  77 H :    0.055114
  78 H :    0.042316
  79 H :    0.028493
  80 H :    0.068236
  81 H :   -0.014114
  82 H :   -0.051682
  83 H :   -0.023725
  84 H :    0.005641
  85 H :   -0.004358
  86 H :    0.017522
  87 H :    0.007761
  88 H :    0.018427
  89 H :   -0.007529
  90 H :    0.021970
  91 H :    0.014401
  92 H :    0.008358
  93 H :    0.024922
  94 H :   -0.042029
  95 H :   -0.026107
  96 H :   -0.043573
  97 H :   -0.023491
  98 H :    0.005647
  99 H :   -0.019360
 100 H :   -0.013660
 101 H :   -0.014396
 102 H :   -0.013704
 103 H :   -0.013137
 104 H :   -0.017510
 105 H :   -0.013315
 106 H :   -0.034562
 107 H :   -0.029590
 108 H :    0.000952
 109 H :   -0.004531
 110 H :    0.022899
 111 H :    0.008504
 112 H :    0.022238
 113 H :   -0.011913
 114 H :    0.002196
 115 H :    0.015151
 116 H :    0.010431
 117 H :    0.023652
 118 H :   -0.043229
 119 H :   -0.010470
 120 H :   -0.033652
 121 H :    0.013767
 122 H :   -0.039275
 123 H :    0.032890
 124 H :    0.041829
 125 H :    0.065212
 126 H :    0.057262
 127 H :    0.031414
 128 H :    0.032542
 129 H :    0.015323
Sum of atomic charges:   -0.0000000

LOEWDIN ATOMIC CHARGES
----------------------
   0 C :    0.083881
   1 N :   -0.011861
   2 C :    0.028329
   3 C :    0.075578
   4 O :   -0.216145
   5 C :   -0.143668
   6 C :   -0.126441
   7 C :    0.082988
   8 O :   -0.187378
   9 N :   -0.009626
  10 C :    0.022902
  11 C :    0.098578
  12 C :   -0.042639
  13 C :    0.013026
  14 C :    0.002319
  15 C :   -0.005087
  16 C :   -0.028503
  17 C :   -0.008184
  18 C :   -0.022086
  19 C :    0.007837
  20 C :   -0.034946
  21 C :   -0.012239
  22 C :   -0.058254
  23 C :   -0.010267
  24 C :   -0.057083
  25 C :   -0.020675
  26 C :   -0.021374
  27 C :   -0.017413
  28 C :   -0.017324
  29 C :   -0.014307
  30 C :   -0.033376
  31 C :   -0.052441
  32 C :   -0.143355
  33 C :   -0.032956
  34 C :   -0.032540
  35 C :   -0.176832
  36 S :    0.360405
  37 C :   -0.184930
  38 C :   -0.033123
  39 C :   -0.033221
  40 C :   -0.139879
  41 S :    0.381103
  42 C :   -0.051608
  43 C :   -0.025190
  44 C :   -0.036672
  45 C :    0.007469
  46 C :   -0.022237
  47 C :   -0.016807
  48 C :   -0.017074
  49 C :   -0.005439
  50 C :    0.004463
  51 C :   -0.036332
  52 C :   -0.009777
  53 C :   -0.057834
  54 C :   -0.013374
  55 C :   -0.057898
  56 C :   -0.011791
  57 C :   -0.035460
  58 C :   -0.002928
  59 C :   -0.021307
  60 C :    0.052810
  61 C :   -0.066201
  62 C :    0.089426
  63 N :   -0.013953
  64 C :    0.022773
  65 C :    0.087582
  66 O :   -0.201231
  67 C :   -0.127942
  68 C :   -0.136802
  69 C :    0.075621
  70 O :   -0.210237
  71 N :   -0.007114
  72 C :    0.029374
  73 C :    0.088316
  74 H :    0.030867
  75 H :    0.024822
  76 H :    0.025267
  77 H :    0.039276
  78 H :    0.035967
  79 H :    0.026307
  80 H :    0.028252
  81 H :    0.033927
  82 H :    0.021806
  83 H :    0.030648
  84 H :    0.023497
  85 H :    0.019042
  86 H :    0.023966
  87 H :    0.023468
  88 H :    0.024441
  89 H :    0.017396
  90 H :    0.029563
  91 H :    0.021906
  92 H :    0.024637
  93 H :    0.026941
  94 H :    0.023823
  95 H :    0.025968
  96 H :    0.024056
  97 H :    0.026519
  98 H :    0.017912
  99 H :    0.031496
 100 H :    0.033081
 101 H :    0.031808
 102 H :    0.031803
 103 H :    0.032473
 104 H :    0.031635
 105 H :    0.013670
 106 H :    0.027145
 107 H :    0.026217
 108 H :    0.021423
 109 H :    0.018874
 110 H :    0.025920
 111 H :    0.024113
 112 H :    0.025476
 113 H :    0.015825
 114 H :    0.021037
 115 H :    0.023064
 116 H :    0.024474
 117 H :    0.024874
 118 H :    0.022150
 119 H :    0.033653
 120 H :    0.027922
 121 H :    0.038463
 122 H :    0.024742
 123 H :    0.026875
 124 H :    0.025321
 125 H :    0.038022
 126 H :    0.040291
 127 H :    0.026573
 128 H :    0.026794
 129 H :    0.033087

  Mayer bond orders larger than 0.100000
B(  0-C ,  1-N ) :   1.1795 B(  0-C ,  6-C ) :   1.4913 B(  0-C , 74-H ) :   0.9897
B(  1-N ,  2-C ) :   0.9645 B(  1-N ,  3-C ) :   1.0484 B(  2-C , 75-H ) :   0.9762
B(  2-C , 76-H ) :   0.9765 B(  2-C , 77-H ) :   0.9573 B(  3-C ,  4-O ) :   2.0776
B(  3-C ,  5-C ) :   1.0050 B(  5-C ,  6-C ) :   1.1750 B(  5-C , 11-C ) :   1.4213
B(  6-C ,  7-C ) :   0.9499 B(  7-C ,  8-O ) :   2.1849 B(  7-C ,  9-N ) :   1.0143
B(  9-N , 10-C ) :   0.9437 B(  9-N , 11-C ) :   1.2110 B( 10-C , 78-H ) :   0.9473
B( 10-C , 79-H ) :   0.9684 B( 10-C , 80-H ) :   0.9613 B( 11-C , 12-C ) :   1.0140
B( 12-C , 13-C ) :   1.3133 B( 12-C , 17-C ) :   1.3411 B( 13-C , 14-C ) :   1.3938
B( 13-C , 81-H ) :   1.0014 B( 14-C , 15-C ) :   1.3549 B( 14-C , 20-C ) :   0.9127
B( 15-C , 16-C ) :   1.3471 B( 15-C , 18-C ) :   0.9982 B( 16-C , 17-C ) :   1.3608
B( 16-C , 82-H ) :   0.9838 B( 17-C , 83-H ) :   0.9868 B( 18-C , 19-C ) :   1.3662
B( 18-C , 28-C ) :   1.3254 B( 19-C , 20-C ) :   0.9143 B( 19-C , 25-C ) :   1.3844
B( 20-C , 21-C ) :   1.0433 B( 20-C , 23-C ) :   1.0351 B( 21-C , 22-C ) :   1.1020
B( 21-C , 84-H ) :   0.9399 B( 21-C , 85-H ) :   0.9380 B( 22-C , 86-H ) :   0.9636
B( 22-C , 87-H ) :   0.9640 B( 22-C , 88-H ) :   0.9640 B( 23-C , 24-C ) :   1.1033
B( 23-C , 89-H ) :   0.9390 B( 23-C , 90-H ) :   0.9381 B( 24-C , 91-H ) :   0.9638
B( 24-C , 92-H ) :   0.9631 B( 24-C , 93-H ) :   0.9645 B( 25-C , 26-C ) :   1.2843
B( 25-C , 94-H ) :   1.0133 B( 26-C , 27-C ) :   1.3339 B( 26-C , 29-C ) :   1.0640
B( 27-C , 28-C ) :   1.4055 B( 27-C , 95-H ) :   0.9836 B( 28-C , 96-H ) :   0.9893
B( 29-C , 30-C ) :   1.6623 B( 29-C , 97-H ) :   0.9886 B( 30-C , 31-C ) :   1.1403
B( 30-C , 98-H ) :   0.9596 B( 31-C , 32-C ) :   1.5794 B( 31-C , 99-H ) :   0.9865
B( 32-C , 33-C ) :   1.1353 B( 32-C , 36-S ) :   1.0263 B( 33-C , 34-C ) :   1.5982
B( 33-C ,100-H ) :   0.9981 B( 34-C , 35-C ) :   1.1820 B( 34-C ,101-H ) :   0.9941
B( 35-C , 36-S ) :   1.0428 B( 35-C , 37-C ) :   1.5277 B( 37-C , 38-C ) :   1.1720
B( 37-C , 41-S ) :   1.0339 B( 38-C , 39-C ) :   1.6172 B( 38-C ,102-H ) :   0.9938
B( 39-C , 40-C ) :   1.1227 B( 39-C ,103-H ) :   0.9957 B( 40-C , 41-S ) :   1.0230
B( 40-C , 42-C ) :   1.6445 B( 42-C , 43-C ) :   1.0604 B( 42-C ,104-H ) :   0.9695
B( 43-C , 44-C ) :   1.2912 B( 43-C , 48-C ) :   1.3358 B( 44-C , 45-C ) :   1.4233
B( 44-C ,105-H ) :   0.9700 B( 45-C , 46-C ) :   1.3652 B( 45-C , 51-C ) :   0.9157
B( 46-C , 47-C ) :   1.3326 B( 46-C , 49-C ) :   0.9952 B( 47-C , 48-C ) :   1.3982
B( 47-C ,106-H ) :   0.9909 B( 48-C ,107-H ) :   0.9895 B( 49-C , 50-C ) :   1.3480
B( 49-C , 59-C ) :   1.3425 B( 50-C , 51-C ) :   0.9150 B( 50-C , 56-C ) :   1.4237
B( 51-C , 52-C ) :   1.0317 B( 51-C , 54-C ) :   1.0477 B( 52-C , 53-C ) :   1.1012
B( 52-C ,108-H ) :   0.9399 B( 52-C ,109-H ) :   0.9396 B( 53-C ,110-H ) :   0.9648
B( 53-C ,111-H ) :   0.9631 B( 53-C ,112-H ) :   0.9645 B( 54-C , 55-C ) :   1.1051
B( 54-C ,113-H ) :   0.9366 B( 54-C ,114-H ) :   0.9358 B( 55-C ,115-H ) :   0.9631
B( 55-C ,116-H ) :   0.9630 B( 55-C ,117-H ) :   0.9609 B( 56-C , 57-C ) :   1.2802
B( 56-C ,118-H ) :   0.9970 B( 57-C , 58-C ) :   1.3372 B( 57-C , 60-C ) :   1.0648
B( 58-C , 59-C ) :   1.3739 B( 58-C ,119-H ) :   0.9953 B( 59-C ,120-H ) :   0.9920
B( 60-C , 61-C ) :   1.6204 B( 60-C ,121-H ) :   0.9706 B( 61-C , 62-C ) :   1.1537
B( 61-C ,122-H ) :   0.9502 B( 62-C , 63-N ) :   1.1442 B( 62-C , 68-C ) :   1.3851
B( 63-N , 64-C ) :   0.9692 B( 63-N , 65-C ) :   1.0379 B( 64-C ,123-H ) :   0.9656
B( 64-C ,124-H ) :   0.9691 B( 64-C ,125-H ) :   0.9507 B( 65-C , 66-O ) :   2.0972
B( 65-C , 67-C ) :   0.9621 B( 67-C , 68-C ) :   1.1991 B( 67-C , 73-C ) :   1.4645
B( 68-C , 69-C ) :   1.0167 B( 69-C , 70-O ) :   2.0404 B( 69-C , 71-N ) :   1.0513
B( 71-N , 72-C ) :   0.9604 B( 71-N , 73-C ) :   1.1947 B( 72-C ,126-H ) :   0.9580
B( 72-C ,127-H ) :   0.9764 B( 72-C ,128-H ) :   0.9765 B( 73-C ,129-H ) :   0.9901

-----------------------------------------------------------------------------
         ABSORPTION SPECTRUM VIA TRANSITION ELECTRIC DIPOLE MOMENTS
-----------------------------------------------------------------------------
State   Energy  Wavelength   fosc         T2         TX        TY        TZ
        (cm-1)    (nm)                  (au**2)     (au)      (au)      (au)
-----------------------------------------------------------------------------
   0   14778.9    676.6   0.848193470  18.89420   1.89538  -1.61524   3.56269
   1   20417.3    489.8   0.983317533  15.85515   0.66870   2.52186   3.00803
   2   22155.0    451.4   0.638871027   9.49331   0.10857  -2.54851  -1.72818
   3   23656.5    422.7   0.442731329   6.16119   0.52737   1.63855   1.78835
   4   24197.9    413.3   0.042223111   0.57444  -0.45568   0.54832  -0.25719
   5   25941.1    385.5   0.212964415   2.70268   0.22794   1.40348   0.82520
   6   26324.7    379.9   0.265324748   3.31810  -0.16633   1.80548   0.17511
   7   27269.8    366.7   0.113352261   1.36843  -0.24872   1.12965   0.17453
   8   28224.1    354.3   0.347240874   4.05030  -0.57742   1.87440  -0.45110
   9   28900.9    346.0   0.470414746   5.35853   0.83968   1.16378   1.81633
  10   29622.2    337.6   0.064467725   0.71648  -0.23193  -0.57858  -0.57265
  11   30096.7    332.3   0.058666680   0.64172   0.48303  -0.45092   0.45285
  12   30293.1    330.1   0.007687496   0.08354  -0.10942   0.26595   0.02901
  13   30935.1    323.3   0.001072422   0.01141  -0.09318   0.04958   0.01648
  14   31664.9    315.8   0.024622675   0.25600  -0.16550   0.43475  -0.19898
  15   31729.5    315.2   0.120827615   1.25366  -0.56552   0.85086  -0.45813
  16   32077.6    311.7   0.023727348   0.24351  -0.12919   0.47151  -0.06711
  17   32621.9    306.5   0.033768249   0.34078  -0.10577   0.47943   0.31581
  18   32883.3    304.1   0.077360051   0.77449   0.00350  -0.73684  -0.48119
  19   33544.1    298.1   0.103107993   1.01193   0.47277   0.02906   0.88746
  20   33807.9    295.8   0.040629136   0.39563   0.01963  -0.38525  -0.49682
  21   34289.3    291.6   0.024184897   0.23220   0.00357   0.40530   0.26062
  22   34603.1    289.0   0.057101664   0.54326   0.03625   0.41328   0.60922
  23   34691.9    288.3   0.020335997   0.19298  -0.31215  -0.23930  -0.19565
  24   34857.8    286.9   0.094406126   0.89161   0.73085  -0.23379   0.55029
  25   35258.1    283.6   0.030527375   0.28504   0.30209  -0.36722   0.24276
  26   35463.4    282.0   0.228040467   2.11694   0.35343   0.68046   1.23652
  27   35979.9    277.9   0.117626207   1.07627  -0.05289  -1.01466  -0.20961
  28   36502.0    274.0   0.047990291   0.43283  -0.21718   0.60041  -0.15865
  29   37274.3    268.3   0.006290398   0.05556  -0.11280  -0.18808   0.08636
  30   37590.2    266.0   0.000740984   0.00649   0.01440  -0.07887  -0.00785
  31   38054.7    262.8   0.018541085   0.16040  -0.16491   0.35816   0.07019
  32   38090.2    262.5   0.094903424   0.82025  -0.32382   0.13910  -0.83429
  33   38449.8    260.1   0.099923953   0.85556  -0.52115   0.60598  -0.46557
  34   38480.7    259.9   0.042334930   0.36219   0.16620  -0.47000  -0.33714
  35   38564.8    259.3   0.029250354   0.24970  -0.22953   0.20693  -0.39268
  36   39205.5    255.1   0.008783250   0.07375   0.07842   0.21936  -0.13959
  37   39462.3    253.4   0.003105225   0.02591  -0.00806   0.15432  -0.04501
  38   39883.0    250.7   0.079510421   0.65631   0.15336  -0.77750  -0.16821
  39   40188.6    248.8   0.013489613   0.11050   0.16384  -0.11629  -0.26483

FINAL SINGLE POINT ENERGY     -3784.814733265828

DIPOLE MOMENT
-------------
                                X             Y             Z
Electronic contribution:     -9.23540       5.93895     -10.69393
Nuclear contribution   :      8.73190      -7.78247       9.23888
                        -----------------------------------------
Total Dipole Moment    :     -0.50350      -1.84352      -1.45506
                        -----------------------------------------
Magnitude (a.u.)       :      2.40193
Magnitude (Debye)      :      6.10522

Rotational constants in cm-1:     0.000952     0.000484     0.000331
Rotational constants in MHz :    28.539305    14.513196     9.932186

                             ****ORCA TERMINATED NORMALLY****
TOTAL RUN TIME: 0 days 0 hours 13 minutes 11 seconds 633 msec
