                         Program Version 4.2.0 -  RELEASE  -
|  1> # ORCA input file
|  2> # SCF done       -169.182173449725          0.000879471913
|  3> ! CAM-B3LYP def2-SVP def2/J RIJCOSX Grid4 TightSCF
|  4> %maxcore 5000
|  5> %tddft
|  6>     Mode sTDDFT
|  7>     Ethresh 5.0
|  8>     maxcore 5000
|  9> end
| 10>
| 11> %pal
| 12>   nprocs 6
| 13>   end
| 14> * xyz 0 1
| 15>    C       -1.44462         5.95873         0.82413
| 16>    S       -0.63162         4.98856        -0.32703
| 17>    C        0.79329         5.99057        -0.23348
| 18>    C        0.59851         7.03637         0.64515
| 19>    C       -0.68158         7.00189         1.25408
| 20>    C       -1.18497         8.02996         2.22941
| 21>    N       -2.27141         8.76443         1.59522
| 22>    C       -0.01854         8.90738         2.71897
| 23>    C        0.86365         9.33802         1.55253
| 24>    C        1.58663         8.13379         0.92428
| 25>    N        2.68153         7.61141         1.74126
| 26>    C        1.91558         5.61193        -1.03514
| 27>    C        3.18172         6.02978        -0.85486
| 28>    N        4.19834         5.62156        -1.68337
| 29>    C        5.52517         5.87505        -1.59682
| 30>    S        6.46383         5.62064        -3.04306
| 31>    C        7.88875         6.16612        -2.21083
| 32>    N        9.09151         6.15339        -2.89895
| 33>    O       10.09726         6.51638        -2.29919
| 34>    O        9.06878         5.78442        -4.06572
| 35>    C        7.64096         6.52079        -0.91065
| 36>    C        6.29801         6.35234        -0.52138
| 37>    C        5.83748         6.55605         0.82282
| 38>    C        6.51101         7.28349         1.74937
| 39>    C        6.08442         7.44977         3.08168
| 40>    C        6.78271         8.16744         4.01587
| 41>    C        6.44020         8.39691         5.37245
| 42>    C        7.34876         9.13424         6.06856
| 43>    C        8.47017         9.53165         5.30799
| 44>    S        8.31994         8.94679         3.66076
| 45>    C        9.57528        10.25115         5.70738
| 46>    C        9.87746        10.79707         6.97579
| 47>    C       11.07558        11.44076         7.03892
| 48>    C       11.79907        11.44320         5.82103
| 49>    S       10.87210        10.59182         4.58055
| 50>    C       13.02090        11.98969         5.55443
| 51>    N       13.58972        11.89344         4.32970
| 52>    C       14.76566        12.40743         3.90807
| 53>    S       15.81949        13.29036         4.96387
| 54>    C       16.93284        13.49404         3.64336
| 55>    N       18.09915        14.20316         3.90418
| 56>    O       18.89351        14.36049         2.99037
| 57>    O       18.24344        14.62447         5.04535
| 58>    C       16.50768        12.91670         2.47328
| 59>    C       15.25925        12.28412         2.59545
| 60>    C       14.52104        11.60112         1.57288
| 61>    C       14.93988        11.37570         0.31212
| 62>    C       14.20140        10.72649        -0.72340
| 63>    S       15.06599        10.53103        -2.22331
| 64>    C       13.68960         9.83899        -3.01327
| 65>    C       12.60347         9.80960        -2.16154
| 66>    C       12.89916        10.25989        -0.85096
| 67>    C       11.87536        10.20705         0.25821
| 68>    N       12.42435         9.55591         1.45096
| 69>    C       10.59204         9.50572        -0.20803
| 70>    C       10.19049         9.98246        -1.59048
| 71>    C       11.20996         9.45907        -2.61385
| 72>    N       10.98243         9.97134        -3.95555
| 73>    C       13.88805         9.36823        -4.36194
| 74>    C       13.20074         8.40819        -4.97223
| 75>    H       -2.44580         5.71920         1.11978
| 76>    H       -1.63082         7.51685         3.09213
| 77>    H       -1.94519         9.23296         0.75711
| 78>    H       -2.64277         9.46637         2.22596
| 79>    H        0.57371         8.34474         3.44487
| 80>    H       -0.41968         9.78499         3.23256
| 81>    H        1.60821        10.06457         1.88938
| 82>    H        0.25287         9.82296         0.78739
| 83>    H        2.03930         8.45629        -0.02461
| 84>    H        2.31433         7.20499         2.59525
| 85>    H        3.31474         8.36241         1.99848
| 86>    H        1.69943         4.89395        -1.81725
| 87>    H        3.44431         6.69391        -0.05040
| 88>    H        3.90662         5.12095        -2.51536
| 89>    H        8.42590         6.85360        -0.25714
| 90>    H        4.91956         6.07302         1.11998
| 91>    H        7.42558         7.79325         1.47628
| 92>    H        5.16105         6.97824         3.38979
| 93>    H        5.53053         8.00194         5.78996
| 94>    H        7.24847         9.39808         7.10638
| 95>    H        9.20067        10.69687         7.80516
| 96>    H       11.46852        11.91306         7.92136
| 97>    H       13.57184        12.52110         6.31575
| 98>    H       13.07134        11.36139         3.63426
| 99>    H       17.09056        12.96500         1.57229
|100>    H       13.56285        11.19452         1.85026
|101>    H       15.92019        11.71432         0.00305
|102>    H       11.62577        11.23937         0.55225
|103>    H       12.81940         8.65742         1.19357
|104>    H       11.66882         9.37987         2.10741
|105>    H        9.80063         9.69745         0.52246
|106>    H       10.76835         8.42685        -0.25158
|107>    H       10.16852        11.07648        -1.61699
|108>    H        9.19441         9.61531        -1.85058
|109>    H       11.11333         8.36619        -2.65704
|110>    H       11.04468        10.98364        -3.96549
|111>    H       10.06249         9.70313        -4.28446
|112>    H       14.73457         9.82175        -4.86433
|113>    H       12.37916         7.90017        -4.50614
|114>    H       13.45190         8.10562        -5.97391
|115> *
|116>
|117>                          ****END OF INPUT****

CARTESIAN COORDINATES (ANGSTROEM)
---------------------------------
  C     -1.444620    5.958730    0.824130
  S     -0.631620    4.988560   -0.327030
  C      0.793290    5.990570   -0.233480
  C      0.598510    7.036370    0.645150
  C     -0.681580    7.001890    1.254080
  C     -1.184970    8.029960    2.229410
  N     -2.271410    8.764430    1.595220
  C     -0.018540    8.907380    2.718970
  C      0.863650    9.338020    1.552530
  C      1.586630    8.133790    0.924280
  N      2.681530    7.611410    1.741260
  C      1.915580    5.611930   -1.035140
  C      3.181720    6.029780   -0.854860
  N      4.198340    5.621560   -1.683370
  C      5.525170    5.875050   -1.596820
  S      6.463830    5.620640   -3.043060
  C      7.888750    6.166120   -2.210830
  N      9.091510    6.153390   -2.898950
  O     10.097260    6.516380   -2.299190
  O      9.068780    5.784420   -4.065720
  C      7.640960    6.520790   -0.910650
  C      6.298010    6.352340   -0.521380
  C      5.837480    6.556050    0.822820
  C      6.511010    7.283490    1.749370
  C      6.084420    7.449770    3.081680
  C      6.782710    8.167440    4.015870
  C      6.440200    8.396910    5.372450
  C      7.348760    9.134240    6.068560
  C      8.470170    9.531650    5.307990
  S      8.319940    8.946790    3.660760
  C      9.575280   10.251150    5.707380
  C      9.877460   10.797070    6.975790
  C     11.075580   11.440760    7.038920
  C     11.799070   11.443200    5.821030
  S     10.872100   10.591820    4.580550
  C     13.020900   11.989690    5.554430
  N     13.589720   11.893440    4.329700
  C     14.765660   12.407430    3.908070
  S     15.819490   13.290360    4.963870
  C     16.932840   13.494040    3.643360
  N     18.099150   14.203160    3.904180
  O     18.893510   14.360490    2.990370
  O     18.243440   14.624470    5.045350
  C     16.507680   12.916700    2.473280
  C     15.259250   12.284120    2.595450
  C     14.521040   11.601120    1.572880
  C     14.939880   11.375700    0.312120
  C     14.201400   10.726490   -0.723400
  S     15.065990   10.531030   -2.223310
  C     13.689600    9.838990   -3.013270
  C     12.603470    9.809600   -2.161540
  C     12.899160   10.259890   -0.850960
  C     11.875360   10.207050    0.258210
  N     12.424350    9.555910    1.450960
  C     10.592040    9.505720   -0.208030
  C     10.190490    9.982460   -1.590480
  C     11.209960    9.459070   -2.613850
  N     10.982430    9.971340   -3.955550
  C     13.888050    9.368230   -4.361940
  C     13.200740    8.408190   -4.972230
  H     -2.445800    5.719200    1.119780
  H     -1.630820    7.516850    3.092130
  H     -1.945190    9.232960    0.757110
  H     -2.642770    9.466370    2.225960
  H      0.573710    8.344740    3.444870
  H     -0.419680    9.784990    3.232560
  H      1.608210   10.064570    1.889380
  H      0.252870    9.822960    0.787390
  H      2.039300    8.456290   -0.024610
  H      2.314330    7.204990    2.595250
  H      3.314740    8.362410    1.998480
  H      1.699430    4.893950   -1.817250
  H      3.444310    6.693910   -0.050400
  H      3.906620    5.120950   -2.515360
  H      8.425900    6.853600   -0.257140
  H      4.919560    6.073020    1.119980
  H      7.425580    7.793250    1.476280
  H      5.161050    6.978240    3.389790
  H      5.530530    8.001940    5.789960
  H      7.248470    9.398080    7.106380
  H      9.200670   10.696870    7.805160
  H     11.468520   11.913060    7.921360
  H     13.571840   12.521100    6.315750
  H     13.071340   11.361390    3.634260
  H     17.090560   12.965000    1.572290
  H     13.562850   11.194520    1.850260
  H     15.920190   11.714320    0.003050
  H     11.625770   11.239370    0.552250
  H     12.819400    8.657420    1.193570
  H     11.668820    9.379870    2.107410
  H      9.800630    9.697450    0.522460
  H     10.768350    8.426850   -0.251580
  H     10.168520   11.076480   -1.616990
  H      9.194410    9.615310   -1.850580
  H     11.113330    8.366190   -2.657040
  H     11.044680   10.983640   -3.965490
  H     10.062490    9.703130   -4.284460
  H     14.734570    9.821750   -4.864330
  H     12.379160    7.900170   -4.506140
  H     13.451900    8.105620   -5.973910

 Total Charge           Charge          ....    0
 Multiplicity           Mult            ....    1
 Number of Electrons    NEL             ....  476
 Basis Dimension        Dim             .... 1064

ORBITAL ENERGIES
----------------

  NO   OCC          E(Eh)            E(eV)
   0   2.0000     -88.979523     -2421.2559
   1   2.0000     -88.971887     -2421.0481
   2   2.0000     -88.953954     -2420.5602
   3   2.0000     -88.949576     -2420.4410
   4   2.0000     -88.945939     -2420.3420
   5   2.0000     -88.930216     -2419.9142
   6   2.0000     -19.236333      -523.4472
   7   2.0000     -19.236055      -523.4397
   8   2.0000     -19.218885      -522.9724
   9   2.0000     -19.218629      -522.9655
  10   2.0000     -14.646679      -398.5564
  11   2.0000     -14.630650      -398.1202
  12   2.0000     -14.481014      -394.0484
  13   2.0000     -14.480700      -394.0399
  14   2.0000     -14.402901      -391.9229
  15   2.0000     -14.386718      -391.4825
  16   2.0000     -14.386081      -391.4652
  17   2.0000     -14.363199      -390.8425
  18   2.0000     -10.370055      -282.1835
  19   2.0000     -10.354919      -281.7717
  20   2.0000     -10.338057      -281.3128
  21   2.0000     -10.337820      -281.3064
  22   2.0000     -10.325799      -280.9793
  23   2.0000     -10.317627      -280.7569
  24   2.0000     -10.317166      -280.7444
  25   2.0000     -10.310353      -280.5590
  26   2.0000     -10.308846      -280.5180
  27   2.0000     -10.308675      -280.5133
  28   2.0000     -10.307571      -280.4833
  29   2.0000     -10.306978      -280.4671
  30   2.0000     -10.300319      -280.2859
  31   2.0000     -10.297731      -280.2155
  32   2.0000     -10.295961      -280.1673
  33   2.0000     -10.294457      -280.1264
  34   2.0000     -10.294394      -280.1247
  35   2.0000     -10.293809      -280.1088
  36   2.0000     -10.290951      -280.0310
  37   2.0000     -10.289092      -279.9804
  38   2.0000     -10.285315      -279.8776
  39   2.0000     -10.282569      -279.8029
  40   2.0000     -10.282296      -279.7955
  41   2.0000     -10.281528      -279.7746
  42   2.0000     -10.281330      -279.7692
  43   2.0000     -10.281147      -279.7642
  44   2.0000     -10.278575      -279.6942
  45   2.0000     -10.278207      -279.6842
  46   2.0000     -10.275477      -279.6099
  47   2.0000     -10.274716      -279.5892
  48   2.0000     -10.271505      -279.5019
  49   2.0000     -10.270349      -279.4704
  50   2.0000     -10.269250      -279.4405
  51   2.0000     -10.268481      -279.4196
  52   2.0000     -10.268193      -279.4117
  53   2.0000     -10.261240      -279.2225
  54   2.0000     -10.258525      -279.1487
  55   2.0000     -10.254165      -279.0300
  56   2.0000     -10.253820      -279.0206
  57   2.0000     -10.249944      -278.9152
  58   2.0000     -10.249865      -278.9130
  59   2.0000     -10.238418      -278.6015
  60   2.0000      -8.075626      -219.7490
  61   2.0000      -8.067188      -219.5193
  62   2.0000      -8.049883      -219.0484
  63   2.0000      -8.045714      -218.9350
  64   2.0000      -8.042076      -218.8360
  65   2.0000      -8.026504      -218.4123
  66   2.0000      -6.045428      -164.5045
  67   2.0000      -6.041054      -164.3854
  68   2.0000      -6.036909      -164.2726
  69   2.0000      -6.036691      -164.2667
  70   2.0000      -6.032579      -164.1548
  71   2.0000      -6.028543      -164.0450
  72   2.0000      -6.019740      -163.8055
  73   2.0000      -6.015804      -163.6983
  74   2.0000      -6.014871      -163.6730
  75   2.0000      -6.011829      -163.5902
  76   2.0000      -6.010714      -163.5598
  77   2.0000      -6.010621      -163.5573
  78   2.0000      -6.008106      -163.4889
  79   2.0000      -6.007988      -163.4857
  80   2.0000      -6.002853      -163.3459
  81   2.0000      -5.995492      -163.1456
  82   2.0000      -5.991651      -163.0411
  83   2.0000      -5.988840      -162.9646
  84   2.0000      -1.313162       -35.7330
  85   2.0000      -1.297611       -35.3098
  86   2.0000      -1.131676       -30.7945
  87   2.0000      -1.116386       -30.3784
  88   2.0000      -1.088884       -29.6300
  89   2.0000      -1.084478       -29.5102
  90   2.0000      -1.004045       -27.3215
  91   2.0000      -0.999819       -27.2064
  92   2.0000      -0.999351       -27.1937
  93   2.0000      -0.989766       -26.9329
  94   2.0000      -0.986803       -26.8523
  95   2.0000      -0.976888       -26.5825
  96   2.0000      -0.973217       -26.4826
  97   2.0000      -0.963297       -26.2126
  98   2.0000      -0.961961       -26.1763
  99   2.0000      -0.945354       -25.7244
 100   2.0000      -0.919504       -25.0210
 101   2.0000      -0.905159       -24.6306
 102   2.0000      -0.901521       -24.5316
 103   2.0000      -0.888919       -24.1887
 104   2.0000      -0.878959       -23.9177
 105   2.0000      -0.876084       -23.8394
 106   2.0000      -0.869665       -23.6648
 107   2.0000      -0.866372       -23.5752
 108   2.0000      -0.858095       -23.3499
 109   2.0000      -0.854044       -23.2397
 110   2.0000      -0.847634       -23.0653
 111   2.0000      -0.830147       -22.5895
 112   2.0000      -0.825805       -22.4713
 113   2.0000      -0.823916       -22.4199
 114   2.0000      -0.823849       -22.4181
 115   2.0000      -0.815730       -22.1971
 116   2.0000      -0.806644       -21.9499
 117   2.0000      -0.796901       -21.6848
 118   2.0000      -0.784882       -21.3577
 119   2.0000      -0.781065       -21.2539
 120   2.0000      -0.770035       -20.9537
 121   2.0000      -0.758151       -20.6303
 122   2.0000      -0.745161       -20.2769
 123   2.0000      -0.728179       -19.8148
 124   2.0000      -0.724006       -19.7012
 125   2.0000      -0.713373       -19.4119
 126   2.0000      -0.707415       -19.2497
 127   2.0000      -0.698252       -19.0004
 128   2.0000      -0.686627       -18.6841
 129   2.0000      -0.683006       -18.5855
 130   2.0000      -0.680893       -18.5280
 131   2.0000      -0.675215       -18.3735
 132   2.0000      -0.673575       -18.3289
 133   2.0000      -0.658102       -17.9079
 134   2.0000      -0.653007       -17.7692
 135   2.0000      -0.642469       -17.4825
 136   2.0000      -0.640164       -17.4197
 137   2.0000      -0.637766       -17.3545
 138   2.0000      -0.629738       -17.1360
 139   2.0000      -0.628327       -17.0977
 140   2.0000      -0.626020       -17.0349
 141   2.0000      -0.620137       -16.8748
 142   2.0000      -0.617092       -16.7919
 143   2.0000      -0.615359       -16.7448
 144   2.0000      -0.613125       -16.6840
 145   2.0000      -0.611708       -16.6454
 146   2.0000      -0.609088       -16.5741
 147   2.0000      -0.604112       -16.4387
 148   2.0000      -0.602575       -16.3969
 149   2.0000      -0.591114       -16.0850
 150   2.0000      -0.587847       -15.9961
 151   2.0000      -0.585070       -15.9206
 152   2.0000      -0.582301       -15.8452
 153   2.0000      -0.573232       -15.5984
 154   2.0000      -0.571491       -15.5511
 155   2.0000      -0.569401       -15.4942
 156   2.0000      -0.560864       -15.2619
 157   2.0000      -0.555707       -15.1216
 158   2.0000      -0.551813       -15.0156
 159   2.0000      -0.549343       -14.9484
 160   2.0000      -0.546321       -14.8661
 161   2.0000      -0.542784       -14.7699
 162   2.0000      -0.539716       -14.6864
 163   2.0000      -0.536234       -14.5917
 164   2.0000      -0.531911       -14.4740
 165   2.0000      -0.528434       -14.3794
 166   2.0000      -0.523409       -14.2427
 167   2.0000      -0.520386       -14.1604
 168   2.0000      -0.518996       -14.1226
 169   2.0000      -0.513927       -13.9847
 170   2.0000      -0.513246       -13.9661
 171   2.0000      -0.511407       -13.9161
 172   2.0000      -0.509390       -13.8612
 173   2.0000      -0.508530       -13.8378
 174   2.0000      -0.501645       -13.6504
 175   2.0000      -0.498952       -13.5772
 176   2.0000      -0.498457       -13.5637
 177   2.0000      -0.495145       -13.4736
 178   2.0000      -0.487288       -13.2598
 179   2.0000      -0.486118       -13.2279
 180   2.0000      -0.478710       -13.0264
 181   2.0000      -0.476866       -12.9762
 182   2.0000      -0.475821       -12.9478
 183   2.0000      -0.474739       -12.9183
 184   2.0000      -0.472728       -12.8636
 185   2.0000      -0.470826       -12.8118
 186   2.0000      -0.468682       -12.7535
 187   2.0000      -0.466547       -12.6954
 188   2.0000      -0.463932       -12.6242
 189   2.0000      -0.458158       -12.4671
 190   2.0000      -0.457630       -12.4527
 191   2.0000      -0.453409       -12.3379
 192   2.0000      -0.452473       -12.3124
 193   2.0000      -0.447348       -12.1730
 194   2.0000      -0.445987       -12.1359
 195   2.0000      -0.444275       -12.0893
 196   2.0000      -0.442485       -12.0406
 197   2.0000      -0.442003       -12.0275
 198   2.0000      -0.436215       -11.8700
 199   2.0000      -0.431684       -11.7467
 200   2.0000      -0.428512       -11.6604
 201   2.0000      -0.426657       -11.6099
 202   2.0000      -0.419608       -11.4181
 203   2.0000      -0.413415       -11.2496
 204   2.0000      -0.411812       -11.2060
 205   2.0000      -0.411242       -11.1905
 206   2.0000      -0.407295       -11.0831
 207   2.0000      -0.401723       -10.9314
 208   2.0000      -0.396968       -10.8020
 209   2.0000      -0.396508       -10.7895
 210   2.0000      -0.391412       -10.6509
 211   2.0000      -0.386803       -10.5254
 212   2.0000      -0.384829       -10.4717
 213   2.0000      -0.383294       -10.4300
 214   2.0000      -0.377674       -10.2770
 215   2.0000      -0.371968       -10.1218
 216   2.0000      -0.368216       -10.0197
 217   2.0000      -0.367703       -10.0057
 218   2.0000      -0.364265        -9.9122
 219   2.0000      -0.360565        -9.8115
 220   2.0000      -0.350473        -9.5369
 221   2.0000      -0.347640        -9.4598
 222   2.0000      -0.345980        -9.4146
 223   2.0000      -0.343182        -9.3385
 224   2.0000      -0.328088        -8.9277
 225   2.0000      -0.327741        -8.9183
 226   2.0000      -0.321106        -8.7377
 227   2.0000      -0.315493        -8.5850
 228   2.0000      -0.313514        -8.5312
 229   2.0000      -0.309845        -8.4313
 230   2.0000      -0.306789        -8.3482
 231   2.0000      -0.297223        -8.0878
 232   2.0000      -0.294401        -8.0110
 233   2.0000      -0.277797        -7.5592
 234   2.0000      -0.270860        -7.3705
 235   2.0000      -0.248144        -6.7523
 236   2.0000      -0.230571        -6.2742
 237   2.0000      -0.204976        -5.5777
 238   0.0000      -0.076157        -2.0723
 239   0.0000      -0.058067        -1.5801
 240   0.0000      -0.038032        -1.0349
 241   0.0000      -0.020708        -0.5635
 242   0.0000      -0.005881        -0.1600

MULLIKEN ATOMIC CHARGES
-----------------------
   0 C :   -0.111146
   1 S :    0.107288
   2 C :   -0.152506
   3 C :   -0.010986
   4 C :   -0.036549
   5 C :    0.081763
   6 N :   -0.179967
   7 C :    0.069067
   8 C :    0.074212
   9 C :    0.034483
  10 N :   -0.186687
  11 C :    0.005322
  12 C :    0.050308
  13 N :   -0.007995
  14 C :   -0.112216
  15 S :    0.151530
  16 C :   -0.021833
  17 N :    0.292130
  18 O :   -0.262522
  19 O :   -0.269228
  20 C :    0.003087
  21 C :    0.107650
  22 C :   -0.039786
  23 C :   -0.010698
  24 C :   -0.025487
  25 C :   -0.008989
  26 C :    0.027742
  27 C :    0.028743
  28 C :   -0.048501
  29 S :    0.036812
  30 C :   -0.031407
  31 C :    0.015704
  32 C :    0.049480
  33 C :   -0.047819
  34 S :    0.009837
  35 C :    0.043442
  36 N :   -0.025695
  37 C :   -0.129774
  38 S :    0.143018
  39 C :   -0.011017
  40 N :    0.279582
  41 O :   -0.261304
  42 O :   -0.281547
  43 C :    0.001040
  44 C :    0.146743
  45 C :   -0.033116
  46 C :    0.049913
  47 C :   -0.130181
  48 S :    0.102324
  49 C :   -0.147285
  50 C :   -0.037784
  51 C :   -0.043787
  52 C :    0.049378
  53 N :   -0.197916
  54 C :    0.043767
  55 C :    0.074900
  56 C :    0.030042
  57 N :   -0.167315
  58 C :    0.021607
  59 C :    0.030006
  60 H :    0.012193
  61 H :   -0.007490
  62 H :    0.084637
  63 H :    0.087367
  64 H :   -0.022398
  65 H :   -0.011414
  66 H :   -0.007902
  67 H :   -0.012468
  68 H :   -0.003762
  69 H :    0.098545
  70 H :    0.105872
  71 H :   -0.030034
  72 H :    0.037996
  73 H :    0.130661
  74 H :    0.006362
  75 H :    0.005449
  76 H :   -0.003830
  77 H :   -0.026857
  78 H :   -0.019531
  79 H :   -0.014559
  80 H :   -0.013642
  81 H :   -0.009479
  82 H :    0.024162
  83 H :    0.157504
  84 H :    0.010097
  85 H :   -0.036967
  86 H :   -0.036182
  87 H :   -0.000080
  88 H :    0.102889
  89 H :    0.098216
  90 H :   -0.007364
  91 H :    0.002910
  92 H :   -0.015943
  93 H :   -0.023775
  94 H :    0.031971
  95 H :    0.084172
  96 H :    0.084164
  97 H :   -0.019783
  98 H :    0.016842
  99 H :    0.011573
Sum of atomic charges:   -0.0000000

LOEWDIN ATOMIC CHARGES
----------------------
   0 C :   -0.183573
   1 S :    0.432729
   2 C :   -0.166059
   3 C :   -0.077886
   4 C :   -0.071532
   5 C :    0.019110
   6 N :   -0.099535
   7 C :   -0.044999
   8 C :   -0.039496
   9 C :    0.017422
  10 N :   -0.088014
  11 C :   -0.096657
  12 C :    0.027195
  13 N :    0.038407
  14 C :   -0.090655
  15 S :    0.434241
  16 C :   -0.221054
  17 N :    0.278544
  18 O :   -0.226419
  19 O :   -0.235759
  20 C :    0.009557
  21 C :   -0.108113
  22 C :   -0.029189
  23 C :   -0.038822
  24 C :   -0.071740
  25 C :   -0.142376
  26 C :   -0.045490
  27 C :   -0.028729
  28 C :   -0.192455
  29 S :    0.346831
  30 C :   -0.168213
  31 C :   -0.048580
  32 C :   -0.023842
  33 C :   -0.191541
  34 S :    0.346870
  35 C :    0.003203
  36 N :    0.055420
  37 C :   -0.106793
  38 S :    0.441023
  39 C :   -0.214490
  40 N :    0.274183
  41 O :   -0.228045
  42 O :   -0.247459
  43 C :    0.006882
  44 C :   -0.096031
  45 C :   -0.043222
  46 C :   -0.042605
  47 C :   -0.172353
  48 S :    0.433273
  49 C :   -0.167350
  50 C :   -0.063955
  51 C :   -0.067241
  52 C :    0.018878
  53 N :   -0.087674
  54 C :   -0.044767
  55 C :   -0.040686
  56 C :    0.009417
  57 N :   -0.083700
  58 C :   -0.058952
  59 C :   -0.014031
  60 H :    0.023423
  61 H :    0.025769
  62 H :    0.048693
  63 H :    0.050553
  64 H :    0.013065
  65 H :    0.019787
  66 H :    0.020285
  67 H :    0.017583
  68 H :    0.023061
  69 H :    0.052084
  70 H :    0.056311
  71 H :    0.021717
  72 H :    0.029497
  73 H :    0.090466
  74 H :    0.043290
  75 H :    0.031352
  76 H :    0.017407
  77 H :    0.028519
  78 H :    0.030664
  79 H :    0.031766
  80 H :    0.032067
  81 H :    0.034969
  82 H :    0.032820
  83 H :    0.087651
  84 H :    0.044275
  85 H :    0.014839
  86 H :    0.020746
  87 H :    0.021033
  88 H :    0.060057
  89 H :    0.039426
  90 H :    0.015981
  91 H :    0.019931
  92 H :    0.015242
  93 H :    0.014588
  94 H :    0.022980
  95 H :    0.049316
  96 H :    0.049491
  97 H :    0.021342
  98 H :    0.023378
  99 H :    0.021470

  Mayer bond orders larger than 0.100000
B(  0-C ,  1-S ) :   1.1549 B(  0-C ,  4-C ) :   1.5740 B(  0-C , 60-H ) :   0.9655
B(  1-S ,  2-C ) :   1.1420 B(  2-C ,  3-C ) :   1.5222 B(  2-C , 11-C ) :   1.1273
B(  3-C ,  4-C ) :   1.3149 B(  3-C ,  9-C ) :   1.0028 B(  4-C ,  5-C ) :   0.9811
B(  5-C ,  6-N ) :   1.1180 B(  5-C ,  7-C ) :   1.0441 B(  5-C , 61-H ) :   0.9021
B(  6-N , 62-H ) :   0.9704 B(  6-N , 63-H ) :   0.9710 B(  7-C ,  8-C ) :   1.0439
B(  7-C , 64-H ) :   0.9258 B(  7-C , 65-H ) :   0.9317 B(  8-C ,  9-C ) :   1.0528
B(  8-C , 66-H ) :   0.9303 B(  8-C , 67-H ) :   0.9288 B(  9-C , 10-N ) :   1.0611
B(  9-C , 68-H ) :   0.8974 B( 10-N , 69-H ) :   0.9580 B( 10-N , 70-H ) :   0.9543
B( 11-C , 12-C ) :   1.7137 B( 11-C , 71-H ) :   0.9446 B( 12-C , 13-N ) :   1.1005
B( 12-C , 72-H ) :   0.9281 B( 13-N , 14-C ) :   1.2317 B( 13-N , 73-H ) :   0.9090
B( 14-C , 15-S ) :   1.1312 B( 14-C , 21-C ) :   1.3313 B( 15-S , 16-C ) :   1.0638
B( 16-C , 17-N ) :   1.0037 B( 16-C , 20-C ) :   1.4545 B( 17-N , 18-O ) :   1.4609
B( 17-N , 19-O ) :   1.5019 B( 18-O , 19-O ) :   0.2377 B( 20-C , 21-C ) :   1.2526
B( 20-C , 74-H ) :   1.0015 B( 21-C , 22-C ) :   1.0563 B( 22-C , 23-C ) :   1.6764
B( 22-C , 75-H ) :   0.9776 B( 23-C , 24-C ) :   1.1394 B( 23-C , 76-H ) :   0.9700
B( 24-C , 25-C ) :   1.5686 B( 24-C , 77-H ) :   0.9841 B( 25-C , 26-C ) :   1.1388
B( 25-C , 29-S ) :   1.0293 B( 26-C , 27-C ) :   1.5917 B( 26-C , 78-H ) :   0.9987
B( 27-C , 28-C ) :   1.1909 B( 27-C , 79-H ) :   0.9930 B( 28-C , 29-S ) :   1.0262
B( 28-C , 30-C ) :   1.5232 B( 30-C , 31-C ) :   1.1859 B( 30-C , 34-S ) :   1.0437
B( 31-C , 32-C ) :   1.6079 B( 31-C , 80-H ) :   0.9920 B( 32-C , 33-C ) :   1.1597
B( 32-C , 81-H ) :   0.9937 B( 33-C , 34-S ) :   1.0086 B( 33-C , 35-C ) :   1.5903
B( 35-C , 36-N ) :   1.1642 B( 35-C , 82-H ) :   0.9626 B( 36-N , 37-C ) :   1.2360
B( 36-N , 83-H ) :   0.8967 B( 37-C , 38-S ) :   1.1227 B( 37-C , 44-C ) :   1.3330
B( 38-S , 39-C ) :   1.0621 B( 39-C , 40-N ) :   0.9917 B( 39-C , 43-C ) :   1.4713
B( 40-N , 41-O ) :   1.5207 B( 40-N , 42-O ) :   1.4943 B( 41-O , 42-O ) :   0.2483
B( 43-C , 44-C ) :   1.2374 B( 43-C , 84-H ) :   1.0014 B( 44-C , 45-C ) :   1.0826
B( 45-C , 46-C ) :   1.7539 B( 45-C , 85-H ) :   0.9381 B( 46-C , 47-C ) :   1.1162
B( 46-C , 86-H ) :   0.9471 B( 47-C , 48-S ) :   1.1288 B( 47-C , 51-C ) :   1.4912
B( 48-S , 49-C ) :   1.1254 B( 49-C , 50-C ) :   1.5426 B( 49-C , 58-C ) :   1.0739
B( 50-C , 51-C ) :   1.3148 B( 50-C , 56-C ) :   0.9844 B( 51-C , 52-C ) :   1.0079
B( 52-C , 53-N ) :   1.0639 B( 52-C , 54-C ) :   1.0723 B( 52-C , 87-H ) :   0.8714
B( 53-N , 88-H ) :   0.9580 B( 53-N , 89-H ) :   0.9564 B( 54-C , 55-C ) :   1.0583
B( 54-C , 90-H ) :   0.9214 B( 54-C , 91-H ) :   0.9199 B( 55-C , 56-C ) :   1.0656
B( 55-C , 92-H ) :   0.9264 B( 55-C , 93-H ) :   0.9217 B( 56-C , 57-N ) :   1.0986
B( 56-C , 94-H ) :   0.8604 B( 57-N , 95-H ) :   0.9674 B( 57-N , 96-H ) :   0.9706
B( 58-C , 59-C ) :   1.9592 B( 58-C , 97-H ) :   0.9455 B( 59-C , 98-H ) :   0.9514
B( 59-C , 99-H ) :   0.9471

-----------------------------------------------------------------------------
         ABSORPTION SPECTRUM VIA TRANSITION ELECTRIC DIPOLE MOMENTS
-----------------------------------------------------------------------------
State   Energy  Wavelength   fosc         T2         TX        TY        TZ
        (cm-1)    (nm)                  (au**2)     (au)      (au)      (au)
-----------------------------------------------------------------------------
   0   14135.2    707.5   1.117581678  26.02872  -4.28776  -2.59980  -0.94067
   1   18439.4    542.3   0.264582366   4.72377  -2.08949  -0.47645   0.36167
   2   20675.2    483.7   0.343477871   5.46921   0.69092   0.93075   2.03114
   3   22680.8    440.9   0.081857408   1.18816  -0.61871  -0.21436   0.87144
   4   23434.2    426.7   0.067796428   0.95243   0.96717   0.06432   0.11348
   5   24430.1    409.3   0.104579953   1.40928   0.94073   0.52947  -0.49395
   6   25392.4    393.8   0.701405084   9.09369  -1.94937  -1.04306  -2.05077
   7   26047.1    383.9   0.664702779   8.40125  -1.95140   0.45597   2.09413
   8   27960.8    357.6   0.007772957   0.09152   0.24381   0.15726   0.08571
   9   28613.1    349.5   0.017390685   0.20009   0.09885   0.25810   0.35172
  10   29341.4    340.8   0.374336317   4.20007   0.76572  -0.29244  -1.87836
  11   29482.8    339.2   0.131293074   1.46605  -0.48992   0.14963   1.09711
  12   29689.1    336.8   0.085463841   0.94768   0.32582   0.63945   0.65775
  13   31398.1    318.5   0.393422069   4.12506  -0.57897  -0.88498  -1.73397
  14   31646.5    316.0   0.129095324   1.34295   0.34783   0.59421   0.93214
  15   32809.2    304.8   0.099107269   0.99446  -0.94123  -0.31655  -0.09129
  16   33201.3    301.2   0.024287628   0.24083  -0.47834  -0.04798   0.09857
  17   33399.5    299.4   0.008054089   0.07939   0.27697   0.03798  -0.03508
  18   33407.3    299.3   0.000102231   0.00101  -0.02805   0.01415   0.00453
  19   34697.6    288.2   0.040556156   0.38480  -0.35443  -0.23831  -0.44987
  20   35003.8    285.7   0.162936874   1.53243   1.20691   0.25596  -0.10139
  21   35202.1    284.1   0.047978569   0.44870  -0.25407  -0.25450  -0.56513
  22   35818.8    279.2   0.007948046   0.07305  -0.04141   0.05503   0.26136
  23   35916.7    278.4   0.004988755   0.04573  -0.01177   0.10435   0.18628
  24   36359.3    275.0   0.029348651   0.26573   0.20360   0.10872   0.46094
  25   36707.7    272.4   0.048002567   0.43051  -0.38961  -0.33582  -0.40736
  26   36935.5    270.7   0.150748334   1.34364  -0.57341   0.30595   0.95981
  27   37543.3    266.4   0.044865584   0.39342   0.52897   0.00623  -0.33701
  28   37829.1    264.3   0.007980260   0.06945  -0.20948   0.08785  -0.13360
  29   38224.2    261.6   0.019045465   0.16403  -0.30434  -0.13239  -0.23212
  30   38729.8    258.2   0.051448927   0.43733   0.02408   0.25449   0.60990
  31   38904.7    257.0   0.007390835   0.06254   0.17555  -0.01567  -0.17742
  32   39166.3    255.3   0.165942035   1.39482   0.21233   0.55773   1.01916
  33   39329.4    254.3   0.000682871   0.00572   0.05942   0.02155   0.04148
  34   39475.8    253.3   0.160768297   1.34074  -1.00064  -0.04407   0.58096
  35   39731.5    251.7   0.060201531   0.49883  -0.25585   0.25097   0.60859
  36   40104.2    249.4   0.044517600   0.36544   0.47095  -0.04368  -0.37648
  37   40310.9    248.1   0.127173319   1.03860  -0.76143   0.16352   0.65733

FINAL SINGLE POINT ENERGY     -4748.627776526462

DIPOLE MOMENT
-------------
                                X             Y             Z
Electronic contribution:     57.10547       3.98879       7.52315
Nuclear contribution   :    -62.91512      -4.84914      -5.87886
                        -----------------------------------------
Total Dipole Moment    :     -5.80964      -0.86035       1.64428
                        -----------------------------------------
Magnitude (a.u.)       :      6.09884
Magnitude (Debye)      :     15.50201

Rotational constants in cm-1:     0.001585     0.000485     0.000387
Rotational constants in MHz :    47.522664    14.532849    11.612897

                             ****ORCA TERMINATED NORMALLY****
TOTAL RUN TIME: 0 days 0 hours 8 minutes 30 seconds 842 msec
