                         Program Version 4.2.0 -  RELEASE  -
|  1> # ORCA input file
|  2> # SCF done       -178.629699235723          0.000519658348
|  3> ! CAM-B3LYP def2-SVP def2/J RIJCOSX Grid4 TightSCF
|  4> %maxcore 5000
|  5> %tddft
|  6>     Mode sTDDFT
|  7>     Ethresh 5.0
|  8>     maxcore 5000
|  9> end
| 10>
| 11> %pal
| 12>   nprocs 6
| 13>   end
| 14> * xyz 0 1
| 15>    C       15.60648        13.96026         0.69402
| 16>    S       14.26248        13.62938         1.69717
| 17>    C       13.54692        12.60046         0.47837
| 18>    C       14.34388        12.55621        -0.64805
| 19>    C       15.52293        13.33003        -0.51033
| 20>    C       16.55398        13.49299        -1.59165
| 21>    N       16.51218        14.87747        -2.05207
| 22>    C       16.32900        12.44171        -2.69055
| 23>    C       14.85618        12.35992        -3.07087
| 24>    C       14.04903        11.78387        -1.90251
| 25>    N       14.44682        10.39219        -1.70838
| 26>    C       12.29100        12.00510         0.81417
| 27>    C       11.60399        11.07365         0.12961
| 28>    N       10.39073        10.59276         0.56137
| 29>    C        9.65237         9.65378        -0.06837
| 30>    S       10.21222         8.93622        -1.54541
| 31>    C        8.76896         7.96981        -1.60833
| 32>    N        8.63569         7.10256        -2.68556
| 33>    O        7.63067         6.41381        -2.74823
| 34>    O        9.55040         7.09689        -3.49933
| 35>    C        7.92180         8.19544        -0.55587
| 36>    C        8.40380         9.15920         0.34667
| 37>    C        7.72878         9.60250         1.53814
| 38>    C        6.50892         9.20286         1.94215
| 39>    C        5.89773         9.70834         3.13751
| 40>    C        4.68382         9.40155         3.61675
| 41>    C        3.72300         8.43299         3.00690
| 42>    C        4.14353        10.04483         4.87935
| 43>    N        4.96958        11.08286         5.43094
| 44>    C        5.85228        10.88471         6.41588
| 45>    C        6.77689        11.80725         6.82185
| 46>    C        7.67827        11.66816         7.88900
| 47>    C        7.81596        10.65289         8.80868
| 48>    C        8.74939        10.64043         9.87215
| 49>    C        8.66472         9.55636        10.69685
| 50>    C        7.65489         8.64474        10.32933
| 51>    S        6.83540         9.19494         8.89532
| 52>    C        7.24869         7.47960        10.96101
| 53>    C        7.69101         6.89621        12.16056
| 54>    C        6.96530         5.79795        12.53094
| 55>    C        5.90223         5.47558        11.65918
| 56>    S        5.90349         6.56939        10.30940
| 57>    C        5.03484         4.39666        11.80682
| 58>    C        3.94603         4.02511        11.03818
| 59>    C        3.20887         4.69919        10.06453
| 60>    C        2.51341         3.89607         9.03886
| 61>    O        2.38257         2.68993         9.00701
| 62>    C        2.04271         4.87041         8.02244
| 63>    C        1.43198         4.64657         6.82511
| 64>    C        1.10054         5.75258         6.00524
| 65>    C        1.39786         7.06842         6.46034
| 66>    C        1.06343         8.16622         5.64459
| 67>    C        0.47641         7.96790         4.42644
| 68>    C        0.18722         6.66864         3.97401
| 69>    C        0.48737         5.58259         4.74980
| 70>    F       -0.38439         6.50335         2.76986
| 71>    F        0.18839         9.02492         3.64327
| 72>    C        2.02407         7.26747         7.71357
| 73>    C        2.34475         6.18260         8.48059
| 74>    C        2.97564         6.07626         9.79646
| 75>    C        3.16024         7.14152        10.66355
| 76>    C        3.45663         6.97672        12.02678
| 77>    N        3.67708         6.87667        13.15011
| 78>    C        3.00767         8.48728        10.29659
| 79>    N        2.94930         9.60398        10.02609
| 80>    H       16.38718        14.60746         1.03888
| 81>    H       17.55133        13.34996        -1.15612
| 82>    H       15.60445        15.08906        -2.45296
| 83>    H       17.21227        15.02823        -2.77040
| 84>    H       16.63887        11.46356        -2.32201
| 85>    H       16.93652        12.69486        -3.56250
| 86>    H       14.72974        11.71264        -3.94010
| 87>    H       14.46600        13.34814        -3.32627
| 88>    H       12.97241        11.89477        -2.13915
| 89>    H       14.08454        10.02202        -0.83807
| 90>    H       14.11442         9.81395        -2.47189
| 91>    H       11.87049        12.35679         1.74921
| 92>    H       11.94198        10.63868        -0.79457
| 93>    H       10.02314        10.97697         1.42255
| 94>    H        6.99091         7.66867        -0.45924
| 95>    H        8.25585        10.32266         2.15303
| 96>    H        5.95562         8.49327         1.34916
| 97>    H        6.50623        10.41600         3.68879
| 98>    H        2.84777         8.96035         2.62653
| 99>    H        3.37982         7.72532         3.76216
|100>    H        4.16654         7.87489         2.19013
|101>    H        4.01007         9.26976         5.64184
|102>    H        3.15610        10.46436         4.65379
|103>    H        5.01074        11.95260         4.91785
|104>    H        5.77956         9.92271         6.89898
|105>    H        6.82517        12.74249         6.27830
|106>    H        8.36481        12.49449         8.02986
|107>    H        9.45293        11.44386        10.00536
|108>    H        9.28767         9.39692        11.55812
|109>    H        8.50901         7.30247        12.72775
|110>    H        7.14121         5.23061        13.42718
|111>    H        5.30983         3.71513        12.60262
|112>    H        3.63597         2.98942        11.14767
|113>    H        1.20445         3.64240         6.50135
|114>    H        1.26247         9.17007         5.98592
|115>    H        0.25354         4.59245         4.39136
|116>    H        2.23678         8.27543         8.03183
|117> *
|118>
|119>                          ****END OF INPUT****

CARTESIAN COORDINATES (ANGSTROEM)
---------------------------------
  C     15.606480   13.960260    0.694020
  S     14.262480   13.629380    1.697170
  C     13.546920   12.600460    0.478370
  C     14.343880   12.556210   -0.648050
  C     15.522930   13.330030   -0.510330
  C     16.553980   13.492990   -1.591650
  N     16.512180   14.877470   -2.052070
  C     16.329000   12.441710   -2.690550
  C     14.856180   12.359920   -3.070870
  C     14.049030   11.783870   -1.902510
  N     14.446820   10.392190   -1.708380
  C     12.291000   12.005100    0.814170
  C     11.603990   11.073650    0.129610
  N     10.390730   10.592760    0.561370
  C      9.652370    9.653780   -0.068370
  S     10.212220    8.936220   -1.545410
  C      8.768960    7.969810   -1.608330
  N      8.635690    7.102560   -2.685560
  O      7.630670    6.413810   -2.748230
  O      9.550400    7.096890   -3.499330
  C      7.921800    8.195440   -0.555870
  C      8.403800    9.159200    0.346670
  C      7.728780    9.602500    1.538140
  C      6.508920    9.202860    1.942150
  C      5.897730    9.708340    3.137510
  C      4.683820    9.401550    3.616750
  C      3.723000    8.432990    3.006900
  C      4.143530   10.044830    4.879350
  N      4.969580   11.082860    5.430940
  C      5.852280   10.884710    6.415880
  C      6.776890   11.807250    6.821850
  C      7.678270   11.668160    7.889000
  C      7.815960   10.652890    8.808680
  C      8.749390   10.640430    9.872150
  C      8.664720    9.556360   10.696850
  C      7.654890    8.644740   10.329330
  S      6.835400    9.194940    8.895320
  C      7.248690    7.479600   10.961010
  C      7.691010    6.896210   12.160560
  C      6.965300    5.797950   12.530940
  C      5.902230    5.475580   11.659180
  S      5.903490    6.569390   10.309400
  C      5.034840    4.396660   11.806820
  C      3.946030    4.025110   11.038180
  C      3.208870    4.699190   10.064530
  C      2.513410    3.896070    9.038860
  O      2.382570    2.689930    9.007010
  C      2.042710    4.870410    8.022440
  C      1.431980    4.646570    6.825110
  C      1.100540    5.752580    6.005240
  C      1.397860    7.068420    6.460340
  C      1.063430    8.166220    5.644590
  C      0.476410    7.967900    4.426440
  C      0.187220    6.668640    3.974010
  C      0.487370    5.582590    4.749800
  F     -0.384390    6.503350    2.769860
  F      0.188390    9.024920    3.643270
  C      2.024070    7.267470    7.713570
  C      2.344750    6.182600    8.480590
  C      2.975640    6.076260    9.796460
  C      3.160240    7.141520   10.663550
  C      3.456630    6.976720   12.026780
  N      3.677080    6.876670   13.150110
  C      3.007670    8.487280   10.296590
  N      2.949300    9.603980   10.026090
  H     16.387180   14.607460    1.038880
  H     17.551330   13.349960   -1.156120
  H     15.604450   15.089060   -2.452960
  H     17.212270   15.028230   -2.770400
  H     16.638870   11.463560   -2.322010
  H     16.936520   12.694860   -3.562500
  H     14.729740   11.712640   -3.940100
  H     14.466000   13.348140   -3.326270
  H     12.972410   11.894770   -2.139150
  H     14.084540   10.022020   -0.838070
  H     14.114420    9.813950   -2.471890
  H     11.870490   12.356790    1.749210
  H     11.941980   10.638680   -0.794570
  H     10.023140   10.976970    1.422550
  H      6.990910    7.668670   -0.459240
  H      8.255850   10.322660    2.153030
  H      5.955620    8.493270    1.349160
  H      6.506230   10.416000    3.688790
  H      2.847770    8.960350    2.626530
  H      3.379820    7.725320    3.762160
  H      4.166540    7.874890    2.190130
  H      4.010070    9.269760    5.641840
  H      3.156100   10.464360    4.653790
  H      5.010740   11.952600    4.917850
  H      5.779560    9.922710    6.898980
  H      6.825170   12.742490    6.278300
  H      8.364810   12.494490    8.029860
  H      9.452930   11.443860   10.005360
  H      9.287670    9.396920   11.558120
  H      8.509010    7.302470   12.727750
  H      7.141210    5.230610   13.427180
  H      5.309830    3.715130   12.602620
  H      3.635970    2.989420   11.147670
  H      1.204450    3.642400    6.501350
  H      1.262470    9.170070    5.985920
  H      0.253540    4.592450    4.391360
  H      2.236780    8.275430    8.031830

 Total Charge           Charge          ....    0
 Multiplicity           Mult            ....    1
 Number of Electrons    NEL             ....  486
 Basis Dimension        Dim             .... 1111

ORBITAL ENERGIES
----------------

  NO   OCC          E(Eh)            E(eV)
   0   2.0000     -88.984385     -2421.3882
   1   2.0000     -88.965478     -2420.8737
   2   2.0000     -88.958917     -2420.6952
   3   2.0000     -88.951911     -2420.5046
   4   2.0000     -24.797063      -674.7624
   5   2.0000     -24.790906      -674.5948
   6   2.0000     -19.230809      -523.2969
   7   2.0000     -19.230442      -523.2869
   8   2.0000     -19.189947      -522.1850
   9   2.0000     -14.642704      -398.4482
  10   2.0000     -14.486819      -394.2064
  11   2.0000     -14.476392      -393.9227
  12   2.0000     -14.392690      -391.6450
  13   2.0000     -14.392101      -391.6290
  14   2.0000     -14.386311      -391.4714
  15   2.0000     -14.379600      -391.2888
  16   2.0000     -10.373702      -282.2828
  17   2.0000     -10.372357      -282.2462
  18   2.0000     -10.371939      -282.2348
  19   2.0000     -10.354635      -281.7640
  20   2.0000     -10.340706      -281.3849
  21   2.0000     -10.337202      -281.2896
  22   2.0000     -10.336982      -281.2836
  23   2.0000     -10.336934      -281.2823
  24   2.0000     -10.334417      -281.2138
  25   2.0000     -10.317230      -280.7461
  26   2.0000     -10.316571      -280.7282
  27   2.0000     -10.313657      -280.6489
  28   2.0000     -10.310611      -280.5660
  29   2.0000     -10.308851      -280.5181
  30   2.0000     -10.307293      -280.4757
  31   2.0000     -10.307257      -280.4747
  32   2.0000     -10.306668      -280.4587
  33   2.0000     -10.303051      -280.3603
  34   2.0000     -10.301137      -280.3082
  35   2.0000     -10.298825      -280.2453
  36   2.0000     -10.298408      -280.2339
  37   2.0000     -10.298086      -280.2252
  38   2.0000     -10.297725      -280.2153
  39   2.0000     -10.297275      -280.2031
  40   2.0000     -10.297194      -280.2009
  41   2.0000     -10.295526      -280.1555
  42   2.0000     -10.293962      -280.1130
  43   2.0000     -10.293148      -280.0908
  44   2.0000     -10.292414      -280.0708
  45   2.0000     -10.291777      -280.0535
  46   2.0000     -10.289920      -280.0030
  47   2.0000     -10.289555      -279.9930
  48   2.0000     -10.288745      -279.9710
  49   2.0000     -10.287463      -279.9361
  50   2.0000     -10.285907      -279.8938
  51   2.0000     -10.285795      -279.8907
  52   2.0000     -10.284351      -279.8514
  53   2.0000     -10.283675      -279.8330
  54   2.0000     -10.282791      -279.8090
  55   2.0000     -10.282085      -279.7898
  56   2.0000     -10.278927      -279.7038
  57   2.0000     -10.276690      -279.6429
  58   2.0000     -10.274577      -279.5854
  59   2.0000     -10.273043      -279.5437
  60   2.0000     -10.270885      -279.4850
  61   2.0000     -10.266982      -279.3788
  62   2.0000     -10.264783      -279.3190
  63   2.0000     -10.262628      -279.2603
  64   2.0000     -10.250849      -278.9398
  65   2.0000      -8.079669      -219.8590
  66   2.0000      -8.061269      -219.3583
  67   2.0000      -8.053616      -219.1500
  68   2.0000      -8.048014      -218.9976
  69   2.0000      -6.049413      -164.6129
  70   2.0000      -6.045072      -164.4948
  71   2.0000      -6.040967      -164.3831
  72   2.0000      -6.030887      -164.1088
  73   2.0000      -6.026814      -163.9980
  74   2.0000      -6.022964      -163.8932
  75   2.0000      -6.022526      -163.8813
  76   2.0000      -6.018751      -163.7785
  77   2.0000      -6.017183      -163.7359
  78   2.0000      -6.015671      -163.6947
  79   2.0000      -6.013070      -163.6239
  80   2.0000      -6.010345      -163.5498
  81   2.0000      -1.314879       -35.7797
  82   2.0000      -1.310046       -35.6482
  83   2.0000      -1.299828       -35.3701
  84   2.0000      -1.129000       -30.7216
  85   2.0000      -1.103779       -30.0354
  86   2.0000      -1.093936       -29.7675
  87   2.0000      -1.075094       -29.2548
  88   2.0000      -1.008245       -27.4357
  89   2.0000      -1.003511       -27.3069
  90   2.0000      -0.998729       -27.1768
  91   2.0000      -0.997632       -27.1470
  92   2.0000      -0.987280       -26.8653
  93   2.0000      -0.980761       -26.6879
  94   2.0000      -0.969124       -26.3712
  95   2.0000      -0.968299       -26.3488
  96   2.0000      -0.961702       -26.1692
  97   2.0000      -0.961080       -26.1523
  98   2.0000      -0.938642       -25.5417
  99   2.0000      -0.922719       -25.1085
 100   2.0000      -0.914924       -24.8963
 101   2.0000      -0.910732       -24.7823
 102   2.0000      -0.897114       -24.4117
 103   2.0000      -0.889695       -24.2098
 104   2.0000      -0.882790       -24.0219
 105   2.0000      -0.875247       -23.8167
 106   2.0000      -0.871646       -23.7187
 107   2.0000      -0.868319       -23.6282
 108   2.0000      -0.864174       -23.5154
 109   2.0000      -0.855817       -23.2880
 110   2.0000      -0.845721       -23.0132
 111   2.0000      -0.832605       -22.6563
 112   2.0000      -0.829495       -22.5717
 113   2.0000      -0.826046       -22.4779
 114   2.0000      -0.822858       -22.3911
 115   2.0000      -0.820000       -22.3133
 116   2.0000      -0.809170       -22.0186
 117   2.0000      -0.795430       -21.6447
 118   2.0000      -0.788024       -21.4432
 119   2.0000      -0.781013       -21.2525
 120   2.0000      -0.765249       -20.8235
 121   2.0000      -0.753931       -20.5155
 122   2.0000      -0.745502       -20.2861
 123   2.0000      -0.744100       -20.2480
 124   2.0000      -0.729911       -19.8619
 125   2.0000      -0.725967       -19.7546
 126   2.0000      -0.716069       -19.4852
 127   2.0000      -0.708745       -19.2859
 128   2.0000      -0.700265       -19.0552
 129   2.0000      -0.699469       -19.0335
 130   2.0000      -0.690798       -18.7976
 131   2.0000      -0.677342       -18.4314
 132   2.0000      -0.674186       -18.3455
 133   2.0000      -0.667119       -18.1532
 134   2.0000      -0.661349       -17.9962
 135   2.0000      -0.656480       -17.8637
 136   2.0000      -0.652156       -17.7461
 137   2.0000      -0.644518       -17.5382
 138   2.0000      -0.641364       -17.4524
 139   2.0000      -0.639191       -17.3933
 140   2.0000      -0.637258       -17.3407
 141   2.0000      -0.630668       -17.1613
 142   2.0000      -0.626773       -17.0554
 143   2.0000      -0.624309       -16.9883
 144   2.0000      -0.623987       -16.9796
 145   2.0000      -0.618731       -16.8365
 146   2.0000      -0.612686       -16.6720
 147   2.0000      -0.602821       -16.4036
 148   2.0000      -0.601674       -16.3724
 149   2.0000      -0.597322       -16.2540
 150   2.0000      -0.593561       -16.1516
 151   2.0000      -0.590539       -16.0694
 152   2.0000      -0.585606       -15.9351
 153   2.0000      -0.582506       -15.8508
 154   2.0000      -0.580365       -15.7925
 155   2.0000      -0.575456       -15.6590
 156   2.0000      -0.570759       -15.5311
 157   2.0000      -0.564558       -15.3624
 158   2.0000      -0.564040       -15.3483
 159   2.0000      -0.562188       -15.2979
 160   2.0000      -0.559277       -15.2187
 161   2.0000      -0.558519       -15.1981
 162   2.0000      -0.545966       -14.8565
 163   2.0000      -0.545735       -14.8502
 164   2.0000      -0.544934       -14.8284
 165   2.0000      -0.543235       -14.7822
 166   2.0000      -0.542682       -14.7671
 167   2.0000      -0.538574       -14.6553
 168   2.0000      -0.536426       -14.5969
 169   2.0000      -0.530179       -14.4269
 170   2.0000      -0.529036       -14.3958
 171   2.0000      -0.520687       -14.1686
 172   2.0000      -0.519828       -14.1452
 173   2.0000      -0.518504       -14.1092
 174   2.0000      -0.515630       -14.0310
 175   2.0000      -0.513276       -13.9669
 176   2.0000      -0.509424       -13.8621
 177   2.0000      -0.506548       -13.7839
 178   2.0000      -0.506365       -13.7789
 179   2.0000      -0.503451       -13.6996
 180   2.0000      -0.498082       -13.5535
 181   2.0000      -0.495717       -13.4892
 182   2.0000      -0.493689       -13.4340
 183   2.0000      -0.489420       -13.3178
 184   2.0000      -0.488118       -13.2824
 185   2.0000      -0.488037       -13.2802
 186   2.0000      -0.487243       -13.2585
 187   2.0000      -0.485029       -13.1983
 188   2.0000      -0.483330       -13.1521
 189   2.0000      -0.477840       -13.0027
 190   2.0000      -0.476336       -12.9618
 191   2.0000      -0.474105       -12.9010
 192   2.0000      -0.471212       -12.8223
 193   2.0000      -0.470656       -12.8072
 194   2.0000      -0.465843       -12.6762
 195   2.0000      -0.463514       -12.6129
 196   2.0000      -0.461883       -12.5685
 197   2.0000      -0.458269       -12.4701
 198   2.0000      -0.456798       -12.4301
 199   2.0000      -0.454522       -12.3682
 200   2.0000      -0.450943       -12.2708
 201   2.0000      -0.449210       -12.2236
 202   2.0000      -0.448086       -12.1930
 203   2.0000      -0.442904       -12.0520
 204   2.0000      -0.437586       -11.9073
 205   2.0000      -0.434901       -11.8342
 206   2.0000      -0.433542       -11.7973
 207   2.0000      -0.430612       -11.7175
 208   2.0000      -0.426967       -11.6184
 209   2.0000      -0.422272       -11.4906
 210   2.0000      -0.420154       -11.4330
 211   2.0000      -0.416460       -11.3325
 212   2.0000      -0.415234       -11.2991
 213   2.0000      -0.411869       -11.2075
 214   2.0000      -0.411370       -11.1939
 215   2.0000      -0.407168       -11.0796
 216   2.0000      -0.402499       -10.9525
 217   2.0000      -0.397151       -10.8070
 218   2.0000      -0.395137       -10.7522
 219   2.0000      -0.393499       -10.7077
 220   2.0000      -0.387488       -10.5441
 221   2.0000      -0.381070       -10.3695
 222   2.0000      -0.379720       -10.3327
 223   2.0000      -0.376681       -10.2500
 224   2.0000      -0.372868       -10.1463
 225   2.0000      -0.370326       -10.0771
 226   2.0000      -0.359787        -9.7903
 227   2.0000      -0.359682        -9.7874
 228   2.0000      -0.351815        -9.5734
 229   2.0000      -0.347117        -9.4455
 230   2.0000      -0.330176        -8.9846
 231   2.0000      -0.323158        -8.7936
 232   2.0000      -0.321077        -8.7370
 233   2.0000      -0.314735        -8.5644
 234   2.0000      -0.313677        -8.5356
 235   2.0000      -0.312231        -8.4962
 236   2.0000      -0.303316        -8.2536
 237   2.0000      -0.300414        -8.1747
 238   2.0000      -0.285677        -7.7737
 239   2.0000      -0.283634        -7.7181
 240   2.0000      -0.271940        -7.3999
 241   2.0000      -0.245239        -6.6733
 242   2.0000      -0.223045        -6.0694
 243   0.0000      -0.096499        -2.6259
 244   0.0000      -0.055226        -1.5028
 245   0.0000      -0.046245        -1.2584
 246   0.0000      -0.037396        -1.0176
 247   0.0000      -0.031986        -0.8704

MULLIKEN ATOMIC CHARGES
-----------------------
   0 C :   -0.108293
   1 S :    0.098897
   2 C :   -0.174679
   3 C :   -0.014954
   4 C :   -0.015299
   5 C :    0.068162
   6 N :   -0.182753
   7 C :    0.093469
   8 C :    0.062591
   9 C :    0.032257
  10 N :   -0.169571
  11 C :    0.045977
  12 C :    0.033028
  13 N :   -0.026573
  14 C :   -0.107949
  15 S :    0.124009
  16 C :   -0.005808
  17 N :    0.281766
  18 O :   -0.259619
  19 O :   -0.277974
  20 C :    0.010178
  21 C :    0.129293
  22 C :   -0.038633
  23 C :    0.016007
  24 C :    0.006084
  25 C :   -0.207251
  26 C :    0.089456
  27 C :    0.174637
  28 N :   -0.125038
  29 C :    0.095502
  30 C :   -0.049210
  31 C :    0.045703
  32 C :   -0.058959
  33 C :    0.059519
  34 C :    0.005403
  35 C :    0.016064
  36 S :    0.063657
  37 C :   -0.071168
  38 C :    0.040368
  39 C :    0.049157
  40 C :   -0.041181
  41 S :    0.123292
  42 C :    0.005558
  43 C :    0.024227
  44 C :   -0.158621
  45 C :    0.134403
  46 O :   -0.157211
  47 C :    0.022030
  48 C :   -0.102244
  49 C :    0.117212
  50 C :    0.124277
  51 C :   -0.134288
  52 C :    0.229347
  53 C :    0.239770
  54 C :   -0.113905
  55 F :   -0.178829
  56 F :   -0.184859
  57 C :   -0.123795
  58 C :    0.053273
  59 C :    0.291956
  60 C :   -0.381455
  61 C :   -0.210189
  62 N :    0.149579
  63 C :   -0.164732
  64 N :    0.106979
  65 H :    0.015014
  66 H :   -0.008037
  67 H :    0.081050
  68 H :    0.087061
  69 H :    0.006385
  70 H :   -0.018676
  71 H :   -0.007747
  72 H :   -0.016924
  73 H :   -0.008372
  74 H :    0.093852
  75 H :    0.096868
  76 H :   -0.030290
  77 H :    0.015753
  78 H :    0.132711
  79 H :    0.006387
  80 H :   -0.047809
  81 H :   -0.016933
  82 H :   -0.039148
  83 H :    0.039499
  84 H :    0.033124
  85 H :    0.013451
  86 H :    0.044666
  87 H :    0.036591
  88 H :    0.132463
  89 H :    0.038019
  90 H :   -0.022152
  91 H :    0.000932
  92 H :   -0.003518
  93 H :   -0.008474
  94 H :   -0.012741
  95 H :   -0.011612
  96 H :   -0.007167
  97 H :    0.017853
  98 H :   -0.016291
  99 H :   -0.006368
 100 H :   -0.003623
 101 H :   -0.023846
Sum of atomic charges:   -0.0000000

LOEWDIN ATOMIC CHARGES
----------------------
   0 C :   -0.175861
   1 S :    0.427565
   2 C :   -0.181087
   3 C :   -0.062299
   4 C :   -0.060715
   5 C :    0.019740
   6 N :   -0.103157
   7 C :   -0.042008
   8 C :   -0.029949
   9 C :    0.016918
  10 N :   -0.097732
  11 C :   -0.082739
  12 C :    0.003744
  13 N :    0.039210
  14 C :   -0.092128
  15 S :    0.444469
  16 C :   -0.217840
  17 N :    0.274522
  18 O :   -0.225882
  19 O :   -0.244598
  20 C :    0.008912
  21 C :   -0.116383
  22 C :   -0.029672
  23 C :   -0.023985
  24 C :   -0.058759
  25 C :   -0.039604
  26 C :   -0.047024
  27 C :    0.042492
  28 N :    0.045732
  29 C :    0.086503
  30 C :   -0.140525
  31 C :    0.014220
  32 C :   -0.193351
  33 C :    0.007253
  34 C :   -0.066533
  35 C :   -0.121703
  36 S :    0.404820
  37 C :   -0.217557
  38 C :   -0.017080
  39 C :   -0.045197
  40 C :   -0.113139
  41 S :    0.478466
  42 C :   -0.075230
  43 C :    0.031929
  44 C :   -0.126969
  45 C :    0.078552
  46 O :   -0.159243
  47 C :   -0.045435
  48 C :    0.019831
  49 C :   -0.015592
  50 C :   -0.011221
  51 C :   -0.045098
  52 C :    0.057318
  53 C :    0.056262
  54 C :   -0.031554
  55 F :   -0.057284
  56 F :   -0.060978
  57 C :   -0.014034
  58 C :   -0.006024
  59 C :    0.028915
  60 C :   -0.186371
  61 C :   -0.028482
  62 N :   -0.069947
  63 C :   -0.019880
  64 N :   -0.093883
  65 H :    0.024805
  66 H :    0.026324
  67 H :    0.047160
  68 H :    0.050469
  69 H :    0.024788
  70 H :    0.015506
  71 H :    0.022698
  72 H :    0.013715
  73 H :    0.003916
  74 H :    0.050565
  75 H :    0.056285
  76 H :    0.024310
  77 H :    0.013718
  78 H :    0.092797
  79 H :    0.043141
  80 H :    0.017348
  81 H :    0.024842
  82 H :    0.018220
  83 H :    0.038729
  84 H :    0.038018
  85 H :    0.031729
  86 H :    0.040347
  87 H :    0.035419
  88 H :    0.087445
  89 H :    0.019293
  90 H :    0.026490
  91 H :    0.043111
  92 H :    0.037232
  93 H :    0.034224
  94 H :    0.033214
  95 H :    0.034940
  96 H :    0.038813
  97 H :    0.043428
  98 H :    0.037584
  99 H :    0.039143
 100 H :    0.043826
 101 H :    0.032763

  Mayer bond orders larger than 0.100000
B(  0-C ,  1-S ) :   1.1570 B(  0-C ,  4-C ) :   1.5726 B(  0-C , 65-H ) :   0.9643
B(  1-S ,  2-C ) :   1.1309 B(  2-C ,  3-C ) :   1.5196 B(  2-C , 11-C ) :   1.1402
B(  3-C ,  4-C ) :   1.3326 B(  3-C ,  9-C ) :   0.9976 B(  4-C ,  5-C ) :   0.9800
B(  5-C ,  6-N ) :   1.1100 B(  5-C ,  7-C ) :   1.0549 B(  5-C , 66-H ) :   0.9009
B(  6-N , 67-H ) :   0.9713 B(  6-N , 68-H ) :   0.9716 B(  7-C ,  8-C ) :   1.0433
B(  7-C , 69-H ) :   0.9177 B(  7-C , 70-H ) :   0.9329 B(  8-C ,  9-C ) :   1.0683
B(  8-C , 71-H ) :   0.9276 B(  8-C , 72-H ) :   0.9370 B(  9-C , 10-N ) :   1.0967
B(  9-C , 73-H ) :   0.8944 B( 10-N , 74-H ) :   0.9700 B( 10-N , 75-H ) :   0.9663
B( 11-C , 12-C ) :   1.7036 B( 11-C , 76-H ) :   0.9399 B( 12-C , 13-N ) :   1.0886
B( 12-C , 77-H ) :   0.9451 B( 13-N , 14-C ) :   1.2568 B( 13-N , 78-H ) :   0.9166
B( 14-C , 15-S ) :   1.1322 B( 14-C , 21-C ) :   1.3317 B( 15-S , 16-C ) :   1.0544
B( 16-C , 17-N ) :   0.9930 B( 16-C , 20-C ) :   1.4843 B( 17-N , 18-O ) :   1.5186
B( 17-N , 19-O ) :   1.4958 B( 18-O , 19-O ) :   0.2495 B( 20-C , 21-C ) :   1.2428
B( 20-C , 79-H ) :   0.9998 B( 21-C , 22-C ) :   1.0403 B( 22-C , 23-C ) :   1.7529
B( 22-C , 80-H ) :   0.9769 B( 23-C , 24-C ) :   1.0943 B( 23-C , 81-H ) :   0.9750
B( 24-C , 25-C ) :   1.7811 B( 24-C , 82-H ) :   0.9608 B( 25-C , 26-C ) :   1.0863
B( 25-C , 27-C ) :   0.9952 B( 26-C , 83-H ) :   0.9449 B( 26-C , 84-H ) :   0.9487
B( 26-C , 85-H ) :   0.9471 B( 27-C , 28-N ) :   1.0165 B( 27-C , 86-H ) :   0.9244
B( 27-C , 87-H ) :   0.9355 B( 28-N , 29-C ) :   1.3140 B( 28-N , 88-H ) :   0.9364
B( 29-C , 30-C ) :   1.4781 B( 29-C , 89-H ) :   0.9459 B( 30-C , 31-C ) :   1.2931
B( 30-C , 90-H ) :   0.9613 B( 31-C , 32-C ) :   1.5081 B( 31-C , 91-H ) :   0.9602
B( 32-C , 33-C ) :   1.2005 B( 32-C , 36-S ) :   1.0183 B( 33-C , 34-C ) :   1.5257
B( 33-C , 92-H ) :   0.9974 B( 34-C , 35-C ) :   1.2386 B( 34-C , 93-H ) :   0.9953
B( 35-C , 36-S ) :   1.1088 B( 35-C , 37-C ) :   1.3999 B( 37-C , 38-C ) :   1.2493
B( 37-C , 41-S ) :   1.0441 B( 38-C , 39-C ) :   1.5121 B( 38-C , 94-H ) :   0.9924
B( 39-C , 40-C ) :   1.2261 B( 39-C , 95-H ) :   0.9969 B( 40-C , 41-S ) :   1.1451
B( 40-C , 42-C ) :   1.3462 B( 42-C , 43-C ) :   1.4400 B( 42-C , 96-H ) :   0.9561
B( 43-C , 44-C ) :   1.3543 B( 43-C , 97-H ) :   0.9334 B( 44-C , 45-C ) :   0.9833
B( 44-C , 59-C ) :   1.1982 B( 45-C , 46-O ) :   2.2523 B( 45-C , 47-C ) :   0.9022
B( 47-C , 48-C ) :   1.4914 B( 47-C , 58-C ) :   1.2221 B( 48-C , 49-C ) :   1.1684
B( 48-C , 98-H ) :   1.0172 B( 49-C , 50-C ) :   1.2723 B( 49-C , 54-C ) :   1.1961
B( 50-C , 51-C ) :   1.1941 B( 50-C , 57-C ) :   1.1845 B( 51-C , 52-C ) :   1.4253
B( 51-C , 54-C ) :   0.1102 B( 51-C , 99-H ) :   1.0035 B( 52-C , 53-C ) :   1.2086
B( 52-C , 56-F ) :   1.1081 B( 53-C , 54-C ) :   1.4321 B( 53-C , 55-F ) :   1.1283
B( 54-C ,100-H ) :   1.0086 B( 57-C , 58-C ) :   1.4779 B( 57-C ,101-H ) :   0.9912
B( 58-C , 59-C ) :   0.9864 B( 59-C , 60-C ) :   1.4927 B( 60-C , 61-C ) :   1.1710
B( 60-C , 63-C ) :   1.1548 B( 61-C , 62-N ) :   3.0023 B( 63-C , 64-N ) :   2.9422

-----------------------------------------------------------------------------
         ABSORPTION SPECTRUM VIA TRANSITION ELECTRIC DIPOLE MOMENTS
-----------------------------------------------------------------------------
State   Energy  Wavelength   fosc         T2         TX        TY        TZ
        (cm-1)    (nm)                  (au**2)     (au)      (au)      (au)
-----------------------------------------------------------------------------
   0   12073.9    828.2   0.484951986  13.22286  -2.20219  -2.52865   1.40684
   1   21018.6    475.8   0.009383952   0.14698  -0.07398  -0.36875  -0.07435
   2   21591.7    463.1   0.020598216   0.31406   0.11012  -0.21431   0.50597
   3   22819.3    438.2   0.200347161   2.89039  -0.51091   1.46808  -0.68856
   4   24358.9    410.5   0.013418014   0.18135   0.20152  -0.30942   0.21212
   5   24642.5    405.8   0.747649097   9.98823  -1.81989  -2.26620  -1.24119
   6   25461.2    392.8   0.791244135  10.23073  -1.43617   1.17659  -2.60457
   7   27720.6    360.7   0.003731938   0.04432  -0.15608  -0.13419  -0.04419
   8   28719.1    348.2   0.028359660   0.32509  -0.09169   0.23959  -0.50920
   9   29087.0    343.8   0.060009877   0.67920  -0.08149  -0.37612   0.72876
  10   29531.5    338.6   0.079045322   0.88118   0.89054  -0.10537  -0.27752
  11   29647.3    337.3   0.016332751   0.18136   0.18587  -0.26322  -0.27845
  12   29743.0    336.2   0.029175031   0.32293  -0.16655   0.35657  -0.40994
  13   29902.7    334.4   0.787640809   8.67147   2.64984   0.47026  -1.19526
  14   31260.3    319.9   0.167696845   1.76607   1.04337   0.40142   0.71855
  15   31489.3    317.6   0.021181653   0.22145   0.17162   0.43398   0.06044
  16   32432.3    308.3   0.581329674   5.90093   1.38415   0.46860   1.94048
  17   33075.5    302.3   0.209258035   2.08282   1.04845   0.35615   0.92559
  18   33302.1    300.3   0.000028490   0.00028  -0.00598  -0.01530   0.00345
  19   33573.0    297.9   0.077163948   0.75666   0.07983   0.22908  -0.83535
  20   33751.7    296.3   0.013691347   0.13354   0.18254  -0.08629   0.30459
  21   33814.9    295.7   0.005830412   0.05676  -0.05657  -0.08964  -0.21337
  22   34044.2    293.7   0.025809752   0.24958  -0.21579  -0.41571  -0.17379
  23   34884.8    286.7   0.174629566   1.64800   0.57845  -0.24190   1.12021
  24   35705.3    280.1   0.064048870   0.59055   0.26886   0.01555   0.71974
  25   35917.7    278.4   0.033879938   0.31053   0.00008   0.03322  -0.55626
  26   36178.0    276.4   0.195909478   1.78274  -0.78946  -0.80017  -0.72056
  27   37454.3    267.0   0.000668595   0.00588   0.01190  -0.07558  -0.00473
  28   37847.4    264.2   0.027771098   0.24156  -0.33107  -0.36207  -0.02934
  29   38197.9    261.8   0.028154289   0.24265   0.28012   0.37827   0.14524
  30   38304.3    261.1   0.150568920   1.29409   0.38842   1.06835   0.04299
  31   38379.0    260.6   0.029198884   0.25047   0.39343   0.30707  -0.03723
  32   38670.5    258.6   0.001540651   0.01312   0.04725  -0.01778  -0.10280
  33   38792.3    257.8   0.000046581   0.00040  -0.00145   0.01565   0.01218
  34   38850.4    257.4   0.000047800   0.00041  -0.00519   0.00188   0.01935
  35   39073.3    255.9   0.067236642   0.56650   0.55574   0.49792   0.09863
  36   39132.4    255.5   0.048721931   0.40989  -0.11070  -0.53684  -0.33081
  37   39564.1    252.8   0.033919605   0.28224  -0.12391   0.50736  -0.09737
  38   39707.1    251.8   0.002706188   0.02244   0.12619  -0.07810   0.02033
  39   39830.4    251.1   0.001841625   0.01522  -0.11909  -0.00325  -0.03207
  40   40311.6    248.1   0.185687929   1.51646   0.15926  -1.21931  -0.06608

FINAL SINGLE POINT ENERGY     -4286.795574306127

DIPOLE MOMENT
-------------
                                X             Y             Z
Electronic contribution:    -66.71961     -36.89034      40.33632
Nuclear contribution   :     69.63553      40.40227     -41.32160
                        -----------------------------------------
Total Dipole Moment    :      2.91593       3.51193      -0.98528
                        -----------------------------------------
Magnitude (a.u.)       :      4.66980
Magnitude (Debye)      :     11.86970

Rotational constants in cm-1:     0.001373     0.000398     0.000340
Rotational constants in MHz :    41.155487    11.936018    10.193188

                             ****ORCA TERMINATED NORMALLY****
TOTAL RUN TIME: 0 days 0 hours 10 minutes 7 seconds 573 msec
